 Entering Gaussian System, Link 0=g16
 Input=smiles_00072_conf_1.gjf
 Output=smiles_00072_conf_1.log
 Initial command:
 /groups/ReismanLab/Software/Gaussian16_RevC/Linux_Binary_AVX2-enabled-CPU/g16/l1.exe "/central/groups/ReismanLab/DM/dft_final/smiles_00072/Gau-104813.inp" -scrdir="/central/groups/ReismanLab/DM/dft_final/smiles_00072/"
 Entering Link 1 = /groups/ReismanLab/Software/Gaussian16_RevC/Linux_Binary_AVX2-enabled-CPU/g16/l1.exe PID=    104820.
  
 Copyright (c) 1988-2021, Gaussian, Inc.  All Rights Reserved.
  
 This is part of the Gaussian(R) 16 program.  It is based on
 the Gaussian(R) 09 system (copyright 2009, Gaussian, Inc.),
 the Gaussian(R) 03 system (copyright 2003, Gaussian, Inc.),
 the Gaussian(R) 98 system (copyright 1998, Gaussian, Inc.),
 the Gaussian(R) 94 system (copyright 1995, Gaussian, Inc.),
 the Gaussian 92(TM) system (copyright 1992, Gaussian, Inc.),
 the Gaussian 90(TM) system (copyright 1990, Gaussian, Inc.),
 the Gaussian 88(TM) system (copyright 1988, Gaussian, Inc.),
 the Gaussian 86(TM) system (copyright 1986, Carnegie Mellon
 University), and the Gaussian 82(TM) system (copyright 1983,
 Carnegie Mellon University). Gaussian is a federally registered
 trademark of Gaussian, Inc.
  
 This software contains proprietary and confidential information,
 including trade secrets, belonging to Gaussian, Inc.
  
 This software is provided under written license and may be
 used, copied, transmitted, or stored only in accord with that
 written license.
  
 The following legend is applicable only to US Government
 contracts under FAR:
  
                    RESTRICTED RIGHTS LEGEND
  
 Use, reproduction and disclosure by the US Government is
 subject to restrictions as set forth in subparagraphs (a)
 and (c) of the Commercial Computer Software - Restricted
 Rights clause in FAR 52.227-19.
  
 Gaussian, Inc.
 340 Quinnipiac St., Bldg. 40, Wallingford CT 06492
  
  
 ---------------------------------------------------------------
 Warning -- This program may not be used in any manner that
 competes with the business of Gaussian, Inc. or will provide
 assistance to any competitor of Gaussian, Inc.  The licensee
 of this program is prohibited from giving any competitor of
 Gaussian, Inc. access to this program.  By using this program,
 the user acknowledges that Gaussian, Inc. is engaged in the
 business of creating and licensing software in the field of
 computational chemistry and represents and warrants to the
 licensee that it is not a competitor of Gaussian, Inc. and that
 it will not use this program in any manner prohibited above.
 ---------------------------------------------------------------
  

 Cite this work as:
 Gaussian 16, Revision C.02,
 M. J. Frisch, G. W. Trucks, H. B. Schlegel, G. E. Scuseria, 
 M. A. Robb, J. R. Cheeseman, G. Scalmani, V. Barone, 
 G. A. Petersson, H. Nakatsuji, X. Li, M. Caricato, A. V. Marenich, 
 J. Bloino, B. G. Janesko, R. Gomperts, B. Mennucci, H. P. Hratchian, 
 J. V. Ortiz, A. F. Izmaylov, J. L. Sonnenberg, D. Williams-Young, 
 F. Ding, F. Lipparini, F. Egidi, J. Goings, B. Peng, A. Petrone, 
 T. Henderson, D. Ranasinghe, V. G. Zakrzewski, J. Gao, N. Rega, 
 G. Zheng, W. Liang, M. Hada, M. Ehara, K. Toyota, R. Fukuda, 
 J. Hasegawa, M. Ishida, T. Nakajima, Y. Honda, O. Kitao, H. Nakai, 
 T. Vreven, K. Throssell, J. A. Montgomery, Jr., J. E. Peralta, 
 F. Ogliaro, M. J. Bearpark, J. J. Heyd, E. N. Brothers, K. N. Kudin, 
 V. N. Staroverov, T. A. Keith, R. Kobayashi, J. Normand, 
 K. Raghavachari, A. P. Rendell, J. C. Burant, S. S. Iyengar, 
 J. Tomasi, M. Cossi, J. M. Millam, M. Klene, C. Adamo, R. Cammi, 
 J. W. Ochterski, R. L. Martin, K. Morokuma, O. Farkas, 
 J. B. Foresman, and D. J. Fox, Gaussian, Inc., Wallingford CT, 2019.
 
 ******************************************
 Gaussian 16:  ES64L-G16RevC.02  7-Dec-2021
                17-Sep-2024 
 ******************************************
 %nprocshared=8
 Will use up to    8 processors via shared memory.
 %Mem=10GB
 %Chk=smiles_00072_conf_1.chk
 ----------------------------------------------------------------------
 #p B3LYP/6-31G(d,p) EmpiricalDispersion=GD3BJ opt freq scf(xqc,tight) 
 integral(grid=ultrafine)
 ----------------------------------------------------------------------
 1/18=20,19=15,26=4,38=1/1,3;
 2/9=110,12=2,17=6,18=5,40=1/2;
 3/5=1,6=6,7=101,11=2,25=1,30=1,71=1,74=-5,75=-5,124=41/1,2,3;
 4//1;
 5/5=2,8=3,13=1,32=2,38=5/2,8;
 6/7=2,8=2,9=2,10=2,28=1/1;
 7//1,2,3,16;
 1/18=20,19=15,26=4/3(2);
 2/9=110/2;
 99//99;
 2/9=110/2;
 3/5=1,6=6,7=101,11=2,25=1,30=1,71=1,74=-5,75=-5,124=41/1,2,3;
 4/5=5,16=3,69=1/1;
 5/5=2,8=3,13=1,32=2,38=5/2,8;
 7//1,2,3,16;
 1/18=20,19=15,26=4/3(-5);
 2/9=110/2;
 6/7=2,8=2,9=2,10=2,19=2,28=1/1;
 99/9=1/99;
 Leave Link    1 at Tue Sep 17 09:51:44 2024, MaxMem=  1342177280 cpu:               0.1 elap:               0.7
 (Enter /groups/ReismanLab/Software/Gaussian16_RevC/Linux_Binary_AVX2-enabled-CPU/g16/l101.exe)
 ----------------------------------
 opt-freq conformers_unique/conf_ab
 ----------------------------------
 Symbolic Z-matrix:
 Charge =  0 Multiplicity = 1
 O                     3.01852   1.62395   0.00135 
 C                     2.86414   0.43221  -0.00022 
 O                     3.8846   -0.44182  -0.00132 
 C                     1.57554  -0.26394  -0.00074 
 C                     1.27899  -1.60747  -0.00176 
 C                    -0.12418  -1.70718  -0.0014 
 C                    -0.5706   -0.41259  -0.0003 
 Br                   -2.2996    0.26844   0.00071 
 O                     0.43275   0.46137   0.00015 
 H                     4.72602   0.04212  -0.00133 
 H                     1.98844  -2.40856  -0.0026 
 H                    -0.72553  -2.59221  -0.00207 
 
 ITRead=  0  0  0  0  0  0  0  0  0  0  0  0
 MicOpt= -1 -1 -1 -1 -1 -1 -1 -1 -1 -1 -1 -1
 NAtoms=     12 NQM=       12 NQMF=       0 NMMI=      0 NMMIF=      0
                NMic=       0 NMicF=      0.
                    Isotopes and Nuclear Properties:
 (Nuclear quadrupole moments (NQMom) in fm**2, nuclear magnetic moments (NMagM)
  in nuclear magnetons)

  Atom         1           2           3           4           5           6           7           8           9          10
 IAtWgt=          16          12          16          12          12          12          12          79          16           1
 AtmWgt=  15.9949146  12.0000000  15.9949146  12.0000000  12.0000000  12.0000000  12.0000000  78.9183361  15.9949146   1.0078250
 NucSpn=           0           0           0           0           0           0           0           3           0           1
 AtZEff=  -0.0000000  -0.0000000  -0.0000000  -0.0000000  -0.0000000  -0.0000000  -0.0000000  -0.0000000  -0.0000000  -0.0000000
 NQMom=    0.0000000   0.0000000   0.0000000   0.0000000   0.0000000   0.0000000   0.0000000  31.3000000   0.0000000   0.0000000
 NMagM=    0.0000000   0.0000000   0.0000000   0.0000000   0.0000000   0.0000000   0.0000000   2.1063990   0.0000000   2.7928460
 AtZNuc=   8.0000000   6.0000000   8.0000000   6.0000000   6.0000000   6.0000000   6.0000000  35.0000000   8.0000000   1.0000000

  Atom        11          12
 IAtWgt=           1           1
 AtmWgt=   1.0078250   1.0078250
 NucSpn=           1           1
 AtZEff=  -0.0000000  -0.0000000
 NQMom=    0.0000000   0.0000000
 NMagM=    2.7928460   2.7928460
 AtZNuc=   1.0000000   1.0000000
 Leave Link  101 at Tue Sep 17 09:51:44 2024, MaxMem=  1342177280 cpu:               0.2 elap:               0.3
 (Enter /groups/ReismanLab/Software/Gaussian16_RevC/Linux_Binary_AVX2-enabled-CPU/g16/l103.exe)

 GradGradGradGradGradGradGradGradGradGradGradGradGradGradGradGradGradGrad
 Berny optimization.
 Initialization pass.
                           ----------------------------
                           !    Initial Parameters    !
                           ! (Angstroms and Degrees)  !
 --------------------------                            --------------------------
 ! Name  Definition              Value          Derivative Info.                !
 --------------------------------------------------------------------------------
 ! R1    R(1,2)                  1.2017         estimate D2E/DX2                !
 ! R2    R(2,3)                  1.3436         estimate D2E/DX2                !
 ! R3    R(2,4)                  1.4646         estimate D2E/DX2                !
 ! R4    R(3,10)                 0.9707         estimate D2E/DX2                !
 ! R5    R(4,5)                  1.3759         estimate D2E/DX2                !
 ! R6    R(4,9)                  1.3535         estimate D2E/DX2                !
 ! R7    R(5,6)                  1.4067         estimate D2E/DX2                !
 ! R8    R(5,11)                 1.0701         estimate D2E/DX2                !
 ! R9    R(6,7)                  1.3694         estimate D2E/DX2                !
 ! R10   R(6,12)                 1.07           estimate D2E/DX2                !
 ! R11   R(7,8)                  1.8583         estimate D2E/DX2                !
 ! R12   R(7,9)                  1.3306         estimate D2E/DX2                !
 ! A1    A(1,2,3)              123.1995         estimate D2E/DX2                !
 ! A2    A(1,2,4)              125.7606         estimate D2E/DX2                !
 ! A3    A(3,2,4)              111.04           estimate D2E/DX2                !
 ! A4    A(2,3,10)             109.5145         estimate D2E/DX2                !
 ! A5    A(2,4,5)              130.8263         estimate D2E/DX2                !
 ! A6    A(2,4,9)              119.2177         estimate D2E/DX2                !
 ! A7    A(5,4,9)              109.956          estimate D2E/DX2                !
 ! A8    A(4,5,6)              106.5112         estimate D2E/DX2                !
 ! A9    A(4,5,11)             126.0254         estimate D2E/DX2                !
 ! A10   A(6,5,11)             127.4634         estimate D2E/DX2                !
 ! A11   A(5,6,7)              104.9617         estimate D2E/DX2                !
 ! A12   A(5,6,12)             128.2593         estimate D2E/DX2                !
 ! A13   A(7,6,12)             126.7789         estimate D2E/DX2                !
 ! A14   A(6,7,8)              130.5249         estimate D2E/DX2                !
 ! A15   A(6,7,9)              112.031          estimate D2E/DX2                !
 ! A16   A(8,7,9)              117.4441         estimate D2E/DX2                !
 ! A17   A(4,9,7)              106.5401         estimate D2E/DX2                !
 ! D1    D(1,2,3,10)            -0.0434         estimate D2E/DX2                !
 ! D2    D(4,2,3,10)           179.9759         estimate D2E/DX2                !
 ! D3    D(1,2,4,5)           -179.9609         estimate D2E/DX2                !
 ! D4    D(1,2,4,9)              0.023          estimate D2E/DX2                !
 ! D5    D(3,2,4,5)              0.0192         estimate D2E/DX2                !
 ! D6    D(3,2,4,9)           -179.9968         estimate D2E/DX2                !
 ! D7    D(2,4,5,6)            179.9821         estimate D2E/DX2                !
 ! D8    D(2,4,5,11)            -0.015          estimate D2E/DX2                !
 ! D9    D(9,4,5,6)             -0.003          estimate D2E/DX2                !
 ! D10   D(9,4,5,11)           179.9999         estimate D2E/DX2                !
 ! D11   D(2,4,9,7)           -179.9871         estimate D2E/DX2                !
 ! D12   D(5,4,9,7)              0.0            estimate D2E/DX2                !
 ! D13   D(4,5,6,7)              0.0046         estimate D2E/DX2                !
 ! D14   D(4,5,6,12)           179.9917         estimate D2E/DX2                !
 ! D15   D(11,5,6,7)          -179.9983         estimate D2E/DX2                !
 ! D16   D(11,5,6,12)           -0.0113         estimate D2E/DX2                !
 ! D17   D(5,6,7,8)            179.9988         estimate D2E/DX2                !
 ! D18   D(5,6,7,9)             -0.0049         estimate D2E/DX2                !
 ! D19   D(12,6,7,8)             0.0115         estimate D2E/DX2                !
 ! D20   D(12,6,7,9)          -179.9922         estimate D2E/DX2                !
 ! D21   D(6,7,9,4)              0.0031         estimate D2E/DX2                !
 ! D22   D(8,7,9,4)            179.9999         estimate D2E/DX2                !
 --------------------------------------------------------------------------------
 Trust Radius=3.00D-01 FncErr=1.00D-07 GrdErr=1.00D-06 EigMax=2.50D+02 EigMin=1.00D-04
 Number of steps in this run=     61 maximum allowed number of steps=    100.
 GradGradGradGradGradGradGradGradGradGradGradGradGradGradGradGradGradGrad

 Leave Link  103 at Tue Sep 17 09:51:44 2024, MaxMem=  1342177280 cpu:               0.1 elap:               0.0
 (Enter /groups/ReismanLab/Software/Gaussian16_RevC/Linux_Binary_AVX2-enabled-CPU/g16/l202.exe)
                          Input orientation:                          
 ---------------------------------------------------------------------
 Center     Atomic      Atomic             Coordinates (Angstroms)
 Number     Number       Type             X           Y           Z
 ---------------------------------------------------------------------
      1          8           0        3.018517    1.623951    0.001345
      2          6           0        2.864140    0.432213   -0.000224
      3          8           0        3.884597   -0.441819   -0.001316
      4          6           0        1.575536   -0.263940   -0.000743
      5          6           0        1.278993   -1.607468   -0.001761
      6          6           0       -0.124175   -1.707175   -0.001405
      7          6           0       -0.570602   -0.412586   -0.000302
      8         35           0       -2.299604    0.268440    0.000707
      9          8           0        0.432745    0.461371    0.000147
     10          1           0        4.726018    0.042119   -0.001331
     11          1           0        1.988438   -2.408563   -0.002600
     12          1           0       -0.725530   -2.592213   -0.002071
 ---------------------------------------------------------------------
                    Distance matrix (angstroms):
                    1          2          3          4          5
     1  O    0.000000
     2  C    1.201696   0.000000
     3  O    2.239980   1.343602   0.000000
     4  C    2.376200   1.464626   2.315903   0.000000
     5  C    3.669880   2.583213   2.854454   1.375866   0.000000
     6  C    4.579620   3.675189   4.203734   2.229787   1.406707
     7  C    4.126652   3.537108   4.455295   2.151279   2.201987
     8  Br   5.488153   5.166340   6.224855   3.911539   4.040470
     9  O    2.835102   2.431569   3.568058   1.353531   2.235226
    10  H    2.327608   1.902305   0.970662   3.165313   3.821402
    11  H    4.162000   2.972687   2.731941   2.184010   1.070077
    12  H    5.638611   4.693920   5.086990   3.273494   2.233346
                    6          7          8          9         10
     6  C    0.000000
     7  C    1.369401   0.000000
     8  Br   2.938630   1.858291   0.000000
     9  O    2.238919   1.330604   2.739152   0.000000
    10  H    5.156007   5.316102   7.029267   4.313695   0.000000
    11  H    2.226001   3.245398   5.055063   3.264462   3.674260
    12  H    1.070009   2.185126   3.265126   3.265882   6.054674
                   11         12
    11  H    0.000000
    12  H    2.720174   0.000000
 Stoichiometry    C5H3BrO3
 Framework group  C1[X(C5H3BrO3)]
 Deg. of freedom    30
 Full point group                 C1      NOp   1
 Largest Abelian subgroup         C1      NOp   1
 Largest concise Abelian subgroup C1      NOp   1
                         Standard orientation:                         
 ---------------------------------------------------------------------
 Center     Atomic      Atomic             Coordinates (Angstroms)
 Number     Number       Type             X           Y           Z
 ---------------------------------------------------------------------
      1          8           0       -2.857111   -1.674531    0.000353
      2          6           0       -2.706740   -0.482280   -0.000082
      3          8           0       -3.730130    0.388317   -0.000120
      4          6           0       -1.420484    0.218200   -0.000175
      5          6           0       -1.128459    1.562718    0.000061
      6          6           0        0.274367    1.667140    0.000238
      7          6           0        0.725142    0.374059   -0.000012
      8         35           0        2.456424   -0.301153   -0.000009
      9          8           0       -0.275262   -0.503267   -0.000219
     10          1           0       -4.569919   -0.098446   -0.000442
     11          1           0       -1.840592    2.361424    0.000143
     12          1           0        0.872743    2.554194    0.000318
 ---------------------------------------------------------------------
 Rotational constants (GHZ):           3.6604687           0.5123291           0.4494262
 Leave Link  202 at Tue Sep 17 09:51:44 2024, MaxMem=  1342177280 cpu:               0.0 elap:               0.0
 (Enter /groups/ReismanLab/Software/Gaussian16_RevC/Linux_Binary_AVX2-enabled-CPU/g16/l301.exe)
 Standard basis: 6-31G(d,p) (6D, 7F)
 Ernie: Thresh=  0.10000D-02 Tol=  0.10000D-05 Strict=F.
 There are   165 symmetry adapted cartesian basis functions of A   symmetry.
 There are   165 symmetry adapted basis functions of A   symmetry.
   165 basis functions,   328 primitive gaussians,   165 cartesian basis functions
    46 alpha electrons       46 beta electrons
       nuclear repulsion energy       633.1675985776 Hartrees.
 IExCor=  402 DFT=T Ex+Corr=B3LYP ExCW=0 ScaHFX=  0.200000
 ScaDFX=  0.800000  0.720000  1.000000  0.810000 ScalE2=  1.000000  1.000000
 IRadAn=      5 IRanWt=     -1 IRanGd=            0 ICorTp=0 IEmpDi=141
 NAtoms=   12 NActive=   12 NUniq=   12 SFac= 1.00D+00 NAtFMM=   60 NAOKFM=F Big=F
 Integral buffers will be    131072 words long.
 Raffenetti 2 integral format.
 Two-electron integral symmetry is turned on.
 R6Disp:  Grimme-D3(BJ) Dispersion energy=       -0.0212789479 Hartrees.
 Nuclear repulsion after empirical dispersion term =      633.1463196297 Hartrees.
 Leave Link  301 at Tue Sep 17 09:51:44 2024, MaxMem=  1342177280 cpu:               0.1 elap:               0.0
 (Enter /groups/ReismanLab/Software/Gaussian16_RevC/Linux_Binary_AVX2-enabled-CPU/g16/l302.exe)
 NPDir=0 NMtPBC=     1 NCelOv=     1 NCel=       1 NClECP=     1 NCelD=      1
         NCelK=      1 NCelE2=     1 NClLst=     1 CellRange=     0.0.
 One-electron integrals computed using PRISM.
 One-electron integral symmetry used in STVInt
 NBasis=   165 RedAO= T EigKep=  7.19D-04  NBF=   165
 NBsUse=   165 1.00D-06 EigRej= -1.00D+00 NBFU=   165
 Precomputing XC quadrature grid using
 IXCGrd= 4 IRadAn=           5 IRanWt=          -1 IRanGd=           0 AccXCQ= 0.00D+00.
 Generated NRdTot=       0 NPtTot=           0 NUsed=           0 NTot=          32
 NSgBfM=   164   164   164   164   164 MxSgAt=    12 MxSgA2=    12.
 Leave Link  302 at Tue Sep 17 09:51:45 2024, MaxMem=  1342177280 cpu:               0.8 elap:               0.1
 (Enter /groups/ReismanLab/Software/Gaussian16_RevC/Linux_Binary_AVX2-enabled-CPU/g16/l303.exe)
 DipDrv:  MaxL=1.
 Leave Link  303 at Tue Sep 17 09:51:45 2024, MaxMem=  1342177280 cpu:               0.1 elap:               0.0
 (Enter /groups/ReismanLab/Software/Gaussian16_RevC/Linux_Binary_AVX2-enabled-CPU/g16/l401.exe)
 ExpMin= 1.43D-01 ExpMax= 5.74D+05 ExpMxC= 5.74D+03 IAcc=3 IRadAn=         5 AccDes= 0.00D+00
 Harris functional with IExCor=  402 and IRadAn=       5 diagonalized for initial guess.
 HarFok:  IExCor=  402 AccDes= 0.00D+00 IRadAn=         5 IDoV= 1 UseB2=F ITyADJ=14
 ICtDFT=  3500011 ScaDFX=  1.000000  1.000000  1.000000  1.000000
 FoFCou: FMM=F IPFlag=           0 FMFlag=      100000 FMFlg1=           0
         NFxFlg=           0 DoJE=T BraDBF=F KetDBF=T FulRan=T
         wScrn=  0.000000 ICntrl=       500 IOpCl=  0 I1Cent=   200000004 NGrid=           0
         NMat0=    1 NMatS0=      1 NMatT0=    0 NMatD0=    1 NMtDS0=    0 NMtDT0=    0
 Petite list used in FoFCou.
 Harris En= -2989.83265976811    
 JPrj=0 DoOrth=F DoCkMO=F.
 Leave Link  401 at Tue Sep 17 09:51:45 2024, MaxMem=  1342177280 cpu:               2.8 elap:               0.4
 (Enter /groups/ReismanLab/Software/Gaussian16_RevC/Linux_Binary_AVX2-enabled-CPU/g16/l502.exe)
 Keep R1 ints in memory in canonical form, NReq=101728314.
 FoFCou: FMM=F IPFlag=           0 FMFlag=           0 FMFlg1=           0
         NFxFlg=           0 DoJE=F BraDBF=F KetDBF=F FulRan=T
         wScrn=  0.000000 ICntrl=       600 IOpCl=  0 I1Cent=           0 NGrid=           0
         NMat0=    1 NMatS0=  13695 NMatT0=    0 NMatD0=    1 NMtDS0=    0 NMtDT0=    0
 Symmetry not used in FoFCou.
 Two-electron integral symmetry not used.
 Closed shell SCF:
 Using DIIS extrapolation, IDIIS=  1040.
 NGot=  1342177280 LenX=  1248336152 LenY=  1248308486
 Requested convergence on RMS density matrix=1.00D-08 within  32 cycles.
 Requested convergence on MAX density matrix=1.00D-06.
 Requested convergence on             energy=1.00D-06.
 No special actions if energy rises.
 Integral accuracy reduced to 1.0D-05 until final iterations.

 Cycle   1  Pass 0  IDiag  1:
 E= -2989.52339671003    
 DIIS: error= 2.05D-01 at cycle   1 NSaved=   1.
 NSaved= 1 IEnMin= 1 EnMin= -2989.52339671003     IErMin= 1 ErrMin= 2.05D-01
 ErrMax= 2.05D-01  0.00D+00 EMaxC= 1.00D-01 BMatC= 5.85D-01 BMatP= 5.85D-01
 IDIUse=3 WtCom= 0.00D+00 WtEn= 1.00D+00
 Coeff-Com:  0.100D+01
 Coeff-En:   0.100D+01
 Coeff:      0.100D+01
 Gap=     0.195 Goal=   None    Shift=    0.000
 GapD=    0.195 DampG=1.000 DampE=0.250 DampFc=0.2500 IDamp=-1.
 Damping current iteration by 2.50D-01
 RMSDP=6.93D-03 MaxDP=2.06D-01              OVMax= 2.50D-01

 Cycle   2  Pass 0  IDiag  1:
 E= -2989.59339823623     Delta-E=       -0.070001526201 Rises=F Damp=T
 DIIS: error= 1.51D-01 at cycle   2 NSaved=   2.
 NSaved= 2 IEnMin= 2 EnMin= -2989.59339823623     IErMin= 2 ErrMin= 1.51D-01
 ErrMax= 1.51D-01  0.00D+00 EMaxC= 1.00D-01 BMatC= 2.36D-01 BMatP= 5.85D-01
 IDIUse=3 WtCom= 0.00D+00 WtEn= 1.00D+00
 Coeff-Com: -0.104D+01 0.204D+01
 Coeff-En:   0.000D+00 0.100D+01
 Coeff:      0.000D+00 0.100D+01
 Gap=     0.241 Goal=   None    Shift=    0.000
 RMSDP=3.08D-03 MaxDP=1.08D-01 DE=-7.00D-02 OVMax= 1.26D-01

 Cycle   3  Pass 0  IDiag  1:
 E= -2989.67872323990     Delta-E=       -0.085325003668 Rises=F Damp=F
 DIIS: error= 1.37D-02 at cycle   3 NSaved=   3.
 NSaved= 3 IEnMin= 3 EnMin= -2989.67872323990     IErMin= 3 ErrMin= 1.37D-02
 ErrMax= 1.37D-02  0.00D+00 EMaxC= 1.00D-01 BMatC= 5.12D-02 BMatP= 2.36D-01
 IDIUse=3 WtCom= 8.63D-01 WtEn= 1.37D-01
 Coeff-Com:  0.757D+00-0.864D+00 0.111D+01
 Coeff-En:   0.149D+00 0.000D+00 0.851D+00
 Coeff:      0.674D+00-0.746D+00 0.107D+01
 Gap=     0.192 Goal=   None    Shift=    0.000
 RMSDP=1.77D-03 MaxDP=5.33D-02 DE=-8.53D-02 OVMax= 6.51D-02

 Cycle   4  Pass 0  IDiag  1:
 E= -2989.70112307378     Delta-E=       -0.022399833878 Rises=F Damp=F
 DIIS: error= 1.06D-02 at cycle   4 NSaved=   4.
 NSaved= 4 IEnMin= 4 EnMin= -2989.70112307378     IErMin= 4 ErrMin= 1.06D-02
 ErrMax= 1.06D-02  0.00D+00 EMaxC= 1.00D-01 BMatC= 2.32D-02 BMatP= 5.12D-02
 IDIUse=3 WtCom= 8.94D-01 WtEn= 1.06D-01
 Coeff-Com:  0.559D+00-0.718D+00 0.720D+00 0.439D+00
 Coeff-En:   0.000D+00 0.000D+00 0.280D+00 0.720D+00
 Coeff:      0.500D+00-0.642D+00 0.674D+00 0.468D+00
 Gap=     0.193 Goal=   None    Shift=    0.000
 RMSDP=9.30D-04 MaxDP=3.14D-02 DE=-2.24D-02 OVMax= 5.62D-02

 Cycle   5  Pass 0  IDiag  1:
 E= -2989.71914318769     Delta-E=       -0.018020113916 Rises=F Damp=F
 DIIS: error= 2.59D-03 at cycle   5 NSaved=   5.
 NSaved= 5 IEnMin= 5 EnMin= -2989.71914318769     IErMin= 5 ErrMin= 2.59D-03
 ErrMax= 2.59D-03  0.00D+00 EMaxC= 1.00D-01 BMatC= 1.40D-03 BMatP= 2.32D-02
 IDIUse=3 WtCom= 9.74D-01 WtEn= 2.59D-02
 Coeff-Com:  0.255D+00-0.331D+00 0.345D+00 0.278D+00 0.454D+00
 Coeff-En:   0.000D+00 0.000D+00 0.000D+00 0.000D+00 0.100D+01
 Coeff:      0.249D+00-0.323D+00 0.336D+00 0.270D+00 0.468D+00
 Gap=     0.192 Goal=   None    Shift=    0.000
 RMSDP=2.54D-04 MaxDP=9.01D-03 DE=-1.80D-02 OVMax= 1.38D-02

 Cycle   6  Pass 0  IDiag  1:
 E= -2989.72013659649     Delta-E=       -0.000993408797 Rises=F Damp=F
 DIIS: error= 7.47D-04 at cycle   6 NSaved=   6.
 NSaved= 6 IEnMin= 6 EnMin= -2989.72013659649     IErMin= 6 ErrMin= 7.47D-04
 ErrMax= 7.47D-04  0.00D+00 EMaxC= 1.00D-01 BMatC= 1.51D-04 BMatP= 1.40D-03
 IDIUse=3 WtCom= 9.93D-01 WtEn= 7.47D-03
 Coeff-Com:  0.844D-01-0.110D+00 0.115D+00 0.105D+00 0.308D+00 0.497D+00
 Coeff-En:   0.000D+00 0.000D+00 0.000D+00 0.000D+00 0.114D+00 0.886D+00
 Coeff:      0.838D-01-0.109D+00 0.115D+00 0.104D+00 0.307D+00 0.500D+00
 Gap=     0.191 Goal=   None    Shift=    0.000
 RMSDP=7.17D-05 MaxDP=2.21D-03 DE=-9.93D-04 OVMax= 3.85D-03

 Cycle   7  Pass 0  IDiag  1:
 E= -2989.72026462066     Delta-E=       -0.000128024170 Rises=F Damp=F
 DIIS: error= 1.68D-04 at cycle   7 NSaved=   7.
 NSaved= 7 IEnMin= 7 EnMin= -2989.72026462066     IErMin= 7 ErrMin= 1.68D-04
 ErrMax= 1.68D-04  0.00D+00 EMaxC= 1.00D-01 BMatC= 6.57D-06 BMatP= 1.51D-04
 IDIUse=3 WtCom= 9.98D-01 WtEn= 1.68D-03
 Coeff-Com:  0.205D-01-0.269D-01 0.280D-01 0.271D-01 0.121D+00 0.261D+00
 Coeff-Com:  0.569D+00
 Coeff-En:   0.000D+00 0.000D+00 0.000D+00 0.000D+00 0.000D+00 0.000D+00
 Coeff-En:   0.100D+01
 Coeff:      0.204D-01-0.269D-01 0.280D-01 0.270D-01 0.121D+00 0.260D+00
 Coeff:      0.570D+00
 Gap=     0.191 Goal=   None    Shift=    0.000
 RMSDP=1.59D-05 MaxDP=4.84D-04 DE=-1.28D-04 OVMax= 6.21D-04

 Cycle   8  Pass 0  IDiag  1:
 E= -2989.72026944495     Delta-E=       -0.000004824291 Rises=F Damp=F
 DIIS: error= 5.23D-05 at cycle   8 NSaved=   8.
 NSaved= 8 IEnMin= 8 EnMin= -2989.72026944495     IErMin= 8 ErrMin= 5.23D-05
 ErrMax= 5.23D-05  0.00D+00 EMaxC= 1.00D-01 BMatC= 5.75D-07 BMatP= 6.57D-06
 IDIUse=1 WtCom= 1.00D+00 WtEn= 0.00D+00
 Coeff-Com:  0.500D-02-0.667D-02 0.667D-02 0.609D-02 0.362D-01 0.877D-01
 Coeff-Com:  0.290D+00 0.575D+00
 Coeff:      0.500D-02-0.667D-02 0.667D-02 0.609D-02 0.362D-01 0.877D-01
 Coeff:      0.290D+00 0.575D+00
 Gap=     0.191 Goal=   None    Shift=    0.000
 RMSDP=5.91D-06 MaxDP=1.95D-04 DE=-4.82D-06 OVMax= 3.72D-04

 Initial convergence to 1.0D-05 achieved.  Increase integral accuracy.
 Cycle   9  Pass 1  IDiag  1:
 E= -2989.72028919422     Delta-E=       -0.000019749268 Rises=F Damp=F
 DIIS: error= 1.79D-05 at cycle   1 NSaved=   1.
 NSaved= 1 IEnMin= 1 EnMin= -2989.72028919422     IErMin= 1 ErrMin= 1.79D-05
 ErrMax= 1.79D-05  0.00D+00 EMaxC= 1.00D-01 BMatC= 5.67D-08 BMatP= 5.67D-08
 IDIUse=1 WtCom= 1.00D+00 WtEn= 0.00D+00
 Coeff-Com:  0.100D+01
 Coeff:      0.100D+01
 Gap=     0.191 Goal=   None    Shift=    0.000
 RMSDP=5.91D-06 MaxDP=1.95D-04 DE=-1.97D-05 OVMax= 2.14D-04

 Cycle  10  Pass 1  IDiag  1:
 E= -2989.72028915510     Delta-E=        0.000000039116 Rises=F Damp=F
 DIIS: error= 1.90D-05 at cycle   2 NSaved=   2.
 NSaved= 2 IEnMin= 1 EnMin= -2989.72028919422     IErMin= 1 ErrMin= 1.79D-05
 ErrMax= 1.90D-05  0.00D+00 EMaxC= 1.00D-01 BMatC= 9.77D-08 BMatP= 5.67D-08
 IDIUse=1 WtCom= 1.00D+00 WtEn= 0.00D+00
 Coeff-Com:  0.575D+00 0.425D+00
 Coeff:      0.575D+00 0.425D+00
 Gap=     0.191 Goal=   None    Shift=    0.000
 RMSDP=1.98D-06 MaxDP=8.99D-05 DE= 3.91D-08 OVMax= 1.63D-04

 Cycle  11  Pass 1  IDiag  1:
 E= -2989.72028923935     Delta-E=       -0.000000084252 Rises=F Damp=F
 DIIS: error= 4.93D-06 at cycle   3 NSaved=   3.
 NSaved= 3 IEnMin= 3 EnMin= -2989.72028923935     IErMin= 3 ErrMin= 4.93D-06
 ErrMax= 4.93D-06  0.00D+00 EMaxC= 1.00D-01 BMatC= 5.95D-09 BMatP= 5.67D-08
 IDIUse=1 WtCom= 1.00D+00 WtEn= 0.00D+00
 Coeff-Com:  0.174D+00 0.222D+00 0.604D+00
 Coeff:      0.174D+00 0.222D+00 0.604D+00
 Gap=     0.191 Goal=   None    Shift=    0.000
 RMSDP=6.06D-07 MaxDP=2.31D-05 DE=-8.43D-08 OVMax= 4.10D-05

 Cycle  12  Pass 1  IDiag  1:
 E= -2989.72028924397     Delta-E=       -0.000000004621 Rises=F Damp=F
 DIIS: error= 2.86D-06 at cycle   4 NSaved=   4.
 NSaved= 4 IEnMin= 4 EnMin= -2989.72028924397     IErMin= 4 ErrMin= 2.86D-06
 ErrMax= 2.86D-06  0.00D+00 EMaxC= 1.00D-01 BMatC= 1.24D-09 BMatP= 5.95D-09
 IDIUse=1 WtCom= 1.00D+00 WtEn= 0.00D+00
 Coeff-Com:  0.572D-02 0.597D-01 0.365D+00 0.570D+00
 Coeff:      0.572D-02 0.597D-01 0.365D+00 0.570D+00
 Gap=     0.191 Goal=   None    Shift=    0.000
 RMSDP=2.15D-07 MaxDP=5.99D-06 DE=-4.62D-09 OVMax= 8.47D-06

 Cycle  13  Pass 1  IDiag  1:
 E= -2989.72028924506     Delta-E=       -0.000000001080 Rises=F Damp=F
 DIIS: error= 6.68D-07 at cycle   5 NSaved=   5.
 NSaved= 5 IEnMin= 5 EnMin= -2989.72028924506     IErMin= 5 ErrMin= 6.68D-07
 ErrMax= 6.68D-07  0.00D+00 EMaxC= 1.00D-01 BMatC= 1.03D-10 BMatP= 1.24D-09
 IDIUse=1 WtCom= 1.00D+00 WtEn= 0.00D+00
 Coeff-Com: -0.418D-02 0.264D-01 0.196D+00 0.351D+00 0.431D+00
 Coeff:     -0.418D-02 0.264D-01 0.196D+00 0.351D+00 0.431D+00
 Gap=     0.191 Goal=   None    Shift=    0.000
 RMSDP=6.44D-08 MaxDP=2.56D-06 DE=-1.08D-09 OVMax= 3.94D-06

 Cycle  14  Pass 1  IDiag  1:
 E= -2989.72028924514     Delta-E=       -0.000000000085 Rises=F Damp=F
 DIIS: error= 1.83D-07 at cycle   6 NSaved=   6.
 NSaved= 6 IEnMin= 6 EnMin= -2989.72028924514     IErMin= 6 ErrMin= 1.83D-07
 ErrMax= 1.83D-07  0.00D+00 EMaxC= 1.00D-01 BMatC= 7.12D-12 BMatP= 1.03D-10
 IDIUse=1 WtCom= 1.00D+00 WtEn= 0.00D+00
 Coeff-Com: -0.297D-02 0.111D-01 0.880D-01 0.164D+00 0.261D+00 0.478D+00
 Coeff:     -0.297D-02 0.111D-01 0.880D-01 0.164D+00 0.261D+00 0.478D+00
 Gap=     0.191 Goal=   None    Shift=    0.000
 RMSDP=1.71D-08 MaxDP=5.51D-07 DE=-8.46D-11 OVMax= 8.67D-07

 Cycle  15  Pass 1  IDiag  1:
 E= -2989.72028924514     Delta-E=        0.000000000000 Rises=F Damp=F
 DIIS: error= 4.74D-08 at cycle   7 NSaved=   7.
 NSaved= 7 IEnMin= 6 EnMin= -2989.72028924514     IErMin= 7 ErrMin= 4.74D-08
 ErrMax= 4.74D-08  0.00D+00 EMaxC= 1.00D-01 BMatC= 5.41D-13 BMatP= 7.12D-12
 IDIUse=1 WtCom= 1.00D+00 WtEn= 0.00D+00
 Coeff-Com: -0.107D-02 0.257D-02 0.224D-01 0.441D-01 0.888D-01 0.263D+00
 Coeff-Com:  0.580D+00
 Coeff:     -0.107D-02 0.257D-02 0.224D-01 0.441D-01 0.888D-01 0.263D+00
 Coeff:      0.580D+00
 Gap=     0.191 Goal=   None    Shift=    0.000
 RMSDP=4.44D-09 MaxDP=1.18D-07 DE= 4.55D-13 OVMax= 1.65D-07

 SCF Done:  E(RB3LYP) =  -2989.72028925     A.U. after   15 cycles
            NFock= 15  Conv=0.44D-08     -V/T= 2.0064
 KE= 2.970565145446D+03 PE=-8.377104590996D+03 EE= 1.783672836676D+03
 Leave Link  502 at Tue Sep 17 09:51:51 2024, MaxMem=  1342177280 cpu:              33.2 elap:               6.2
 (Enter /groups/ReismanLab/Software/Gaussian16_RevC/Linux_Binary_AVX2-enabled-CPU/g16/l508.exe)
 QCSCF skips out because SCF is already converged.
 Leave Link  508 at Tue Sep 17 09:51:51 2024, MaxMem=  1342177280 cpu:               0.0 elap:               0.0
 (Enter /groups/ReismanLab/Software/Gaussian16_RevC/Linux_Binary_AVX2-enabled-CPU/g16/l601.exe)
 Copying SCF densities to generalized density rwf, IOpCl= 0 IROHF=0.

 **********************************************************************

            Population analysis using the SCF Density.

 **********************************************************************

 Orbital symmetries:
       Occupied  (A) (A) (A) (A) (A) (A) (A) (A) (A) (A) (A) (A)
                 (A) (A) (A) (A) (A) (A) (A) (A) (A) (A) (A) (A)
                 (A) (A) (A) (A) (A) (A) (A) (A) (A) (A) (A) (A)
                 (A) (A) (A) (A) (A) (A) (A) (A) (A) (A)
       Virtual   (A) (A) (A) (A) (A) (A) (A) (A) (A) (A) (A) (A)
                 (A) (A) (A) (A) (A) (A) (A) (A) (A) (A) (A) (A)
                 (A) (A) (A) (A) (A) (A) (A) (A) (A) (A) (A) (A)
                 (A) (A) (A) (A) (A) (A) (A) (A) (A) (A) (A) (A)
                 (A) (A) (A) (A) (A) (A) (A) (A) (A) (A) (A) (A)
                 (A) (A) (A) (A) (A) (A) (A) (A) (A) (A) (A) (A)
                 (A) (A) (A) (A) (A) (A) (A) (A) (A) (A) (A) (A)
                 (A) (A) (A) (A) (A) (A) (A) (A) (A) (A) (A) (A)
                 (A) (A) (A) (A) (A) (A) (A) (A) (A) (A) (A) (A)
                 (A) (A) (A) (A) (A) (A) (A) (A) (A) (A) (A)
 The electronic state is 1-A.
 Alpha  occ. eigenvalues -- -482.93784 -61.89980 -56.42139 -56.41691 -56.41688
 Alpha  occ. eigenvalues --  -19.24930 -19.20113 -19.13894 -10.32956 -10.30799
 Alpha  occ. eigenvalues --  -10.26248 -10.21611 -10.21294  -8.61172  -6.56636
 Alpha  occ. eigenvalues --   -6.55265  -6.55234  -2.68205  -2.67806  -2.67782
 Alpha  occ. eigenvalues --   -2.66688  -2.66688  -1.15924  -1.11340  -1.02206
 Alpha  occ. eigenvalues --   -0.84413  -0.83185  -0.76211  -0.66217  -0.63609
 Alpha  occ. eigenvalues --   -0.57936  -0.54903  -0.49751  -0.48378  -0.47447
 Alpha  occ. eigenvalues --   -0.44682  -0.44662  -0.42776  -0.40511  -0.39468
 Alpha  occ. eigenvalues --   -0.33749  -0.32284  -0.31257  -0.30713  -0.28224
 Alpha  occ. eigenvalues --   -0.24062
 Alpha virt. eigenvalues --   -0.04954   0.00074   0.02881   0.07129   0.10278
 Alpha virt. eigenvalues --    0.10973   0.15415   0.17277   0.18283   0.24023
 Alpha virt. eigenvalues --    0.25349   0.26581   0.31839   0.34077   0.38338
 Alpha virt. eigenvalues --    0.40183   0.44201   0.44741   0.45067   0.46300
 Alpha virt. eigenvalues --    0.47953   0.49431   0.50757   0.51842   0.54392
 Alpha virt. eigenvalues --    0.56222   0.56579   0.58527   0.61713   0.62522
 Alpha virt. eigenvalues --    0.64334   0.65748   0.72349   0.73945   0.75695
 Alpha virt. eigenvalues --    0.75740   0.76543   0.80421   0.81422   0.85078
 Alpha virt. eigenvalues --    0.85923   0.88901   0.91026   0.95637   0.97183
 Alpha virt. eigenvalues --    0.98351   0.99682   1.04875   1.04921   1.09466
 Alpha virt. eigenvalues --    1.11865   1.18280   1.23391   1.25569   1.28731
 Alpha virt. eigenvalues --    1.30417   1.32393   1.38478   1.41535   1.45868
 Alpha virt. eigenvalues --    1.48774   1.52756   1.53111   1.57383   1.59368
 Alpha virt. eigenvalues --    1.64551   1.67964   1.75316   1.78407   1.79810
 Alpha virt. eigenvalues --    1.83968   1.85551   1.86198   1.87900   1.97004
 Alpha virt. eigenvalues --    1.98886   2.03154   2.04608   2.05179   2.12241
 Alpha virt. eigenvalues --    2.14556   2.16648   2.18324   2.26903   2.31480
 Alpha virt. eigenvalues --    2.31665   2.38150   2.44447   2.47494   2.49470
 Alpha virt. eigenvalues --    2.50677   2.53031   2.59050   2.59229   2.63870
 Alpha virt. eigenvalues --    2.67946   2.69792   2.74052   2.76740   2.80139
 Alpha virt. eigenvalues --    2.87641   2.93254   3.00207   3.06685   3.16962
 Alpha virt. eigenvalues --    3.27275   3.34527   3.43808   3.70282   3.89234
 Alpha virt. eigenvalues --    4.03966   4.11632   4.21577   4.32857   4.36665
 Alpha virt. eigenvalues --    4.62024   4.84846   8.57364  72.69631
          Condensed to atoms (all electrons):
               1          2          3          4          5          6
     1  O    8.034299   0.584631  -0.093305  -0.077693   0.004537  -0.000151
     2  C    0.584631   4.397967   0.291175   0.311669  -0.055628   0.005834
     3  O   -0.093305   0.291175   8.126193  -0.113046   0.006278   0.000248
     4  C   -0.077693   0.311669  -0.113046   4.938082   0.502595  -0.040753
     5  C    0.004537  -0.055628   0.006278   0.502595   4.977515   0.443408
     6  C   -0.000151   0.005834   0.000248  -0.040753   0.443408   4.962833
     7  C    0.000115   0.002531  -0.000008  -0.089403  -0.051260   0.534771
     8  Br   0.000001  -0.000223   0.000001   0.003444   0.005812  -0.066336
     9  O   -0.000090  -0.041337   0.000853   0.308889  -0.080192  -0.057998
    10  H    0.007360  -0.014443   0.277597   0.011892  -0.000937   0.000008
    11  H    0.000037  -0.002623   0.002873  -0.031833   0.378016  -0.035325
    12  H    0.000001  -0.000080  -0.000001   0.003905  -0.029511   0.378246
               7          8          9         10         11         12
     1  O    0.000115   0.000001  -0.000090   0.007360   0.000037   0.000001
     2  C    0.002531  -0.000223  -0.041337  -0.014443  -0.002623  -0.000080
     3  O   -0.000008   0.000001   0.000853   0.277597   0.002873  -0.000001
     4  C   -0.089403   0.003444   0.308889   0.011892  -0.031833   0.003905
     5  C   -0.051260   0.005812  -0.080192  -0.000937   0.378016  -0.029511
     6  C    0.534771  -0.066336  -0.057998   0.000008  -0.035325   0.378246
     7  C    4.732523   0.303122   0.310653   0.000003   0.005016  -0.036586
     8  Br   0.303122  34.862611  -0.048875  -0.000000  -0.000099  -0.000121
     9  O    0.310653  -0.048875   8.017937  -0.000067   0.003247   0.003240
    10  H    0.000003  -0.000000  -0.000067   0.388324  -0.000059  -0.000000
    11  H    0.005016  -0.000099   0.003247  -0.000059   0.555331  -0.001955
    12  H   -0.036586  -0.000121   0.003240  -0.000000  -0.001955   0.562244
 Mulliken charges:
               1
     1  O   -0.459743
     2  C    0.520526
     3  O   -0.498857
     4  C    0.272253
     5  C   -0.100634
     6  C   -0.124784
     7  C    0.288524
     8  Br  -0.059337
     9  O   -0.416260
    10  H    0.330320
    11  H    0.127374
    12  H    0.120619
 Sum of Mulliken charges =  -0.00000
 Mulliken charges with hydrogens summed into heavy atoms:
               1
     1  O   -0.459743
     2  C    0.520526
     3  O   -0.168538
     4  C    0.272253
     5  C    0.026740
     6  C   -0.004165
     7  C    0.288524
     8  Br  -0.059337
     9  O   -0.416260
 Electronic spatial extent (au):  <R**2>=           2115.3937
 Charge=             -0.0000 electrons
 Dipole moment (field-independent basis, Debye):
    X=             -0.3134    Y=              2.9553    Z=             -0.0011  Tot=              2.9719
 Quadrupole moment (field-independent basis, Debye-Ang):
   XX=            -51.0450   YY=            -63.3247   ZZ=            -62.4532
   XY=             -4.1720   XZ=              0.0051   YZ=              0.0021
 Traceless Quadrupole moment (field-independent basis, Debye-Ang):
   XX=              7.8960   YY=             -4.3837   ZZ=             -3.5123
   XY=             -4.1720   XZ=              0.0051   YZ=              0.0021
 Octapole moment (field-independent basis, Debye-Ang**2):
  XXX=             -1.6464  YYY=              5.7016  ZZZ=             -0.0011  XYY=             32.8041
  XXY=             -2.1372  XXZ=             -0.0209  XZZ=             15.6491  YZZ=             -8.3625
  YYZ=             -0.0004  XYZ=             -0.0052
 Hexadecapole moment (field-independent basis, Debye-Ang**3):
 XXXX=          -1387.7510 YYYY=           -375.3877 ZZZZ=            -59.6331 XXXY=            -27.6291
 XXXZ=              0.0912 YYYX=            -43.5402 YYYZ=              0.0065 ZZZX=             -0.0012
 ZZZY=             -0.0023 XXYY=           -408.4118 XXZZ=           -317.6350 YYZZ=            -79.1794
 XXYZ=              0.0171 YYXZ=              0.0053 ZZXY=             -1.3918
 N-N= 6.331463196297D+02 E-N=-8.377104590660D+03  KE= 2.970565145446D+03
 No NMR shielding tensors so no spin-rotation constants.
 Leave Link  601 at Tue Sep 17 09:51:51 2024, MaxMem=  1342177280 cpu:               0.6 elap:               0.1
 (Enter /groups/ReismanLab/Software/Gaussian16_RevC/Linux_Binary_AVX2-enabled-CPU/g16/l701.exe)
 ... and contract with generalized density number  0.
 Compute integral first derivatives.
 R6Disp: Adding Grimme-D3(BJ) dispersion energy 1st derivatives to the gradient.
 Leave Link  701 at Tue Sep 17 09:51:52 2024, MaxMem=  1342177280 cpu:               0.6 elap:               0.1
 (Enter /groups/ReismanLab/Software/Gaussian16_RevC/Linux_Binary_AVX2-enabled-CPU/g16/l702.exe)
 L702 exits ... SP integral derivatives will be done elsewhere.
 Leave Link  702 at Tue Sep 17 09:51:52 2024, MaxMem=  1342177280 cpu:               0.0 elap:               0.0
 (Enter /groups/ReismanLab/Software/Gaussian16_RevC/Linux_Binary_AVX2-enabled-CPU/g16/l703.exe)
 Integral derivatives from FoFJK, PRISM(SPDF).
 Compute integral first derivatives, UseDBF=F ICtDFT=           0.
 Calling FoFJK, ICntrl=      2127 FMM=F ISym2X=0 I1Cent= 0 IOpClX= 0 NMat=1 NMatS=1 NMatT=0.
 FoFJK:  IHMeth= 1 ICntrl=    2127 DoSepK=F KAlg= 0 I1Cent=           0 FoldK=F
 IRaf=         0 NMat=       1 IRICut=       1 DoRegI=T DoRafI=F ISym2E= 0 IDoP0=0 IntGTp=1.
 FoFCou: FMM=F IPFlag=           0 FMFlag=      100000 FMFlg1=         800
         NFxFlg=           0 DoJE=F BraDBF=F KetDBF=F FulRan=T
         wScrn=  0.000000 ICntrl=      2127 IOpCl=  0 I1Cent=           0 NGrid=           0
         NMat0=    1 NMatS0=      1 NMatT0=    0 NMatD0=    1 NMtDS0=    0 NMtDT0=    0
 Symmetry not used in FoFCou.
 Leave Link  703 at Tue Sep 17 09:51:53 2024, MaxMem=  1342177280 cpu:              13.4 elap:               1.7
 (Enter /groups/ReismanLab/Software/Gaussian16_RevC/Linux_Binary_AVX2-enabled-CPU/g16/l716.exe)
 Dipole        =-1.23294482D-01 1.16269961D+00-4.29744059D-04
 ***** Axes restored to original set *****
 -------------------------------------------------------------------
 Center     Atomic                   Forces (Hartrees/Bohr)
 Number     Number              X              Y              Z
 -------------------------------------------------------------------
      1        8          -0.000154724    0.020971889    0.000002343
      2        6          -0.007073478   -0.003240987    0.000034911
      3        8           0.007189529   -0.017442808   -0.000046142
      4        6           0.018782077   -0.015388041   -0.000021445
      5        6           0.005709346    0.007272563    0.000006503
      6        6          -0.006909848    0.003193525   -0.000012478
      7        6          -0.013943776   -0.008551898    0.000004029
      8       35          -0.001573760    0.001167179    0.000000067
      9        8           0.001387252    0.016494025    0.000016348
     10        1          -0.004278873    0.004361909    0.000017805
     11        1           0.005236140   -0.004270575   -0.000004431
     12        1          -0.004369885   -0.004566780    0.000002489
 -------------------------------------------------------------------
 Cartesian Forces:  Max     0.020971889 RMS     0.007919103
 Leave Link  716 at Tue Sep 17 09:51:53 2024, MaxMem=  1342177280 cpu:               0.0 elap:               0.0
 (Enter /groups/ReismanLab/Software/Gaussian16_RevC/Linux_Binary_AVX2-enabled-CPU/g16/l103.exe)

 GradGradGradGradGradGradGradGradGradGradGradGradGradGradGradGradGradGrad
 Berny optimization.
 FormGI is forming the generalized inverse of G from B-inverse, IUseBI=4.
 Internal  Forces:  Max     0.020778006 RMS     0.005487417
 Search for a local minimum.
 Step number   1 out of a maximum of   61
 All quantities printed in internal units (Hartrees-Bohrs-Radians)
 RMS Force = .54874D-02 SwitMx=.10000D-02 MixMth= 1
 Mixed Optimization -- RFO/linear search
 Second derivative matrix not updated -- first step.
 ITU=  0
     Eigenvalues ---    0.01234   0.01619   0.01891   0.02165   0.02264
     Eigenvalues ---    0.02308   0.02438   0.02443   0.02526   0.16000
     Eigenvalues ---    0.16000   0.16000   0.20450   0.22878   0.24737
     Eigenvalues ---    0.25000   0.25000   0.25000   0.25000   0.36391
     Eigenvalues ---    0.37220   0.37229   0.42094   0.44674   0.49999
     Eigenvalues ---    0.52666   0.53242   0.56405   0.57175   1.03975
 RFO step:  Lambda=-3.44078312D-03 EMin= 1.23388181D-02
 Linear search not attempted -- first point.
 Iteration  1 RMS(Cart)=  0.02316247 RMS(Int)=  0.00058311
 Iteration  2 RMS(Cart)=  0.00062213 RMS(Int)=  0.00000509
 Iteration  3 RMS(Cart)=  0.00000013 RMS(Int)=  0.00000509
 ITry= 1 IFail=0 DXMaxC= 8.74D-02 DCOld= 1.00D+10 DXMaxT= 3.00D-01 DXLimC= 3.00D+00 Rises=F
 Variable       Old X    -DE/DX   Delta X   Delta X   Delta X     New X
                                 (Linear)    (Quad)   (Total)
    R1        2.27088   0.02078   0.00000   0.01992   0.01992   2.29079
    R2        2.53904   0.01072   0.00000   0.01889   0.01889   2.55793
    R3        2.76774  -0.00159   0.00000  -0.00432  -0.00432   2.76342
    R4        1.83429  -0.00153   0.00000  -0.00286  -0.00286   1.83142
    R5        2.60001  -0.00117   0.00000  -0.00304  -0.00304   2.59697
    R6        2.55780   0.01331   0.00000   0.02495   0.02494   2.58274
    R7        2.65829   0.01514   0.00000   0.03253   0.03253   2.69083
    R8        2.02215   0.00667   0.00000   0.01775   0.01775   2.03990
    R9        2.58779   0.00171   0.00000   0.00345   0.00346   2.59125
   R10        2.02202   0.00623   0.00000   0.01659   0.01659   2.03861
   R11        3.51166   0.00189   0.00000   0.00910   0.00910   3.52076
   R12        2.51448   0.01398   0.00000   0.02435   0.02435   2.53883
    A1        2.15024   0.00535   0.00000   0.02109   0.02109   2.17133
    A2        2.19494  -0.00112   0.00000  -0.00442  -0.00442   2.19052
    A3        1.93801  -0.00423   0.00000  -0.01667  -0.01667   1.92134
    A4        1.91139  -0.01085   0.00000  -0.06637  -0.06637   1.84502
    A5        2.28335   0.00748   0.00000   0.02979   0.02980   2.31315
    A6        2.08074  -0.00642   0.00000  -0.02503  -0.02502   2.05572
    A7        1.91909  -0.00106   0.00000  -0.00477  -0.00478   1.91431
    A8        1.85897   0.00143   0.00000   0.00213   0.00213   1.86110
    A9        2.19956  -0.00181   0.00000  -0.00780  -0.00780   2.19176
   A10        2.22466   0.00039   0.00000   0.00567   0.00567   2.23032
   A11        1.83193   0.00174   0.00000   0.00516   0.00518   1.83711
   A12        2.23855   0.00019   0.00000   0.00390   0.00389   2.24244
   A13        2.21271  -0.00193   0.00000  -0.00907  -0.00908   2.20363
   A14        2.27809   0.00237   0.00000   0.00851   0.00850   2.28659
   A15        1.95531  -0.00294   0.00000  -0.00995  -0.00994   1.94537
   A16        2.04979   0.00058   0.00000   0.00144   0.00144   2.05123
   A17        1.85948   0.00084   0.00000   0.00743   0.00742   1.86689
    D1       -0.00076   0.00002   0.00000   0.00091   0.00092   0.00016
    D2        3.14117   0.00000   0.00000  -0.00012  -0.00013   3.14104
    D3       -3.14091  -0.00001   0.00000  -0.00072  -0.00071   3.14156
    D4        0.00040  -0.00001   0.00000  -0.00068  -0.00068  -0.00027
    D5        0.00034   0.00001   0.00000   0.00036   0.00035   0.00069
    D6       -3.14154   0.00001   0.00000   0.00040   0.00039  -3.14114
    D7        3.14128   0.00000   0.00000   0.00014   0.00014   3.14142
    D8       -0.00026   0.00000   0.00000   0.00006   0.00006  -0.00020
    D9       -0.00005   0.00000   0.00000   0.00011   0.00011   0.00005
   D10        3.14159   0.00000   0.00000   0.00003   0.00003  -3.14157
   D11       -3.14137  -0.00000   0.00000  -0.00007  -0.00007  -3.14143
   D12        0.00000  -0.00000   0.00000  -0.00003  -0.00003  -0.00003
   D13        0.00008  -0.00000   0.00000  -0.00014  -0.00014  -0.00006
   D14        3.14145   0.00000   0.00000   0.00004   0.00004   3.14149
   D15       -3.14156  -0.00000   0.00000  -0.00005  -0.00005   3.14157
   D16       -0.00020   0.00000   0.00000   0.00012   0.00012  -0.00007
   D17        3.14157   0.00000   0.00000   0.00004   0.00003  -3.14158
   D18       -0.00009   0.00000   0.00000   0.00013   0.00012   0.00004
   D19        0.00020  -0.00000   0.00000  -0.00014  -0.00014   0.00006
   D20       -3.14146  -0.00000   0.00000  -0.00005  -0.00005  -3.14151
   D21        0.00005  -0.00000   0.00000  -0.00006  -0.00006  -0.00001
   D22        3.14159   0.00000   0.00000   0.00002   0.00002  -3.14158
         Item               Value     Threshold  Converged?
 Maximum Force            0.020778     0.000450     NO 
 RMS     Force            0.005487     0.000300     NO 
 Maximum Displacement     0.087429     0.001800     NO 
 RMS     Displacement     0.023132     0.001200     NO 
 Predicted change in Energy=-1.739140D-03
 Lowest energy point so far.  Saving SCF results.
 GradGradGradGradGradGradGradGradGradGradGradGradGradGradGradGradGradGrad

 Leave Link  103 at Tue Sep 17 09:51:53 2024, MaxMem=  1342177280 cpu:               0.1 elap:               0.0
 (Enter /groups/ReismanLab/Software/Gaussian16_RevC/Linux_Binary_AVX2-enabled-CPU/g16/l202.exe)
                          Input orientation:                          
 ---------------------------------------------------------------------
 Center     Atomic      Atomic             Coordinates (Angstroms)
 Number     Number       Type             X           Y           Z
 ---------------------------------------------------------------------
      1          8           0        3.003127    1.635760    0.001072
      2          6           0        2.873161    0.430511    0.000102
      3          8           0        3.901484   -0.449704   -0.001470
      4          6           0        1.598560   -0.286304   -0.000533
      5          6           0        1.285192   -1.624355   -0.001651
      6          6           0       -0.136148   -1.710098   -0.001533
      7          6           0       -0.576026   -0.411338   -0.000273
      8         35           0       -2.299773    0.295671    0.000639
      9          8           0        0.450551    0.455326    0.000335
     10          1           0        4.707528    0.088384   -0.001461
     11          1           0        1.996800   -2.436064   -0.002477
     12          1           0       -0.755382   -2.593462   -0.002303
 ---------------------------------------------------------------------
                    Distance matrix (angstroms):
                    1          2          3          4          5
     1  O    0.000000
     2  C    1.212236   0.000000
     3  O    2.270729   1.353599   0.000000
     4  C    2.380575   1.462337   2.308714   0.000000
     5  C    3.685059   2.596945   2.867890   1.374257   0.000000
     6  C    4.588008   3.692986   4.229783   2.244193   1.423924
     7  C    4.123220   3.550436   4.477675   2.178178   2.221609
     8  Br   5.469605   5.174690   6.245893   3.941535   4.066753
     9  O    2.812307   2.422737   3.567636   1.366727   2.240916
    10  H    2.302034   1.866000   0.969147   3.131465   3.826991
    11  H    4.194336   2.997544   2.751990   2.186336   1.079471
    12  H    5.657978   4.723425   5.126607   3.296062   2.259006
                    6          7          8          9         10
     6  C    0.000000
     7  C    1.371230   0.000000
     8  Br   2.950320   1.863106   0.000000
     9  O    2.243498   1.343491   2.754953   0.000000
    10  H    5.166792   5.307134   7.010366   4.272763   0.000000
    11  H    2.253107   3.273981   5.091456   3.278877   3.704172
    12  H    1.078788   2.189483   3.276010   3.278626   6.085695
                   11         12
    11  H    0.000000
    12  H    2.756679   0.000000
 Stoichiometry    C5H3BrO3
 Framework group  C1[X(C5H3BrO3)]
 Deg. of freedom    30
 Full point group                 C1      NOp   1
 RotChk:  IX=2 Diff= 8.94D-03
 Largest Abelian subgroup         C1      NOp   1
 Largest concise Abelian subgroup C1      NOp   1
                         Standard orientation:                         
 ---------------------------------------------------------------------
 Center     Atomic      Atomic             Coordinates (Angstroms)
 Number     Number       Type             X           Y           Z
 ---------------------------------------------------------------------
      1          8           0       -2.828493   -1.696617    0.000115
      2          6           0       -2.710207   -0.490166    0.000253
      3          8           0       -3.747008    0.380049   -0.000301
      4          6           0       -1.442610    0.238961    0.000055
      5          6           0       -1.142216    1.579985    0.000137
      6          6           0        0.278227    1.679491    0.000072
      7          6           0        0.730664    0.385052    0.000030
      8         35           0        2.461177   -0.305229   -0.000043
      9          8           0       -0.287471   -0.491515    0.000014
     10          1           0       -4.547803   -0.165821   -0.000647
     11          1           0       -1.861652    2.384764    0.000206
     12          1           0        0.888876    2.568811    0.000017
 ---------------------------------------------------------------------
 Rotational constants (GHZ):           3.5889402           0.5109030           0.4472367
 Leave Link  202 at Tue Sep 17 09:51:53 2024, MaxMem=  1342177280 cpu:               0.0 elap:               0.0
 (Enter /groups/ReismanLab/Software/Gaussian16_RevC/Linux_Binary_AVX2-enabled-CPU/g16/l301.exe)
 Standard basis: 6-31G(d,p) (6D, 7F)
 Ernie: Thresh=  0.10000D-02 Tol=  0.10000D-05 Strict=F.
 There are   165 symmetry adapted cartesian basis functions of A   symmetry.
 There are   165 symmetry adapted basis functions of A   symmetry.
   165 basis functions,   328 primitive gaussians,   165 cartesian basis functions
    46 alpha electrons       46 beta electrons
       nuclear repulsion energy       630.6116041147 Hartrees.
 IExCor=  402 DFT=T Ex+Corr=B3LYP ExCW=0 ScaHFX=  0.200000
 ScaDFX=  0.800000  0.720000  1.000000  0.810000 ScalE2=  1.000000  1.000000
 IRadAn=      5 IRanWt=     -1 IRanGd=            0 ICorTp=0 IEmpDi=141
 NAtoms=   12 NActive=   12 NUniq=   12 SFac= 1.00D+00 NAtFMM=   60 NAOKFM=F Big=F
 Integral buffers will be    131072 words long.
 Raffenetti 2 integral format.
 Two-electron integral symmetry is turned on.
 R6Disp:  Grimme-D3(BJ) Dispersion energy=       -0.0213686732 Hartrees.
 Nuclear repulsion after empirical dispersion term =      630.5902354414 Hartrees.
 Leave Link  301 at Tue Sep 17 09:51:53 2024, MaxMem=  1342177280 cpu:               0.1 elap:               0.0
 (Enter /groups/ReismanLab/Software/Gaussian16_RevC/Linux_Binary_AVX2-enabled-CPU/g16/l302.exe)
 NPDir=0 NMtPBC=     1 NCelOv=     1 NCel=       1 NClECP=     1 NCelD=      1
         NCelK=      1 NCelE2=     1 NClLst=     1 CellRange=     0.0.
 One-electron integrals computed using PRISM.
 One-electron integral symmetry used in STVInt
 NBasis=   165 RedAO= T EigKep=  7.43D-04  NBF=   165
 NBsUse=   165 1.00D-06 EigRej= -1.00D+00 NBFU=   165
 Precomputing XC quadrature grid using
 IXCGrd= 4 IRadAn=           5 IRanWt=          -1 IRanGd=           0 AccXCQ= 0.00D+00.
 Generated NRdTot=       0 NPtTot=           0 NUsed=           0 NTot=          32
 NSgBfM=   164   164   164   164   164 MxSgAt=    12 MxSgA2=    12.
 Leave Link  302 at Tue Sep 17 09:51:54 2024, MaxMem=  1342177280 cpu:               0.8 elap:               0.1
 (Enter /groups/ReismanLab/Software/Gaussian16_RevC/Linux_Binary_AVX2-enabled-CPU/g16/l303.exe)
 DipDrv:  MaxL=1.
 Leave Link  303 at Tue Sep 17 09:51:54 2024, MaxMem=  1342177280 cpu:               0.1 elap:               0.0
 (Enter /groups/ReismanLab/Software/Gaussian16_RevC/Linux_Binary_AVX2-enabled-CPU/g16/l401.exe)
 Initial guess from the checkpoint file:  "smiles_00072_conf_1.chk"
 B after Tr=    -0.000000   -0.000000   -0.000000
         Rot=    1.000000    0.000000   -0.000000   -0.000987 Ang=   0.11 deg.
 Guess basis will be translated and rotated to current coordinates.
 JPrj=2 DoOrth=T DoCkMO=T.
 Generating alternative initial guess.
 ExpMin= 1.43D-01 ExpMax= 5.74D+05 ExpMxC= 5.74D+03 IAcc=3 IRadAn=         5 AccDes= 0.00D+00
 Harris functional with IExCor=  402 and IRadAn=       5 diagonalized for initial guess.
 HarFok:  IExCor=  402 AccDes= 0.00D+00 IRadAn=         5 IDoV= 1 UseB2=F ITyADJ=14
 ICtDFT=  3500011 ScaDFX=  1.000000  1.000000  1.000000  1.000000
 FoFCou: FMM=F IPFlag=           0 FMFlag=      100000 FMFlg1=           0
         NFxFlg=           0 DoJE=T BraDBF=F KetDBF=T FulRan=T
         wScrn=  0.000000 ICntrl=       500 IOpCl=  0 I1Cent=   200000004 NGrid=           0
         NMat0=    1 NMatS0=      1 NMatT0=    0 NMatD0=    1 NMtDS0=    0 NMtDT0=    0
 Petite list used in FoFCou.
 Harris En= -2989.83031967488    
 Leave Link  401 at Tue Sep 17 09:51:55 2024, MaxMem=  1342177280 cpu:               3.0 elap:               1.0
 (Enter /groups/ReismanLab/Software/Gaussian16_RevC/Linux_Binary_AVX2-enabled-CPU/g16/l502.exe)
 Keep R1 ints in memory in canonical form, NReq=101728314.
 FoFCou: FMM=F IPFlag=           0 FMFlag=           0 FMFlg1=           0
         NFxFlg=           0 DoJE=F BraDBF=F KetDBF=F FulRan=T
         wScrn=  0.000000 ICntrl=       600 IOpCl=  0 I1Cent=           0 NGrid=           0
         NMat0=    1 NMatS0=  13695 NMatT0=    0 NMatD0=    1 NMtDS0=    0 NMtDT0=    0
 Symmetry not used in FoFCou.
 Two-electron integral symmetry not used.
 Closed shell SCF:
 Using DIIS extrapolation, IDIIS=  1040.
 NGot=  1342177280 LenX=  1248336152 LenY=  1248308486
 Requested convergence on RMS density matrix=1.00D-08 within  32 cycles.
 Requested convergence on MAX density matrix=1.00D-06.
 Requested convergence on             energy=1.00D-06.
 No special actions if energy rises.
 Integral accuracy reduced to 1.0D-05 until final iterations.

 Cycle   1  Pass 0  IDiag  1:
 E= -2989.72071793822    
 DIIS: error= 1.41D-03 at cycle   1 NSaved=   1.
 NSaved= 1 IEnMin= 1 EnMin= -2989.72071793822     IErMin= 1 ErrMin= 1.41D-03
 ErrMax= 1.41D-03  0.00D+00 EMaxC= 1.00D-01 BMatC= 1.52D-03 BMatP= 1.52D-03
 IDIUse=3 WtCom= 9.86D-01 WtEn= 1.41D-02
 Coeff-Com:  0.100D+01
 Coeff-En:   0.100D+01
 Coeff:      0.100D+01
 Gap=     1.440 Goal=   None    Shift=    0.000
 GapD=    1.440 DampG=2.000 DampE=1.000 DampFc=2.0000 IDamp=-1.
 RMSDP=3.37D-04 MaxDP=8.56D-03              OVMax= 7.24D-03

 Cycle   2  Pass 0  IDiag  1:
 E= -2989.72192619731     Delta-E=       -0.001208259095 Rises=F Damp=F
 DIIS: error= 7.69D-04 at cycle   2 NSaved=   2.
 NSaved= 2 IEnMin= 2 EnMin= -2989.72192619731     IErMin= 2 ErrMin= 7.69D-04
 ErrMax= 7.69D-04  0.00D+00 EMaxC= 1.00D-01 BMatC= 9.82D-05 BMatP= 1.52D-03
 IDIUse=3 WtCom= 9.92D-01 WtEn= 7.69D-03
 Coeff-Com:  0.749D-01 0.925D+00
 Coeff-En:   0.000D+00 0.100D+01
 Coeff:      0.743D-01 0.926D+00
 Gap=     0.189 Goal=   None    Shift=    0.000
 RMSDP=1.08D-04 MaxDP=4.59D-03 DE=-1.21D-03 OVMax= 4.84D-03

 Cycle   3  Pass 0  IDiag  1:
 E= -2989.72185817675     Delta-E=        0.000068020563 Rises=F Damp=F
 DIIS: error= 1.01D-03 at cycle   3 NSaved=   3.
 NSaved= 3 IEnMin= 2 EnMin= -2989.72192619731     IErMin= 2 ErrMin= 7.69D-04
 ErrMax= 1.01D-03  0.00D+00 EMaxC= 1.00D-01 BMatC= 1.88D-04 BMatP= 9.82D-05
 IDIUse=3 WtCom= 2.40D-01 WtEn= 7.60D-01
 Coeff-Com: -0.134D-01 0.588D+00 0.425D+00
 Coeff-En:   0.000D+00 0.631D+00 0.369D+00
 Coeff:     -0.321D-02 0.620D+00 0.383D+00
 Gap=     0.190 Goal=   None    Shift=    0.000
 RMSDP=6.38D-05 MaxDP=2.48D-03 DE= 6.80D-05 OVMax= 2.76D-03

 Cycle   4  Pass 0  IDiag  1:
 E= -2989.72200419833     Delta-E=       -0.000146021580 Rises=F Damp=F
 DIIS: error= 9.64D-05 at cycle   4 NSaved=   4.
 NSaved= 4 IEnMin= 4 EnMin= -2989.72200419833     IErMin= 4 ErrMin= 9.64D-05
 ErrMax= 9.64D-05  0.00D+00 EMaxC= 1.00D-01 BMatC= 3.09D-06 BMatP= 9.82D-05
 IDIUse=1 WtCom= 1.00D+00 WtEn= 0.00D+00
 Coeff-Com: -0.966D-02 0.267D+00 0.172D+00 0.571D+00
 Coeff:     -0.966D-02 0.267D+00 0.172D+00 0.571D+00
 Gap=     0.190 Goal=   None    Shift=    0.000
 RMSDP=1.34D-05 MaxDP=3.87D-04 DE=-1.46D-04 OVMax= 6.63D-04

 Cycle   5  Pass 0  IDiag  1:
 E= -2989.72200630946     Delta-E=       -0.000002111128 Rises=F Damp=F
 DIIS: error= 6.18D-05 at cycle   5 NSaved=   5.
 NSaved= 5 IEnMin= 5 EnMin= -2989.72200630946     IErMin= 5 ErrMin= 6.18D-05
 ErrMax= 6.18D-05  0.00D+00 EMaxC= 1.00D-01 BMatC= 7.22D-07 BMatP= 3.09D-06
 IDIUse=1 WtCom= 1.00D+00 WtEn= 0.00D+00
 Coeff-Com: -0.371D-02 0.763D-01 0.438D-01 0.344D+00 0.539D+00
 Coeff:     -0.371D-02 0.763D-01 0.438D-01 0.344D+00 0.539D+00
 Gap=     0.190 Goal=   None    Shift=    0.000
 RMSDP=5.24D-06 MaxDP=1.70D-04 DE=-2.11D-06 OVMax= 2.87D-04

 Initial convergence to 1.0D-05 achieved.  Increase integral accuracy.
 Cycle   6  Pass 1  IDiag  1:
 E= -2989.72202862612     Delta-E=       -0.000022316661 Rises=F Damp=F
 DIIS: error= 2.14D-05 at cycle   1 NSaved=   1.
 NSaved= 1 IEnMin= 1 EnMin= -2989.72202862612     IErMin= 1 ErrMin= 2.14D-05
 ErrMax= 2.14D-05  0.00D+00 EMaxC= 1.00D-01 BMatC= 8.22D-08 BMatP= 8.22D-08
 IDIUse=1 WtCom= 1.00D+00 WtEn= 0.00D+00
 Coeff-Com:  0.100D+01
 Coeff:      0.100D+01
 Gap=     0.190 Goal=   None    Shift=    0.000
 RMSDP=5.24D-06 MaxDP=1.70D-04 DE=-2.23D-05 OVMax= 1.84D-04

 Cycle   7  Pass 1  IDiag  1:
 E= -2989.72202850674     Delta-E=        0.000000119378 Rises=F Damp=F
 DIIS: error= 4.58D-05 at cycle   2 NSaved=   2.
 NSaved= 2 IEnMin= 1 EnMin= -2989.72202862612     IErMin= 1 ErrMin= 2.14D-05
 ErrMax= 4.58D-05  0.00D+00 EMaxC= 1.00D-01 BMatC= 2.38D-07 BMatP= 8.22D-08
 IDIUse=1 WtCom= 1.00D+00 WtEn= 0.00D+00
 Coeff-Com:  0.640D+00 0.360D+00
 Coeff:      0.640D+00 0.360D+00
 Gap=     0.190 Goal=   None    Shift=    0.000
 RMSDP=2.66D-06 MaxDP=1.08D-04 DE= 1.19D-07 OVMax= 1.64D-04

 Cycle   8  Pass 1  IDiag  1:
 E= -2989.72202869014     Delta-E=       -0.000000183396 Rises=F Damp=F
 DIIS: error= 7.45D-06 at cycle   3 NSaved=   3.
 NSaved= 3 IEnMin= 3 EnMin= -2989.72202869014     IErMin= 3 ErrMin= 7.45D-06
 ErrMax= 7.45D-06  0.00D+00 EMaxC= 1.00D-01 BMatC= 8.95D-09 BMatP= 8.22D-08
 IDIUse=1 WtCom= 1.00D+00 WtEn= 0.00D+00
 Coeff-Com:  0.213D+00 0.192D+00 0.595D+00
 Coeff:      0.213D+00 0.192D+00 0.595D+00
 Gap=     0.190 Goal=   None    Shift=    0.000
 RMSDP=6.84D-07 MaxDP=2.78D-05 DE=-1.83D-07 OVMax= 3.96D-05

 Cycle   9  Pass 1  IDiag  1:
 E= -2989.72202869576     Delta-E=       -0.000000005624 Rises=F Damp=F
 DIIS: error= 2.18D-06 at cycle   4 NSaved=   4.
 NSaved= 4 IEnMin= 4 EnMin= -2989.72202869576     IErMin= 4 ErrMin= 2.18D-06
 ErrMax= 2.18D-06  0.00D+00 EMaxC= 1.00D-01 BMatC= 1.55D-09 BMatP= 8.95D-09
 IDIUse=1 WtCom= 1.00D+00 WtEn= 0.00D+00
 Coeff-Com:  0.263D-01 0.589D-01 0.346D+00 0.569D+00
 Coeff:      0.263D-01 0.589D-01 0.346D+00 0.569D+00
 Gap=     0.190 Goal=   None    Shift=    0.000
 RMSDP=2.63D-07 MaxDP=7.23D-06 DE=-5.62D-09 OVMax= 1.33D-05

 Cycle  10  Pass 1  IDiag  1:
 E= -2989.72202869701     Delta-E=       -0.000000001251 Rises=F Damp=F
 DIIS: error= 7.01D-07 at cycle   5 NSaved=   5.
 NSaved= 5 IEnMin= 5 EnMin= -2989.72202869701     IErMin= 5 ErrMin= 7.01D-07
 ErrMax= 7.01D-07  0.00D+00 EMaxC= 1.00D-01 BMatC= 1.63D-10 BMatP= 1.55D-09
 IDIUse=1 WtCom= 1.00D+00 WtEn= 0.00D+00
 Coeff-Com: -0.519D-02 0.171D-01 0.145D+00 0.326D+00 0.517D+00
 Coeff:     -0.519D-02 0.171D-01 0.145D+00 0.326D+00 0.517D+00
 Gap=     0.190 Goal=   None    Shift=    0.000
 RMSDP=7.58D-08 MaxDP=2.27D-06 DE=-1.25D-09 OVMax= 4.23D-06

 Cycle  11  Pass 1  IDiag  1:
 E= -2989.72202869716     Delta-E=       -0.000000000154 Rises=F Damp=F
 DIIS: error= 2.25D-07 at cycle   6 NSaved=   6.
 NSaved= 6 IEnMin= 6 EnMin= -2989.72202869716     IErMin= 6 ErrMin= 2.25D-07
 ErrMax= 2.25D-07  0.00D+00 EMaxC= 1.00D-01 BMatC= 8.31D-12 BMatP= 1.63D-10
 IDIUse=1 WtCom= 1.00D+00 WtEn= 0.00D+00
 Coeff-Com: -0.368D-02 0.865D-02 0.761D-01 0.176D+00 0.305D+00 0.438D+00
 Coeff:     -0.368D-02 0.865D-02 0.761D-01 0.176D+00 0.305D+00 0.438D+00
 Gap=     0.190 Goal=   None    Shift=    0.000
 RMSDP=1.97D-08 MaxDP=7.61D-07 DE=-1.54D-10 OVMax= 1.43D-06

 Cycle  12  Pass 1  IDiag  1:
 E= -2989.72202869715     Delta-E=        0.000000000011 Rises=F Damp=F
 DIIS: error= 7.85D-08 at cycle   7 NSaved=   7.
 NSaved= 7 IEnMin= 6 EnMin= -2989.72202869716     IErMin= 7 ErrMin= 7.85D-08
 ErrMax= 7.85D-08  0.00D+00 EMaxC= 1.00D-01 BMatC= 7.95D-13 BMatP= 8.31D-12
 IDIUse=1 WtCom= 1.00D+00 WtEn= 0.00D+00
 Coeff-Com: -0.126D-02 0.221D-02 0.192D-01 0.450D-01 0.869D-01 0.256D+00
 Coeff-Com:  0.592D+00
 Coeff:     -0.126D-02 0.221D-02 0.192D-01 0.450D-01 0.869D-01 0.256D+00
 Coeff:      0.592D+00
 Gap=     0.190 Goal=   None    Shift=    0.000
 RMSDP=5.75D-09 MaxDP=1.82D-07 DE= 1.14D-11 OVMax= 3.01D-07

 SCF Done:  E(RB3LYP) =  -2989.72202870     A.U. after   12 cycles
            NFock= 12  Conv=0.58D-08     -V/T= 2.0065
 KE= 2.970381478218D+03 PE=-8.371834424323D+03 EE= 1.781140681966D+03
 Leave Link  502 at Tue Sep 17 09:52:00 2024, MaxMem=  1342177280 cpu:              29.0 elap:               5.0
 (Enter /groups/ReismanLab/Software/Gaussian16_RevC/Linux_Binary_AVX2-enabled-CPU/g16/l508.exe)
 QCSCF skips out because SCF is already converged.
 Leave Link  508 at Tue Sep 17 09:52:00 2024, MaxMem=  1342177280 cpu:               0.0 elap:               0.0
 (Enter /groups/ReismanLab/Software/Gaussian16_RevC/Linux_Binary_AVX2-enabled-CPU/g16/l701.exe)
 ... and contract with generalized density number  0.
 Compute integral first derivatives.
 R6Disp: Adding Grimme-D3(BJ) dispersion energy 1st derivatives to the gradient.
 Leave Link  701 at Tue Sep 17 09:52:00 2024, MaxMem=  1342177280 cpu:               0.6 elap:               0.1
 (Enter /groups/ReismanLab/Software/Gaussian16_RevC/Linux_Binary_AVX2-enabled-CPU/g16/l702.exe)
 L702 exits ... SP integral derivatives will be done elsewhere.
 Leave Link  702 at Tue Sep 17 09:52:00 2024, MaxMem=  1342177280 cpu:               0.0 elap:               0.0
 (Enter /groups/ReismanLab/Software/Gaussian16_RevC/Linux_Binary_AVX2-enabled-CPU/g16/l703.exe)
 Integral derivatives from FoFJK, PRISM(SPDF).
 Compute integral first derivatives, UseDBF=F ICtDFT=           0.
 Calling FoFJK, ICntrl=      2127 FMM=F ISym2X=0 I1Cent= 0 IOpClX= 0 NMat=1 NMatS=1 NMatT=0.
 FoFJK:  IHMeth= 1 ICntrl=    2127 DoSepK=F KAlg= 0 I1Cent=           0 FoldK=F
 IRaf=         0 NMat=       1 IRICut=       1 DoRegI=T DoRafI=F ISym2E= 0 IDoP0=0 IntGTp=1.
 FoFCou: FMM=F IPFlag=           0 FMFlag=      100000 FMFlg1=         800
         NFxFlg=           0 DoJE=F BraDBF=F KetDBF=F FulRan=T
         wScrn=  0.000000 ICntrl=      2127 IOpCl=  0 I1Cent=           0 NGrid=           0
         NMat0=    1 NMatS0=      1 NMatT0=    0 NMatD0=    1 NMtDS0=    0 NMtDT0=    0
 Symmetry not used in FoFCou.
 Leave Link  703 at Tue Sep 17 09:52:02 2024, MaxMem=  1342177280 cpu:              13.7 elap:               1.8
 (Enter /groups/ReismanLab/Software/Gaussian16_RevC/Linux_Binary_AVX2-enabled-CPU/g16/l716.exe)
 Dipole        =-1.02048660D-01 1.14990464D+00-1.10677083D-04
 ***** Axes restored to original set *****
 -------------------------------------------------------------------
 Center     Atomic                   Forces (Hartrees/Bohr)
 Number     Number              X              Y              Z
 -------------------------------------------------------------------
      1        8           0.002079721   -0.000669216    0.000032207
      2        6          -0.007820429    0.001815540   -0.000092955
      3        8           0.002796171   -0.000984262    0.000022930
      4        6           0.002031446   -0.007589633    0.000029592
      5        6          -0.000382713    0.002241167   -0.000004501
      6        6          -0.001039738    0.001213352    0.000001121
      7        6          -0.000076449   -0.005159523   -0.000008687
      8       35           0.001521663   -0.000066877   -0.000001557
      9        8          -0.001273462    0.008279202    0.000014258
     10        1           0.002177907    0.000829653    0.000004825
     11        1          -0.000212956    0.000022758   -0.000000059
     12        1           0.000198839    0.000067838    0.000002826
 -------------------------------------------------------------------
 Cartesian Forces:  Max     0.008279202 RMS     0.002646350
 Leave Link  716 at Tue Sep 17 09:52:02 2024, MaxMem=  1342177280 cpu:               0.0 elap:               0.0
 (Enter /groups/ReismanLab/Software/Gaussian16_RevC/Linux_Binary_AVX2-enabled-CPU/g16/l103.exe)

 GradGradGradGradGradGradGradGradGradGradGradGradGradGradGradGradGradGrad
 Berny optimization.
 Using GEDIIS/GDIIS optimizer.
 FormGI is forming the generalized inverse of G from B-inverse, IUseBI=4.
 Internal  Forces:  Max     0.003973864 RMS     0.001485164
 Search for a local minimum.
 Step number   2 out of a maximum of   61
 All quantities printed in internal units (Hartrees-Bohrs-Radians)
 RMS Force = .14852D-02 SwitMx=.10000D-02 MixMth= 1
 Mixed Optimization -- RFO/linear search
 Update second derivatives using D2CorX and points    1    2
 DE= -1.74D-03 DEPred=-1.74D-03 R= 1.00D+00
 TightC=F SS=  1.41D+00  RLast= 1.04D-01 DXNew= 5.0454D-01 3.1299D-01
 Trust test= 1.00D+00 RLast= 1.04D-01 DXMaxT set to 3.13D-01
 ITU=  1  0
 Use linear search instead of GDIIS.
     Eigenvalues ---    0.01234   0.01628   0.01893   0.02163   0.02262
     Eigenvalues ---    0.02307   0.02438   0.02443   0.02526   0.15903
     Eigenvalues ---    0.16000   0.16008   0.20566   0.22525   0.22895
     Eigenvalues ---    0.24820   0.25000   0.25000   0.28389   0.36379
     Eigenvalues ---    0.37225   0.37512   0.44000   0.44877   0.46258
     Eigenvalues ---    0.51535   0.54089   0.55291   0.57456   1.05315
 RFO step:  Lambda=-3.60983070D-04 EMin= 1.23388086D-02
 Quartic linear search produced a step of  0.01704.
 Iteration  1 RMS(Cart)=  0.01187609 RMS(Int)=  0.00007259
 Iteration  2 RMS(Cart)=  0.00010867 RMS(Int)=  0.00000559
 Iteration  3 RMS(Cart)=  0.00000001 RMS(Int)=  0.00000559
 ITry= 1 IFail=0 DXMaxC= 4.77D-02 DCOld= 1.00D+10 DXMaxT= 3.13D-01 DXLimC= 3.00D+00 Rises=F
 Variable       Old X    -DE/DX   Delta X   Delta X   Delta X     New X
                                 (Linear)    (Quad)   (Total)
    R1        2.29079  -0.00044   0.00034   0.00133   0.00167   2.29246
    R2        2.55793   0.00388   0.00032   0.00866   0.00898   2.56691
    R3        2.76342  -0.00018  -0.00007  -0.00089  -0.00096   2.76245
    R4        1.83142   0.00227  -0.00005   0.00408   0.00403   1.83546
    R5        2.59697  -0.00196  -0.00005  -0.00441  -0.00446   2.59251
    R6        2.58274   0.00350   0.00043   0.00923   0.00966   2.59240
    R7        2.69083  -0.00053   0.00055   0.00099   0.00153   2.69236
    R8        2.03990  -0.00016   0.00030   0.00114   0.00144   2.04135
    R9        2.59125  -0.00188   0.00006  -0.00363  -0.00357   2.58768
   R10        2.03861  -0.00017   0.00028   0.00100   0.00129   2.03990
   R11        3.52076  -0.00143   0.00016  -0.00631  -0.00616   3.51461
   R12        2.53883   0.00235   0.00042   0.00656   0.00698   2.54581
    A1        2.17133  -0.00397   0.00036  -0.01428  -0.01392   2.15741
    A2        2.19052   0.00093  -0.00008   0.00338   0.00330   2.19382
    A3        1.92134   0.00305  -0.00028   0.01090   0.01061   1.93195
    A4        1.84502   0.00095  -0.00113   0.00017  -0.00096   1.84406
    A5        2.31315   0.00213   0.00051   0.01103   0.01153   2.32468
    A6        2.05572  -0.00341  -0.00043  -0.01632  -0.01675   2.03898
    A7        1.91431   0.00127  -0.00008   0.00529   0.00521   1.91953
    A8        1.86110   0.00041   0.00004   0.00039   0.00041   1.86151
    A9        2.19176  -0.00006  -0.00013   0.00015   0.00003   2.19179
   A10        2.23032  -0.00035   0.00010  -0.00054  -0.00044   2.22989
   A11        1.83711  -0.00005   0.00009  -0.00165  -0.00157   1.83554
   A12        2.24244  -0.00010   0.00007   0.00060   0.00067   2.24311
   A13        2.20363   0.00015  -0.00015   0.00105   0.00090   2.20453
   A14        2.28659  -0.00004   0.00014   0.00042   0.00056   2.28716
   A15        1.94537   0.00190  -0.00017   0.00717   0.00700   1.95237
   A16        2.05123  -0.00186   0.00002  -0.00759  -0.00757   2.04366
   A17        1.86689  -0.00353   0.00013  -0.01120  -0.01106   1.85583
    D1        0.00016  -0.00002   0.00002  -0.00121  -0.00118  -0.00102
    D2        3.14104   0.00003  -0.00000   0.00167   0.00166  -3.14049
    D3        3.14156   0.00002  -0.00001   0.00120   0.00119  -3.14043
    D4       -0.00027   0.00002  -0.00001   0.00129   0.00128   0.00101
    D5        0.00069  -0.00003   0.00001  -0.00171  -0.00171  -0.00102
    D6       -3.14114  -0.00003   0.00001  -0.00162  -0.00162   3.14042
    D7        3.14142   0.00000   0.00000   0.00006   0.00006   3.14148
    D8       -0.00020   0.00000   0.00000   0.00008   0.00008  -0.00012
    D9        0.00005  -0.00000   0.00000  -0.00002  -0.00002   0.00003
   D10       -3.14157   0.00000   0.00000  -0.00000  -0.00000  -3.14157
   D11       -3.14143  -0.00000  -0.00000  -0.00010  -0.00010  -3.14154
   D12       -0.00003  -0.00000  -0.00000  -0.00003  -0.00003  -0.00007
   D13       -0.00006   0.00000  -0.00000   0.00007   0.00007   0.00001
   D14        3.14149   0.00000   0.00000   0.00006   0.00006   3.14155
   D15        3.14157   0.00000  -0.00000   0.00005   0.00005  -3.14157
   D16       -0.00007   0.00000   0.00000   0.00004   0.00004  -0.00003
   D17       -3.14158  -0.00000   0.00000  -0.00006  -0.00005   3.14155
   D18        0.00004  -0.00000   0.00000  -0.00009  -0.00009  -0.00005
   D19        0.00006  -0.00000  -0.00000  -0.00005  -0.00005   0.00001
   D20       -3.14151  -0.00000  -0.00000  -0.00008  -0.00009  -3.14159
   D21       -0.00001   0.00000  -0.00000   0.00008   0.00008   0.00007
   D22       -3.14158   0.00000   0.00000   0.00005   0.00005  -3.14153
         Item               Value     Threshold  Converged?
 Maximum Force            0.003974     0.000450     NO 
 RMS     Force            0.001485     0.000300     NO 
 Maximum Displacement     0.047677     0.001800     NO 
 RMS     Displacement     0.011915     0.001200     NO 
 Predicted change in Energy=-1.811140D-04
 Lowest energy point so far.  Saving SCF results.
 GradGradGradGradGradGradGradGradGradGradGradGradGradGradGradGradGradGrad

 Leave Link  103 at Tue Sep 17 09:52:02 2024, MaxMem=  1342177280 cpu:               0.1 elap:               0.0
 (Enter /groups/ReismanLab/Software/Gaussian16_RevC/Linux_Binary_AVX2-enabled-CPU/g16/l202.exe)
                          Input orientation:                          
 ---------------------------------------------------------------------
 Center     Atomic      Atomic             Coordinates (Angstroms)
 Number     Number       Type             X           Y           Z
 ---------------------------------------------------------------------
      1          8           0        2.995942    1.632093    0.000877
      2          6           0        2.869588    0.425574   -0.001152
      3          8           0        3.916382   -0.440073   -0.000972
      4          6           0        1.600029   -0.299102   -0.001181
      5          6           0        1.280315   -1.633223   -0.002083
      6          6           0       -0.142225   -1.712265   -0.001394
      7          6           0       -0.573296   -0.412546   -0.000139
      8         35           0       -2.289134    0.305046    0.001278
      9          8           0        0.455506    0.457210    0.000073
     10          1           0        4.714391    0.113614    0.000071
     11          1           0        1.988206   -2.449185   -0.003122
     12          1           0       -0.766630   -2.592816   -0.001809
 ---------------------------------------------------------------------
                    Distance matrix (angstroms):
                    1          2          3          4          5
     1  O    0.000000
     2  C    1.213118   0.000000
     3  O    2.267396   1.358353   0.000000
     4  C    2.382875   1.461827   2.320639   0.000000
     5  C    3.688587   2.600854   2.893521   1.371895   0.000000
     6  C    4.586156   3.693423   4.253324   2.243318   1.424735
     7  C    4.113394   3.543431   4.489763   2.176284   2.219444
     8  Br   5.449136   5.160131   6.250091   3.935809   4.061756
     9  O    2.798957   2.414290   3.575301   1.371839   2.247271
    10  H    2.293218   1.870994   0.971282   3.141590   3.852833
    11  H    4.203853   3.006839   2.784673   2.184844   1.080234
    12  H    5.657456   4.725755   5.154115   3.295784   2.260708
                    6          7          8          9         10
     6  C    0.000000
     7  C    1.369340   0.000000
     8  Br   2.945975   1.859849   0.000000
     9  O    2.250312   1.347186   2.748855   0.000000
    10  H    5.188502   5.313801   7.006141   4.272722   0.000000
    11  H    2.254283   3.272492   5.087381   3.285774   3.741662
    12  H    1.079468   2.188825   3.273474   3.285769   6.112802
                   11         12
    11  H    0.000000
    12  H    2.758578   0.000000
 Stoichiometry    C5H3BrO3
 Framework group  C1[X(C5H3BrO3)]
 Deg. of freedom    30
 Full point group                 C1      NOp   1
 RotChk:  IX=0 Diff= 2.20D-03
 Largest Abelian subgroup         C1      NOp   1
 Largest concise Abelian subgroup C1      NOp   1
                         Standard orientation:                         
 ---------------------------------------------------------------------
 Center     Atomic      Atomic             Coordinates (Angstroms)
 Number     Number       Type             X           Y           Z
 ---------------------------------------------------------------------
      1          8           0       -2.814416   -1.694762    0.000158
      2          6           0       -2.701623   -0.486899   -0.000747
      3          8           0       -3.758074    0.366935    0.000612
      4          6           0       -1.440284    0.251992   -0.000494
      5          6           0       -1.135575    1.589621   -0.000212
      6          6           0        0.285988    1.684635    0.000085
      7          6           0        0.731631    0.389840   -0.000055
      8         35           0        2.455421   -0.308435    0.000105
      9          8           0       -0.287338   -0.491418   -0.000346
     10          1           0       -4.549813   -0.195681    0.001383
     11          1           0       -1.852587    2.397580   -0.000232
     12          1           0        0.900462    2.572144    0.000316
 ---------------------------------------------------------------------
 Rotational constants (GHZ):           3.5727051           0.5124048           0.4481327
 Leave Link  202 at Tue Sep 17 09:52:02 2024, MaxMem=  1342177280 cpu:               0.0 elap:               0.0
 (Enter /groups/ReismanLab/Software/Gaussian16_RevC/Linux_Binary_AVX2-enabled-CPU/g16/l301.exe)
 Standard basis: 6-31G(d,p) (6D, 7F)
 Ernie: Thresh=  0.10000D-02 Tol=  0.10000D-05 Strict=F.
 There are   165 symmetry adapted cartesian basis functions of A   symmetry.
 There are   165 symmetry adapted basis functions of A   symmetry.
   165 basis functions,   328 primitive gaussians,   165 cartesian basis functions
    46 alpha electrons       46 beta electrons
       nuclear repulsion energy       630.7642446614 Hartrees.
 IExCor=  402 DFT=T Ex+Corr=B3LYP ExCW=0 ScaHFX=  0.200000
 ScaDFX=  0.800000  0.720000  1.000000  0.810000 ScalE2=  1.000000  1.000000
 IRadAn=      5 IRanWt=     -1 IRanGd=            0 ICorTp=0 IEmpDi=141
 NAtoms=   12 NActive=   12 NUniq=   12 SFac= 1.00D+00 NAtFMM=   60 NAOKFM=F Big=F
 Integral buffers will be    131072 words long.
 Raffenetti 2 integral format.
 Two-electron integral symmetry is turned on.
 R6Disp:  Grimme-D3(BJ) Dispersion energy=       -0.0213585055 Hartrees.
 Nuclear repulsion after empirical dispersion term =      630.7428861559 Hartrees.
 Leave Link  301 at Tue Sep 17 09:52:02 2024, MaxMem=  1342177280 cpu:               0.1 elap:               0.0
 (Enter /groups/ReismanLab/Software/Gaussian16_RevC/Linux_Binary_AVX2-enabled-CPU/g16/l302.exe)
 NPDir=0 NMtPBC=     1 NCelOv=     1 NCel=       1 NClECP=     1 NCelD=      1
         NCelK=      1 NCelE2=     1 NClLst=     1 CellRange=     0.0.
 One-electron integrals computed using PRISM.
 One-electron integral symmetry used in STVInt
 NBasis=   165 RedAO= T EigKep=  7.29D-04  NBF=   165
 NBsUse=   165 1.00D-06 EigRej= -1.00D+00 NBFU=   165
 Precomputing XC quadrature grid using
 IXCGrd= 4 IRadAn=           5 IRanWt=          -1 IRanGd=           0 AccXCQ= 0.00D+00.
 Generated NRdTot=       0 NPtTot=           0 NUsed=           0 NTot=          32
 NSgBfM=   164   164   164   164   164 MxSgAt=    12 MxSgA2=    12.
[...]
 QCSCF skips out because SCF is already converged.
 Leave Link  508 at Tue Sep 17 10:00:56 2024, MaxMem=  1342177280 cpu:               0.0 elap:               0.0
 (Enter /groups/ReismanLab/Software/Gaussian16_RevC/Linux_Binary_AVX2-enabled-CPU/g16/l801.exe)
 DoSCS=F DFT=T ScalE2(SS,OS)=  1.000000  1.000000
 Range of M.O.s used for correlation:     1   314
 NBasis=   314 NAE=    46 NBE=    46 NFC=     0 NFV=     0
 NROrb=    314 NOA=    46 NOB=    46 NVA=   268 NVB=   268

 **** Warning!!: The largest alpha MO coefficient is  0.43226782D+02

 Leave Link  801 at Tue Sep 17 10:00:56 2024, MaxMem=  1342177280 cpu:               0.0 elap:               0.0
 (Enter /groups/ReismanLab/Software/Gaussian16_RevC/Linux_Binary_AVX2-enabled-CPU/g16/l1002.exe)
 Minotr:  Closed shell wavefunction.
 NEqPCM:  Using equilibrium solvation (IEInf=0, Eps=   2.2099, EpsInf=   2.0232)
          Direct CPHF calculation.
          Differentiating once with respect to magnetic field using GIAOs.
          Electric field/nuclear overlap derivatives assumed to be zero.
          Requested convergence is 1.0D-08 RMS, and 1.0D-07 maximum.
          Secondary convergence is 1.0D-12 RMS, and 1.0D-12 maximum.
          NewPWx=T KeepS1=F KeepF1=F KeepIn=T MapXYZ=F SortEE=F KeepMc=T.
         3612 words used for storage of precomputed grid.
 Keep R3 ints in memory in canonical form, NReq=1246649327.
 FoFCou: FMM=F IPFlag=           0 FMFlag=           0 FMFlg1=           0
         NFxFlg=           0 DoJE=F BraDBF=F KetDBF=F FulRan=T
         wScrn=  0.000000 ICntrl=       600 IOpCl=  0 I1Cent=           0 NGrid=           0
         NMat0=    1 NMatS0=  49455 NMatT0=    0 NMatD0=    1 NMtDS0=    0 NMtDT0=    0
 Symmetry not used in FoFCou.
 Two-electron integral symmetry not used.
          MDV=    1342177280 using IRadAn=       1.
          Solving linear equations simultaneously, MaxMat=       0.
   1 Symmetry operations used in ECPInt.
 ECPInt:  NShTT=    6786 NPrTT=   23904 LenC2=    6787 LenP2D=   23904.
 LDataN:  DoStor=T MaxTD1= 7 Len=  274
 FoFJK:  IHMeth= 1 ICntrl=    6127 DoSepK=F KAlg= 0 I1Cent=           0 FoldK=F
 IRaf=         1 NMat=       1 IRICut=       1 DoRegI=T DoRafI=F ISym2E= 0 IDoP0=0 IntGTp=1.
          There are     3 degrees of freedom in the 1st order CPHF.  IDoFFX=0 NUNeed=     3.
      3 vectors produced by pass  0 Test12= 4.11D-13 3.33D-08 XBig12= 9.85D+00 1.02D+00.
 AX will form     3 AO Fock derivatives at one time.
      3 vectors produced by pass  1 Test12= 4.11D-13 3.33D-08 XBig12= 9.37D-02 1.53D-01.
      3 vectors produced by pass  2 Test12= 4.11D-13 3.33D-08 XBig12= 1.34D-03 1.67D-02.
      3 vectors produced by pass  3 Test12= 4.11D-13 3.33D-08 XBig12= 1.50D-05 1.55D-03.
      3 vectors produced by pass  4 Test12= 4.11D-13 3.33D-08 XBig12= 2.46D-07 2.15D-04.
      3 vectors produced by pass  5 Test12= 4.11D-13 3.33D-08 XBig12= 4.31D-09 2.66D-05.
      3 vectors produced by pass  6 Test12= 4.11D-13 3.33D-08 XBig12= 5.12D-11 2.32D-06.
      3 vectors produced by pass  7 Test12= 4.11D-13 3.33D-08 XBig12= 5.76D-13 1.91D-07.
 InvSVY:  IOpt=1 It=  1 EMax= 4.44D-16
 Solved reduced A of dimension    24 with     3 vectors.
 Calculating GIAO nuclear magnetic shielding tensors.
 SCF GIAO Magnetic shielding tensor (ppm):
      1  O    Isotropic =  -121.9996   Anisotropy =   606.3733
   XX=  -288.1394   YX=    31.3698   ZX=    -0.0817
   XY=    12.6555   YY=  -360.1086   ZY=     0.0030
   XZ=    -0.1023   YZ=    -0.0479   ZZ=   282.2493
   Eigenvalues:  -366.3075  -281.9406   282.2493
      2  C    Isotropic =    11.1661   Anisotropy =    98.4718
   XX=   -98.7717   YX=     7.6128   ZX=    -0.0221
   XY=    30.1756   YY=    55.4561   ZY=     0.0109
   XZ=    -0.0248   YZ=     0.0050   ZZ=    76.8140
   Eigenvalues:  -101.0527    57.7370    76.8140
      3  O    Isotropic =   122.3290   Anisotropy =   216.6888
   XX=   173.7100   YX=   -85.2085   ZX=     0.0266
   XY=  -201.1683   YY=    46.5120   ZY=    -0.0339
   XZ=    -0.0072   YZ=    -0.0283   ZZ=   146.7651
   Eigenvalues:   -46.5662   146.7651   266.7882
      4  C    Isotropic =    19.7409   Anisotropy =   107.1482
   XX=   -50.3353   YX=    -8.2045   ZX=     0.0190
   XY=    15.1126   YY=    18.3850   ZY=     0.0051
   XZ=     0.0084   YZ=     0.0023   ZZ=    91.1730
   Eigenvalues:   -50.5085    18.5581    91.1730
      5  C    Isotropic =    43.3462   Anisotropy =   177.1809
   XX=   -34.1713   YX=    37.2780   ZX=    -0.0043
   XY=    23.4495   YY=     2.7432   ZY=     0.0087
   XZ=     0.0115   YZ=     0.0033   ZZ=   161.4668
   Eigenvalues:   -51.2475    19.8194   161.4668
      6  C    Isotropic =    52.6170   Anisotropy =   140.6737
   XX=    -3.9168   YX=   -40.5431   ZX=    -0.0063
   XY=   -55.1377   YY=    15.3684   ZY=    -0.0048
   XZ=     0.0005   YZ=    -0.0055   ZZ=   146.3995
   Eigenvalues:   -43.0767    54.5283   146.3995
      7  C    Isotropic =    15.7966   Anisotropy =    78.8377
   XX=   -71.5301   YX=     3.1625   ZX=     0.0071
   XY=   -20.5202   YY=    50.5649   ZY=     0.0018
   XZ=    -0.0089   YZ=     0.0087   ZZ=    68.3551
   Eigenvalues:   -72.1439    51.1787    68.3551
      8  Br   Isotropic =  2103.0502   Anisotropy =  1199.7366
   XX=  2701.4275   YX=  -502.3770   ZX=     0.0031
   XY=  -468.7141   YY=  1732.5699   ZY=     0.0021
   XZ=     0.0180   YZ=     0.0437   ZZ=  1875.1533
   Eigenvalues:  1531.1228  1875.1533  2902.8746
      9  O    Isotropic =   -23.5525   Anisotropy =   311.4668
   XX=  -150.0882   YX=     8.4303   ZX=     0.0149
   XY=    12.1023   YY=  -104.6614   ZY=    -0.0017
   XZ=    -0.0016   YZ=     0.0228   ZZ=   184.0920
   Eigenvalues:  -152.3006  -102.4490   184.0920
     10  H    Isotropic =    25.6229   Anisotropy =    11.1697
   XX=    32.6104   YX=     4.6918   ZX=     0.0017
   XY=    -0.2253   YY=    22.2033   ZY=     0.0001
   XZ=     0.0018   YZ=     0.0001   ZZ=    22.0552
   Eigenvalues:    21.7443    22.0552    33.0694
     11  H    Isotropic =    23.8392   Anisotropy =     4.2964
   XX=    25.0069   YX=     2.2638   ZX=     0.0000
   XY=     1.3892   YY=    24.7371   ZY=    -0.0000
   XZ=     0.0002   YZ=    -0.0004   ZZ=    21.7736
   Eigenvalues:    21.7736    23.0405    26.7035
     12  H    Isotropic =    24.6983   Anisotropy =     6.2849
   XX=    25.3975   YX=    -2.7975   ZX=    -0.0001
   XY=    -2.4952   YY=    26.8821   ZY=     0.0001
   XZ=    -0.0001   YZ=     0.0000   ZZ=    21.8154
   Eigenvalues:    21.8154    23.3913    28.8883
 End of Minotr F.D. properties file   721 does not exist.
 End of Minotr F.D. properties file   722 does not exist.
 End of Minotr F.D. properties file   788 does not exist.
 Leave Link 1002 at Tue Sep 17 10:03:50 2024, MaxMem=  1342177280 cpu:             173.2 elap:             173.5
 (Enter /groups/ReismanLab/Software/Gaussian16_RevC/Linux_Binary_AVX2-enabled-CPU/g16/l601.exe)
 Copying SCF densities to generalized density rwf, IOpCl= 0 IROHF=0.

 **********************************************************************

            Population analysis using the SCF Density.

 **********************************************************************

 Orbital symmetries:
       Occupied  (A) (A) (A) (A) (A) (A) (A) (A) (A) (A) (A) (A)
                 (A) (A) (A) (A) (A) (A) (A) (A) (A) (A) (A) (A)
                 (A) (A) (A) (A) (A) (A) (A) (A) (A) (A) (A) (A)
                 (A) (A) (A) (A) (A) (A) (A) (A) (A) (A)
       Virtual   (A) (A) (A) (A) (A) (A) (A) (A) (A) (A) (A) (A)
                 (A) (A) (A) (A) (A) (A) (A) (A) (A) (A) (A) (A)
                 (A) (A) (A) (A) (A) (A) (A) (A) (A) (A) (A) (A)
                 (A) (A) (A) (A) (A) (A) (A) (A) (A) (A) (A) (A)
                 (A) (A) (A) (A) (A) (A) (A) (A) (A) (A) (A) (A)
                 (A) (A) (A) (A) (A) (A) (A) (A) (A) (A) (A) (A)
                 (A) (A) (A) (A) (A) (A) (A) (A) (A) (A) (A) (A)
                 (A) (A) (A) (A) (A) (A) (A) (A) (A) (A) (A) (A)
                 (A) (A) (A) (A) (A) (A) (A) (A) (A) (A) (A) (A)
                 (A) (A) (A) (A) (A) (A) (A) (A) (A) (A) (A) (A)
                 (A) (A) (A) (A) (A) (A) (A) (A) (A) (A) (A) (A)
                 (A) (A) (A) (A) (A) (A) (A) (A) (A) (A) (A) (A)
                 (A) (A) (A) (A) (A) (A) (A) (A) (A) (A) (A) (A)
                 (A) (A) (A) (A) (A) (A) (A) (A) (A) (A) (A) (A)
                 (A) (A) (A) (A) (A) (A) (A) (A) (A) (A) (A) (A)
                 (A) (A) (A) (A) (A) (A) (A) (A) (A) (A) (A) (A)
                 (A) (A) (A) (A) (A) (A) (A) (A) (A) (A) (A) (A)
                 (A) (A) (A) (A) (A) (A) (A) (A) (A) (A) (A) (A)
                 (A) (A) (A) (A) (A) (A) (A) (A) (A) (A) (A) (A)
                 (A) (A) (A) (A) (A) (A) (A) (A) (A) (A) (A) (A)
                 (A) (A) (A) (A) (A) (A) (A) (A) (A) (A) (A) (A)
                 (A) (A) (A) (A) (A) (A) (A) (A) (A) (A) (A) (A)
                 (A) (A) (A) (A)
 The electronic state is 1-A.
 Alpha  occ. eigenvalues -- -485.40179 -63.38659 -57.20615 -57.20359 -57.20353
 Alpha  occ. eigenvalues --  -19.72598 -19.68291 -19.63006 -10.69611 -10.66779
 Alpha  occ. eigenvalues --  -10.62198 -10.57417 -10.56683  -9.05328  -6.87789
 Alpha  occ. eigenvalues --   -6.86828  -6.86809  -2.91173  -2.90817  -2.90791
 Alpha  occ. eigenvalues --   -2.89899  -2.89898  -1.27331  -1.24170  -1.14994
 Alpha  occ. eigenvalues --   -0.94180  -0.93159  -0.85817  -0.74821  -0.71642
 Alpha  occ. eigenvalues --   -0.66113  -0.62463  -0.58719  -0.58202  -0.54911
 Alpha  occ. eigenvalues --   -0.53575  -0.51838  -0.49692  -0.48504  -0.46927
 Alpha  occ. eigenvalues --   -0.41348  -0.40133  -0.37946  -0.37405  -0.37151
 Alpha  occ. eigenvalues --   -0.29853
 Alpha virt. eigenvalues --   -0.02747   0.03180   0.05440   0.07232   0.09501
 Alpha virt. eigenvalues --    0.11932   0.12222   0.13240   0.15911   0.17514
 Alpha virt. eigenvalues --    0.17811   0.20066   0.21168   0.21380   0.24760
 Alpha virt. eigenvalues --    0.25574   0.25945   0.27197   0.28166   0.29722
 Alpha virt. eigenvalues --    0.30309   0.31068   0.31158   0.31655   0.34047
 Alpha virt. eigenvalues --    0.34109   0.36512   0.37147   0.38145   0.39446
 Alpha virt. eigenvalues --    0.40137   0.41839   0.42228   0.43819   0.45881
 Alpha virt. eigenvalues --    0.46514   0.50293   0.50774   0.51020   0.51661
 Alpha virt. eigenvalues --    0.53921   0.56451   0.56647   0.57912   0.59340
 Alpha virt. eigenvalues --    0.62688   0.62979   0.64049   0.65401   0.66780
 Alpha virt. eigenvalues --    0.68754   0.70918   0.71602   0.72733   0.75307
 Alpha virt. eigenvalues --    0.77019   0.79618   0.82754   0.85233   0.85361
 Alpha virt. eigenvalues --    0.86169   0.91481   0.92355   0.92922   0.94571
 Alpha virt. eigenvalues --    0.95132   0.98148   0.99561   1.05124   1.06070
 Alpha virt. eigenvalues --    1.09796   1.11471   1.13806   1.14003   1.19208
 Alpha virt. eigenvalues --    1.20216   1.24363   1.25263   1.26615   1.29946
 Alpha virt. eigenvalues --    1.33440   1.33792   1.34101   1.36624   1.37339
 Alpha virt. eigenvalues --    1.39483   1.39877   1.44531   1.46473   1.48021
 Alpha virt. eigenvalues --    1.50508   1.52434   1.53161   1.55249   1.55404
 Alpha virt. eigenvalues --    1.56538   1.56670   1.58911   1.60061   1.61569
 Alpha virt. eigenvalues --    1.63560   1.64982   1.65761   1.67518   1.72459
 Alpha virt. eigenvalues --    1.74013   1.74500   1.79625   1.80775   1.83962
 Alpha virt. eigenvalues --    1.84157   1.85282   1.85577   1.91390   1.91938
 Alpha virt. eigenvalues --    1.92076   1.98334   1.99309   2.01719   2.03164
 Alpha virt. eigenvalues --    2.04472   2.08032   2.09022   2.09865   2.12463
 Alpha virt. eigenvalues --    2.15452   2.17919   2.20980   2.22264   2.25747
 Alpha virt. eigenvalues --    2.26142   2.34662   2.35335   2.38501   2.40844
 Alpha virt. eigenvalues --    2.43682   2.47139   2.51404   2.53499   2.56993
 Alpha virt. eigenvalues --    2.60250   2.63768   2.64566   2.66324   2.67780
 Alpha virt. eigenvalues --    2.68791   2.71385   2.75124   2.75242   2.78843
 Alpha virt. eigenvalues --    2.83598   2.84015   2.86691   2.87334   2.89961
 Alpha virt. eigenvalues --    2.90574   2.94504   2.95873   2.98470   3.00108
 Alpha virt. eigenvalues --    3.02778   3.03710   3.04567   3.07483   3.09589
 Alpha virt. eigenvalues --    3.13885   3.15653   3.17912   3.18224   3.20318
 Alpha virt. eigenvalues --    3.20810   3.21393   3.24311   3.24842   3.26531
 Alpha virt. eigenvalues --    3.26912   3.29750   3.30043   3.34610   3.36891
 Alpha virt. eigenvalues --    3.39871   3.39995   3.44377   3.46668   3.50647
 Alpha virt. eigenvalues --    3.52094   3.56070   3.56759   3.61715   3.64773
 Alpha virt. eigenvalues --    3.67969   3.72346   3.73823   3.78088   3.82446
 Alpha virt. eigenvalues --    3.83738   3.97849   4.02510   4.04692   4.07279
 Alpha virt. eigenvalues --    4.11080   4.13102   4.14484   4.18740   4.21597
 Alpha virt. eigenvalues --    4.21830   4.25734   4.35171   4.36742   4.36828
 Alpha virt. eigenvalues --    4.39741   4.47367   4.55224   4.59451   4.62685
 Alpha virt. eigenvalues --    4.64971   4.72086   4.76781   4.81344   4.88554
 Alpha virt. eigenvalues --    4.94550   4.96055   5.15391   5.21054   5.21631
 Alpha virt. eigenvalues --    5.34832   5.37324   5.40146   5.40559   5.48228
 Alpha virt. eigenvalues --    5.57497   5.66971   5.68668   5.75001   5.76631
 Alpha virt. eigenvalues --    5.80587   5.88527   5.97457   6.14555   6.15196
 Alpha virt. eigenvalues --    6.21644   6.31033   6.35277   6.43410   6.43518
 Alpha virt. eigenvalues --    6.52113   6.63513   6.67615   6.69054   6.75252
 Alpha virt. eigenvalues --    6.75704   6.80013   6.82570   6.90618   7.07760
 Alpha virt. eigenvalues --    7.11167   7.22124   7.26517   7.41213   7.88187
 Alpha virt. eigenvalues --   22.36952  22.71807  22.82386  23.29487  23.41373
 Alpha virt. eigenvalues --   43.91245  43.98264  44.33068
          Condensed to atoms (all electrons):
               1          2          3          4          5          6
     1  O    7.803386   0.728329  -0.085890  -0.117996  -0.000977   0.000541
     2  C    0.728329   4.513581   0.435773   0.167086  -0.070077   0.017533
     3  O   -0.085890   0.435773   7.935662  -0.184461   0.013301  -0.000147
     4  C   -0.117996   0.167086  -0.184461   5.288262   0.564506  -0.076365
     5  C   -0.000977  -0.070077   0.013301   0.564506   5.019847   0.359563
     6  C    0.000541   0.017533  -0.000147  -0.076365   0.359563   5.134615
     7  C   -0.001495  -0.022605  -0.000458  -0.134989  -0.023352   0.506401
     8  Br  -0.000012  -0.001554   0.000003  -0.007727   0.025058  -0.100327
     9  O   -0.001404  -0.032839   0.001419   0.324367  -0.067783  -0.072707
    10  H    0.004509  -0.035092   0.297777   0.027678  -0.001866   0.000033
    11  H   -0.000108  -0.007718   0.002181  -0.012541   0.399535  -0.025733
    12  H    0.000001   0.000064  -0.000029   0.006088  -0.025790   0.408016
               7          8          9         10         11         12
     1  O   -0.001495  -0.000012  -0.001404   0.004509  -0.000108   0.000001
     2  C   -0.022605  -0.001554  -0.032839  -0.035092  -0.007718   0.000064
     3  O   -0.000458   0.000003   0.001419   0.297777   0.002181  -0.000029
     4  C   -0.134989  -0.007727   0.324367   0.027678  -0.012541   0.006088
     5  C   -0.023352   0.025058  -0.067783  -0.001866   0.399535  -0.025790
     6  C    0.506401  -0.100327  -0.072707   0.000033  -0.025733   0.408016
     7  C    4.828337   0.391561   0.361691   0.000059   0.006973  -0.022493
     8  Br   0.391561  34.770415  -0.055853  -0.000002  -0.000057  -0.002654
     9  O    0.361691  -0.055853   7.743746  -0.000157   0.003304   0.002588
    10  H    0.000059  -0.000002  -0.000157   0.349860   0.000142   0.000001
    11  H    0.006973  -0.000057   0.003304   0.000142   0.446224  -0.000680
    12  H   -0.022493  -0.002654   0.002588   0.000001  -0.000680   0.441784
 Mulliken charges:
               1
     1  O   -0.328884
     2  C    0.307519
     3  O   -0.415131
     4  C    0.156092
     5  C   -0.191965
     6  C   -0.151422
     7  C    0.110370
     8  Br  -0.018852
     9  O   -0.206371
    10  H    0.357060
    11  H    0.188479
    12  H    0.193106
 Sum of Mulliken charges =  -0.00000
 Mulliken charges with hydrogens summed into heavy atoms:
               1
     1  O   -0.328884
     2  C    0.307519
     3  O   -0.058072
     4  C    0.156092
     5  C   -0.003487
     6  C    0.041684
     7  C    0.110370
     8  Br  -0.018852
     9  O   -0.206371
 Electronic spatial extent (au):  <R**2>=           2123.2617
 Charge=              0.0000 electrons
 Dipole moment (field-independent basis, Debye):
    X=             -0.2190    Y=              3.5516    Z=              0.0001  Tot=              3.5583
 Quadrupole moment (field-independent basis, Debye-Ang):
   XX=            -52.5061   YY=            -63.7662   ZZ=            -64.1803
   XY=             -4.0786   XZ=              0.0005   YZ=              0.0003
 Traceless Quadrupole moment (field-independent basis, Debye-Ang):
   XX=              7.6448   YY=             -3.6153   ZZ=             -4.0294
   XY=             -4.0786   XZ=              0.0005   YZ=              0.0003
 Octapole moment (field-independent basis, Debye-Ang**2):
  XXX=              2.0270  YYY=             11.1567  ZZZ=             -0.0015  XYY=             34.1115
  XXY=             -3.9327  XXZ=             -0.0054  XZZ=             17.1459  YZZ=             -8.7581
  YYZ=             -0.0007  XYZ=             -0.0004
 Hexadecapole moment (field-independent basis, Debye-Ang**3):
 XXXX=          -1447.2143 YYYY=           -387.9069 ZZZZ=            -67.3763 XXXY=            -13.5750
 XXXZ=              0.0326 YYYX=            -50.1188 YYYZ=              0.0015 ZZZX=              0.0008
 ZZZY=             -0.0002 XXYY=           -417.5599 XXZZ=           -328.7809 YYZZ=            -85.2147
 XXYZ=              0.0036 YYXZ=              0.0022 ZZXY=             -1.9233
 N-N= 6.308479255277D+02 E-N=-8.392936548946D+03  KE= 2.986868989195D+03
 Calculating spin-rotation constants.
 Leave Link  601 at Tue Sep 17 10:03:51 2024, MaxMem=  1342177280 cpu:               1.3 elap:               1.3
 (Enter /groups/ReismanLab/Software/Gaussian16_RevC/Linux_Binary_AVX2-enabled-CPU/g16/l9999.exe)
 Unable to Open any file for archive entry.
 1\1\GINC-HPC-52-32\SP\RM062X\def2TZVP\C5H3Br1O3\MANTIND\17-Sep-2024\0\
 \#p M062X/def2tzvp geom=check guess=read scf(xqc,tight) integral(grid=
 ultrafine) scrf(SMD, solvent=1,4-Dioxane) nmr=giao\\spe\\0,1\O,0,2.992
 6325069,1.630708881,0.0008971744\C,0,2.8687768621,0.4250815612,-0.0000
 471294\O,0,3.918146941,-0.4387148955,-0.0013707961\C,0,1.6022921719,-0
 .3023245503,-0.0005363673\C,0,1.279707282,-1.6340179299,-0.0017797024\
 C,0,-0.142518558,-1.7117489132,-0.00150749\C,0,-0.5728572421,-0.413331
 1355,-0.0002702822\Br,0,-2.2876032213,0.3078672419,0.0007202008\O,0,0.
 4563893284,0.4567678298,0.000353997\H,0,4.7145879783,0.1172052682,-0.0
 011398398\H,0,1.9850090294,-2.451086177,-0.0026980259\H,0,-0.765489938
 ,-2.5920795048,-0.0021741507\\Version=ES64L-G16RevC.02\State=1-A\HF=-2
 992.2099534\RMSD=1.500e-09\Dipole=0.0694849,-1.3982311,-0.001281\Quadr
 upole=5.6100953,-2.6143028,-2.9957925,-3.1314305,-0.0050365,0.000786\P
 G=C01 [X(C5H3Br1O3)]\\@
 The archive entry for this job was punched.


 CHARLIE BROWN -- WHICH DO YOU THINK LASTS LONGER IN LIFE, THE GOOD THINGS 
                  OR THE BAD THINGS?
 LINUS --         GOOD THINGS LAST EIGHT SECONDS ..
                  BAD THINGS LAST THREE WEEKS
 CHARLIE BROWN -- WHAT ABOUT IN BETWEEN?
 SNOOPY --        IN BETWEEN YOU SHOULD TAKE A NAP ...
 Job cpu time:       0 days  0 hours  3 minutes 39.3 seconds.
 Elapsed time:       0 days  0 hours  3 minutes 40.6 seconds.
 File lengths (MBytes):  RWF=    192 Int=      0 D2E=      0 Chk=     24 Scr=     16
 Normal termination of Gaussian 16 at Tue Sep 17 10:03:51 2024.
