 Entering Gaussian System, Link 0=g16
 Input=smiles_00088_conf_1.gjf
 Output=smiles_00088_conf_1.log
 Initial command:
 /groups/ReismanLab/Software/Gaussian16_RevC/Linux_Binary_AVX2-enabled-CPU/g16/l1.exe "/central/groups/ReismanLab/DM/dft_final/smiles_00088/Gau-3229309.inp" -scrdir="/central/groups/ReismanLab/DM/dft_final/smiles_00088/"
 Entering Link 1 = /groups/ReismanLab/Software/Gaussian16_RevC/Linux_Binary_AVX2-enabled-CPU/g16/l1.exe PID=   3229314.
  
 Copyright (c) 1988-2021, Gaussian, Inc.  All Rights Reserved.
  
 This is part of the Gaussian(R) 16 program.  It is based on
 the Gaussian(R) 09 system (copyright 2009, Gaussian, Inc.),
 the Gaussian(R) 03 system (copyright 2003, Gaussian, Inc.),
 the Gaussian(R) 98 system (copyright 1998, Gaussian, Inc.),
 the Gaussian(R) 94 system (copyright 1995, Gaussian, Inc.),
 the Gaussian 92(TM) system (copyright 1992, Gaussian, Inc.),
 the Gaussian 90(TM) system (copyright 1990, Gaussian, Inc.),
 the Gaussian 88(TM) system (copyright 1988, Gaussian, Inc.),
 the Gaussian 86(TM) system (copyright 1986, Carnegie Mellon
 University), and the Gaussian 82(TM) system (copyright 1983,
 Carnegie Mellon University). Gaussian is a federally registered
 trademark of Gaussian, Inc.
  
 This software contains proprietary and confidential information,
 including trade secrets, belonging to Gaussian, Inc.
  
 This software is provided under written license and may be
 used, copied, transmitted, or stored only in accord with that
 written license.
  
 The following legend is applicable only to US Government
 contracts under FAR:
  
                    RESTRICTED RIGHTS LEGEND
  
 Use, reproduction and disclosure by the US Government is
 subject to restrictions as set forth in subparagraphs (a)
 and (c) of the Commercial Computer Software - Restricted
 Rights clause in FAR 52.227-19.
  
 Gaussian, Inc.
 340 Quinnipiac St., Bldg. 40, Wallingford CT 06492
  
  
 ---------------------------------------------------------------
 Warning -- This program may not be used in any manner that
 competes with the business of Gaussian, Inc. or will provide
 assistance to any competitor of Gaussian, Inc.  The licensee
 of this program is prohibited from giving any competitor of
 Gaussian, Inc. access to this program.  By using this program,
 the user acknowledges that Gaussian, Inc. is engaged in the
 business of creating and licensing software in the field of
 computational chemistry and represents and warrants to the
 licensee that it is not a competitor of Gaussian, Inc. and that
 it will not use this program in any manner prohibited above.
 ---------------------------------------------------------------
  

 Cite this work as:
 Gaussian 16, Revision C.02,
 M. J. Frisch, G. W. Trucks, H. B. Schlegel, G. E. Scuseria, 
 M. A. Robb, J. R. Cheeseman, G. Scalmani, V. Barone, 
 G. A. Petersson, H. Nakatsuji, X. Li, M. Caricato, A. V. Marenich, 
 J. Bloino, B. G. Janesko, R. Gomperts, B. Mennucci, H. P. Hratchian, 
 J. V. Ortiz, A. F. Izmaylov, J. L. Sonnenberg, D. Williams-Young, 
 F. Ding, F. Lipparini, F. Egidi, J. Goings, B. Peng, A. Petrone, 
 T. Henderson, D. Ranasinghe, V. G. Zakrzewski, J. Gao, N. Rega, 
 G. Zheng, W. Liang, M. Hada, M. Ehara, K. Toyota, R. Fukuda, 
 J. Hasegawa, M. Ishida, T. Nakajima, Y. Honda, O. Kitao, H. Nakai, 
 T. Vreven, K. Throssell, J. A. Montgomery, Jr., J. E. Peralta, 
 F. Ogliaro, M. J. Bearpark, J. J. Heyd, E. N. Brothers, K. N. Kudin, 
 V. N. Staroverov, T. A. Keith, R. Kobayashi, J. Normand, 
 K. Raghavachari, A. P. Rendell, J. C. Burant, S. S. Iyengar, 
 J. Tomasi, M. Cossi, J. M. Millam, M. Klene, C. Adamo, R. Cammi, 
 J. W. Ochterski, R. L. Martin, K. Morokuma, O. Farkas, 
 J. B. Foresman, and D. J. Fox, Gaussian, Inc., Wallingford CT, 2019.
 
 ******************************************
 Gaussian 16:  ES64L-G16RevC.02  7-Dec-2021
                17-Sep-2024 
 ******************************************
 %nprocshared=8
 Will use up to    8 processors via shared memory.
 %Mem=10GB
 %Chk=smiles_00088_conf_1.chk
 ----------------------------------------------------------------------
 #p B3LYP/gen pseudo=read EmpiricalDispersion=GD3BJ opt freq scf(xqc,ti
 ght) integral(grid=ultrafine)
 ----------------------------------------------------------------------
 1/18=20,19=15,26=4,38=1/1,3;
 2/9=110,12=2,17=6,18=5,40=1/2;
 3/5=7,11=2,16=1,17=8,25=1,30=1,71=1,74=-5,75=-5,124=41/1,2,3;
 4//1;
 5/5=2,8=3,13=1,32=2,38=5/2,8;
 6/7=2,8=2,9=2,10=2,28=1/1;
 7//1,2,3,16;
 1/18=20,19=15,26=4/3(2);
 2/9=110/2;
 99//99;
 2/9=110/2;
 3/5=7,6=1,11=2,16=1,17=8,25=1,30=1,71=1,74=-5,75=-5,82=7,124=41/1,2,3;
 4/5=5,16=3,69=1/1;
 5/5=2,8=3,13=1,32=2,38=5/2,8;
 7//1,2,3,16;
 1/18=20,19=15,26=4/3(-5);
 2/9=110/2;
 6/7=2,8=2,9=2,10=2,19=2,28=1/1;
 99/9=1/99;
 Leave Link    1 at Tue Sep 17 09:43:34 2024, MaxMem=  1342177280 cpu:               0.0 elap:               0.7
 (Enter /groups/ReismanLab/Software/Gaussian16_RevC/Linux_Binary_AVX2-enabled-CPU/g16/l101.exe)
 ----------------------------------
 opt-freq conformers_unique/conf_ab
 ----------------------------------
 Symbolic Z-matrix:
 Charge =  0 Multiplicity = 1
 C                    -4.63508   1.36679  -0.00032 
 O                    -3.23768   1.53885   0.00031 
 C                    -2.44521   0.43727   0.00014 
 C                    -2.89809  -0.87823  -0.0002 
 C                    -1.98471  -1.91948  -0.0001 
 C                    -0.62366  -1.67971   0.00004 
 C                    -0.18599  -0.36632   0.0001 
 I                     1.89278   0.03481  -0.00003 
 C                    -1.07059   0.68801   0.00036 
 H                    -4.97443   0.83367   0.89342 
 H                    -4.97363   0.83387  -0.89442 
 H                    -5.0539    2.37166  -0.00033 
 H                    -3.95248  -1.1033   -0.00042 
 H                    -2.34374  -2.93769  -0.00031 
 H                     0.07912  -2.49737  -0.00008 
 H                    -0.73667   1.71307   0.00065 
 
 ITRead=  0  0  0  0  0  0  0  0  0  0  0  0  0  0  0  0
 MicOpt= -1 -1 -1 -1 -1 -1 -1 -1 -1 -1 -1 -1 -1 -1 -1 -1
 NAtoms=     16 NQM=       16 NQMF=       0 NMMI=      0 NMMIF=      0
                NMic=       0 NMicF=      0.
                    Isotopes and Nuclear Properties:
 (Nuclear quadrupole moments (NQMom) in fm**2, nuclear magnetic moments (NMagM)
  in nuclear magnetons)

  Atom         1           2           3           4           5           6           7           8           9          10
 IAtWgt=          12          16          12          12          12          12          12         127          12           1
 AtmWgt=  12.0000000  15.9949146  12.0000000  12.0000000  12.0000000  12.0000000  12.0000000 126.9004000  12.0000000   1.0078250
 NucSpn=           0           0           0           0           0           0           0           5           0           1
 AtZEff=  -0.0000000  -0.0000000  -0.0000000  -0.0000000  -0.0000000  -0.0000000  -0.0000000  -0.0000000  -0.0000000  -0.0000000
 NQMom=    0.0000000   0.0000000   0.0000000   0.0000000   0.0000000   0.0000000   0.0000000 -71.0000000   0.0000000   0.0000000
 NMagM=    0.0000000   0.0000000   0.0000000   0.0000000   0.0000000   0.0000000   0.0000000   2.8132800   0.0000000   2.7928460
 AtZNuc=   6.0000000   8.0000000   6.0000000   6.0000000   6.0000000   6.0000000   6.0000000  53.0000000   6.0000000   1.0000000

  Atom        11          12          13          14          15          16
 IAtWgt=           1           1           1           1           1           1
 AtmWgt=   1.0078250   1.0078250   1.0078250   1.0078250   1.0078250   1.0078250
 NucSpn=           1           1           1           1           1           1
 AtZEff=  -0.0000000  -0.0000000  -0.0000000  -0.0000000  -0.0000000  -0.0000000
 NQMom=    0.0000000   0.0000000   0.0000000   0.0000000   0.0000000   0.0000000
 NMagM=    2.7928460   2.7928460   2.7928460   2.7928460   2.7928460   2.7928460
 AtZNuc=   1.0000000   1.0000000   1.0000000   1.0000000   1.0000000   1.0000000
 Leave Link  101 at Tue Sep 17 09:43:34 2024, MaxMem=  1342177280 cpu:               0.2 elap:               0.2
 (Enter /groups/ReismanLab/Software/Gaussian16_RevC/Linux_Binary_AVX2-enabled-CPU/g16/l103.exe)

 GradGradGradGradGradGradGradGradGradGradGradGradGradGradGradGradGradGrad
 Berny optimization.
 Initialization pass.
                           ----------------------------
                           !    Initial Parameters    !
                           ! (Angstroms and Degrees)  !
 --------------------------                            --------------------------
 ! Name  Definition              Value          Derivative Info.                !
 --------------------------------------------------------------------------------
 ! R1    R(1,2)                  1.408          estimate D2E/DX2                !
 ! R2    R(1,10)                 1.0946         estimate D2E/DX2                !
 ! R3    R(1,11)                 1.0945         estimate D2E/DX2                !
 ! R4    R(1,12)                 1.0886         estimate D2E/DX2                !
 ! R5    R(2,3)                  1.357          estimate D2E/DX2                !
 ! R6    R(3,4)                  1.3913         estimate D2E/DX2                !
 ! R7    R(3,9)                  1.3973         estimate D2E/DX2                !
 ! R8    R(4,5)                  1.3851         estimate D2E/DX2                !
 ! R9    R(4,13)                 1.0781         estimate D2E/DX2                !
 ! R10   R(5,6)                  1.382          estimate D2E/DX2                !
 ! R11   R(5,14)                 1.0797         estimate D2E/DX2                !
 ! R12   R(6,7)                  1.3844         estimate D2E/DX2                !
 ! R13   R(6,15)                 1.0782         estimate D2E/DX2                !
 ! R14   R(7,8)                  2.1171         estimate D2E/DX2                !
 ! R15   R(7,9)                  1.3763         estimate D2E/DX2                !
 ! R16   R(9,16)                 1.0781         estimate D2E/DX2                !
 ! A1    A(2,1,10)             111.5216         estimate D2E/DX2                !
 ! A2    A(2,1,11)             111.5222         estimate D2E/DX2                !
 ! A3    A(2,1,12)             105.6063         estimate D2E/DX2                !
 ! A4    A(10,1,11)            109.5079         estimate D2E/DX2                !
 ! A5    A(10,1,12)            109.287          estimate D2E/DX2                !
 ! A6    A(11,1,12)            109.2939         estimate D2E/DX2                !
 ! A7    A(1,2,3)              118.7117         estimate D2E/DX2                !
 ! A8    A(2,3,4)              125.272          estimate D2E/DX2                !
 ! A9    A(2,3,9)              115.3935         estimate D2E/DX2                !
 ! A10   A(4,3,9)              119.3345         estimate D2E/DX2                !
 ! A11   A(3,4,5)              119.7461         estimate D2E/DX2                !
 ! A12   A(3,4,13)             121.0463         estimate D2E/DX2                !
 ! A13   A(5,4,13)             119.2077         estimate D2E/DX2                !
 ! A14   A(4,5,6)              121.2661         estimate D2E/DX2                !
 ! A15   A(4,5,14)             119.3197         estimate D2E/DX2                !
 ! A16   A(6,5,14)             119.4142         estimate D2E/DX2                !
 ! A17   A(5,6,7)              118.4211         estimate D2E/DX2                !
 ! A18   A(5,6,15)             120.6884         estimate D2E/DX2                !
 ! A19   A(7,6,15)             120.8905         estimate D2E/DX2                !
 ! A20   A(6,7,8)              119.352          estimate D2E/DX2                !
 ! A21   A(6,7,9)              121.5726         estimate D2E/DX2                !
 ! A22   A(8,7,9)              119.0754         estimate D2E/DX2                !
 ! A23   A(3,9,7)              119.6596         estimate D2E/DX2                !
 ! A24   A(3,9,16)             118.3815         estimate D2E/DX2                !
 ! A25   A(7,9,16)             121.9589         estimate D2E/DX2                !
 ! D1    D(10,1,2,3)            61.4087         estimate D2E/DX2                !
 ! D2    D(11,1,2,3)           -61.369          estimate D2E/DX2                !
 ! D3    D(12,1,2,3)          -179.9845         estimate D2E/DX2                !
 ! D4    D(1,2,3,4)             -0.0214         estimate D2E/DX2                !
 ! D5    D(1,2,3,9)            179.9802         estimate D2E/DX2                !
 ! D6    D(2,3,4,5)           -179.9886         estimate D2E/DX2                !
 ! D7    D(2,3,4,13)             0.0045         estimate D2E/DX2                !
 ! D8    D(9,3,4,5)              0.0098         estimate D2E/DX2                !
 ! D9    D(9,3,4,13)          -179.9971         estimate D2E/DX2                !
 ! D10   D(2,3,9,7)           -179.9946         estimate D2E/DX2                !
 ! D11   D(2,3,9,16)             0.0002         estimate D2E/DX2                !
 ! D12   D(4,3,9,7)              0.0069         estimate D2E/DX2                !
 ! D13   D(4,3,9,16)          -179.9983         estimate D2E/DX2                !
 ! D14   D(3,4,5,6)             -0.0138         estimate D2E/DX2                !
 ! D15   D(3,4,5,14)           179.9968         estimate D2E/DX2                !
 ! D16   D(13,4,5,6)           179.993          estimate D2E/DX2                !
 ! D17   D(13,4,5,14)            0.0037         estimate D2E/DX2                !
 ! D18   D(4,5,6,7)              0.0009         estimate D2E/DX2                !
 ! D19   D(4,5,6,15)          -179.988          estimate D2E/DX2                !
 ! D20   D(14,5,6,7)           179.9902         estimate D2E/DX2                !
 ! D21   D(14,5,6,15)            0.0013         estimate D2E/DX2                !
 ! D22   D(5,6,7,8)           -179.9891         estimate D2E/DX2                !
 ! D23   D(5,6,7,9)              0.0163         estimate D2E/DX2                !
 ! D24   D(15,6,7,8)            -0.0002         estimate D2E/DX2                !
 ! D25   D(15,6,7,9)          -179.9948         estimate D2E/DX2                !
 ! D26   D(6,7,9,3)             -0.0203         estimate D2E/DX2                !
 ! D27   D(6,7,9,16)           179.9851         estimate D2E/DX2                !
 ! D28   D(8,7,9,3)            179.9852         estimate D2E/DX2                !
 ! D29   D(8,7,9,16)            -0.0094         estimate D2E/DX2                !
 --------------------------------------------------------------------------------
 Trust Radius=3.00D-01 FncErr=1.00D-07 GrdErr=1.00D-06 EigMax=2.50D+02 EigMin=1.00D-04
 Number of steps in this run=     80 maximum allowed number of steps=    100.
 GradGradGradGradGradGradGradGradGradGradGradGradGradGradGradGradGradGrad

 Leave Link  103 at Tue Sep 17 09:43:34 2024, MaxMem=  1342177280 cpu:               0.0 elap:               0.0
 (Enter /groups/ReismanLab/Software/Gaussian16_RevC/Linux_Binary_AVX2-enabled-CPU/g16/l202.exe)
                          Input orientation:                          
 ---------------------------------------------------------------------
 Center     Atomic      Atomic             Coordinates (Angstroms)
 Number     Number       Type             X           Y           Z
 ---------------------------------------------------------------------
      1          6           0       -4.635080    1.366793   -0.000324
      2          8           0       -3.237683    1.538853    0.000311
      3          6           0       -2.445208    0.437272    0.000141
      4          6           0       -2.898090   -0.878228   -0.000196
      5          6           0       -1.984706   -1.919483   -0.000100
      6          6           0       -0.623663   -1.679714    0.000041
      7          6           0       -0.185988   -0.366321    0.000104
      8         53           0        1.892781    0.034809   -0.000030
      9          6           0       -1.070595    0.688015    0.000364
     10          1           0       -4.974433    0.833670    0.893417
     11          1           0       -4.973635    0.833873   -0.894415
     12          1           0       -5.053895    2.371657   -0.000331
     13          1           0       -3.952478   -1.103295   -0.000420
     14          1           0       -2.343737   -2.937688   -0.000312
     15          1           0        0.079118   -2.497367   -0.000079
     16          1           0       -0.736665    1.713072    0.000652
 ---------------------------------------------------------------------
                    Distance matrix (angstroms):
                    1          2          3          4          5
     1  C    0.000000
     2  O    1.407951   0.000000
     3  C    2.378981   1.357018   0.000000
     4  C    2.838530   2.440821   1.391273   0.000000
     5  C    4.221858   3.678320   2.401323   1.385092   0.000000
     6  C    5.037130   4.146357   2.792786   2.411514   1.382002
     7  C    4.774736   3.597573   2.397881   2.759990   2.376489
     8  I    6.662368   5.346382   4.356618   4.877097   4.342138
     9  C    3.628539   2.328131   1.397295   2.406835   2.763086
    10  H    1.094602   2.076349   2.711467   2.835549   4.161332
    11  H    1.094542   2.076310   2.711175   2.835279   4.161065
    12  H    1.088650   1.998047   3.247630   3.899904   5.275775
    13  H    2.562671   2.737130   2.155275   1.078142   2.130325
    14  H    4.876352   4.564928   3.376485   2.132765   1.079650
    15  H    6.095523   5.224198   3.870959   3.389009   2.143204
    16  H    3.913764   2.507078   2.132319   3.374402   3.840971
                    6          7          8          9         10
     6  C    0.000000
     7  C    1.384399   0.000000
     8  I    3.045009   2.117117   0.000000
     9  C    2.409541   1.376283   3.034513   0.000000
    10  H    5.103373   5.016691   6.971015   4.007332   0.000000
    11  H    5.102983   5.016194   6.970372   4.006947   1.787832
    12  H    6.003380   5.585074   7.329200   4.324504   1.780592
    13  H    3.378353   3.837913   5.955026   3.393235   2.365411
    14  H    2.130998   3.356756   5.175308   3.842735   4.684277
    15  H    1.078173   2.147473   3.114689   3.386517   6.118212
    16  H    3.394668   2.151075   3.119384   1.078077   4.419168
                   11         12         13         14         15
    11  H    0.000000
    12  H    1.780620   0.000000
    13  H    2.365293   3.645328   0.000000
    14  H    4.684065   5.961049   2.439886   0.000000
    15  H    6.117787   7.074972   4.265818   2.462541   0.000000
    16  H    4.418829   4.367174   4.274737   4.920594   4.288741
                   16
    16  H    0.000000
 Stoichiometry    C7H7IO
 Framework group  C1[X(C7H7IO)]
 Deg. of freedom    42
 Full point group                 C1      NOp   1
 Largest Abelian subgroup         C1      NOp   1
 Largest concise Abelian subgroup C1      NOp   1
                         Standard orientation:                         
 ---------------------------------------------------------------------
 Center     Atomic      Atomic             Coordinates (Angstroms)
 Number     Number       Type             X           Y           Z
 ---------------------------------------------------------------------
      1          6           0       -4.472011   -0.932878    0.000320
      2          8           0       -3.098690   -1.243224   -0.000314
      3          6           0       -2.200468   -0.226024   -0.000145
      4          6           0       -2.520115    1.128032    0.000192
      5          6           0       -1.507592    2.073167    0.000096
      6          6           0       -0.177186    1.699070   -0.000045
      7          6           0        0.127539    0.348624   -0.000108
      8         53           0        2.156036   -0.257497    0.000026
      9          6           0       -0.857653   -0.612392   -0.000368
     10          1           0       -4.756594   -0.368615   -0.893421
     11          1           0       -4.755821   -0.368897    0.894411
     12          1           0       -4.988800   -1.891047    0.000328
     13          1           0       -3.546853    1.456968    0.000416
     14          1           0       -1.763454    3.122061    0.000308
     15          1           0        0.603517    2.442683    0.000075
     16          1           0       -0.627449   -1.665604   -0.000656
 ---------------------------------------------------------------------
 Rotational constants (GHZ):           2.8483318           0.4123573           0.3610382
 Leave Link  202 at Tue Sep 17 09:43:34 2024, MaxMem=  1342177280 cpu:               0.0 elap:               0.0
 (Enter /groups/ReismanLab/Software/Gaussian16_RevC/Linux_Binary_AVX2-enabled-CPU/g16/l301.exe)
 General basis read from cards:  (5D, 7F)
 Centers:       1      3      4      5      6      7      9     10     11     12
 Centers:      13     14     15     16      2
 6-31G(d,p)
 ****
 Centers:       8
 LANL2DZ
 ****
 ======================================================================================================
                                       Pseudopotential Parameters
 ======================================================================================================
  Center     Atomic      Valence      Angular      Power
  Number     Number     Electrons     Momentum     of R      Exponent        Coefficient   SO-Coeffient
 ======================================================================================================
    1          6
                                   No pseudopotential on this center.
    2          8
                                   No pseudopotential on this center.
    3          6
                                   No pseudopotential on this center.
    4          6
                                   No pseudopotential on this center.
    5          6
                                   No pseudopotential on this center.
    6          6
                                   No pseudopotential on this center.
    7          6
                                   No pseudopotential on this center.
    8         53            7
                                      F and up 
                                                     0        1.0715702       -0.07476210    0.00000000
                                                     1       44.1936028      -30.08112240    0.00000000
                                                     2       12.9367609      -75.37227210    0.00000000
                                                     2        3.1956412      -22.05637580    0.00000000
                                                     2        0.8589806       -1.69795850    0.00000000
                                      S - F
                                                     0      127.9202670        2.93800360    0.00000000
                                                     1       78.6211465       41.24712670    0.00000000
                                                     2       36.5146237      287.86800950    0.00000000
                                                     2        9.9065681      114.37585060    0.00000000
                                                     2        1.9420086       37.65477140    0.00000000
                                      P - F
                                                     0       13.0035304        2.22226300    0.00000000
                                                     1       76.0331404       39.40908310    0.00000000
                                                     2       24.1961684      177.40750020    0.00000000
                                                     2        6.4053433       77.98894620    0.00000000
                                                     2        1.5851786       25.75476410    0.00000000
                                      D - F
                                                     0       40.4278108        7.05243600    0.00000000
                                                     1       28.9084375       33.30416350    0.00000000
                                                     2       15.6268936      186.94538750    0.00000000
                                                     2        4.1442856       71.96883610    0.00000000
                                                     2        0.9377235        9.36306570    0.00000000
    9          6
                                   No pseudopotential on this center.
   10          1
                                   No pseudopotential on this center.
   11          1
                                   No pseudopotential on this center.
   12          1
                                   No pseudopotential on this center.
   13          1
                                   No pseudopotential on this center.
   14          1
                                   No pseudopotential on this center.
   15          1
                                   No pseudopotential on this center.
   16          1
                                   No pseudopotential on this center.
 ======================================================================================================
 Ernie: Thresh=  0.10000D-02 Tol=  0.10000D-05 Strict=F.
 There are   163 symmetry adapted cartesian basis functions of A   symmetry.
 There are   155 symmetry adapted basis functions of A   symmetry.
   155 basis functions,   285 primitive gaussians,   163 cartesian basis functions
    32 alpha electrons       32 beta electrons
       nuclear repulsion energy       390.4918552828 Hartrees.
 IExCor=  402 DFT=T Ex+Corr=B3LYP ExCW=0 ScaHFX=  0.200000
 ScaDFX=  0.800000  0.720000  1.000000  0.810000 ScalE2=  1.000000  1.000000
 IRadAn=      5 IRanWt=     -1 IRanGd=            0 ICorTp=0 IEmpDi=141
 NAtoms=   16 NActive=   16 NUniq=   16 SFac= 1.00D+00 NAtFMM=   60 NAOKFM=F Big=F
 Integral buffers will be    131072 words long.
 Raffenetti 2 integral format.
 Two-electron integral symmetry is turned on.
 R6Disp:  Grimme-D3(BJ) Dispersion energy=       -0.0317143963 Hartrees.
 Nuclear repulsion after empirical dispersion term =      390.4601408865 Hartrees.
 Leave Link  301 at Tue Sep 17 09:43:34 2024, MaxMem=  1342177280 cpu:               0.1 elap:               0.0
 (Enter /groups/ReismanLab/Software/Gaussian16_RevC/Linux_Binary_AVX2-enabled-CPU/g16/l302.exe)
 NPDir=0 NMtPBC=     1 NCelOv=     1 NCel=       1 NClECP=     1 NCelD=      1
         NCelK=      1 NCelE2=     1 NClLst=     1 CellRange=     0.0.
 One-electron integrals computed using PRISM.
 One-electron integral symmetry used in STVInt
   1 Symmetry operations used in ECPInt.
 ECPInt:  NShTT=    1653 NPrTT=    8552 LenC2=    1619 LenP2D=    6130.
 LDataN:  DoStor=T MaxTD1= 5 Len=  102
 NBasis=   155 RedAO= T EigKep=  4.70D-04  NBF=   155
 NBsUse=   155 1.00D-06 EigRej= -1.00D+00 NBFU=   155
 Precomputing XC quadrature grid using
 IXCGrd= 4 IRadAn=           5 IRanWt=          -1 IRanGd=           0 AccXCQ= 0.00D+00.
 Defaulting to unpruned grid for atomic number  53.
 Generated NRdTot=       0 NPtTot=           0 NUsed=           0 NTot=          32
 NSgBfM=   163   163   163   163   163 MxSgAt=    16 MxSgA2=    16.
 Leave Link  302 at Tue Sep 17 09:43:35 2024, MaxMem=  1342177280 cpu:               0.7 elap:               0.1
 (Enter /groups/ReismanLab/Software/Gaussian16_RevC/Linux_Binary_AVX2-enabled-CPU/g16/l303.exe)
 DipDrv:  MaxL=1.
 Leave Link  303 at Tue Sep 17 09:43:35 2024, MaxMem=  1342177280 cpu:               0.1 elap:               0.0
 (Enter /groups/ReismanLab/Software/Gaussian16_RevC/Linux_Binary_AVX2-enabled-CPU/g16/l401.exe)
 ExpMin= 1.05D-01 ExpMax= 5.48D+03 ExpMxC= 8.25D+02 IAcc=3 IRadAn=         5 AccDes= 0.00D+00
 Harris functional with IExCor=  402 and IRadAn=       5 diagonalized for initial guess.
 HarFok:  IExCor=  402 AccDes= 0.00D+00 IRadAn=         5 IDoV= 1 UseB2=F ITyADJ=14
 ICtDFT=  3500011 ScaDFX=  1.000000  1.000000  1.000000  1.000000
 Defaulting to unpruned grid for atomic number  53.
 FoFCou: FMM=F IPFlag=           0 FMFlag=      100000 FMFlg1=           0
         NFxFlg=           0 DoJE=T BraDBF=F KetDBF=T FulRan=T
         wScrn=  0.000000 ICntrl=       500 IOpCl=  0 I1Cent=   200000004 NGrid=           0
         NMat0=    1 NMatS0=      1 NMatT0=    0 NMatD0=    1 NMtDS0=    0 NMtDT0=    0
 Petite list used in FoFCou.
 Harris En= -357.529186494347    
 JPrj=0 DoOrth=F DoCkMO=F.
 Leave Link  401 at Tue Sep 17 09:43:35 2024, MaxMem=  1342177280 cpu:               2.9 elap:               0.5
 (Enter /groups/ReismanLab/Software/Gaussian16_RevC/Linux_Binary_AVX2-enabled-CPU/g16/l502.exe)
 Integral symmetry usage will be decided dynamically.
 Closed shell SCF:
 Using DIIS extrapolation, IDIIS=  1040.
 NGot=  1342177280 LenX=  1342120618 LenY=  1342093608
 Requested convergence on RMS density matrix=1.00D-08 within  32 cycles.
 Requested convergence on MAX density matrix=1.00D-06.
 Requested convergence on             energy=1.00D-06.
 No special actions if energy rises.
 Fock matrices will be formed incrementally for  20 cycles.
 Integral accuracy reduced to 1.0D-05 until final iterations.

 Cycle   1  Pass 0  IDiag  1:
 FoFJK:  IHMeth= 1 ICntrl=       0 DoSepK=F KAlg= 0 I1Cent=           0 FoldK=F
 IRaf= 940000000 NMat=       1 IRICut=       1 DoRegI=T DoRafI=F ISym2E= 0 IDoP0=0 IntGTp=1.
 FoFCou: FMM=F IPFlag=           0 FMFlag=      100000 FMFlg1=           0
         NFxFlg=           0 DoJE=F BraDBF=F KetDBF=F FulRan=T
         wScrn=  0.000000 ICntrl=         0 IOpCl=  0 I1Cent=           0 NGrid=           0
         NMat0=    1 NMatS0=      1 NMatT0=    0 NMatD0=    1 NMtDS0=    0 NMtDT0=    0
 Symmetry not used in FoFCou.
 Defaulting to unpruned grid for atomic number  53.
 Defaulting to unpruned grid for atomic number  53.
 Defaulting to unpruned grid for atomic number  53.
 Defaulting to unpruned grid for atomic number  53.
 Defaulting to unpruned grid for atomic number  53.
 Defaulting to unpruned grid for atomic number  53.
 Defaulting to unpruned grid for atomic number  53.
 Defaulting to unpruned grid for atomic number  53.
 E= -357.388342170904    
 DIIS: error= 3.32D-02 at cycle   1 NSaved=   1.
 NSaved= 1 IEnMin= 1 EnMin= -357.388342170904     IErMin= 1 ErrMin= 3.32D-02
 ErrMax= 3.32D-02  0.00D+00 EMaxC= 1.00D-01 BMatC= 1.70D-01 BMatP= 1.70D-01
 IDIUse=3 WtCom= 6.68D-01 WtEn= 3.32D-01
 Coeff-Com:  0.100D+01
 Coeff-En:   0.100D+01
 Coeff:      0.100D+01
 Gap=     0.365 Goal=   None    Shift=    0.000
 GapD=    0.365 DampG=1.000 DampE=0.500 DampFc=0.5000 IDamp=-1.
 Damping current iteration by 5.00D-01
 RMSDP=6.15D-03 MaxDP=1.21D-01              OVMax= 1.83D-01

 Cycle   2  Pass 0  IDiag  1:
 RMSU=  3.04D-03    CP:  9.81D-01
 E= -357.473177699925     Delta-E=       -0.084835529022 Rises=F Damp=T
 DIIS: error= 4.74D-03 at cycle   2 NSaved=   2.
 NSaved= 2 IEnMin= 2 EnMin= -357.473177699925     IErMin= 2 ErrMin= 4.74D-03
 ErrMax= 4.74D-03  0.00D+00 EMaxC= 1.00D-01 BMatC= 8.83D-03 BMatP= 1.70D-01
 IDIUse=3 WtCom= 9.53D-01 WtEn= 4.74D-02
 Coeff-Com:  0.671D-01 0.933D+00
 Coeff-En:   0.131D+00 0.869D+00
 Coeff:      0.701D-01 0.930D+00
 Gap=     0.201 Goal=   None    Shift=    0.000
 RMSDP=1.83D-03 MaxDP=3.37D-02 DE=-8.48D-02 OVMax= 1.38D-01

 Cycle   3  Pass 0  IDiag  1:
 RMSU=  1.71D-03    CP:  9.80D-01  7.85D-01
 E= -357.575801855101     Delta-E=       -0.102624155176 Rises=F Damp=F
 DIIS: error= 6.07D-03 at cycle   3 NSaved=   3.
 NSaved= 3 IEnMin= 3 EnMin= -357.575801855101     IErMin= 2 ErrMin= 4.74D-03
 ErrMax= 6.07D-03  0.00D+00 EMaxC= 1.00D-01 BMatC= 6.66D-03 BMatP= 8.83D-03
 IDIUse=3 WtCom= 9.39D-01 WtEn= 6.07D-02
 Coeff-Com: -0.258D-02 0.457D+00 0.546D+00
 Coeff-En:   0.000D+00 0.000D+00 0.100D+01
 Coeff:     -0.243D-02 0.429D+00 0.573D+00
 Gap=     0.212 Goal=   None    Shift=    0.000
 RMSDP=9.51D-04 MaxDP=1.83D-02 DE=-1.03D-01 OVMax= 4.71D-02

 Cycle   4  Pass 0  IDiag  1:
 RMSU=  6.99D-04    CP:  9.78D-01  8.52D-01  6.45D-01
 E= -357.580224884575     Delta-E=       -0.004423029474 Rises=F Damp=F
 DIIS: error= 4.08D-03 at cycle   4 NSaved=   4.
 NSaved= 4 IEnMin= 4 EnMin= -357.580224884575     IErMin= 4 ErrMin= 4.08D-03
 ErrMax= 4.08D-03  0.00D+00 EMaxC= 1.00D-01 BMatC= 2.67D-03 BMatP= 6.66D-03
 IDIUse=3 WtCom= 9.59D-01 WtEn= 4.08D-02
 Coeff-Com: -0.128D-01 0.123D+00 0.392D+00 0.498D+00
 Coeff-En:   0.000D+00 0.000D+00 0.319D+00 0.681D+00
 Coeff:     -0.123D-01 0.118D+00 0.389D+00 0.506D+00
 Gap=     0.202 Goal=   None    Shift=    0.000
 RMSDP=4.13D-04 MaxDP=9.38D-03 DE=-4.42D-03 OVMax= 2.13D-02

 Cycle   5  Pass 0  IDiag  1:
 RMSU=  1.51D-04    CP:  9.78D-01  8.49D-01  7.55D-01  5.22D-01
 E= -357.583104290071     Delta-E=       -0.002879405496 Rises=F Damp=F
 DIIS: error= 5.03D-04 at cycle   5 NSaved=   5.
 NSaved= 5 IEnMin= 5 EnMin= -357.583104290071     IErMin= 5 ErrMin= 5.03D-04
 ErrMax= 5.03D-04  0.00D+00 EMaxC= 1.00D-01 BMatC= 5.61D-05 BMatP= 2.67D-03
 IDIUse=3 WtCom= 9.95D-01 WtEn= 5.03D-03
 Coeff-Com: -0.408D-02 0.192D-01 0.116D+00 0.210D+00 0.658D+00
 Coeff-En:   0.000D+00 0.000D+00 0.000D+00 0.000D+00 0.100D+01
 Coeff:     -0.406D-02 0.191D-01 0.116D+00 0.209D+00 0.660D+00
 Gap=     0.203 Goal=   None    Shift=    0.000
 RMSDP=6.89D-05 MaxDP=1.39D-03 DE=-2.88D-03 OVMax= 3.52D-03

 Cycle   6  Pass 0  IDiag  1:
 RMSU=  4.54D-05    CP:  9.78D-01  8.47D-01  7.55D-01  5.69D-01  7.38D-01
 E= -357.583154337200     Delta-E=       -0.000050047129 Rises=F Damp=F
 DIIS: error= 2.80D-04 at cycle   6 NSaved=   6.
 NSaved= 6 IEnMin= 6 EnMin= -357.583154337200     IErMin= 6 ErrMin= 2.80D-04
 ErrMax= 2.80D-04  0.00D+00 EMaxC= 1.00D-01 BMatC= 1.10D-05 BMatP= 5.61D-05
 IDIUse=3 WtCom= 9.97D-01 WtEn= 2.80D-03
 Coeff-Com: -0.117D-02 0.440D-03 0.344D-01 0.802D-01 0.379D+00 0.507D+00
 Coeff-En:   0.000D+00 0.000D+00 0.000D+00 0.000D+00 0.120D+00 0.880D+00
 Coeff:     -0.117D-02 0.438D-03 0.343D-01 0.799D-01 0.378D+00 0.508D+00
 Gap=     0.203 Goal=   None    Shift=    0.000
 RMSDP=2.63D-05 MaxDP=6.32D-04 DE=-5.00D-05 OVMax= 1.46D-03

 Cycle   7  Pass 0  IDiag  1:
 RMSU=  1.14D-05    CP:  9.78D-01  8.47D-01  7.57D-01  5.71D-01  7.99D-01
                    CP:  5.23D-01
 E= -357.583165392878     Delta-E=       -0.000011055678 Rises=F Damp=F
 DIIS: error= 8.18D-05 at cycle   7 NSaved=   7.
 NSaved= 7 IEnMin= 7 EnMin= -357.583165392878     IErMin= 7 ErrMin= 8.18D-05
 ErrMax= 8.18D-05  0.00D+00 EMaxC= 1.00D-01 BMatC= 8.71D-07 BMatP= 1.10D-05
 IDIUse=1 WtCom= 1.00D+00 WtEn= 0.00D+00
 Coeff-Com: -0.436D-03-0.122D-02 0.134D-01 0.354D-01 0.188D+00 0.305D+00
 Coeff-Com:  0.460D+00
 Coeff:     -0.436D-03-0.122D-02 0.134D-01 0.354D-01 0.188D+00 0.305D+00
 Coeff:      0.460D+00
 Gap=     0.203 Goal=   None    Shift=    0.000
 RMSDP=6.61D-06 MaxDP=1.32D-04 DE=-1.11D-05 OVMax= 3.60D-04

 Initial convergence to 1.0D-05 achieved.  Increase integral accuracy.
 Cycle   8  Pass 1  IDiag  1:
 E= -357.583249386708     Delta-E=       -0.000083993830 Rises=F Damp=F
 DIIS: error= 2.85D-05 at cycle   1 NSaved=   1.
 NSaved= 1 IEnMin= 1 EnMin= -357.583249386708     IErMin= 1 ErrMin= 2.85D-05
 ErrMax= 2.85D-05  0.00D+00 EMaxC= 1.00D-01 BMatC= 6.21D-08 BMatP= 6.21D-08
 IDIUse=1 WtCom= 1.00D+00 WtEn= 0.00D+00
 Coeff-Com:  0.100D+01
 Coeff:      0.100D+01
 Gap=     0.203 Goal=   None    Shift=    0.000
 RMSDP=6.61D-06 MaxDP=1.32D-04 DE=-8.40D-05 OVMax= 2.01D-04

 Cycle   9  Pass 1  IDiag  1:
 RMSU=  7.25D-06    CP:  1.00D+00
 E= -357.583249320266     Delta-E=        0.000000066442 Rises=F Damp=F
 DIIS: error= 2.81D-05 at cycle   2 NSaved=   2.
 NSaved= 2 IEnMin= 1 EnMin= -357.583249386708     IErMin= 2 ErrMin= 2.81D-05
 ErrMax= 2.81D-05  0.00D+00 EMaxC= 1.00D-01 BMatC= 1.25D-07 BMatP= 6.21D-08
 IDIUse=1 WtCom= 1.00D+00 WtEn= 0.00D+00
 Coeff-Com:  0.597D+00 0.403D+00
 Coeff:      0.597D+00 0.403D+00
 Gap=     0.203 Goal=   None    Shift=    0.000
 RMSDP=3.07D-06 MaxDP=6.70D-05 DE= 6.64D-08 OVMax= 1.48D-04

 Cycle  10  Pass 1  IDiag  1:
 RMSU=  2.29D-06    CP:  1.00D+00  7.18D-01
 E= -357.583249451885     Delta-E=       -0.000000131619 Rises=F Damp=F
 DIIS: error= 6.70D-06 at cycle   3 NSaved=   3.
 NSaved= 3 IEnMin= 3 EnMin= -357.583249451885     IErMin= 3 ErrMin= 6.70D-06
 ErrMax= 6.70D-06  0.00D+00 EMaxC= 1.00D-01 BMatC= 5.38D-09 BMatP= 6.21D-08
 IDIUse=1 WtCom= 1.00D+00 WtEn= 0.00D+00
 Coeff-Com:  0.158D+00 0.191D+00 0.650D+00
 Coeff:      0.158D+00 0.191D+00 0.650D+00
 Gap=     0.203 Goal=   None    Shift=    0.000
 RMSDP=6.96D-07 MaxDP=1.58D-05 DE=-1.32D-07 OVMax= 3.98D-05

 Cycle  11  Pass 1  IDiag  1:
 RMSU=  4.83D-07    CP:  1.00D+00  7.50D-01  8.05D-01
 E= -357.583249456863     Delta-E=       -0.000000004978 Rises=F Damp=F
 DIIS: error= 2.55D-06 at cycle   4 NSaved=   4.
 NSaved= 4 IEnMin= 4 EnMin= -357.583249456863     IErMin= 4 ErrMin= 2.55D-06
 ErrMax= 2.55D-06  0.00D+00 EMaxC= 1.00D-01 BMatC= 1.27D-09 BMatP= 5.38D-09
 IDIUse=1 WtCom= 1.00D+00 WtEn= 0.00D+00
 Coeff-Com:  0.104D-01 0.520D-01 0.381D+00 0.556D+00
 Coeff:      0.104D-01 0.520D-01 0.381D+00 0.556D+00
 Gap=     0.203 Goal=   None    Shift=    0.000
 RMSDP=2.48D-07 MaxDP=6.01D-06 DE=-4.98D-09 OVMax= 1.35D-05

 Cycle  12  Pass 1  IDiag  1:
 RMSU=  1.49D-07    CP:  1.00D+00  7.44D-01  8.51D-01  6.64D-01
 E= -357.583249458170     Delta-E=       -0.000000001308 Rises=F Damp=F
 DIIS: error= 4.60D-07 at cycle   5 NSaved=   5.
 NSaved= 5 IEnMin= 5 EnMin= -357.583249458170     IErMin= 5 ErrMin= 4.60D-07
 ErrMax= 4.60D-07  0.00D+00 EMaxC= 1.00D-01 BMatC= 4.50D-11 BMatP= 1.27D-09
 IDIUse=1 WtCom= 1.00D+00 WtEn= 0.00D+00
 Coeff-Com: -0.295D-02 0.143D-01 0.151D+00 0.271D+00 0.567D+00
 Coeff:     -0.295D-02 0.143D-01 0.151D+00 0.271D+00 0.567D+00
 Gap=     0.203 Goal=   None    Shift=    0.000
 RMSDP=7.91D-08 MaxDP=1.97D-06 DE=-1.31D-09 OVMax= 4.19D-06

 Cycle  13  Pass 1  IDiag  1:
 RMSU=  4.50D-08    CP:  1.00D+00  7.48D-01  8.50D-01  6.60D-01  5.94D-01
 E= -357.583249458216     Delta-E=       -0.000000000046 Rises=F Damp=F
 DIIS: error= 2.53D-07 at cycle   6 NSaved=   6.
 NSaved= 6 IEnMin= 6 EnMin= -357.583249458216     IErMin= 6 ErrMin= 2.53D-07
 ErrMax= 2.53D-07  0.00D+00 EMaxC= 1.00D-01 BMatC= 9.51D-12 BMatP= 4.50D-11
 IDIUse=1 WtCom= 1.00D+00 WtEn= 0.00D+00
 Coeff-Com: -0.283D-02 0.482D-02 0.675D-01 0.129D+00 0.361D+00 0.441D+00
 Coeff:     -0.283D-02 0.482D-02 0.675D-01 0.129D+00 0.361D+00 0.441D+00
 Gap=     0.203 Goal=   None    Shift=    0.000
 RMSDP=2.41D-08 MaxDP=6.02D-07 DE=-4.63D-11 OVMax= 1.63D-06

 Cycle  14  Pass 1  IDiag  1:
 RMSU=  1.44D-08    CP:  1.00D+00  7.48D-01  8.50D-01  6.62D-01  6.45D-01
                    CP:  6.07D-01
 E= -357.583249458230     Delta-E=       -0.000000000013 Rises=F Damp=F
 DIIS: error= 6.31D-08 at cycle   7 NSaved=   7.
 NSaved= 7 IEnMin= 7 EnMin= -357.583249458230     IErMin= 7 ErrMin= 6.31D-08
 ErrMax= 6.31D-08  0.00D+00 EMaxC= 1.00D-01 BMatC= 3.21D-13 BMatP= 9.51D-12
 IDIUse=1 WtCom= 1.00D+00 WtEn= 0.00D+00
 Coeff-Com: -0.786D-03 0.529D-03 0.146D-01 0.274D-01 0.935D-01 0.185D+00
 Coeff-Com:  0.680D+00
 Coeff:     -0.786D-03 0.529D-03 0.146D-01 0.274D-01 0.935D-01 0.185D+00
 Coeff:      0.680D+00
 Gap=     0.203 Goal=   None    Shift=    0.000
 RMSDP=5.89D-09 MaxDP=1.69D-07 DE=-1.32D-11 OVMax= 2.79D-07

 SCF Done:  E(RB3LYP) =  -357.583249458     A.U. after   14 cycles
            NFock= 14  Conv=0.59D-08     -V/T= 2.0299
 KE= 3.472112658350D+02 PE=-1.607668200085D+03 EE= 5.124135439049D+02
 Leave Link  502 at Tue Sep 17 09:43:41 2024, MaxMem=  1342177280 cpu:              41.8 elap:               5.5
 (Enter /groups/ReismanLab/Software/Gaussian16_RevC/Linux_Binary_AVX2-enabled-CPU/g16/l508.exe)
 QCSCF skips out because SCF is already converged.
 Leave Link  508 at Tue Sep 17 09:43:41 2024, MaxMem=  1342177280 cpu:               0.0 elap:               0.0
 (Enter /groups/ReismanLab/Software/Gaussian16_RevC/Linux_Binary_AVX2-enabled-CPU/g16/l601.exe)
 Copying SCF densities to generalized density rwf, IOpCl= 0 IROHF=0.

 **********************************************************************

            Population analysis using the SCF Density.

 **********************************************************************

 Orbital symmetries:
       Occupied  (A) (A) (A) (A) (A) (A) (A) (A) (A) (A) (A) (A)
                 (A) (A) (A) (A) (A) (A) (A) (A) (A) (A) (A) (A)
                 (A) (A) (A) (A) (A) (A) (A) (A)
       Virtual   (A) (A) (A) (A) (A) (A) (A) (A) (A) (A) (A) (A)
                 (A) (A) (A) (A) (A) (A) (A) (A) (A) (A) (A) (A)
                 (A) (A) (A) (A) (A) (A) (A) (A) (A) (A) (A) (A)
                 (A) (A) (A) (A) (A) (A) (A) (A) (A) (A) (A) (A)
                 (A) (A) (A) (A) (A) (A) (A) (A) (A) (A) (A) (A)
                 (A) (A) (A) (A) (A) (A) (A) (A) (A) (A) (A) (A)
                 (A) (A) (A) (A) (A) (A) (A) (A) (A) (A) (A) (A)
                 (A) (A) (A) (A) (A) (A) (A) (A) (A) (A) (A) (A)
                 (A) (A) (A) (A) (A) (A) (A) (A) (A) (A) (A) (A)
                 (A) (A) (A) (A) (A) (A) (A) (A) (A) (A) (A) (A)
                 (A) (A) (A)
 The electronic state is 1-A.
 Alpha  occ. eigenvalues --  -19.18148 -10.25279 -10.24284 -10.23277 -10.19460
 Alpha  occ. eigenvalues --  -10.18967 -10.18869 -10.18838  -1.07722  -0.86891
 Alpha  occ. eigenvalues --   -0.77002  -0.76898  -0.70580  -0.67723  -0.61591
 Alpha  occ. eigenvalues --   -0.58823  -0.53491  -0.49617  -0.49245  -0.47801
 Alpha  occ. eigenvalues --   -0.44152  -0.42938  -0.41188  -0.39219  -0.38107
 Alpha  occ. eigenvalues --   -0.35077  -0.33626  -0.32839  -0.28889  -0.26299
 Alpha  occ. eigenvalues --   -0.24024  -0.22750
 Alpha virt. eigenvalues --   -0.02465  -0.00951   0.00440   0.09329   0.11119
 Alpha virt. eigenvalues --    0.13014   0.14792   0.15731   0.16152   0.16384
 Alpha virt. eigenvalues --    0.17189   0.19645   0.25086   0.28767   0.29657
 Alpha virt. eigenvalues --    0.32124   0.33618   0.38509   0.39411   0.40253
 Alpha virt. eigenvalues --    0.47271   0.50479   0.51302   0.52075   0.54485
 Alpha virt. eigenvalues --    0.54738   0.58416   0.59479   0.59881   0.61133
 Alpha virt. eigenvalues --    0.61262   0.61440   0.63905   0.66092   0.67437
 Alpha virt. eigenvalues --    0.68514   0.73055   0.74966   0.81386   0.82730
 Alpha virt. eigenvalues --    0.83054   0.83780   0.84274   0.88134   0.90873
 Alpha virt. eigenvalues --    0.92781   0.95245   0.95652   1.02142   1.02451
 Alpha virt. eigenvalues --    1.03408   1.07095   1.10763   1.12871   1.19786
 Alpha virt. eigenvalues --    1.23243   1.26639   1.29509   1.30501   1.33979
 Alpha virt. eigenvalues --    1.34793   1.38850   1.40724   1.43115   1.44258
 Alpha virt. eigenvalues --    1.46435   1.63784   1.67817   1.75041   1.80767
 Alpha virt. eigenvalues --    1.85007   1.87637   1.87713   1.89212   1.91190
 Alpha virt. eigenvalues --    1.91288   1.94350   1.98662   1.99909   2.01731
 Alpha virt. eigenvalues --    2.01986   2.02873   2.04114   2.06977   2.08795
 Alpha virt. eigenvalues --    2.12724   2.18665   2.27190   2.28754   2.33051
 Alpha virt. eigenvalues --    2.33489   2.38879   2.39782   2.43064   2.45942
 Alpha virt. eigenvalues --    2.47556   2.52392   2.53276   2.55037   2.55511
 Alpha virt. eigenvalues --    2.59888   2.62542   2.65300   2.67499   2.68476
 Alpha virt. eigenvalues --    2.74277   2.74430   2.81403   2.83981   2.84575
 Alpha virt. eigenvalues --    2.94636   3.05330   3.11193   3.17487   3.21206
 Alpha virt. eigenvalues --    3.25352   3.35830   3.39787   3.41576   3.44052
 Alpha virt. eigenvalues --    3.47723   3.85715  10.04317
          Condensed to atoms (all electrons):
               1          2          3          4          5          6
     1  C    4.705845   0.266717  -0.047197  -0.005062   0.000408  -0.000000
     2  O    0.266717   8.135390   0.307914  -0.063132   0.004057   0.000195
     3  C   -0.047197   0.307914   4.514086   0.474175   0.002491  -0.040622
     4  C   -0.005062  -0.063132   0.474175   5.031135   0.496584  -0.028644
     5  C    0.000408   0.004057   0.002491   0.496584   4.782194   0.558235
     6  C   -0.000000   0.000195  -0.040622  -0.028644   0.558235   4.797790
     7  C   -0.000110   0.003512  -0.004525  -0.054438  -0.019603   0.497318
     8  I    0.000006  -0.000083   0.001071   0.000969   0.001758  -0.066854
     9  C    0.003995  -0.055590   0.532355  -0.058173  -0.038918  -0.033757
    10  H    0.375952  -0.037075  -0.004225   0.004506  -0.000166  -0.000005
    11  H    0.375953  -0.037072  -0.004224   0.004509  -0.000166  -0.000005
    12  H    0.395878  -0.033262   0.002637   0.000173   0.000001  -0.000000
    13  H    0.004809  -0.007901  -0.046096   0.364183  -0.036934   0.005176
    14  H   -0.000005  -0.000057   0.003210  -0.037386   0.368643  -0.041988
    15  H   -0.000000   0.000002   0.000713   0.005262  -0.033124   0.373046
    16  H   -0.000172   0.000095  -0.028446   0.007745   0.000090   0.004595
               7          8          9         10         11         12
     1  C   -0.000110   0.000006   0.003995   0.375952   0.375953   0.395878
     2  O    0.003512  -0.000083  -0.055590  -0.037075  -0.037072  -0.033262
     3  C   -0.004525   0.001071   0.532355  -0.004225  -0.004224   0.002637
     4  C   -0.054438   0.000969  -0.058173   0.004506   0.004509   0.000173
     5  C   -0.019603   0.001758  -0.038918  -0.000166  -0.000166   0.000001
     6  C    0.497318  -0.066854  -0.033757  -0.000005  -0.000005  -0.000000
     7  C    5.271355   0.269170   0.488329  -0.000002  -0.000002   0.000006
     8  I    0.269170   6.726797  -0.070590  -0.000000  -0.000000  -0.000000
     9  C    0.488329  -0.070590   4.902730   0.000075   0.000076  -0.000142
    10  H   -0.000002  -0.000000   0.000075   0.630704  -0.050113  -0.032417
    11  H   -0.000002  -0.000000   0.000076  -0.050113   0.630670  -0.032404
    12  H    0.000006  -0.000000  -0.000142  -0.032417  -0.032404   0.573382
    13  H    0.000459   0.000029   0.005140   0.001844   0.001842  -0.000178
    14  H    0.006313  -0.000304   0.000806   0.000003   0.000003  -0.000000
    15  H   -0.042331  -0.002426   0.004119   0.000000   0.000000  -0.000000
    16  H   -0.042194  -0.005063   0.357958   0.000035   0.000035  -0.000045
              13         14         15         16
     1  C    0.004809  -0.000005  -0.000000  -0.000172
     2  O   -0.007901  -0.000057   0.000002   0.000095
     3  C   -0.046096   0.003210   0.000713  -0.028446
     4  C    0.364183  -0.037386   0.005262   0.007745
     5  C   -0.036934   0.368643  -0.033124   0.000090
     6  C    0.005176  -0.041988   0.373046   0.004595
     7  C    0.000459   0.006313  -0.042331  -0.042194
     8  I    0.000029  -0.000304  -0.002426  -0.005063
     9  C    0.005140   0.000806   0.004119   0.357958
    10  H    0.001844   0.000003   0.000000   0.000035
    11  H    0.001842   0.000003   0.000000   0.000035
    12  H   -0.000178  -0.000000  -0.000000  -0.000045
    13  H    0.624994  -0.006950  -0.000183  -0.000172
    14  H   -0.006950   0.620320  -0.006721   0.000014
    15  H   -0.000183  -0.006721   0.602748  -0.000153
    16  H   -0.000172   0.000014  -0.000153   0.594287
 Mulliken charges:
               1
     1  C   -0.077017
     2  O   -0.483709
     3  C    0.336682
     4  C   -0.142406
     5  C   -0.085550
     6  C   -0.024480
     7  C   -0.373256
     8  I    0.145521
     9  C   -0.038413
    10  H    0.110883
    11  H    0.110899
    12  H    0.126371
    13  H    0.089937
    14  H    0.094097
    15  H    0.099050
    16  H    0.111391
 Sum of Mulliken charges =  -0.00000
 Mulliken charges with hydrogens summed into heavy atoms:
               1
     1  C    0.271136
     2  O   -0.483709
     3  C    0.336682
     4  C   -0.052469
     5  C    0.008548
     6  C    0.074570
     7  C   -0.373256
     8  I    0.145521
     9  C    0.072978
 Electronic spatial extent (au):  <R**2>=           1921.5354
 Charge=              0.0000 electrons
 Dipole moment (field-independent basis, Debye):
    X=             -3.0476    Y=              0.9150    Z=              0.0008  Tot=              3.1820
 Quadrupole moment (field-independent basis, Debye-Ang):
   XX=            -52.1871   YY=            -63.2159   ZZ=            -69.6444
   XY=             -0.9087   XZ=             -0.0032   YZ=              0.0004
 Traceless Quadrupole moment (field-independent basis, Debye-Ang):
   XX=              9.4954   YY=             -1.5334   ZZ=             -7.9620
   XY=             -0.9087   XZ=             -0.0032   YZ=              0.0004
 Octapole moment (field-independent basis, Debye-Ang**2):
  XXX=             69.0666  YYY=            -12.5484  ZZZ=              0.0019  XYY=             41.8459
  XXY=            -14.6986  XXZ=              0.0144  XZZ=             46.0578  YZZ=            -10.3627
  YYZ=              0.0029  XYZ=              0.0015
 Hexadecapole moment (field-independent basis, Debye-Ang**3):
 XXXX=          -1925.7423 YYYY=           -499.6950 ZZZZ=            -93.2283 XXXY=             10.1952
 XXXZ=             -0.0228 YYYX=            -29.2918 YYYZ=             -0.0057 ZZZX=              0.0166
 ZZZY=             -0.0144 XXYY=           -458.9558 XXZZ=           -414.8394 YYZZ=           -113.2041
 XXYZ=             -0.0132 YYXZ=             -0.0019 ZZXY=             -3.8858
 N-N= 3.904601408865D+02 E-N=-1.607668203927D+03  KE= 3.472112658350D+02
 No NMR shielding tensors so no spin-rotation constants.
 Leave Link  601 at Tue Sep 17 09:43:41 2024, MaxMem=  1342177280 cpu:               0.4 elap:               0.1
 (Enter /groups/ReismanLab/Software/Gaussian16_RevC/Linux_Binary_AVX2-enabled-CPU/g16/l701.exe)
 ... and contract with generalized density number  0.
 Compute integral first derivatives.
 R6Disp: Adding Grimme-D3(BJ) dispersion energy 1st derivatives to the gradient.
   1 Symmetry operations used in ECPInt.
 ECPInt:  NShTT=    1653 NPrTT=    8552 LenC2=    1619 LenP2D=    6130.
 LDataN:  DoStor=T MaxTD1= 6 Len=  172
 Leave Link  701 at Tue Sep 17 09:43:41 2024, MaxMem=  1342177280 cpu:               0.8 elap:               0.1
 (Enter /groups/ReismanLab/Software/Gaussian16_RevC/Linux_Binary_AVX2-enabled-CPU/g16/l702.exe)
 L702 exits ... SP integral derivatives will be done elsewhere.
 Leave Link  702 at Tue Sep 17 09:43:41 2024, MaxMem=  1342177280 cpu:               0.0 elap:               0.0
 (Enter /groups/ReismanLab/Software/Gaussian16_RevC/Linux_Binary_AVX2-enabled-CPU/g16/l703.exe)
 Integral derivatives from FoFJK, PRISM(SPDF).
 Compute integral first derivatives, UseDBF=F ICtDFT=           0.
 Calling FoFJK, ICntrl=      2127 FMM=F ISym2X=0 I1Cent= 0 IOpClX= 0 NMat=1 NMatS=1 NMatT=0.
 FoFJK:  IHMeth= 1 ICntrl=    2127 DoSepK=F KAlg= 0 I1Cent=           0 FoldK=F
 IRaf=         0 NMat=       1 IRICut=       1 DoRegI=T DoRafI=F ISym2E= 0 IDoP0=0 IntGTp=1.
 FoFCou: FMM=F IPFlag=           0 FMFlag=      100000 FMFlg1=         800
         NFxFlg=           0 DoJE=F BraDBF=F KetDBF=F FulRan=T
         wScrn=  0.000000 ICntrl=      2127 IOpCl=  0 I1Cent=           0 NGrid=           0
         NMat0=    1 NMatS0=      1 NMatT0=    0 NMatD0=    1 NMtDS0=    0 NMtDT0=    0
 Symmetry not used in FoFCou.
 Defaulting to unpruned grid for atomic number  53.
 Defaulting to unpruned grid for atomic number  53.
 Defaulting to unpruned grid for atomic number  53.
 Defaulting to unpruned grid for atomic number  53.
 Defaulting to unpruned grid for atomic number  53.
 Defaulting to unpruned grid for atomic number  53.
 Defaulting to unpruned grid for atomic number  53.
 Defaulting to unpruned grid for atomic number  53.
 Leave Link  703 at Tue Sep 17 09:43:43 2024, MaxMem=  1342177280 cpu:              12.6 elap:               1.6
 (Enter /groups/ReismanLab/Software/Gaussian16_RevC/Linux_Binary_AVX2-enabled-CPU/g16/l716.exe)
 Dipole        =-1.19900237D+00 3.60002840D-01 3.13841328D-04
 ***** Axes restored to original set *****
 -------------------------------------------------------------------
 Center     Atomic                   Forces (Hartrees/Bohr)
 Number     Number              X              Y              Z
 -------------------------------------------------------------------
      1        6          -0.003197294    0.000219412    0.000037576
      2        8           0.005892700    0.003783322   -0.000002379
      3        6           0.000643446    0.000620909    0.000005148
      4        6          -0.010526543    0.001453535    0.000009320
      5        6          -0.000794710   -0.004365813   -0.000013672
      6        6           0.005329637   -0.008613937   -0.000014196
      7        6           0.002538679    0.001458084    0.000019596
      8       53           0.007784484    0.001475567    0.000001982
      9        6          -0.001256398    0.009227650   -0.000007372
     10        1          -0.001267684   -0.001387230    0.001169912
     11        1          -0.001279632   -0.001397197   -0.001202159
     12        1          -0.001764903    0.000931615   -0.000005763
     13        1          -0.003903758   -0.000053143    0.000000917
     14        1          -0.001572258   -0.004116365    0.000002478
     15        1           0.002335349   -0.002806186    0.000002353
     16        1           0.001038884    0.003569776   -0.000003740
 -------------------------------------------------------------------
 Cartesian Forces:  Max     0.010526543 RMS     0.003320171
 Leave Link  716 at Tue Sep 17 09:43:43 2024, MaxMem=  1342177280 cpu:               0.0 elap:               0.0
 (Enter /groups/ReismanLab/Software/Gaussian16_RevC/Linux_Binary_AVX2-enabled-CPU/g16/l103.exe)

 GradGradGradGradGradGradGradGradGradGradGradGradGradGradGradGradGradGrad
 Berny optimization.
 FormGI is forming the generalized inverse of G from B-inverse, IUseBI=4.
 GSVD:  received Info=                   1 from GESDD.
 Internal  Forces:  Max     0.012846919 RMS     0.003631882
 Search for a local minimum.
 Step number   1 out of a maximum of   80
 All quantities printed in internal units (Hartrees-Bohrs-Radians)
 RMS Force = .36319D-02 SwitMx=.10000D-02 MixMth= 1
 Mixed Optimization -- RFO/linear search
 Second derivative matrix not updated -- first step.
 ITU=  0
     Eigenvalues ---    0.01587   0.02172   0.02204   0.02242   0.02260
     Eigenvalues ---    0.02268   0.02291   0.02303   0.02313   0.02332
     Eigenvalues ---    0.02357   0.10089   0.10739   0.13432   0.16000
     Eigenvalues ---    0.16000   0.16000   0.16000   0.16000   0.16000
     Eigenvalues ---    0.16000   0.22000   0.23480   0.23503   0.25000
     Eigenvalues ---    0.25000   0.25000   0.34286   0.34293   0.34969
     Eigenvalues ---    0.36037   0.36216   0.36220   0.36228   0.42961
     Eigenvalues ---    0.43685   0.44328   0.47038   0.47766   0.48435
     Eigenvalues ---    0.49340   0.53555
 RFO step:  Lambda=-2.42716520D-03 EMin= 1.58660605D-02
 Linear search not attempted -- first point.
 Iteration  1 RMS(Cart)=  0.02129435 RMS(Int)=  0.00011852
 Iteration  2 RMS(Cart)=  0.00023852 RMS(Int)=  0.00000882
 Iteration  3 RMS(Cart)=  0.00000002 RMS(Int)=  0.00000882
 ITry= 1 IFail=0 DXMaxC= 8.83D-02 DCOld= 1.00D+10 DXMaxT= 3.00D-01 DXLimC= 3.00D+00 Rises=F
 Variable       Old X    -DE/DX   Delta X   Delta X   Delta X     New X
                                 (Linear)    (Quad)   (Total)
    R1        2.66064   0.00765   0.00000   0.01717   0.01717   2.67781
    R2        2.06850   0.00202   0.00000   0.00586   0.00586   2.07436
    R3        2.06838   0.00206   0.00000   0.00596   0.00596   2.07434
    R4        2.05725   0.00154   0.00000   0.00437   0.00437   2.06162
    R5        2.56439   0.00269   0.00000   0.00500   0.00500   2.56939
    R6        2.62913   0.00763   0.00000   0.01562   0.01562   2.64475
    R7        2.64050   0.00718   0.00000   0.01511   0.01511   2.65561
    R8        2.61745   0.01138   0.00000   0.02341   0.02341   2.64085
    R9        2.03739   0.00383   0.00000   0.01050   0.01050   2.04789
   R10        2.61160   0.01108   0.00000   0.02299   0.02299   2.63460
   R11        2.04024   0.00440   0.00000   0.01214   0.01214   2.05239
   R12        2.61614   0.01285   0.00000   0.02694   0.02694   2.64307
   R13        2.03745   0.00365   0.00000   0.01001   0.01001   2.04746
   R14        4.00077   0.00792   0.00000   0.05794   0.05794   4.05871
   R15        2.60080   0.01169   0.00000   0.02348   0.02348   2.62428
   R16        2.03727   0.00372   0.00000   0.01019   0.01019   2.04746
    A1        1.94642   0.00046   0.00000   0.00218   0.00216   1.94858
    A2        1.94643   0.00046   0.00000   0.00216   0.00214   1.94857
    A3        1.84318   0.00190   0.00000   0.01295   0.01292   1.85610
    A4        1.91127  -0.00134   0.00000  -0.01043  -0.01044   1.90083
    A5        1.90742  -0.00071   0.00000  -0.00309  -0.00313   1.90429
    A6        1.90754  -0.00072   0.00000  -0.00317  -0.00321   1.90433
    A7        2.07191  -0.00371   0.00000  -0.01468  -0.01468   2.05723
    A8        2.18641  -0.00374   0.00000  -0.01412  -0.01412   2.17229
    A9        2.01400   0.00011   0.00000   0.00115   0.00115   2.01514
   A10        2.08278   0.00362   0.00000   0.01298   0.01298   2.09576
   A11        2.08996  -0.00160   0.00000  -0.00816  -0.00817   2.08180
   A12        2.11266   0.00002   0.00000  -0.00070  -0.00070   2.11195
   A13        2.08057   0.00158   0.00000   0.00887   0.00887   2.08943
   A14        2.11649   0.00060   0.00000   0.00363   0.00363   2.12012
   A15        2.08252  -0.00042   0.00000  -0.00253  -0.00253   2.07999
   A16        2.08417  -0.00019   0.00000  -0.00110  -0.00110   2.08307
   A17        2.06684  -0.00117   0.00000  -0.00307  -0.00307   2.06377
   A18        2.10641   0.00053   0.00000   0.00117   0.00117   2.10758
   A19        2.10994   0.00065   0.00000   0.00190   0.00190   2.11184
   A20        2.08309  -0.00002   0.00000  -0.00078  -0.00078   2.08230
   A21        2.12184  -0.00006   0.00000   0.00116   0.00116   2.12300
   A22        2.07826   0.00008   0.00000  -0.00037  -0.00037   2.07788
   A23        2.08845  -0.00139   0.00000  -0.00653  -0.00653   2.08192
   A24        2.06615   0.00058   0.00000   0.00252   0.00252   2.06867
   A25        2.12858   0.00082   0.00000   0.00401   0.00401   2.13259
    D1        1.07178  -0.00054   0.00000  -0.00528  -0.00530   1.06649
    D2       -1.07109   0.00053   0.00000   0.00510   0.00512  -1.06597
    D3       -3.14132   0.00000   0.00000  -0.00004  -0.00004  -3.14136
    D4       -0.00037   0.00000   0.00000   0.00007   0.00007  -0.00030
    D5        3.14125   0.00000   0.00000   0.00009   0.00009   3.14133
    D6       -3.14139  -0.00000   0.00000  -0.00017  -0.00017  -3.14157
    D7        0.00008  -0.00000   0.00000  -0.00003  -0.00003   0.00004
    D8        0.00017  -0.00000   0.00000  -0.00019  -0.00019  -0.00001
    D9       -3.14154  -0.00000   0.00000  -0.00005  -0.00005  -3.14159
   D10       -3.14150  -0.00000   0.00000  -0.00013  -0.00013   3.14155
   D11        0.00000  -0.00000   0.00000  -0.00001  -0.00001  -0.00000
   D12        0.00012  -0.00000   0.00000  -0.00012  -0.00012  -0.00000
   D13       -3.14156  -0.00000   0.00000   0.00000   0.00000  -3.14156
   D14       -0.00024   0.00001   0.00000   0.00027   0.00027   0.00002
   D15        3.14154   0.00000   0.00000   0.00005   0.00005   3.14158
   D16        3.14147   0.00000   0.00000   0.00013   0.00013  -3.14159
   D17        0.00006  -0.00000   0.00000  -0.00009  -0.00009  -0.00003
   D18        0.00002  -0.00000   0.00000  -0.00003  -0.00003  -0.00002
   D19       -3.14138  -0.00001   0.00000  -0.00022  -0.00022   3.14158
   D20        3.14142   0.00000   0.00000   0.00019   0.00019  -3.14158
   D21        0.00002   0.00000   0.00000   0.00000   0.00000   0.00002
   D22       -3.14140  -0.00000   0.00000  -0.00012  -0.00012  -3.14153
   D23        0.00029  -0.00001   0.00000  -0.00029  -0.00029  -0.00000
   D24       -0.00000   0.00000   0.00000   0.00007   0.00007   0.00006
   D25       -3.14150  -0.00000   0.00000  -0.00010  -0.00010   3.14159
   D26       -0.00035   0.00001   0.00000   0.00036   0.00036   0.00001
   D27        3.14133   0.00001   0.00000   0.00023   0.00023   3.14157
   D28        3.14133   0.00001   0.00000   0.00020   0.00020   3.14154
   D29       -0.00016   0.00000   0.00000   0.00007   0.00007  -0.00009
         Item               Value     Threshold  Converged?
 Maximum Force            0.012847     0.000450     NO 
 RMS     Force            0.003632     0.000300     NO 
 Maximum Displacement     0.088347     0.001800     NO 
 RMS     Displacement     0.021388     0.001200     NO 
 Predicted change in Energy=-1.223619D-03
 Lowest energy point so far.  Saving SCF results.
 GradGradGradGradGradGradGradGradGradGradGradGradGradGradGradGradGradGrad

 Leave Link  103 at Tue Sep 17 09:43:43 2024, MaxMem=  1342177280 cpu:               0.1 elap:               0.0
 (Enter /groups/ReismanLab/Software/Gaussian16_RevC/Linux_Binary_AVX2-enabled-CPU/g16/l202.exe)
                          Input orientation:                          
 ---------------------------------------------------------------------
 Center     Atomic      Atomic             Coordinates (Angstroms)
 Number     Number       Type             X           Y           Z
 ---------------------------------------------------------------------
      1          6           0       -4.638920    1.358786   -0.000275
      2          8           0       -3.235453    1.554429    0.000207
      3          6           0       -2.439984    0.451744    0.000081
      4          6           0       -2.912468   -0.865629   -0.000147
      5          6           0       -1.995803   -1.920464   -0.000228
      6          6           0       -0.620821   -1.689953   -0.000056
      7          6           0       -0.171740   -0.365356    0.000181
      8         53           0        1.939532    0.028950    0.000324
      9          6           0       -1.057548    0.704154    0.000244
     10          1           0       -4.972137    0.814301    0.892728
     11          1           0       -4.971535    0.814433   -0.893574
     12          1           0       -5.087561    2.353231   -0.000328
     13          1           0       -3.975250   -1.077519   -0.000279
     14          1           0       -2.364307   -2.942112   -0.000396
     15          1           0        0.079560   -2.516620   -0.000110
     16          1           0       -0.719522    1.733545    0.000450
 ---------------------------------------------------------------------
                    Distance matrix (angstroms):
                    1          2          3          4          5
     1  C    0.000000
     2  O    1.417037   0.000000
     3  C    2.378665   1.359663   0.000000
     4  C    2.815788   2.441516   1.399540   0.000000
     5  C    4.211834   3.689391   2.413435   1.397480   0.000000
     6  C    5.043801   4.166811   2.810022   2.435396   1.394170
     7  C    4.788357   3.615510   2.410930   2.786012   2.396990
     8  I    6.711520   5.395142   4.399877   4.933779   4.391705
     9  C    3.640710   2.337999   1.405290   2.430010   2.787282
    10  H    1.097704   2.088170   2.709255   2.803860   4.139429
    11  H    1.097696   2.088161   2.709043   2.803672   4.139167
    12  H    1.090962   2.017025   3.259650   3.884854   5.274792
    13  H    2.525083   2.733944   2.166953   1.083698   2.151456
    14  H    4.865345   4.580149   3.394699   2.147617   1.086075
    15  H    6.105966   5.250024   3.893493   3.417309   2.159290
    16  H    3.937274   2.522299   2.145461   3.400693   3.870487
                    6          7          8          9         10
     6  C    0.000000
     7  C    1.398653   0.000000
     8  I    3.083834   2.147778   0.000000
     9  C    2.433615   1.388707   3.072196   0.000000
    10  H    5.099245   5.023151   7.013154   4.016549   0.000000
    11  H    5.098925   5.022821   7.012766   4.016263   1.786302
    12  H    6.024874   5.617474   7.401508   4.354361   1.783025
    13  H    3.409878   3.869607   6.017385   3.418676   2.317376
    14  H    2.146542   3.383344   5.229745   3.873354   4.659301
    15  H    1.083472   2.165891   3.152685   3.415611   6.116521
    16  H    3.424920   2.169205   3.158514   1.083469   4.441385
                   11         12         13         14         15
    11  H    0.000000
    12  H    1.783045   0.000000
    13  H    2.317335   3.606561   0.000000
    14  H    4.659080   5.954558   2.464110   0.000000
    15  H    6.116187   7.100323   4.302614   2.480631   0.000000
    16  H    4.441133   4.411777   4.301377   4.956519   4.324630
                   16
    16  H    0.000000
 Stoichiometry    C7H7IO
 Framework group  C1[X(C7H7IO)]
 Deg. of freedom    42
 Full point group                 C1      NOp   1
 RotChk:  IX=0 Diff= 1.01D-03
 Largest Abelian subgroup         C1      NOp   1
 Largest concise Abelian subgroup C1      NOp   1
                         Standard orientation:                         
 ---------------------------------------------------------------------
 Center     Atomic      Atomic             Coordinates (Angstroms)
 Number     Number       Type             X           Y           Z
 ---------------------------------------------------------------------
      1          6           0       -4.496841   -0.926154    0.000422
      2          8           0       -3.119590   -1.259581   -0.000060
      3          6           0       -2.219009   -0.240935    0.000065
      4          6           0       -2.558947    1.116693    0.000294
      5          6           0       -1.542494    2.075742    0.000375
      6          6           0       -0.197035    1.710434    0.000203
      7          6           0        0.118900    0.347931   -0.000034
      8         53           0        2.180851   -0.253157   -0.000178
      9          6           0       -0.868297   -0.628772   -0.000098
     10          1           0       -4.774600   -0.351395   -0.892582
     11          1           0       -4.774014   -0.351586    0.893720
     12          1           0       -5.041593   -1.871376    0.000475
     13          1           0       -3.595576    1.432609    0.000426
     14          1           0       -1.808197    3.128815    0.000543
     15          1           0        0.581637    2.463814    0.000257
     16          1           0       -0.633689   -1.686537   -0.000303
 ---------------------------------------------------------------------
 Rotational constants (GHZ):           2.8340337           0.4043492           0.3546601
 Leave Link  202 at Tue Sep 17 09:43:43 2024, MaxMem=  1342177280 cpu:               0.0 elap:               0.0
 (Enter /groups/ReismanLab/Software/Gaussian16_RevC/Linux_Binary_AVX2-enabled-CPU/g16/l301.exe)
 Basis read from rwf:  (5D, 7F)
 Pseudo-potential data read from rwf file.
 There are   163 symmetry adapted cartesian basis functions of A   symmetry.
 There are   155 symmetry adapted basis functions of A   symmetry.
   155 basis functions,   285 primitive gaussians,   163 cartesian basis functions
    32 alpha electrons       32 beta electrons
       nuclear repulsion energy       388.1237794405 Hartrees.
 IExCor=  402 DFT=T Ex+Corr=B3LYP ExCW=0 ScaHFX=  0.200000
 ScaDFX=  0.800000  0.720000  1.000000  0.810000 ScalE2=  1.000000  1.000000
 IRadAn=      5 IRanWt=     -1 IRanGd=            0 ICorTp=0 IEmpDi=141
 NAtoms=   16 NActive=   16 NUniq=   16 SFac= 1.00D+00 NAtFMM=   60 NAOKFM=F Big=F
 Integral buffers will be    131072 words long.
 Raffenetti 2 integral format.
 Two-electron integral symmetry is turned on.
 R6Disp:  Grimme-D3(BJ) Dispersion energy=       -0.0316057169 Hartrees.
 Nuclear repulsion after empirical dispersion term =      388.0921737236 Hartrees.
 No density basis found on file    724.
 Leave Link  301 at Tue Sep 17 09:43:43 2024, MaxMem=  1342177280 cpu:               0.0 elap:               0.0
 (Enter /groups/ReismanLab/Software/Gaussian16_RevC/Linux_Binary_AVX2-enabled-CPU/g16/l302.exe)
 NPDir=0 NMtPBC=     1 NCelOv=     1 NCel=       1 NClECP=     1 NCelD=      1
         NCelK=      1 NCelE2=     1 NClLst=     1 CellRange=     0.0.
 One-electron integrals computed using PRISM.
 One-electron integral symmetry used in STVInt
   1 Symmetry operations used in ECPInt.
 ECPInt:  NShTT=    1653 NPrTT=    8552 LenC2=    1619 LenP2D=    6112.
 LDataN:  DoStor=T MaxTD1= 5 Len=  102
 NBasis=   155 RedAO= T EigKep=  5.15D-04  NBF=   155
 NBsUse=   155 1.00D-06 EigRej= -1.00D+00 NBFU=   155
 Precomputing XC quadrature grid using
 IXCGrd= 4 IRadAn=           5 IRanWt=          -1 IRanGd=           0 AccXCQ= 0.00D+00.
 Defaulting to unpruned grid for atomic number  53.
 Generated NRdTot=       0 NPtTot=           0 NUsed=           0 NTot=          32
 NSgBfM=   163   163   163   163   163 MxSgAt=    16 MxSgA2=    16.
 Leave Link  302 at Tue Sep 17 09:43:43 2024, MaxMem=  1342177280 cpu:               0.7 elap:               0.1
 (Enter /groups/ReismanLab/Software/Gaussian16_RevC/Linux_Binary_AVX2-enabled-CPU/g16/l303.exe)
 DipDrv:  MaxL=1.
 Leave Link  303 at Tue Sep 17 09:43:43 2024, MaxMem=  1342177280 cpu:               0.1 elap:               0.0
 (Enter /groups/ReismanLab/Software/Gaussian16_RevC/Linux_Binary_AVX2-enabled-CPU/g16/l401.exe)
 Initial guess from the checkpoint file:  "smiles_00088_conf_1.chk"
 B after Tr=     0.000000   -0.000000   -0.000000
         Rot=    0.999999   -0.000026   -0.000034   -0.001360 Ang=  -0.16 deg.
 Guess basis will be translated and rotated to current coordinates.
 JPrj=2 DoOrth=T DoCkMO=T.
 Generating alternative initial guess.
 ExpMin= 1.05D-01 ExpMax= 5.48D+03 ExpMxC= 8.25D+02 IAcc=3 IRadAn=         5 AccDes= 0.00D+00
 Harris functional with IExCor=  402 and IRadAn=       5 diagonalized for initial guess.
 HarFok:  IExCor=  402 AccDes= 0.00D+00 IRadAn=         5 IDoV= 1 UseB2=F ITyADJ=14
 ICtDFT=  3500011 ScaDFX=  1.000000  1.000000  1.000000  1.000000
 Defaulting to unpruned grid for atomic number  53.
 FoFCou: FMM=F IPFlag=           0 FMFlag=      100000 FMFlg1=           0
         NFxFlg=           0 DoJE=T BraDBF=F KetDBF=T FulRan=T
         wScrn=  0.000000 ICntrl=       500 IOpCl=  0 I1Cent=   200000004 NGrid=           0
         NMat0=    1 NMatS0=      1 NMatT0=    0 NMatD0=    1 NMtDS0=    0 NMtDT0=    0
 Petite list used in FoFCou.
 Harris En= -357.522879724428    
 Leave Link  401 at Tue Sep 17 09:43:44 2024, MaxMem=  1342177280 cpu:               3.3 elap:               0.6
 (Enter /groups/ReismanLab/Software/Gaussian16_RevC/Linux_Binary_AVX2-enabled-CPU/g16/l502.exe)
 Integral symmetry usage will be decided dynamically.
 Closed shell SCF:
 Using DIIS extrapolation, IDIIS=  1040.
 NGot=  1342177280 LenX=  1342120618 LenY=  1342093608
 Requested convergence on RMS density matrix=1.00D-08 within  32 cycles.
 Requested convergence on MAX density matrix=1.00D-06.
 Requested convergence on             energy=1.00D-06.
 No special actions if energy rises.
 Fock matrices will be formed incrementally for  20 cycles.
 Integral accuracy reduced to 1.0D-05 until final iterations.

 Cycle   1  Pass 0  IDiag  1:
 FoFJK:  IHMeth= 1 ICntrl=       0 DoSepK=F KAlg= 0 I1Cent=           0 FoldK=F
 IRaf= 940000000 NMat=       1 IRICut=       1 DoRegI=T DoRafI=F ISym2E= 0 IDoP0=0 IntGTp=1.
 FoFCou: FMM=F IPFlag=           0 FMFlag=      100000 FMFlg1=           0
         NFxFlg=           0 DoJE=F BraDBF=F KetDBF=F FulRan=T
         wScrn=  0.000000 ICntrl=         0 IOpCl=  0 I1Cent=           0 NGrid=           0
         NMat0=    1 NMatS0=      1 NMatT0=    0 NMatD0=    1 NMtDS0=    0 NMtDT0=    0
 Symmetry not used in FoFCou.
 Defaulting to unpruned grid for atomic number  53.
 Defaulting to unpruned grid for atomic number  53.
 Defaulting to unpruned grid for atomic number  53.
 Defaulting to unpruned grid for atomic number  53.
 Defaulting to unpruned grid for atomic number  53.
 Defaulting to unpruned grid for atomic number  53.
 Defaulting to unpruned grid for atomic number  53.
 Defaulting to unpruned grid for atomic number  53.
 E= -357.583589431067    
 DIIS: error= 2.11D-03 at cycle   1 NSaved=   1.
 NSaved= 1 IEnMin= 1 EnMin= -357.583589431067     IErMin= 1 ErrMin= 2.11D-03
 ErrMax= 2.11D-03  0.00D+00 EMaxC= 1.00D-01 BMatC= 6.07D-04 BMatP= 6.07D-04
 IDIUse=3 WtCom= 9.79D-01 WtEn= 2.11D-02
 Coeff-Com:  0.100D+01
 Coeff-En:   0.100D+01
 Coeff:      0.100D+01
 Gap=     0.791 Goal=   None    Shift=    0.000
 GapD=    0.791 DampG=2.000 DampE=1.000 DampFc=2.0000 IDamp=-1.
 RMSDP=3.15D-04 MaxDP=6.62D-03              OVMax= 7.76D-03

 Cycle   2  Pass 0  IDiag  1:
 RMSU=  3.12D-04    CP:  9.98D-01
 E= -357.583960069119     Delta-E=       -0.000370638052 Rises=F Damp=F
 DIIS: error= 1.43D-03 at cycle   2 NSaved=   2.
 NSaved= 2 IEnMin= 2 EnMin= -357.583960069119     IErMin= 2 ErrMin= 1.43D-03
 ErrMax= 1.43D-03  0.00D+00 EMaxC= 1.00D-01 BMatC= 2.11D-04 BMatP= 6.07D-04
 IDIUse=3 WtCom= 9.86D-01 WtEn= 1.43D-02
 Coeff-Com:  0.310D+00 0.690D+00
 Coeff-En:   0.000D+00 0.100D+01
 Coeff:      0.305D+00 0.695D+00
 Gap=     0.195 Goal=   None    Shift=    0.000
 RMSDP=2.15D-04 MaxDP=6.40D-03 DE=-3.71D-04 OVMax= 7.63D-03

 Cycle   3  Pass 0  IDiag  1:
 RMSU=  1.84D-04    CP:  9.99D-01  6.53D-01
 E= -357.583952786193     Delta-E=        0.000007282926 Rises=F Damp=F
 DIIS: error= 1.41D-03 at cycle   3 NSaved=   3.
 NSaved= 3 IEnMin= 2 EnMin= -357.583960069119     IErMin= 3 ErrMin= 1.41D-03
 ErrMax= 1.41D-03  0.00D+00 EMaxC= 1.00D-01 BMatC= 2.19D-04 BMatP= 2.11D-04
 IDIUse=3 WtCom= 9.86D-01 WtEn= 1.41D-02
 Coeff-Com:  0.814D-02 0.503D+00 0.489D+00
 Coeff-En:   0.000D+00 0.506D+00 0.494D+00
 Coeff:      0.802D-02 0.503D+00 0.489D+00
 Gap=     0.197 Goal=   None    Shift=    0.000
 RMSDP=1.23D-04 MaxDP=3.56D-03 DE= 7.28D-06 OVMax= 4.75D-03

 Cycle   4  Pass 0  IDiag  1:
 RMSU=  4.02D-05    CP:  9.99D-01  8.58D-01  4.79D-01
 E= -357.584194649650     Delta-E=       -0.000241863456 Rises=F Damp=F
 DIIS: error= 2.01D-04 at cycle   4 NSaved=   4.
 NSaved= 4 IEnMin= 4 EnMin= -357.584194649650     IErMin= 4 ErrMin= 2.01D-04
 ErrMax= 2.01D-04  0.00D+00 EMaxC= 1.00D-01 BMatC= 8.85D-06 BMatP= 2.11D-04
 IDIUse=3 WtCom= 9.98D-01 WtEn= 2.01D-03
 Coeff-Com: -0.914D-02 0.266D+00 0.291D+00 0.453D+00
 Coeff-En:   0.000D+00 0.000D+00 0.000D+00 0.100D+01
 Coeff:     -0.912D-02 0.265D+00 0.290D+00 0.454D+00
 Gap=     0.196 Goal=   None    Shift=    0.000
 RMSDP=2.37D-05 MaxDP=5.89D-04 DE=-2.42D-04 OVMax= 1.44D-03

 Cycle   5  Pass 0  IDiag  1:
 RMSU=  1.02D-05    CP:  9.99D-01  8.52D-01  4.95D-01  4.75D-01
 E= -357.584204774936     Delta-E=       -0.000010125287 Rises=F Damp=F
 DIIS: error= 2.93D-05 at cycle   5 NSaved=   5.
 NSaved= 5 IEnMin= 5 EnMin= -357.584204774936     IErMin= 5 ErrMin= 2.93D-05
 ErrMax= 2.93D-05  0.00D+00 EMaxC= 1.00D-01 BMatC= 2.22D-07 BMatP= 8.85D-06
 IDIUse=1 WtCom= 1.00D+00 WtEn= 0.00D+00
 Coeff-Com: -0.452D-02 0.744D-01 0.886D-01 0.195D+00 0.646D+00
 Coeff:     -0.452D-02 0.744D-01 0.886D-01 0.195D+00 0.646D+00
 Gap=     0.196 Goal=   None    Shift=    0.000
 RMSDP=3.85D-06 MaxDP=1.27D-04 DE=-1.01D-05 OVMax= 2.39D-04

 Initial convergence to 1.0D-05 achieved.  Increase integral accuracy.
 Cycle   6  Pass 1  IDiag  1:
 E= -357.584285022134     Delta-E=       -0.000080247197 Rises=F Damp=F
 DIIS: error= 2.83D-05 at cycle   1 NSaved=   1.
 NSaved= 1 IEnMin= 1 EnMin= -357.584285022134     IErMin= 1 ErrMin= 2.83D-05
 ErrMax= 2.83D-05  0.00D+00 EMaxC= 1.00D-01 BMatC= 5.51D-08 BMatP= 5.51D-08
 IDIUse=1 WtCom= 1.00D+00 WtEn= 0.00D+00
 Coeff-Com:  0.100D+01
 Coeff:      0.100D+01
 Gap=     0.196 Goal=   None    Shift=    0.000
 RMSDP=3.85D-06 MaxDP=1.27D-04 DE=-8.02D-05 OVMax= 1.63D-04

 Cycle   7  Pass 1  IDiag  1:
 RMSU=  6.12D-06    CP:  1.00D+00
 E= -357.584284994330     Delta-E=        0.000000027804 Rises=F Damp=F
 DIIS: error= 1.87D-05 at cycle   2 NSaved=   2.
 NSaved= 2 IEnMin= 1 EnMin= -357.584285022134     IErMin= 2 ErrMin= 1.87D-05
 ErrMax= 1.87D-05  0.00D+00 EMaxC= 1.00D-01 BMatC= 8.03D-08 BMatP= 5.51D-08
 IDIUse=1 WtCom= 1.00D+00 WtEn= 0.00D+00
 Coeff-Com:  0.553D+00 0.447D+00
 Coeff:      0.553D+00 0.447D+00
 Gap=     0.196 Goal=   None    Shift=    0.000
 RMSDP=2.13D-06 MaxDP=6.95D-05 DE= 2.78D-08 OVMax= 1.28D-04

 Cycle   8  Pass 1  IDiag  1:
 RMSU=  1.86D-06    CP:  1.00D+00  8.30D-01
 E= -357.584285073075     Delta-E=       -0.000000078745 Rises=F Damp=F
 DIIS: error= 5.05D-06 at cycle   3 NSaved=   3.
 NSaved= 3 IEnMin= 3 EnMin= -357.584285073075     IErMin= 3 ErrMin= 5.05D-06
 ErrMax= 5.05D-06  0.00D+00 EMaxC= 1.00D-01 BMatC= 4.11D-09 BMatP= 5.51D-08
 IDIUse=1 WtCom= 1.00D+00 WtEn= 0.00D+00
 Coeff-Com:  0.129D+00 0.204D+00 0.667D+00
 Coeff:      0.129D+00 0.204D+00 0.667D+00
 Gap=     0.196 Goal=   None    Shift=    0.000
 RMSDP=6.68D-07 MaxDP=1.80D-05 DE=-7.87D-08 OVMax= 4.07D-05

 Cycle   9  Pass 1  IDiag  1:
 RMSU=  4.99D-07    CP:  1.00D+00  8.61D-01  7.83D-01
 E= -357.584285075752     Delta-E=       -0.000000002677 Rises=F Damp=F
 DIIS: error= 3.35D-06 at cycle   4 NSaved=   4.
 NSaved= 4 IEnMin= 4 EnMin= -357.584285075752     IErMin= 4 ErrMin= 3.35D-06
 ErrMax= 3.35D-06  0.00D+00 EMaxC= 1.00D-01 BMatC= 1.79D-09 BMatP= 4.11D-09
 IDIUse=1 WtCom= 1.00D+00 WtEn= 0.00D+00
 Coeff-Com:  0.218D-02 0.695D-01 0.452D+00 0.476D+00
 Coeff:      0.218D-02 0.695D-01 0.452D+00 0.476D+00
 Gap=     0.196 Goal=   None    Shift=    0.000
 RMSDP=3.21D-07 MaxDP=1.12D-05 DE=-2.68D-09 OVMax= 1.47D-05

 Cycle  10  Pass 1  IDiag  1:
 RMSU=  1.32D-07    CP:  1.00D+00  8.53D-01  8.46D-01  4.72D-01
 E= -357.584285077681     Delta-E=       -0.000000001929 Rises=F Damp=F
 DIIS: error= 7.06D-07 at cycle   5 NSaved=   5.
 NSaved= 5 IEnMin= 5 EnMin= -357.584285077681     IErMin= 5 ErrMin= 7.06D-07
 ErrMax= 7.06D-07  0.00D+00 EMaxC= 1.00D-01 BMatC= 6.50D-11 BMatP= 1.79D-09
 IDIUse=1 WtCom= 1.00D+00 WtEn= 0.00D+00
 Coeff-Com: -0.341D-02 0.322D-01 0.237D+00 0.279D+00 0.455D+00
 Coeff:     -0.341D-02 0.322D-01 0.237D+00 0.279D+00 0.455D+00
 Gap=     0.196 Goal=   None    Shift=    0.000
 RMSDP=6.79D-08 MaxDP=1.65D-06 DE=-1.93D-09 OVMax= 2.02D-06

 Cycle  11  Pass 1  IDiag  1:
 RMSU=  3.46D-08    CP:  1.00D+00  8.56D-01  8.40D-01  5.01D-01  5.99D-01
 E= -357.584285077748     Delta-E=       -0.000000000067 Rises=F Damp=F
 DIIS: error= 8.94D-08 at cycle   6 NSaved=   6.
 NSaved= 6 IEnMin= 6 EnMin= -357.584285077748     IErMin= 6 ErrMin= 8.94D-08
 ErrMax= 8.94D-08  0.00D+00 EMaxC= 1.00D-01 BMatC= 1.67D-12 BMatP= 6.50D-11
 IDIUse=1 WtCom= 1.00D+00 WtEn= 0.00D+00
 Coeff-Com: -0.162D-02 0.948D-02 0.748D-01 0.915D-01 0.204D+00 0.622D+00
 Coeff:     -0.162D-02 0.948D-02 0.748D-01 0.915D-01 0.204D+00 0.622D+00
 Gap=     0.196 Goal=   None    Shift=    0.000
 RMSDP=1.23D-08 MaxDP=4.50D-07 DE=-6.73D-11 OVMax= 3.91D-07

 Cycle  12  Pass 1  IDiag  1:
 RMSU=  9.82D-09    CP:  1.00D+00  8.56D-01  8.41D-01  5.04D-01  5.94D-01
                    CP:  8.01D-01
 E= -357.584285077750     Delta-E=       -0.000000000002 Rises=F Damp=F
 DIIS: error= 4.83D-08 at cycle   7 NSaved=   7.
 NSaved= 7 IEnMin= 7 EnMin= -357.584285077750     IErMin= 7 ErrMin= 4.83D-08
 ErrMax= 4.83D-08  0.00D+00 EMaxC= 1.00D-01 BMatC= 2.16D-13 BMatP= 1.67D-12
 IDIUse=1 WtCom= 1.00D+00 WtEn= 0.00D+00
 Coeff-Com: -0.566D-03 0.228D-02 0.200D-01 0.248D-01 0.694D-01 0.312D+00
 Coeff-Com:  0.572D+00
 Coeff:     -0.566D-03 0.228D-02 0.200D-01 0.248D-01 0.694D-01 0.312D+00
 Coeff:      0.572D+00
 Gap=     0.196 Goal=   None    Shift=    0.000
 RMSDP=3.46D-09 MaxDP=1.31D-07 DE=-2.16D-12 OVMax= 1.91D-07

 SCF Done:  E(RB3LYP) =  -357.584285078     A.U. after   12 cycles
            NFock= 12  Conv=0.35D-08     -V/T= 2.0307
 KE= 3.469501095441D+02 PE=-1.602720311434D+03 EE= 5.100937430890D+02
 Leave Link  502 at Tue Sep 17 09:43:49 2024, MaxMem=  1342177280 cpu:              41.6 elap:               5.6
 (Enter /groups/ReismanLab/Software/Gaussian16_RevC/Linux_Binary_AVX2-enabled-CPU/g16/l508.exe)
[...]
   XY=    -9.6169   YY=   102.9442   ZY=     0.0020
   XZ=    -0.0155   YZ=     0.0054   ZZ=   108.4775
   Eigenvalues:   101.0670   108.4775   179.1184
      2  O    Isotropic =   221.9182   Anisotropy =    91.2323
   XX=   138.1225   YX=    41.5195   ZX=     0.0303
   XY=    85.4301   YY=   244.8923   ZY=    -0.0158
   XZ=     0.0199   YZ=    -0.0029   ZZ=   282.7397
   Eigenvalues:   108.5677   274.4471   282.7397
      3  C    Isotropic =     1.5834   Anisotropy =   163.7393
   XX=   -60.0067   YX=   -46.5434   ZX=     0.0096
   XY=   -44.7649   YY=   -45.9859   ZY=    -0.0167
   XZ=     0.0070   YZ=    -0.0149   ZZ=   110.7430
   Eigenvalues:   -99.1856    -6.8071   110.7430
      4  C    Isotropic =    58.0680   Anisotropy =   187.7769
   XX=   -35.2433   YX=    35.6500   ZX=     0.0256
   XY=    16.9979   YY=    26.1948   ZY=    -0.0240
   XZ=     0.0182   YZ=    -0.0297   ZZ=   183.2526
   Eigenvalues:   -44.9793    35.9308   183.2526
      5  C    Isotropic =    32.8481   Anisotropy =   212.6651
   XX=    12.1416   YX=    27.4861   ZX=     0.0193
   XY=    23.5459   YY=   -88.2222   ZY=    -0.0387
   XZ=     0.0177   YZ=    -0.0380   ZZ=   174.6248
   Eigenvalues:   -94.3367    18.2561   174.6248
      6  C    Isotropic =    36.3015   Anisotropy =   170.4158
   XX=   -16.6831   YX=   -59.3380   ZX=     0.0078
   XY=   -62.5355   YY=   -24.3244   ZY=    -0.0183
   XZ=     0.0081   YZ=    -0.0171   ZZ=   149.9121
   Eigenvalues:   -81.5602    40.5527   149.9121
      7  C    Isotropic =    26.5003   Anisotropy =   141.3323
   XX=   -73.6741   YX=    37.4894   ZX=     0.0239
   XY=    37.0946   YY=    32.4533   ZY=    -0.0159
   XZ=     0.0243   YZ=    -0.0161   ZZ=   120.7219
   Eigenvalues:   -85.4676    44.2467   120.7219
      8  I    Isotropic =   434.6100   Anisotropy =    73.4521
   XX=   478.1944   YX=   -18.3798   ZX=    -0.0096
   XY=   -18.4622   YY=   420.5487   ZY=     0.0040
   XZ=    -0.0094   YZ=     0.0039   ZZ=   405.0870
   Eigenvalues:   405.0870   415.1649   483.5781
      9  C    Isotropic =    39.5131   Anisotropy =   147.7721
   XX=    35.7318   YX=    18.2974   ZX=     0.0122
   XY=    26.0871   YY=   -55.2204   ZY=    -0.0288
   XZ=     0.0116   YZ=    -0.0273   ZZ=   138.0278
   Eigenvalues:   -60.3463    40.8578   138.0278
     10  H    Isotropic =    28.2379   Anisotropy =     8.3288
   XX=    31.0804   YX=    -2.4209   ZX=     3.8901
   XY=    -0.4722   YY=    26.4434   ZY=    -1.3220
   XZ=     3.5946   YZ=    -0.8210   ZZ=    27.1898
   Eigenvalues:    24.8940    26.0292    33.7904
     11  H    Isotropic =    28.2381   Anisotropy =     8.3285
   XX=    31.0777   YX=    -2.4195   ZX=    -3.8919
   XY=    -0.4706   YY=    26.4430   ZY=     1.3218
   XZ=    -3.5962   YZ=     0.8215   ZZ=    27.1935
   Eigenvalues:    24.8944    26.0294    33.7904
     12  H    Isotropic =    27.8154   Anisotropy =     8.5045
   XX=    31.9899   YX=     3.9558   ZX=    -0.0011
   XY=     1.7640   YY=    28.0151   ZY=     0.0001
   XZ=    -0.0015   YZ=    -0.0003   ZZ=    23.4413
   Eigenvalues:    23.4413    26.5199    33.4851
     13  H    Isotropic =    24.3787   Anisotropy =     7.9826
   XX=    23.4993   YX=     2.5555   ZX=     0.0000
   XY=     1.7811   YY=    28.9423   ZY=     0.0009
   XZ=    -0.0002   YZ=     0.0009   ZZ=    20.6946
   Eigenvalues:    20.6946    22.7411    29.7005
     14  H    Isotropic =    23.7629   Anisotropy =     6.1463
   XX=    27.6664   YX=     1.0844   ZX=    -0.0006
   XY=     0.8586   YY=    22.9967   ZY=     0.0003
   XZ=    -0.0006   YZ=     0.0003   ZZ=    20.6257
   Eigenvalues:    20.6257    22.8026    27.8605
     15  H    Isotropic =    24.0098   Anisotropy =    11.5677
   XX=    25.3520   YX=    -5.3911   ZX=    -0.0014
   XY=    -4.8479   YY=    27.6068   ZY=     0.0017
   XZ=    -0.0012   YZ=     0.0018   ZZ=    19.0706
   Eigenvalues:    19.0706    21.2372    31.7216
     16  H    Isotropic =    23.9727   Anisotropy =    13.2350
   XX=    31.7908   YX=     3.5027   ZX=    -0.0009
   XY=     3.2514   YY=    21.4506   ZY=     0.0001
   XZ=    -0.0007   YZ=     0.0000   ZZ=    18.6766
   Eigenvalues:    18.6766    20.4454    32.7960
 End of Minotr F.D. properties file   721 does not exist.
 End of Minotr F.D. properties file   722 does not exist.
 End of Minotr F.D. properties file   788 does not exist.
 Leave Link 1002 at Tue Sep 17 10:20:52 2024, MaxMem=  1342177280 cpu:             402.2 elap:             403.2
 (Enter /groups/ReismanLab/Software/Gaussian16_RevC/Linux_Binary_AVX2-enabled-CPU/g16/l601.exe)
 Copying SCF densities to generalized density rwf, IOpCl= 0 IROHF=0.

 **********************************************************************

            Population analysis using the SCF Density.

 **********************************************************************

 Orbital symmetries:
       Occupied  (A) (A) (A) (A) (A) (A) (A) (A) (A) (A) (A) (A)
                 (A) (A) (A) (A) (A) (A) (A) (A) (A) (A) (A) (A)
                 (A) (A) (A) (A) (A) (A) (A) (A) (A) (A) (A) (A)
                 (A) (A) (A) (A) (A)
       Virtual   (A) (A) (A) (A) (A) (A) (A) (A) (A) (A) (A) (A)
                 (A) (A) (A) (A) (A) (A) (A) (A) (A) (A) (A) (A)
                 (A) (A) (A) (A) (A) (A) (A) (A) (A) (A) (A) (A)
                 (A) (A) (A) (A) (A) (A) (A) (A) (A) (A) (A) (A)
                 (A) (A) (A) (A) (A) (A) (A) (A) (A) (A) (A) (A)
                 (A) (A) (A) (A) (A) (A) (A) (A) (A) (A) (A) (A)
                 (A) (A) (A) (A) (A) (A) (A) (A) (A) (A) (A) (A)
                 (A) (A) (A) (A) (A) (A) (A) (A) (A) (A) (A) (A)
                 (A) (A) (A) (A) (A) (A) (A) (A) (A) (A) (A) (A)
                 (A) (A) (A) (A) (A) (A) (A) (A) (A) (A) (A) (A)
                 (A) (A) (A) (A) (A) (A) (A) (A) (A) (A) (A) (A)
                 (A) (A) (A) (A) (A) (A) (A) (A) (A) (A) (A) (A)
                 (A) (A) (A) (A) (A) (A) (A) (A) (A) (A) (A) (A)
                 (A) (A) (A) (A) (A) (A) (A) (A) (A) (A) (A) (A)
                 (A) (A) (A) (A) (A) (A) (A) (A) (A) (A) (A) (A)
                 (A) (A) (A) (A) (A) (A) (A) (A) (A) (A) (A) (A)
                 (A) (A) (A) (A) (A) (A) (A) (A) (A) (A) (A) (A)
                 (A) (A) (A) (A) (A) (A) (A) (A) (A) (A) (A) (A)
                 (A) (A) (A) (A) (A) (A) (A) (A) (A) (A) (A) (A)
                 (A) (A) (A) (A) (A) (A) (A) (A) (A) (A) (A) (A)
                 (A) (A) (A) (A) (A) (A) (A) (A) (A) (A) (A) (A)
                 (A) (A) (A) (A) (A) (A) (A) (A) (A) (A) (A) (A)
                 (A) (A) (A) (A) (A) (A) (A) (A) (A) (A) (A) (A)
                 (A) (A) (A) (A) (A) (A) (A) (A) (A) (A) (A) (A)
                 (A) (A) (A) (A) (A) (A) (A) (A) (A) (A) (A)
 The electronic state is 1-A.
 Alpha  occ. eigenvalues --  -19.66261 -10.61518 -10.59898 -10.58968 -10.55539
 Alpha  occ. eigenvalues --  -10.55149 -10.54921 -10.54880  -7.10178  -5.09515
 Alpha  occ. eigenvalues --   -5.08483  -5.08478  -2.06345  -2.05914  -2.05913
 Alpha  occ. eigenvalues --   -2.05055  -2.05054  -1.19678  -0.97064  -0.86386
 Alpha  occ. eigenvalues --   -0.86267  -0.79300  -0.77488  -0.69951  -0.66775
 Alpha  occ. eigenvalues --   -0.60836  -0.56616  -0.56521  -0.55277  -0.50789
 Alpha  occ. eigenvalues --   -0.49055  -0.47609  -0.46187  -0.44346  -0.41441
 Alpha  occ. eigenvalues --   -0.40518  -0.38348  -0.34937  -0.31976  -0.29760
 Alpha  occ. eigenvalues --   -0.28445
 Alpha virt. eigenvalues --   -0.00302   0.00771   0.02358   0.07811   0.09906
 Alpha virt. eigenvalues --    0.10828   0.12122   0.13362   0.14011   0.15208
 Alpha virt. eigenvalues --    0.15876   0.16557   0.17200   0.17902   0.19101
 Alpha virt. eigenvalues --    0.21502   0.21578   0.22957   0.23449   0.23654
 Alpha virt. eigenvalues --    0.24202   0.24258   0.25036   0.25639   0.27082
 Alpha virt. eigenvalues --    0.27376   0.30118   0.30457   0.31692   0.33181
 Alpha virt. eigenvalues --    0.35152   0.35828   0.37424   0.37941   0.39095
 Alpha virt. eigenvalues --    0.39707   0.40077   0.40643   0.42277   0.43058
 Alpha virt. eigenvalues --    0.44170   0.44619   0.44951   0.46310   0.48159
 Alpha virt. eigenvalues --    0.49062   0.50650   0.50977   0.51692   0.52758
 Alpha virt. eigenvalues --    0.53485   0.55519   0.56760   0.57702   0.61617
 Alpha virt. eigenvalues --    0.62776   0.63552   0.64708   0.66118   0.67632
 Alpha virt. eigenvalues --    0.68673   0.71864   0.72437   0.73385   0.75551
 Alpha virt. eigenvalues --    0.75888   0.76307   0.77393   0.79716   0.80170
 Alpha virt. eigenvalues --    0.84079   0.84982   0.86542   0.87997   0.88025
 Alpha virt. eigenvalues --    0.89188   0.91953   0.93645   0.94169   0.95899
 Alpha virt. eigenvalues --    0.96374   0.97123   0.98531   0.99303   1.01134
 Alpha virt. eigenvalues --    1.01220   1.01875   1.07581   1.10460   1.11439
 Alpha virt. eigenvalues --    1.12989   1.13893   1.15607   1.16960   1.22573
 Alpha virt. eigenvalues --    1.23191   1.25050   1.25315   1.25947   1.26792
 Alpha virt. eigenvalues --    1.30257   1.30930   1.31746   1.32769   1.37037
 Alpha virt. eigenvalues --    1.39277   1.43230   1.43245   1.44331   1.44506
 Alpha virt. eigenvalues --    1.46790   1.47829   1.49343   1.49901   1.52201
 Alpha virt. eigenvalues --    1.52763   1.52953   1.56086   1.56861   1.57190
 Alpha virt. eigenvalues --    1.59419   1.60235   1.61090   1.61721   1.64129
 Alpha virt. eigenvalues --    1.67098   1.69962   1.71105   1.73111   1.73587
 Alpha virt. eigenvalues --    1.76672   1.77994   1.82204   1.83710   1.87086
 Alpha virt. eigenvalues --    1.89676   1.90822   1.92199   1.95951   1.99929
 Alpha virt. eigenvalues --    2.00056   2.01435   2.01466   2.08372   2.08821
 Alpha virt. eigenvalues --    2.11197   2.12275   2.13627   2.17321   2.20292
 Alpha virt. eigenvalues --    2.25126   2.26531   2.27405   2.30313   2.32607
 Alpha virt. eigenvalues --    2.33420   2.35154   2.36592   2.41789   2.43920
 Alpha virt. eigenvalues --    2.46687   2.50332   2.54380   2.54481   2.57184
 Alpha virt. eigenvalues --    2.58862   2.58948   2.61418   2.63020   2.64434
 Alpha virt. eigenvalues --    2.65017   2.66638   2.67842   2.68644   2.70374
 Alpha virt. eigenvalues --    2.71378   2.75387   2.76887   2.78417   2.80061
 Alpha virt. eigenvalues --    2.81059   2.83732   2.83900   2.84528   2.86763
 Alpha virt. eigenvalues --    2.86937   2.90218   2.91918   2.94420   2.99898
 Alpha virt. eigenvalues --    3.02330   3.04054   3.04791   3.06842   3.10024
 Alpha virt. eigenvalues --    3.12456   3.13083   3.13475   3.14901   3.16152
 Alpha virt. eigenvalues --    3.16304   3.17186   3.20127   3.20430   3.20972
 Alpha virt. eigenvalues --    3.21762   3.22798   3.23413   3.23767   3.25819
 Alpha virt. eigenvalues --    3.27794   3.28827   3.32052   3.32840   3.33986
 Alpha virt. eigenvalues --    3.35740   3.36479   3.37435   3.41120   3.41497
 Alpha virt. eigenvalues --    3.43499   3.44950   3.47130   3.47988   3.49373
 Alpha virt. eigenvalues --    3.49737   3.52454   3.52622   3.53508   3.55823
 Alpha virt. eigenvalues --    3.57677   3.59770   3.61508   3.66700   3.71261
 Alpha virt. eigenvalues --    3.73541   3.74697   3.74999   3.76550   3.95790
 Alpha virt. eigenvalues --    3.97098   4.01431   4.01843   4.03533   4.07196
 Alpha virt. eigenvalues --    4.12440   4.12784   4.14862   4.16606   4.17487
 Alpha virt. eigenvalues --    4.18652   4.18762   4.22472   4.24814   4.28033
 Alpha virt. eigenvalues --    4.37141   4.43844   4.47650   4.50534   4.52745
 Alpha virt. eigenvalues --    4.53663   4.56261   4.58196   4.63718   4.71952
 Alpha virt. eigenvalues --    4.81570   4.85104   4.92912   5.03846   5.08544
 Alpha virt. eigenvalues --    5.18983   5.24463   5.26408   5.35527   5.41410
 Alpha virt. eigenvalues --    5.54884   5.73755   5.88478   5.95215   6.28698
 Alpha virt. eigenvalues --    6.45906   6.62818   6.75757   6.83778   7.13938
 Alpha virt. eigenvalues --    7.36212  22.14399  22.46991  22.67364  22.70058
 Alpha virt. eigenvalues --   22.77569  22.88154  23.26546  34.48438  34.56662
 Alpha virt. eigenvalues --   34.81218  42.86886  44.34619 117.58800
          Condensed to atoms (all electrons):
               1          2          3          4          5          6
     1  C    4.924441   0.224404  -0.084909   0.003994  -0.006894   0.001809
     2  O    0.224404   7.946212   0.350356  -0.082377   0.010390  -0.000475
     3  C   -0.084909   0.350356   4.892770   0.289381   0.084722  -0.110961
     4  C    0.003994  -0.082377   0.289381   5.353658   0.290385   0.048245
     5  C   -0.006894   0.010390   0.084722   0.290385   5.127592   0.353551
     6  C    0.001809  -0.000475  -0.110961   0.048245   0.353551   5.239532
     7  C   -0.002034   0.001988   0.049102  -0.114996   0.051374   0.375781
     8  I    0.000032  -0.000352   0.025759  -0.003428   0.022270  -0.097661
     9  C    0.008739  -0.062391   0.300750   0.066580  -0.125729   0.010116
    10  H    0.415587  -0.039697  -0.010767   0.005050  -0.001306   0.000131
    11  H    0.415585  -0.039701  -0.010758   0.005046  -0.001307   0.000131
    12  H    0.401948  -0.029314   0.005522  -0.000813   0.000386  -0.000065
    13  H    0.006413  -0.005741  -0.036168   0.405745  -0.014496   0.001725
    14  H   -0.000040  -0.000083   0.000490  -0.018908   0.395254  -0.022411
    15  H    0.000002   0.000016  -0.003264   0.007718  -0.036883   0.421957
    16  H    0.000256   0.009869  -0.049175   0.015328  -0.007495   0.016079
               7          8          9         10         11         12
     1  C   -0.002034   0.000032   0.008739   0.415587   0.415585   0.401948
     2  O    0.001988  -0.000352  -0.062391  -0.039697  -0.039701  -0.029314
     3  C    0.049102   0.025759   0.300750  -0.010767  -0.010758   0.005522
     4  C   -0.114996  -0.003428   0.066580   0.005050   0.005046  -0.000813
     5  C    0.051374   0.022270  -0.125729  -0.001306  -0.001307   0.000386
     6  C    0.375781  -0.097661   0.010116   0.000131   0.000131  -0.000065
     7  C    4.908360   0.341047   0.370446  -0.000240  -0.000240   0.000133
     8  I    0.341047  24.945638  -0.096930   0.000001   0.000001  -0.000001
     9  C    0.370446  -0.096930   5.370633   0.001667   0.001669  -0.001175
    10  H   -0.000240   0.000001   0.001667   0.544181  -0.054905  -0.018921
    11  H   -0.000240   0.000001   0.001669  -0.054905   0.544177  -0.018918
    12  H    0.000133  -0.000001  -0.001175  -0.018921  -0.018918   0.496380
    13  H    0.000757   0.000033   0.003147  -0.001195  -0.001196  -0.000229
    14  H   -0.000458  -0.000474   0.001953  -0.000019  -0.000019   0.000002
    15  H   -0.049447  -0.012270   0.013845   0.000001   0.000001  -0.000000
    16  H   -0.042352  -0.016165   0.413148   0.000109   0.000109  -0.000208
              13         14         15         16
     1  C    0.006413  -0.000040   0.000002   0.000256
     2  O   -0.005741  -0.000083   0.000016   0.009869
     3  C   -0.036168   0.000490  -0.003264  -0.049175
     4  C    0.405745  -0.018908   0.007718   0.015328
     5  C   -0.014496   0.395254  -0.036883  -0.007495
     6  C    0.001725  -0.022411   0.421957   0.016079
     7  C    0.000757  -0.000458  -0.049447  -0.042352
     8  I    0.000033  -0.000474  -0.012270  -0.016165
     9  C    0.003147   0.001953   0.013845   0.413148
    10  H   -0.001195  -0.000019   0.000001   0.000109
    11  H   -0.001196  -0.000019   0.000001   0.000109
    12  H   -0.000229   0.000002  -0.000000  -0.000208
    13  H    0.462039  -0.001876  -0.000168  -0.000079
    14  H   -0.001876   0.480609  -0.001565   0.000063
    15  H   -0.000168  -0.001565   0.477252   0.000183
    16  H   -0.000079   0.000063   0.000183   0.469256
 Mulliken charges:
               1
     1  C   -0.309333
     2  O   -0.283105
     3  C    0.307151
     4  C   -0.270610
     5  C   -0.141814
     6  C   -0.237485
     7  C    0.110779
     8  I   -0.107501
     9  C   -0.276467
    10  H    0.160324
    11  H    0.160326
    12  H    0.165274
    13  H    0.181287
    14  H    0.167481
    15  H    0.182620
    16  H    0.191072
 Sum of Mulliken charges =  -0.00000
 Mulliken charges with hydrogens summed into heavy atoms:
               1
     1  C    0.176591
     2  O   -0.283105
     3  C    0.307151
     4  C   -0.089323
     5  C    0.025668
     6  C   -0.054865
     7  C    0.110779
     8  I   -0.107501
     9  C   -0.085395
 Electronic spatial extent (au):  <R**2>=           2267.8583
 Charge=             -0.0000 electrons
 Dipole moment (field-independent basis, Debye):
    X=             -3.4977    Y=              1.1696    Z=              0.0007  Tot=              3.6881
 Quadrupole moment (field-independent basis, Debye-Ang):
   XX=            -57.4209   YY=            -69.8965   ZZ=            -77.9650
   XY=             -1.6093   XZ=             -0.0031   YZ=              0.0010
 Traceless Quadrupole moment (field-independent basis, Debye-Ang):
   XX=             11.0066   YY=             -1.4691   ZZ=             -9.5375
   XY=             -1.6093   XZ=             -0.0031   YZ=              0.0010
 Octapole moment (field-independent basis, Debye-Ang**2):
  XXX=             17.4436  YYY=             -4.8498  ZZZ=             -0.0142  XYY=             27.5786
  XXY=            -11.1814  XXZ=              0.0069  XZZ=             34.2406  YZZ=             -9.5908
  YYZ=             -0.0005  XYZ=              0.0006
 Hexadecapole moment (field-independent basis, Debye-Ang**3):
 XXXX=          -2115.0485 YYYY=           -506.2100 ZZZZ=           -103.7255 XXXY=             18.4892
 XXXZ=              0.0719 YYYX=            -22.8393 YYYZ=             -0.0158 ZZZX=              0.1367
 ZZZY=             -0.0325 XXYY=           -498.6785 XXZZ=           -460.5111 YYZZ=           -120.7657
 XXYZ=             -0.0121 YYXZ=              0.0357 ZZXY=              0.2371
 N-N= 5.259869245450D+02 E-N=-2.488514415449D+03  KE= 4.577579496105D+02
 Calculating spin-rotation constants.
 Leave Link  601 at Tue Sep 17 10:20:54 2024, MaxMem=  1342177280 cpu:               2.4 elap:               2.4
 (Enter /groups/ReismanLab/Software/Gaussian16_RevC/Linux_Binary_AVX2-enabled-CPU/g16/l9999.exe)
 Unable to Open any file for archive entry.
 1\1\GINC-HPC-21-32\SP\RM062X\def2TZVP\C7H7I1O1\MANTIND\17-Sep-2024\0\\
 #p M062X/def2tzvp geom=check guess=read scf(xqc,tight) integral(grid=u
 ltrafine) scrf(SMD, solvent=1,4-Dioxane) nmr=giao\\spe\\0,1\C,0,-4.640
 9132561,1.3626923005,-0.0002463342\O,0,-3.2349088616,1.5532160845,0.00
 00964976\C,0,-2.4408996043,0.4469652137,0.0000292547\C,0,-2.9110984887
 ,-0.8706514234,-0.0001911177\C,0,-1.9924533821,-1.922701235,-0.0002284
 331\C,0,-0.6191797112,-1.690597223,-0.000048089\C,0,-0.1774701142,-0.3
 659036208,0.0001730106\I,0,1.9298235415,0.0309031324,0.0004538213\C,0,
 -1.0602750166,0.7031049689,0.0002126909\H,0,-4.974112114,0.8201577967,
 0.893489348\H,0,-4.9736952392,0.8203201887,-0.8942352322\H,0,-5.080022
 9824,2.3608942307,-0.0002557183\H,0,-3.972048469,-1.0853673298,-0.0003
 280695\H,0,-2.3585184156,-2.9451100314,-0.0003998209\H,0,0.0842201764,
 -2.5137522517,-0.0000777224\H,0,-0.7224046416,1.7317468978,0.000378854
 3\\Version=ES64L-G16RevC.02\State=1-A\HF=-643.7849884\RMSD=2.459e-09\D
 ipole=-1.4149209,-0.3215887,-0.0002768\Quadrupole=8.3279588,-1.2370559
 ,-7.0909029,0.2588611,0.0023559,0.0004794\PG=C01 [X(C7H7I1O1)]\\@
 The archive entry for this job was punched.


 IT PROBABLY IS NOT POSSIBLE FOR A SCIENTIST TO INTERROGATE NATURE 
 FROM A WHOLLY DISINTERESTED VIEWPOINT.
 EVEN IF HE HAS NO PARTICULAR AXE TO GRIND, HE IS LIKELY TO HAVE 
 A DISTINCTIVE WAY OF VIEWING NATURE.

                                                   -- JOHN LOSEE
 Job cpu time:       0 days  0 hours  7 minutes 29.4 seconds.
 Elapsed time:       0 days  0 hours  7 minutes 31.1 seconds.
 File lengths (MBytes):  RWF=    224 Int=      0 D2E=      0 Chk=     24 Scr=     16
 Normal termination of Gaussian 16 at Tue Sep 17 10:20:54 2024.
