 Entering Gaussian System, Link 0=g16
 Input=smiles_00019_conf_0.gjf
 Output=smiles_00019_conf_0.log
 Initial command:
 /groups/ReismanLab/Software/Gaussian16_RevC/Linux_Binary_AVX2-enabled-CPU/g16/l1.exe "/central/groups/ReismanLab/DM/dft_final/smiles_00019/Gau-942196.inp" -scrdir="/central/groups/ReismanLab/DM/dft_final/smiles_00019/"
 Entering Link 1 = /groups/ReismanLab/Software/Gaussian16_RevC/Linux_Binary_AVX2-enabled-CPU/g16/l1.exe PID=    942197.
  
 Copyright (c) 1988-2021, Gaussian, Inc.  All Rights Reserved.
  
 This is part of the Gaussian(R) 16 program.  It is based on
 the Gaussian(R) 09 system (copyright 2009, Gaussian, Inc.),
 the Gaussian(R) 03 system (copyright 2003, Gaussian, Inc.),
 the Gaussian(R) 98 system (copyright 1998, Gaussian, Inc.),
 the Gaussian(R) 94 system (copyright 1995, Gaussian, Inc.),
 the Gaussian 92(TM) system (copyright 1992, Gaussian, Inc.),
 the Gaussian 90(TM) system (copyright 1990, Gaussian, Inc.),
 the Gaussian 88(TM) system (copyright 1988, Gaussian, Inc.),
 the Gaussian 86(TM) system (copyright 1986, Carnegie Mellon
 University), and the Gaussian 82(TM) system (copyright 1983,
 Carnegie Mellon University). Gaussian is a federally registered
 trademark of Gaussian, Inc.
  
 This software contains proprietary and confidential information,
 including trade secrets, belonging to Gaussian, Inc.
  
 This software is provided under written license and may be
 used, copied, transmitted, or stored only in accord with that
 written license.
  
 The following legend is applicable only to US Government
 contracts under FAR:
  
                    RESTRICTED RIGHTS LEGEND
  
 Use, reproduction and disclosure by the US Government is
 subject to restrictions as set forth in subparagraphs (a)
 and (c) of the Commercial Computer Software - Restricted
 Rights clause in FAR 52.227-19.
  
 Gaussian, Inc.
 340 Quinnipiac St., Bldg. 40, Wallingford CT 06492
  
  
 ---------------------------------------------------------------
 Warning -- This program may not be used in any manner that
 competes with the business of Gaussian, Inc. or will provide
 assistance to any competitor of Gaussian, Inc.  The licensee
 of this program is prohibited from giving any competitor of
 Gaussian, Inc. access to this program.  By using this program,
 the user acknowledges that Gaussian, Inc. is engaged in the
 business of creating and licensing software in the field of
 computational chemistry and represents and warrants to the
 licensee that it is not a competitor of Gaussian, Inc. and that
 it will not use this program in any manner prohibited above.
 ---------------------------------------------------------------
  

 Cite this work as:
 Gaussian 16, Revision C.02,
 M. J. Frisch, G. W. Trucks, H. B. Schlegel, G. E. Scuseria, 
 M. A. Robb, J. R. Cheeseman, G. Scalmani, V. Barone, 
 G. A. Petersson, H. Nakatsuji, X. Li, M. Caricato, A. V. Marenich, 
 J. Bloino, B. G. Janesko, R. Gomperts, B. Mennucci, H. P. Hratchian, 
 J. V. Ortiz, A. F. Izmaylov, J. L. Sonnenberg, D. Williams-Young, 
 F. Ding, F. Lipparini, F. Egidi, J. Goings, B. Peng, A. Petrone, 
 T. Henderson, D. Ranasinghe, V. G. Zakrzewski, J. Gao, N. Rega, 
 G. Zheng, W. Liang, M. Hada, M. Ehara, K. Toyota, R. Fukuda, 
 J. Hasegawa, M. Ishida, T. Nakajima, Y. Honda, O. Kitao, H. Nakai, 
 T. Vreven, K. Throssell, J. A. Montgomery, Jr., J. E. Peralta, 
 F. Ogliaro, M. J. Bearpark, J. J. Heyd, E. N. Brothers, K. N. Kudin, 
 V. N. Staroverov, T. A. Keith, R. Kobayashi, J. Normand, 
 K. Raghavachari, A. P. Rendell, J. C. Burant, S. S. Iyengar, 
 J. Tomasi, M. Cossi, J. M. Millam, M. Klene, C. Adamo, R. Cammi, 
 J. W. Ochterski, R. L. Martin, K. Morokuma, O. Farkas, 
 J. B. Foresman, and D. J. Fox, Gaussian, Inc., Wallingford CT, 2019.
 
 ******************************************
 Gaussian 16:  ES64L-G16RevC.02  7-Dec-2021
                17-Sep-2024 
 ******************************************
 %nprocshared=8
 Will use up to    8 processors via shared memory.
 %Mem=10GB
 %Chk=smiles_00019_conf_0.chk
 ----------------------------------------------------------------------
 #p B3LYP/6-31G(d,p) EmpiricalDispersion=GD3BJ opt freq scf(xqc,tight) 
 integral(grid=ultrafine)
 ----------------------------------------------------------------------
 1/18=20,19=15,26=4,38=1/1,3;
 2/9=110,12=2,17=6,18=5,40=1/2;
 3/5=1,6=6,7=101,11=2,25=1,30=1,71=1,74=-5,75=-5,124=41/1,2,3;
 4//1;
 5/5=2,8=3,13=1,32=2,38=5/2,8;
 6/7=2,8=2,9=2,10=2,28=1/1;
 7//1,2,3,16;
 1/18=20,19=15,26=4/3(2);
 2/9=110/2;
 99//99;
 2/9=110/2;
 3/5=1,6=6,7=101,11=2,25=1,30=1,71=1,74=-5,75=-5,124=41/1,2,3;
 4/5=5,16=3,69=1/1;
 5/5=2,8=3,13=1,32=2,38=5/2,8;
 7//1,2,3,16;
 1/18=20,19=15,26=4/3(-5);
 2/9=110/2;
 6/7=2,8=2,9=2,10=2,19=2,28=1/1;
 99/9=1/99;
 Leave Link    1 at Tue Sep 17 09:46:07 2024, MaxMem=  1342177280 cpu:               0.0 elap:               0.6
 (Enter /groups/ReismanLab/Software/Gaussian16_RevC/Linux_Binary_AVX2-enabled-CPU/g16/l101.exe)
 ----------------------------------
 opt-freq conformers_unique/conf_aa
 ----------------------------------
 Symbolic Z-matrix:
 Charge =  0 Multiplicity = 1
 Cl                    2.34986   1.18394  0. 
 C                     1.17375  -0.06536   0.00005 
 N                     1.63442  -1.28027  -0.00022 
 N                     0.80866  -2.31122  -0.00007 
 C                    -0.47756  -2.12756   0.0001 
 C                    -1.08774  -0.846     0.00011 
 C                    -2.47709  -0.62924   0.00004 
 C                    -2.96608   0.64995  -0.0001 
 C                    -2.09497   1.74983  -0.00012 
 C                    -0.7368    1.57027   0.00013 
 C                    -0.21069   0.26803   0.00022 
 H                    -1.08173  -3.02422   0.00015 
 H                    -3.13976  -1.4817   -0.00007 
 H                    -4.03218   0.82232  -0.00058 
 H                    -2.507     2.7479   -0.00044 
 H                    -0.059     2.40942   0.00002 
 
 ITRead=  0  0  0  0  0  0  0  0  0  0  0  0  0  0  0  0
 MicOpt= -1 -1 -1 -1 -1 -1 -1 -1 -1 -1 -1 -1 -1 -1 -1 -1
 NAtoms=     16 NQM=       16 NQMF=       0 NMMI=      0 NMMIF=      0
                NMic=       0 NMicF=      0.
                    Isotopes and Nuclear Properties:
 (Nuclear quadrupole moments (NQMom) in fm**2, nuclear magnetic moments (NMagM)
  in nuclear magnetons)

  Atom         1           2           3           4           5           6           7           8           9          10
 IAtWgt=          35          12          14          14          12          12          12          12          12          12
 AtmWgt=  34.9688527  12.0000000  14.0030740  14.0030740  12.0000000  12.0000000  12.0000000  12.0000000  12.0000000  12.0000000
 NucSpn=           3           0           2           2           0           0           0           0           0           0
 AtZEff=  -0.0000000  -0.0000000  -0.0000000  -0.0000000  -0.0000000  -0.0000000  -0.0000000  -0.0000000  -0.0000000  -0.0000000
 NQMom=   -8.1650000   0.0000000   2.0440000   2.0440000   0.0000000   0.0000000   0.0000000   0.0000000   0.0000000   0.0000000
 NMagM=    0.8218740   0.0000000   0.4037610   0.4037610   0.0000000   0.0000000   0.0000000   0.0000000   0.0000000   0.0000000
 AtZNuc=  17.0000000   6.0000000   7.0000000   7.0000000   6.0000000   6.0000000   6.0000000   6.0000000   6.0000000   6.0000000

  Atom        11          12          13          14          15          16
 IAtWgt=          12           1           1           1           1           1
 AtmWgt=  12.0000000   1.0078250   1.0078250   1.0078250   1.0078250   1.0078250
 NucSpn=           0           1           1           1           1           1
 AtZEff=  -0.0000000  -0.0000000  -0.0000000  -0.0000000  -0.0000000  -0.0000000
 NQMom=    0.0000000   0.0000000   0.0000000   0.0000000   0.0000000   0.0000000
 NMagM=    0.0000000   2.7928460   2.7928460   2.7928460   2.7928460   2.7928460
 AtZNuc=   6.0000000   1.0000000   1.0000000   1.0000000   1.0000000   1.0000000
 Leave Link  101 at Tue Sep 17 09:46:07 2024, MaxMem=  1342177280 cpu:               0.2 elap:               0.3
 (Enter /groups/ReismanLab/Software/Gaussian16_RevC/Linux_Binary_AVX2-enabled-CPU/g16/l103.exe)

 GradGradGradGradGradGradGradGradGradGradGradGradGradGradGradGradGradGrad
 Berny optimization.
 Initialization pass.
                           ----------------------------
                           !    Initial Parameters    !
                           ! (Angstroms and Degrees)  !
 --------------------------                            --------------------------
 ! Name  Definition              Value          Derivative Info.                !
 --------------------------------------------------------------------------------
 ! R1    R(1,2)                  1.7158         estimate D2E/DX2                !
 ! R2    R(2,3)                  1.2993         estimate D2E/DX2                !
 ! R3    R(2,11)                 1.424          estimate D2E/DX2                !
 ! R4    R(3,4)                  1.3209         estimate D2E/DX2                !
 ! R5    R(4,5)                  1.2993         estimate D2E/DX2                !
 ! R6    R(5,6)                  1.4194         estimate D2E/DX2                !
 ! R7    R(5,12)                 1.0812         estimate D2E/DX2                !
 ! R8    R(6,7)                  1.4062         estimate D2E/DX2                !
 ! R9    R(6,11)                 1.4179         estimate D2E/DX2                !
 ! R10   R(7,8)                  1.3695         estimate D2E/DX2                !
 ! R11   R(7,13)                 1.0797         estimate D2E/DX2                !
 ! R12   R(8,9)                  1.4031         estimate D2E/DX2                !
 ! R13   R(8,14)                 1.0799         estimate D2E/DX2                !
 ! R14   R(9,10)                 1.37           estimate D2E/DX2                !
 ! R15   R(9,15)                 1.0798         estimate D2E/DX2                !
 ! R16   R(10,11)                1.4045         estimate D2E/DX2                !
 ! R17   R(10,16)                1.0787         estimate D2E/DX2                !
 ! A1    A(1,2,3)              115.963          estimate D2E/DX2                !
 ! A2    A(1,2,11)             119.7316         estimate D2E/DX2                !
 ! A3    A(3,2,11)             124.3054         estimate D2E/DX2                !
 ! A4    A(2,3,4)              120.5405         estimate D2E/DX2                !
 ! A5    A(3,4,5)              120.5675         estimate D2E/DX2                !
 ! A6    A(4,5,6)              123.5866         estimate D2E/DX2                !
 ! A7    A(4,5,12)             115.8456         estimate D2E/DX2                !
 ! A8    A(6,5,12)             120.5677         estimate D2E/DX2                !
 ! A9    A(5,6,7)              124.3279         estimate D2E/DX2                !
 ! A10   A(5,6,11)             116.3269         estimate D2E/DX2                !
 ! A11   A(7,6,11)             119.3452         estimate D2E/DX2                !
 ! A12   A(6,7,8)              119.7877         estimate D2E/DX2                !
 ! A13   A(6,7,13)             118.9923         estimate D2E/DX2                !
 ! A14   A(8,7,13)             121.2199         estimate D2E/DX2                !
 ! A15   A(7,8,9)              120.7003         estimate D2E/DX2                !
 ! A16   A(7,8,14)             120.1045         estimate D2E/DX2                !
 ! A17   A(9,8,14)             119.1952         estimate D2E/DX2                !
 ! A18   A(8,9,10)             120.8485         estimate D2E/DX2                !
 ! A19   A(8,9,15)             119.1882         estimate D2E/DX2                !
 ! A20   A(10,9,15)            119.9633         estimate D2E/DX2                !
 ! A21   A(9,10,11)            119.5301         estimate D2E/DX2                !
 ! A22   A(9,10,16)            121.3975         estimate D2E/DX2                !
 ! A23   A(11,10,16)           119.0724         estimate D2E/DX2                !
 ! A24   A(2,11,6)             114.673          estimate D2E/DX2                !
 ! A25   A(2,11,10)            125.5389         estimate D2E/DX2                !
 ! A26   A(6,11,10)            119.7882         estimate D2E/DX2                !
 ! D1    D(1,2,3,4)            179.9926         estimate D2E/DX2                !
 ! D2    D(11,2,3,4)            -0.0146         estimate D2E/DX2                !
 ! D3    D(1,2,11,6)           179.9943         estimate D2E/DX2                !
 ! D4    D(1,2,11,10)            0.0114         estimate D2E/DX2                !
 ! D5    D(3,2,11,6)             0.0019         estimate D2E/DX2                !
 ! D6    D(3,2,11,10)         -179.9811         estimate D2E/DX2                !
 ! D7    D(2,3,4,5)              0.0133         estimate D2E/DX2                !
 ! D8    D(3,4,5,6)              0.0006         estimate D2E/DX2                !
 ! D9    D(3,4,5,12)           179.9958         estimate D2E/DX2                !
 ! D10   D(4,5,6,7)            179.9875         estimate D2E/DX2                !
 ! D11   D(4,5,6,11)            -0.0128         estimate D2E/DX2                !
 ! D12   D(12,5,6,7)            -0.0075         estimate D2E/DX2                !
 ! D13   D(12,5,6,11)          179.9922         estimate D2E/DX2                !
 ! D14   D(5,6,7,8)           -179.992          estimate D2E/DX2                !
 ! D15   D(5,6,7,13)            -0.0022         estimate D2E/DX2                !
 ! D16   D(11,6,7,8)             0.0083         estimate D2E/DX2                !
 ! D17   D(11,6,7,13)          179.9981         estimate D2E/DX2                !
 ! D18   D(5,6,11,2)             0.011          estimate D2E/DX2                !
 ! D19   D(5,6,11,10)          179.995          estimate D2E/DX2                !
 ! D20   D(7,6,11,2)          -179.9893         estimate D2E/DX2                !
 ! D21   D(7,6,11,10)           -0.0053         estimate D2E/DX2                !
 ! D22   D(6,7,8,9)             -0.0025         estimate D2E/DX2                !
 ! D23   D(6,7,8,14)           179.9742         estimate D2E/DX2                !
 ! D24   D(13,7,8,9)          -179.9921         estimate D2E/DX2                !
 ! D25   D(13,7,8,14)           -0.0154         estimate D2E/DX2                !
 ! D26   D(7,8,9,10)            -0.0065         estimate D2E/DX2                !
 ! D27   D(7,8,9,15)           179.9879         estimate D2E/DX2                !
 ! D28   D(14,8,9,10)         -179.9835         estimate D2E/DX2                !
 ! D29   D(14,8,9,15)            0.0109         estimate D2E/DX2                !
 ! D30   D(8,9,10,11)            0.0094         estimate D2E/DX2                !
 ! D31   D(8,9,10,16)          179.9941         estimate D2E/DX2                !
 ! D32   D(15,9,10,11)        -179.9849         estimate D2E/DX2                !
 ! D33   D(15,9,10,16)          -0.0003         estimate D2E/DX2                !
 ! D34   D(9,10,11,2)          179.9786         estimate D2E/DX2                !
 ! D35   D(9,10,11,6)           -0.0035         estimate D2E/DX2                !
 ! D36   D(16,10,11,2)          -0.0063         estimate D2E/DX2                !
 ! D37   D(16,10,11,6)        -179.9885         estimate D2E/DX2                !
 --------------------------------------------------------------------------------
 Trust Radius=3.00D-01 FncErr=1.00D-07 GrdErr=1.00D-06 EigMax=2.50D+02 EigMin=1.00D-04
 Number of steps in this run=     90 maximum allowed number of steps=    100.
 GradGradGradGradGradGradGradGradGradGradGradGradGradGradGradGradGradGrad

 Leave Link  103 at Tue Sep 17 09:46:07 2024, MaxMem=  1342177280 cpu:               0.0 elap:               0.0
 (Enter /groups/ReismanLab/Software/Gaussian16_RevC/Linux_Binary_AVX2-enabled-CPU/g16/l202.exe)
                          Input orientation:                          
 ---------------------------------------------------------------------
 Center     Atomic      Atomic             Coordinates (Angstroms)
 Number     Number       Type             X           Y           Z
 ---------------------------------------------------------------------
      1         17           0        2.349856    1.183938   -0.000001
      2          6           0        1.173752   -0.065361    0.000046
      3          7           0        1.634419   -1.280273   -0.000224
      4          7           0        0.808658   -2.311217   -0.000068
      5          6           0       -0.477564   -2.127556    0.000098
      6          6           0       -1.087744   -0.846000    0.000114
      7          6           0       -2.477090   -0.629237    0.000039
      8          6           0       -2.966079    0.649952   -0.000103
      9          6           0       -2.094966    1.749827   -0.000123
     10          6           0       -0.736798    1.570270    0.000133
     11          6           0       -0.210685    0.268032    0.000218
     12          1           0       -1.081732   -3.024215    0.000148
     13          1           0       -3.139759   -1.481701   -0.000071
     14          1           0       -4.032176    0.822324   -0.000581
     15          1           0       -2.506998    2.747901   -0.000436
     16          1           0       -0.058999    2.409417    0.000025
 ---------------------------------------------------------------------
                    Distance matrix (angstroms):
                    1          2          3          4          5
     1  Cl   0.000000
     2  C    1.715799   0.000000
     3  N    2.565967   1.299317   0.000000
     4  N    3.819869   2.275338   1.320881   0.000000
     5  C    4.354342   2.641874   2.275602   1.299268   0.000000
     6  C    3.992210   2.392439   2.756586   2.396498   1.419404
     7  C    5.156259   3.694131   4.162734   3.691232   2.498612
     8  C    5.342687   4.201176   4.989023   4.797620   3.729244
     9  C    4.480700   3.738907   4.805187   4.992305   4.201201
    10  C    3.110736   2.515053   3.707865   4.177843   3.706902
    11  C    2.719422   1.424014   2.408663   2.773370   2.410408
    12  H    5.429949   3.720488   3.227818   2.020381   1.081210
    13  H    6.102581   4.540088   4.778425   4.034611   2.739418
    14  H    6.392268   5.281067   6.044105   5.766520   4.619205
    15  H    5.102451   4.632749   5.777328   6.048822   5.280974
    16  H    2.702662   2.764815   4.059739   4.799710   4.556240
                    6          7          8          9         10
     6  C    0.000000
     7  C    1.406153   0.000000
     8  C    2.401252   1.369466   0.000000
     9  C    2.784387   2.409557   1.403054   0.000000
    10  C    2.441623   2.804720   2.411780   1.369986   0.000000
    11  C    1.417850   2.437557   2.781737   2.397130   1.404500
    12  H    2.178224   2.771812   4.129198   4.880382   4.607416
    13  H    2.148227   1.079733   2.138717   3.396228   3.884424
    14  H    3.384225   2.127281   1.079942   2.147800   3.379193
    15  H    3.863988   3.377271   2.147590   1.079779   2.126129
    16  H    3.414097   3.883373   3.398062   2.140145   1.078693
                   11         12         13         14         15
    11  C    0.000000
    12  H    3.405527   0.000000
    13  H    3.411896   2.571931   0.000000
    14  H    3.861481   4.847782   2.470817   0.000000
    15  H    3.379764   5.945479   4.276671   2.456423   0.000000
    16  H    2.146751   5.529046   4.963051   4.278434   2.471289
                   16
    16  H    0.000000
 Stoichiometry    C8H5ClN2
 Framework group  C1[X(C8H5ClN2)]
 Deg. of freedom    42
 Full point group                 C1      NOp   1
 Largest Abelian subgroup         C1      NOp   1
 Largest concise Abelian subgroup C1      NOp   1
                         Standard orientation:                         
 ---------------------------------------------------------------------
 Center     Atomic      Atomic             Coordinates (Angstroms)
 Number     Number       Type             X           Y           Z
 ---------------------------------------------------------------------
      1         17           0        2.400649   -1.250737   -0.000004
      2          6           0        1.258755    0.029906   -0.000051
      3          7           0        1.752103    1.231918    0.000219
      4          7           0        0.954519    2.284812    0.000062
      5          6           0       -0.336199    2.135997   -0.000104
      6          6           0       -0.980808    0.871407   -0.000119
      7          6           0       -2.375506    0.692290   -0.000045
      8          6           0       -2.898904   -0.573210    0.000098
      9          6           0       -2.057849   -1.696236    0.000118
     10          6           0       -0.695322   -1.553469   -0.000138
     11          6           0       -0.134191   -0.265931   -0.000224
     12          1           0       -0.915901    3.048664   -0.000153
     13          1           0       -3.014883    1.562360    0.000066
     14          1           0       -3.969272   -0.716693    0.000576
     15          1           0       -2.496717   -2.682805    0.000431
     16          1           0       -0.040461   -2.410635   -0.000030
 ---------------------------------------------------------------------
 Rotational constants (GHZ):           1.6182256           0.9258090           0.5888944
 Leave Link  202 at Tue Sep 17 09:46:07 2024, MaxMem=  1342177280 cpu:               0.0 elap:               0.0
 (Enter /groups/ReismanLab/Software/Gaussian16_RevC/Linux_Binary_AVX2-enabled-CPU/g16/l301.exe)
 Standard basis: 6-31G(d,p) (6D, 7F)
 Ernie: Thresh=  0.10000D-02 Tol=  0.10000D-05 Strict=F.
 There are   194 symmetry adapted cartesian basis functions of A   symmetry.
 There are   194 symmetry adapted basis functions of A   symmetry.
   194 basis functions,   367 primitive gaussians,   194 cartesian basis functions
    42 alpha electrons       42 beta electrons
       nuclear repulsion energy       631.4899826707 Hartrees.
 IExCor=  402 DFT=T Ex+Corr=B3LYP ExCW=0 ScaHFX=  0.200000
 ScaDFX=  0.800000  0.720000  1.000000  0.810000 ScalE2=  1.000000  1.000000
 IRadAn=      5 IRanWt=     -1 IRanGd=            0 ICorTp=0 IEmpDi=141
 NAtoms=   16 NActive=   16 NUniq=   16 SFac= 1.00D+00 NAtFMM=   60 NAOKFM=F Big=F
 Integral buffers will be    131072 words long.
 Raffenetti 2 integral format.
 Two-electron integral symmetry is turned on.
 R6Disp:  Grimme-D3(BJ) Dispersion energy=       -0.0372894413 Hartrees.
 Nuclear repulsion after empirical dispersion term =      631.4526932295 Hartrees.
 Leave Link  301 at Tue Sep 17 09:46:07 2024, MaxMem=  1342177280 cpu:               0.1 elap:               0.0
 (Enter /groups/ReismanLab/Software/Gaussian16_RevC/Linux_Binary_AVX2-enabled-CPU/g16/l302.exe)
 NPDir=0 NMtPBC=     1 NCelOv=     1 NCel=       1 NClECP=     1 NCelD=      1
         NCelK=      1 NCelE2=     1 NClLst=     1 CellRange=     0.0.
 One-electron integrals computed using PRISM.
 One-electron integral symmetry used in STVInt
 NBasis=   194 RedAO= T EigKep=  3.34D-04  NBF=   194
 NBsUse=   194 1.00D-06 EigRej= -1.00D+00 NBFU=   194
 Precomputing XC quadrature grid using
 IXCGrd= 4 IRadAn=           5 IRanWt=          -1 IRanGd=           0 AccXCQ= 0.00D+00.
 Generated NRdTot=       0 NPtTot=           0 NUsed=           0 NTot=          32
 NSgBfM=   193   193   193   193   193 MxSgAt=    16 MxSgA2=    16.
 Leave Link  302 at Tue Sep 17 09:46:08 2024, MaxMem=  1342177280 cpu:               0.6 elap:               0.1
 (Enter /groups/ReismanLab/Software/Gaussian16_RevC/Linux_Binary_AVX2-enabled-CPU/g16/l303.exe)
 DipDrv:  MaxL=1.
 Leave Link  303 at Tue Sep 17 09:46:08 2024, MaxMem=  1342177280 cpu:               0.1 elap:               0.0
 (Enter /groups/ReismanLab/Software/Gaussian16_RevC/Linux_Binary_AVX2-enabled-CPU/g16/l401.exe)
 ExpMin= 1.43D-01 ExpMax= 2.52D+04 ExpMxC= 3.78D+03 IAcc=3 IRadAn=         5 AccDes= 0.00D+00
 Harris functional with IExCor=  402 and IRadAn=       5 diagonalized for initial guess.
 HarFok:  IExCor=  402 AccDes= 0.00D+00 IRadAn=         5 IDoV= 1 UseB2=F ITyADJ=14
 ICtDFT=  3500011 ScaDFX=  1.000000  1.000000  1.000000  1.000000
 FoFCou: FMM=F IPFlag=           0 FMFlag=      100000 FMFlg1=           0
         NFxFlg=           0 DoJE=T BraDBF=F KetDBF=T FulRan=T
         wScrn=  0.000000 ICntrl=       500 IOpCl=  0 I1Cent=   200000004 NGrid=           0
         NMat0=    1 NMatS0=      1 NMatT0=    0 NMatD0=    1 NMtDS0=    0 NMtDT0=    0
 Petite list used in FoFCou.
 Harris En= -877.480170012003    
 JPrj=0 DoOrth=F DoCkMO=F.
 Leave Link  401 at Tue Sep 17 09:46:08 2024, MaxMem=  1342177280 cpu:               3.3 elap:               0.5
 (Enter /groups/ReismanLab/Software/Gaussian16_RevC/Linux_Binary_AVX2-enabled-CPU/g16/l502.exe)
 Integral symmetry usage will be decided dynamically.
 Closed shell SCF:
 Using DIIS extrapolation, IDIIS=  1040.
 NGot=  1342177280 LenX=  1342098040 LenY=  1342059963
 Requested convergence on RMS density matrix=1.00D-08 within  32 cycles.
 Requested convergence on MAX density matrix=1.00D-06.
 Requested convergence on             energy=1.00D-06.
 No special actions if energy rises.
 Fock matrices will be formed incrementally for  20 cycles.
 Integral accuracy reduced to 1.0D-05 until final iterations.

 Cycle   1  Pass 0  IDiag  1:
 FoFJK:  IHMeth= 1 ICntrl=       0 DoSepK=F KAlg= 0 I1Cent=           0 FoldK=F
 IRaf= 910000000 NMat=       1 IRICut=       1 DoRegI=T DoRafI=F ISym2E= 0 IDoP0=0 IntGTp=1.
 FoFCou: FMM=F IPFlag=           0 FMFlag=      100000 FMFlg1=           0
         NFxFlg=           0 DoJE=F BraDBF=F KetDBF=F FulRan=T
         wScrn=  0.000000 ICntrl=         0 IOpCl=  0 I1Cent=           0 NGrid=           0
         NMat0=    1 NMatS0=      1 NMatT0=    0 NMatD0=    1 NMtDS0=    0 NMtDT0=    0
 Symmetry not used in FoFCou.
 E= -877.377835579994    
 DIIS: error= 3.83D-02 at cycle   1 NSaved=   1.
 NSaved= 1 IEnMin= 1 EnMin= -877.377835579994     IErMin= 1 ErrMin= 3.83D-02
 ErrMax= 3.83D-02  0.00D+00 EMaxC= 1.00D-01 BMatC= 1.84D-01 BMatP= 1.84D-01
 IDIUse=3 WtCom= 6.17D-01 WtEn= 3.83D-01
 Coeff-Com:  0.100D+01
 Coeff-En:   0.100D+01
 Coeff:      0.100D+01
 Gap=     0.334 Goal=   None    Shift=    0.000
 GapD=    0.334 DampG=1.000 DampE=0.500 DampFc=0.5000 IDamp=-1.
 Damping current iteration by 5.00D-01
 RMSDP=6.12D-03 MaxDP=1.11D-01              OVMax= 2.42D-01

 Cycle   2  Pass 0  IDiag  1:
 RMSU=  2.99D-03    CP:  9.77D-01
 E= -877.458774549049     Delta-E=       -0.080938969054 Rises=F Damp=T
 DIIS: error= 8.81D-03 at cycle   2 NSaved=   2.
 NSaved= 2 IEnMin= 2 EnMin= -877.458774549049     IErMin= 2 ErrMin= 8.81D-03
 ErrMax= 8.81D-03  0.00D+00 EMaxC= 1.00D-01 BMatC= 1.79D-02 BMatP= 1.84D-01
 IDIUse=3 WtCom= 9.12D-01 WtEn= 8.81D-02
 Coeff-Com:  0.544D-01 0.946D+00
 Coeff-En:   0.141D+00 0.859D+00
 Coeff:      0.620D-01 0.938D+00
 Gap=     0.167 Goal=   None    Shift=    0.000
 RMSDP=2.15D-03 MaxDP=5.58D-02 DE=-8.09D-02 OVMax= 2.24D-01

 Cycle   3  Pass 0  IDiag  1:
 RMSU=  2.10D-03    CP:  9.60D-01  9.60D-01
 E= -877.554907985426     Delta-E=       -0.096133436377 Rises=F Damp=F
 DIIS: error= 9.63D-03 at cycle   3 NSaved=   3.
 NSaved= 3 IEnMin= 3 EnMin= -877.554907985426     IErMin= 2 ErrMin= 8.81D-03
 ErrMax= 9.63D-03  0.00D+00 EMaxC= 1.00D-01 BMatC= 1.51D-02 BMatP= 1.79D-02
 IDIUse=3 WtCom= 9.04D-01 WtEn= 9.63D-02
 Coeff-Com: -0.485D-01 0.491D+00 0.558D+00
 Coeff-En:   0.000D+00 0.000D+00 0.100D+01
 Coeff:     -0.439D-01 0.444D+00 0.600D+00
 Gap=     0.164 Goal=   None    Shift=    0.000
 RMSDP=1.26D-03 MaxDP=4.19D-02 DE=-9.61D-02 OVMax= 8.50D-02

 Cycle   4  Pass 0  IDiag  1:
 RMSU=  1.04D-03    CP:  9.63D-01  1.05D+00  6.89D-01
 E= -877.564972523193     Delta-E=       -0.010064537767 Rises=F Damp=F
 DIIS: error= 7.31D-03 at cycle   4 NSaved=   4.
 NSaved= 4 IEnMin= 4 EnMin= -877.564972523193     IErMin= 4 ErrMin= 7.31D-03
 ErrMax= 7.31D-03  0.00D+00 EMaxC= 1.00D-01 BMatC= 6.06D-03 BMatP= 1.51D-02
 IDIUse=3 WtCom= 9.27D-01 WtEn= 7.31D-02
 Coeff-Com: -0.333D-01 0.152D+00 0.405D+00 0.477D+00
 Coeff-En:   0.000D+00 0.000D+00 0.316D+00 0.684D+00
 Coeff:     -0.309D-01 0.141D+00 0.398D+00 0.492D+00
 Gap=     0.162 Goal=   None    Shift=    0.000
 RMSDP=5.96D-04 MaxDP=1.66D-02 DE=-1.01D-02 OVMax= 3.44D-02

 Cycle   5  Pass 0  IDiag  1:
 RMSU=  2.27D-04    CP:  9.63D-01  1.04D+00  7.56D-01  4.90D-01
 E= -877.571322798395     Delta-E=       -0.006350275202 Rises=F Damp=F
 DIIS: error= 1.43D-03 at cycle   5 NSaved=   5.
 NSaved= 5 IEnMin= 5 EnMin= -877.571322798395     IErMin= 5 ErrMin= 1.43D-03
 ErrMax= 1.43D-03  0.00D+00 EMaxC= 1.00D-01 BMatC= 2.48D-04 BMatP= 6.06D-03
 IDIUse=3 WtCom= 9.86D-01 WtEn= 1.43D-02
 Coeff-Com: -0.114D-01 0.349D-01 0.160D+00 0.258D+00 0.558D+00
 Coeff-En:   0.000D+00 0.000D+00 0.000D+00 0.000D+00 0.100D+01
 Coeff:     -0.112D-01 0.344D-01 0.158D+00 0.255D+00 0.564D+00
 Gap=     0.161 Goal=   None    Shift=    0.000
 RMSDP=1.19D-04 MaxDP=2.89D-03 DE=-6.35D-03 OVMax= 7.57D-03

 Cycle   6  Pass 0  IDiag  1:
 RMSU=  7.09D-05    CP:  9.62D-01  1.04D+00  7.63D-01  5.40D-01  6.62D-01
 E= -877.571557269319     Delta-E=       -0.000234470924 Rises=F Damp=F
 DIIS: error= 4.58D-04 at cycle   6 NSaved=   6.
 NSaved= 6 IEnMin= 6 EnMin= -877.571557269319     IErMin= 6 ErrMin= 4.58D-04
 ErrMax= 4.58D-04  0.00D+00 EMaxC= 1.00D-01 BMatC= 2.86D-05 BMatP= 2.48D-04
 IDIUse=3 WtCom= 9.95D-01 WtEn= 4.58D-03
 Coeff-Com: -0.309D-02 0.494D-02 0.527D-01 0.985D-01 0.324D+00 0.523D+00
 Coeff-En:   0.000D+00 0.000D+00 0.000D+00 0.000D+00 0.677D-01 0.932D+00
 Coeff:     -0.308D-02 0.492D-02 0.525D-01 0.981D-01 0.323D+00 0.525D+00
 Gap=     0.161 Goal=   None    Shift=    0.000
 RMSDP=3.77D-05 MaxDP=1.00D-03 DE=-2.34D-04 OVMax= 2.29D-03

 Cycle   7  Pass 0  IDiag  1:
 RMSU=  1.80D-05    CP:  9.62D-01  1.04D+00  7.67D-01  5.45D-01  7.13D-01
                    CP:  5.94D-01
 E= -877.571587553073     Delta-E=       -0.000030283754 Rises=F Damp=F
 DIIS: error= 8.60D-05 at cycle   7 NSaved=   7.
 NSaved= 7 IEnMin= 7 EnMin= -877.571587553073     IErMin= 7 ErrMin= 8.60D-05
 ErrMax= 8.60D-05  0.00D+00 EMaxC= 1.00D-01 BMatC= 1.31D-06 BMatP= 2.86D-05
 IDIUse=1 WtCom= 1.00D+00 WtEn= 0.00D+00
 Coeff-Com: -0.882D-03 0.370D-03 0.181D-01 0.355D-01 0.131D+00 0.263D+00
 Coeff-Com:  0.553D+00
 Coeff:     -0.882D-03 0.370D-03 0.181D-01 0.355D-01 0.131D+00 0.263D+00
 Coeff:      0.553D+00
 Gap=     0.161 Goal=   None    Shift=    0.000
 RMSDP=9.11D-06 MaxDP=2.81D-04 DE=-3.03D-05 OVMax= 6.53D-04

 Initial convergence to 1.0D-05 achieved.  Increase integral accuracy.
 Cycle   8  Pass 1  IDiag  1:
 E= -877.571599814552     Delta-E=       -0.000012261479 Rises=F Damp=F
 DIIS: error= 4.06D-05 at cycle   1 NSaved=   1.
 NSaved= 1 IEnMin= 1 EnMin= -877.571599814552     IErMin= 1 ErrMin= 4.06D-05
 ErrMax= 4.06D-05  0.00D+00 EMaxC= 1.00D-01 BMatC= 2.91D-07 BMatP= 2.91D-07
 IDIUse=1 WtCom= 1.00D+00 WtEn= 0.00D+00
 Coeff-Com:  0.100D+01
 Coeff:      0.100D+01
 Gap=     0.162 Goal=   None    Shift=    0.000
 RMSDP=9.11D-06 MaxDP=2.81D-04 DE=-1.23D-05 OVMax= 6.31D-04

 Cycle   9  Pass 1  IDiag  1:
 RMSU=  1.02D-05    CP:  1.00D+00
 E= -877.571599074283     Delta-E=        0.000000740270 Rises=F Damp=F
 DIIS: error= 9.23D-05 at cycle   2 NSaved=   2.
 NSaved= 2 IEnMin= 1 EnMin= -877.571599814552     IErMin= 1 ErrMin= 4.06D-05
 ErrMax= 9.23D-05  0.00D+00 EMaxC= 1.00D-01 BMatC= 9.74D-07 BMatP= 2.91D-07
 IDIUse=1 WtCom= 1.00D+00 WtEn= 0.00D+00
 Coeff-Com:  0.650D+00 0.350D+00
 Coeff:      0.650D+00 0.350D+00
 Gap=     0.161 Goal=   None    Shift=    0.000
 RMSDP=6.09D-06 MaxDP=1.71D-04 DE= 7.40D-07 OVMax= 4.67D-04

 Cycle  10  Pass 1  IDiag  1:
 RMSU=  3.12D-06    CP:  1.00D+00  4.87D-01
 E= -877.571600104078     Delta-E=       -0.000001029795 Rises=F Damp=F
 DIIS: error= 8.22D-06 at cycle   3 NSaved=   3.
 NSaved= 3 IEnMin= 3 EnMin= -877.571600104078     IErMin= 3 ErrMin= 8.22D-06
 ErrMax= 8.22D-06  0.00D+00 EMaxC= 1.00D-01 BMatC= 1.01D-08 BMatP= 2.91D-07
 IDIUse=1 WtCom= 1.00D+00 WtEn= 0.00D+00
 Coeff-Com:  0.247D+00 0.159D+00 0.594D+00
 Coeff:      0.247D+00 0.159D+00 0.594D+00
 Gap=     0.161 Goal=   None    Shift=    0.000
 RMSDP=9.53D-07 MaxDP=2.41D-05 DE=-1.03D-06 OVMax= 5.49D-05

 Cycle  11  Pass 1  IDiag  1:
 RMSU=  8.16D-07    CP:  1.00D+00  5.24D-01  8.99D-01
 E= -877.571600111654     Delta-E=       -0.000000007576 Rises=F Damp=F
 DIIS: error= 4.81D-06 at cycle   4 NSaved=   4.
 NSaved= 4 IEnMin= 4 EnMin= -877.571600111654     IErMin= 4 ErrMin= 4.81D-06
 ErrMax= 4.81D-06  0.00D+00 EMaxC= 1.00D-01 BMatC= 3.50D-09 BMatP= 1.01D-08
 IDIUse=1 WtCom= 1.00D+00 WtEn= 0.00D+00
 Coeff-Com:  0.954D-02 0.230D-01 0.390D+00 0.578D+00
 Coeff:      0.954D-02 0.230D-01 0.390D+00 0.578D+00
 Gap=     0.161 Goal=   None    Shift=    0.000
 RMSDP=4.19D-07 MaxDP=1.08D-05 DE=-7.58D-09 OVMax= 2.12D-05

 Cycle  12  Pass 1  IDiag  1:
 RMSU=  2.22D-07    CP:  1.00D+00  5.24D-01  9.36D-01  5.86D-01
 E= -877.571600115004     Delta-E=       -0.000000003350 Rises=F Damp=F
 DIIS: error= 1.56D-06 at cycle   5 NSaved=   5.
 NSaved= 5 IEnMin= 5 EnMin= -877.571600115004     IErMin= 5 ErrMin= 1.56D-06
 ErrMax= 1.56D-06  0.00D+00 EMaxC= 1.00D-01 BMatC= 3.38D-10 BMatP= 3.50D-09
 IDIUse=1 WtCom= 1.00D+00 WtEn= 0.00D+00
 Coeff-Com: -0.583D-02 0.689D-02 0.218D+00 0.366D+00 0.416D+00
 Coeff:     -0.583D-02 0.689D-02 0.218D+00 0.366D+00 0.416D+00
 Gap=     0.161 Goal=   None    Shift=    0.000
 RMSDP=1.21D-07 MaxDP=2.41D-06 DE=-3.35D-09 OVMax= 5.59D-06

 Cycle  13  Pass 1  IDiag  1:
 RMSU=  6.44D-08    CP:  1.00D+00  5.22D-01  9.38D-01  6.19D-01  5.60D-01
 E= -877.571600115345     Delta-E=       -0.000000000342 Rises=F Damp=F
 DIIS: error= 2.89D-07 at cycle   6 NSaved=   6.
 NSaved= 6 IEnMin= 6 EnMin= -877.571600115345     IErMin= 6 ErrMin= 2.89D-07
 ErrMax= 2.89D-07  0.00D+00 EMaxC= 1.00D-01 BMatC= 1.05D-11 BMatP= 3.38D-10
 IDIUse=1 WtCom= 1.00D+00 WtEn= 0.00D+00
 Coeff-Com: -0.379D-02-0.633D-04 0.402D-01 0.823D-01 0.181D+00 0.700D+00
 Coeff:     -0.379D-02-0.633D-04 0.402D-01 0.823D-01 0.181D+00 0.700D+00
 Gap=     0.161 Goal=   None    Shift=    0.000
 RMSDP=2.38D-08 MaxDP=4.70D-07 DE=-3.42D-10 OVMax= 1.17D-06

 Cycle  14  Pass 1  IDiag  1:
 RMSU=  2.14D-08    CP:  1.00D+00  5.23D-01  9.39D-01  6.22D-01  5.91D-01
                    CP:  9.32D-01
 E= -877.571600115363     Delta-E=       -0.000000000018 Rises=F Damp=F
 DIIS: error= 5.74D-08 at cycle   7 NSaved=   7.
 NSaved= 7 IEnMin= 7 EnMin= -877.571600115363     IErMin= 7 ErrMin= 5.74D-08
 ErrMax= 5.74D-08  0.00D+00 EMaxC= 1.00D-01 BMatC= 1.01D-12 BMatP= 1.05D-11
 IDIUse=1 WtCom= 1.00D+00 WtEn= 0.00D+00
 Coeff-Com: -0.967D-03-0.551D-03-0.324D-02 0.274D-02 0.427D-01 0.294D+00
 Coeff-Com:  0.665D+00
 Coeff:     -0.967D-03-0.551D-03-0.324D-02 0.274D-02 0.427D-01 0.294D+00
 Coeff:      0.665D+00
 Gap=     0.161 Goal=   None    Shift=    0.000
 RMSDP=1.17D-08 MaxDP=3.37D-07 DE=-1.80D-11 OVMax= 5.60D-07

 Cycle  15  Pass 1  IDiag  1:
 RMSU=  6.59D-09    CP:  1.00D+00  5.23D-01  9.39D-01  6.24D-01  6.17D-01
                    CP:  9.90D-01  7.03D-01
 E= -877.571600115355     Delta-E=        0.000000000008 Rises=F Damp=F
 DIIS: error= 5.05D-08 at cycle   8 NSaved=   8.
 NSaved= 8 IEnMin= 7 EnMin= -877.571600115363     IErMin= 8 ErrMin= 5.05D-08
 ErrMax= 5.05D-08  0.00D+00 EMaxC= 1.00D-01 BMatC= 3.35D-13 BMatP= 1.01D-12
 IDIUse=1 WtCom= 1.00D+00 WtEn= 0.00D+00
 Coeff-Com:  0.380D-05-0.375D-03-0.976D-02-0.131D-01-0.488D-02 0.587D-01
 Coeff-Com:  0.408D+00 0.561D+00
 Coeff:      0.380D-05-0.375D-03-0.976D-02-0.131D-01-0.488D-02 0.587D-01
 Coeff:      0.408D+00 0.561D+00
 Gap=     0.161 Goal=   None    Shift=    0.000
 RMSDP=4.30D-09 MaxDP=1.10D-07 DE= 8.41D-12 OVMax= 2.49D-07

 SCF Done:  E(RB3LYP) =  -877.571600115     A.U. after   15 cycles
            NFock= 15  Conv=0.43D-08     -V/T= 2.0057
 KE= 8.726024373418D+02 PE=-3.324583497715D+03 EE= 9.429567670284D+02
 Leave Link  502 at Tue Sep 17 09:46:16 2024, MaxMem=  1342177280 cpu:              58.1 elap:               8.3
 (Enter /groups/ReismanLab/Software/Gaussian16_RevC/Linux_Binary_AVX2-enabled-CPU/g16/l508.exe)
 QCSCF skips out because SCF is already converged.
 Leave Link  508 at Tue Sep 17 09:46:17 2024, MaxMem=  1342177280 cpu:               0.0 elap:               0.0
 (Enter /groups/ReismanLab/Software/Gaussian16_RevC/Linux_Binary_AVX2-enabled-CPU/g16/l601.exe)
 Copying SCF densities to generalized density rwf, IOpCl= 0 IROHF=0.

 **********************************************************************

            Population analysis using the SCF Density.

 **********************************************************************

 Orbital symmetries:
       Occupied  (A) (A) (A) (A) (A) (A) (A) (A) (A) (A) (A) (A)
                 (A) (A) (A) (A) (A) (A) (A) (A) (A) (A) (A) (A)
                 (A) (A) (A) (A) (A) (A) (A) (A) (A) (A) (A) (A)
                 (A) (A) (A) (A) (A) (A)
       Virtual   (A) (A) (A) (A) (A) (A) (A) (A) (A) (A) (A) (A)
                 (A) (A) (A) (A) (A) (A) (A) (A) (A) (A) (A) (A)
                 (A) (A) (A) (A) (A) (A) (A) (A) (A) (A) (A) (A)
                 (A) (A) (A) (A) (A) (A) (A) (A) (A) (A) (A) (A)
                 (A) (A) (A) (A) (A) (A) (A) (A) (A) (A) (A) (A)
                 (A) (A) (A) (A) (A) (A) (A) (A) (A) (A) (A) (A)
                 (A) (A) (A) (A) (A) (A) (A) (A) (A) (A) (A) (A)
                 (A) (A) (A) (A) (A) (A) (A) (A) (A) (A) (A) (A)
                 (A) (A) (A) (A) (A) (A) (A) (A) (A) (A) (A) (A)
                 (A) (A) (A) (A) (A) (A) (A) (A) (A) (A) (A) (A)
                 (A) (A) (A) (A) (A) (A) (A) (A) (A) (A) (A) (A)
                 (A) (A) (A) (A) (A) (A) (A) (A) (A) (A) (A) (A)
                 (A) (A) (A) (A) (A) (A) (A) (A)
 The electronic state is 1-A.
 Alpha  occ. eigenvalues -- -101.55908 -14.36646 -14.36618 -10.29103 -10.23849
 Alpha  occ. eigenvalues --  -10.23414 -10.23053 -10.22158 -10.22096 -10.22054
 Alpha  occ. eigenvalues --  -10.21890  -9.47640  -7.24023  -7.23080  -7.23006
 Alpha  occ. eigenvalues --   -1.03801  -0.90576  -0.89076  -0.81906  -0.79551
 Alpha  occ. eigenvalues --   -0.78213  -0.67893  -0.66574  -0.62781  -0.56718
 Alpha  occ. eigenvalues --   -0.54090  -0.52187  -0.47709  -0.47452  -0.45721
 Alpha  occ. eigenvalues --   -0.45552  -0.44756  -0.39774  -0.38881  -0.37603
 Alpha  occ. eigenvalues --   -0.36790  -0.33293  -0.31395  -0.30307  -0.29127
 Alpha  occ. eigenvalues --   -0.25576  -0.23511
 Alpha virt. eigenvalues --   -0.07377  -0.05095   0.00715   0.04162   0.06433
 Alpha virt. eigenvalues --    0.08232   0.11410   0.14262   0.15597   0.16890
 Alpha virt. eigenvalues --    0.17421   0.21106   0.23600   0.26091   0.27334
 Alpha virt. eigenvalues --    0.29738   0.30827   0.32146   0.36447   0.40617
 Alpha virt. eigenvalues --    0.43056   0.43592   0.45290   0.48930   0.49266
 Alpha virt. eigenvalues --    0.50583   0.52123   0.53008   0.53231   0.54177
 Alpha virt. eigenvalues --    0.55141   0.55302   0.58043   0.58505   0.59254
 Alpha virt. eigenvalues --    0.60106   0.60566   0.62295   0.66110   0.68167
 Alpha virt. eigenvalues --    0.68197   0.69138   0.74054   0.75975   0.77322
 Alpha virt. eigenvalues --    0.78937   0.79505   0.80176   0.81999   0.82327
 Alpha virt. eigenvalues --    0.82994   0.84970   0.86688   0.87336   0.90713
 Alpha virt. eigenvalues --    0.92002   0.93248   0.95881   0.96386   0.99416
 Alpha virt. eigenvalues --    1.01468   1.05112   1.07806   1.12732   1.13668
 Alpha virt. eigenvalues --    1.13943   1.20081   1.21202   1.21949   1.22856
 Alpha virt. eigenvalues --    1.30092   1.31136   1.33439   1.36267   1.37817
 Alpha virt. eigenvalues --    1.38449   1.40081   1.40813   1.44310   1.45646
 Alpha virt. eigenvalues --    1.49357   1.53941   1.55575   1.68468   1.73609
 Alpha virt. eigenvalues --    1.74615   1.77759   1.79170   1.80759   1.84657
 Alpha virt. eigenvalues --    1.86035   1.88017   1.88384   1.91485   1.93555
 Alpha virt. eigenvalues --    1.96844   1.97083   2.00564   2.05979   2.06746
 Alpha virt. eigenvalues --    2.11373   2.18687   2.22343   2.23631   2.23962
 Alpha virt. eigenvalues --    2.27279   2.30498   2.31869   2.32042   2.34254
 Alpha virt. eigenvalues --    2.36349   2.36651   2.41437   2.43154   2.43705
 Alpha virt. eigenvalues --    2.49658   2.51575   2.52274   2.57679   2.58450
 Alpha virt. eigenvalues --    2.59296   2.62044   2.65179   2.67227   2.68282
 Alpha virt. eigenvalues --    2.74443   2.76498   2.76893   2.81859   2.93036
 Alpha virt. eigenvalues --    2.98434   3.04627   3.12536   3.18751   3.22886
 Alpha virt. eigenvalues --    3.25465   3.31800   3.35835   3.47646   3.58416
 Alpha virt. eigenvalues --    3.77283   3.86618   4.06347   4.10368   4.11555
 Alpha virt. eigenvalues --    4.17995   4.24351   4.27471   4.32151   4.44766
 Alpha virt. eigenvalues --    4.51012   4.86147
          Condensed to atoms (all electrons):
               1          2          3          4          5          6
     1  Cl  16.850066   0.269298  -0.081602   0.005107  -0.000030   0.004692
     2  C    0.269298   5.221386   0.365686  -0.049042  -0.060465  -0.030170
     3  N   -0.081602   0.365686   6.836030   0.246934  -0.062395  -0.048338
     4  N    0.005107  -0.049042   0.246934   6.722688   0.420460   0.011155
     5  C   -0.000030  -0.060465  -0.062395   0.420460   4.982172   0.354885
     6  C    0.004692  -0.030170  -0.048338   0.011155   0.354885   4.879034
     7  C   -0.000118   0.016658  -0.000275   0.007853  -0.071099   0.439660
     8  C   -0.000012  -0.000946   0.000033  -0.000300   0.007027  -0.007732
     9  C    0.000772   0.009291  -0.000221   0.000052  -0.000690  -0.038504
    10  C   -0.003849  -0.082357   0.008196  -0.000982   0.014669  -0.054828
    11  C   -0.091214   0.302856  -0.001021  -0.050555  -0.031421   0.482661
    12  H    0.000032  -0.000029   0.005694  -0.048612   0.384792  -0.060996
    13  H    0.000003  -0.000208   0.000015   0.000126  -0.006584  -0.041677
    14  H    0.000000   0.000013  -0.000000   0.000001  -0.000181   0.002926
    15  H    0.000000  -0.000200   0.000001  -0.000000   0.000011   0.001129
    16  H    0.011499  -0.011729   0.000153  -0.000004  -0.000176   0.005040
               7          8          9         10         11         12
     1  Cl  -0.000118  -0.000012   0.000772  -0.003849  -0.091214   0.000032
     2  C    0.016658  -0.000946   0.009291  -0.082357   0.302856  -0.000029
     3  N   -0.000275   0.000033  -0.000221   0.008196  -0.001021   0.005694
     4  N    0.007853  -0.000300   0.000052  -0.000982  -0.050555  -0.048612
     5  C   -0.071099   0.007027  -0.000690   0.014669  -0.031421   0.384792
     6  C    0.439660  -0.007732  -0.038504  -0.054828   0.482661  -0.060996
     7  C    5.019337   0.514857  -0.022288  -0.071527  -0.047292  -0.002838
     8  C    0.514857   4.833077   0.500643  -0.022065  -0.038944   0.000004
     9  C   -0.022288   0.500643   4.840900   0.506604  -0.007908   0.000007
    10  C   -0.071527  -0.022065   0.506604   5.029757   0.456390  -0.000141
    11  C   -0.047292  -0.038944  -0.007908   0.456390   4.912822   0.004451
    12  H   -0.002838   0.000004   0.000007  -0.000141   0.004451   0.596652
    13  H    0.369216  -0.041123   0.004439   0.000620   0.004917   0.005500
    14  H   -0.034752   0.370241  -0.038947   0.004315   0.001073  -0.000006
    15  H    0.004327  -0.039330   0.370355  -0.033988   0.002742   0.000000
    16  H    0.000550   0.004217  -0.040158   0.368442  -0.031626   0.000002
              13         14         15         16
     1  Cl   0.000003   0.000000   0.000000   0.011499
     2  C   -0.000208   0.000013  -0.000200  -0.011729
     3  N    0.000015  -0.000000   0.000001   0.000153
     4  N    0.000126   0.000001  -0.000000  -0.000004
     5  C   -0.006584  -0.000181   0.000011  -0.000176
     6  C   -0.041677   0.002926   0.001129   0.005040
     7  C    0.369216  -0.034752   0.004327   0.000550
     8  C   -0.041123   0.370241  -0.039330   0.004217
     9  C    0.004439  -0.038947   0.370355  -0.040158
    10  C    0.000620   0.004315  -0.033988   0.368442
    11  C    0.004917   0.001073   0.002742  -0.031626
    12  H    0.005500  -0.000006   0.000000   0.000002
    13  H    0.605401  -0.005601  -0.000188   0.000018
    14  H   -0.005601   0.602943  -0.005814  -0.000179
    15  H   -0.000188  -0.005814   0.601186  -0.005360
    16  H    0.000018  -0.000179  -0.005360   0.577198
 Mulliken charges:
               1
     1  Cl   0.035355
     2  C    0.049958
     3  N   -0.268888
     4  N   -0.264880
     5  C    0.069024
     6  C    0.101062
     7  C   -0.122268
     8  C   -0.079647
     9  C   -0.084347
    10  C   -0.119256
    11  C    0.132068
    12  H    0.115488
    13  H    0.105125
    14  H    0.103967
    15  H    0.105128
    16  H    0.122111
 Sum of Mulliken charges =  -0.00000
 Mulliken charges with hydrogens summed into heavy atoms:
               1
     1  Cl   0.035355
     2  C    0.049958
     3  N   -0.268888
     4  N   -0.264880
     5  C    0.184512
     6  C    0.101062
     7  C   -0.017143
     8  C    0.024320
     9  C    0.020781
    10  C    0.002855
    11  C    0.132068
 Electronic spatial extent (au):  <R**2>=           1774.8562
 Charge=             -0.0000 electrons
 Dipole moment (field-independent basis, Debye):
    X=             -5.1179    Y=             -2.1300    Z=              0.0000  Tot=              5.5434
 Quadrupole moment (field-independent basis, Debye-Ang):
   XX=            -67.3927   YY=            -67.3011   ZZ=            -70.0655
   XY=             -5.4894   XZ=             -0.0030   YZ=             -0.0019
 Traceless Quadrupole moment (field-independent basis, Debye-Ang):
   XX=              0.8604   YY=              0.9520   ZZ=             -1.8125
   XY=             -5.4894   XZ=             -0.0030   YZ=             -0.0019
 Octapole moment (field-independent basis, Debye-Ang**2):
  XXX=            -30.2525  YYY=            -22.9473  ZZZ=              0.0011  XYY=            -20.2360
  XXY=            -13.9683  XXZ=              0.0060  XZZ=              8.6565  YZZ=              0.7019
  YYZ=              0.0008  XYZ=              0.0012
 Hexadecapole moment (field-independent basis, Debye-Ang**3):
 XXXX=          -1341.5236 YYYY=           -851.4486 ZZZZ=            -70.3011 XXXY=            -26.9673
 XXXZ=             -0.0324 YYYX=            -51.7889 YYYZ=             -0.0099 ZZZX=              0.0034
 ZZZY=              0.0023 XXYY=           -365.1674 XXZZ=           -260.5815 YYZZ=           -161.5458
 XXYZ=             -0.0114 YYXZ=             -0.0069 ZZXY=             -4.1631
 N-N= 6.314526932295D+02 E-N=-3.324583494649D+03  KE= 8.726024373418D+02
 No NMR shielding tensors so no spin-rotation constants.
 Leave Link  601 at Tue Sep 17 09:46:17 2024, MaxMem=  1342177280 cpu:               0.4 elap:               0.1
 (Enter /groups/ReismanLab/Software/Gaussian16_RevC/Linux_Binary_AVX2-enabled-CPU/g16/l701.exe)
 ... and contract with generalized density number  0.
 Compute integral first derivatives.
 R6Disp: Adding Grimme-D3(BJ) dispersion energy 1st derivatives to the gradient.
 Leave Link  701 at Tue Sep 17 09:46:17 2024, MaxMem=  1342177280 cpu:               0.4 elap:               0.1
 (Enter /groups/ReismanLab/Software/Gaussian16_RevC/Linux_Binary_AVX2-enabled-CPU/g16/l702.exe)
 L702 exits ... SP integral derivatives will be done elsewhere.
 Leave Link  702 at Tue Sep 17 09:46:17 2024, MaxMem=  1342177280 cpu:               0.0 elap:               0.0
 (Enter /groups/ReismanLab/Software/Gaussian16_RevC/Linux_Binary_AVX2-enabled-CPU/g16/l703.exe)
 Integral derivatives from FoFJK, PRISM(SPDF).
 Compute integral first derivatives, UseDBF=F ICtDFT=           0.
 Calling FoFJK, ICntrl=      2127 FMM=F ISym2X=0 I1Cent= 0 IOpClX= 0 NMat=1 NMatS=1 NMatT=0.
 FoFJK:  IHMeth= 1 ICntrl=    2127 DoSepK=F KAlg= 0 I1Cent=           0 FoldK=F
 IRaf=         0 NMat=       1 IRICut=       1 DoRegI=T DoRafI=F ISym2E= 0 IDoP0=0 IntGTp=1.
 FoFCou: FMM=F IPFlag=           0 FMFlag=      100000 FMFlg1=         800
         NFxFlg=           0 DoJE=F BraDBF=F KetDBF=F FulRan=T
         wScrn=  0.000000 ICntrl=      2127 IOpCl=  0 I1Cent=           0 NGrid=           0
         NMat0=    1 NMatS0=      1 NMatT0=    0 NMatD0=    1 NMtDS0=    0 NMtDT0=    0
 Symmetry not used in FoFCou.
 Leave Link  703 at Tue Sep 17 09:46:19 2024, MaxMem=  1342177280 cpu:              16.8 elap:               2.2
 (Enter /groups/ReismanLab/Software/Gaussian16_RevC/Linux_Binary_AVX2-enabled-CPU/g16/l716.exe)
 Dipole        =-2.01354142D+00-8.37997668D-01 1.23227652D-05
 ***** Axes restored to original set *****
 -------------------------------------------------------------------
 Center     Atomic                   Forces (Hartrees/Bohr)
 Number     Number              X              Y              Z
 -------------------------------------------------------------------
      1       17           0.012333637    0.013294719   -0.000000210
      2        6          -0.013272197   -0.004543739   -0.000003300
      3        7           0.026532094    0.015527467    0.000009036
      4        7          -0.002663722   -0.031959106   -0.000005019
      5        6          -0.013452206    0.006126068   -0.000002830
      6        6           0.003474999   -0.001022134    0.000017398
      7        6          -0.000599298   -0.005019276   -0.000004088
      8        6          -0.006488941    0.000085066   -0.000024154
      9        6          -0.001628334    0.005483505    0.000003704
     10        6           0.004131309    0.002963443   -0.000006921
     11        6           0.001774228   -0.001521257   -0.000009160
     12        1          -0.003377897   -0.003408197    0.000002147
     13        1          -0.003024147   -0.003084856    0.000000988
     14        1          -0.003947259    0.000215339    0.000014226
     15        1          -0.001098952    0.003818990    0.000003892
     16        1           0.001306688    0.003043968    0.000004290
 -------------------------------------------------------------------
 Cartesian Forces:  Max     0.031959106 RMS     0.007835004
 Leave Link  716 at Tue Sep 17 09:46:19 2024, MaxMem=  1342177280 cpu:               0.1 elap:               0.0
 (Enter /groups/ReismanLab/Software/Gaussian16_RevC/Linux_Binary_AVX2-enabled-CPU/g16/l103.exe)

 GradGradGradGradGradGradGradGradGradGradGradGradGradGradGradGradGradGrad
 Berny optimization.
 FormGI is forming the generalized inverse of G from B-inverse, IUseBI=4.
 Internal  Forces:  Max     0.032336419 RMS     0.005607475
 Search for a local minimum.
 Step number   1 out of a maximum of   90
 All quantities printed in internal units (Hartrees-Bohrs-Radians)
 RMS Force = .56075D-02 SwitMx=.10000D-02 MixMth= 1
 Mixed Optimization -- RFO/linear search
 Second derivative matrix not updated -- first step.
 ITU=  0
     Eigenvalues ---    0.01872   0.01895   0.01920   0.02133   0.02162
     Eigenvalues ---    0.02166   0.02192   0.02259   0.02269   0.02306
     Eigenvalues ---    0.02328   0.02383   0.02724   0.16000   0.16000
     Eigenvalues ---    0.16000   0.16000   0.16000   0.22000   0.22542
     Eigenvalues ---    0.23389   0.24513   0.25000   0.25000   0.25000
     Eigenvalues ---    0.34054   0.35848   0.36001   0.36021   0.36027
     Eigenvalues ---    0.36153   0.38599   0.40098   0.42012   0.42060
     Eigenvalues ---    0.43796   0.44893   0.49303   0.50446   0.59560
     Eigenvalues ---    0.63868   0.66576
 RFO step:  Lambda=-4.91853570D-03 EMin= 1.87238676D-02
 Linear search not attempted -- first point.
 Iteration  1 RMS(Cart)=  0.01630365 RMS(Int)=  0.00005597
 Iteration  2 RMS(Cart)=  0.00007464 RMS(Int)=  0.00001702
 Iteration  3 RMS(Cart)=  0.00000000 RMS(Int)=  0.00001702
 ITry= 1 IFail=0 DXMaxC= 5.87D-02 DCOld= 1.00D+10 DXMaxT= 3.00D-01 DXLimC= 3.00D+00 Rises=F
 Variable       Old X    -DE/DX   Delta X   Delta X   Delta X     New X
                                 (Linear)    (Quad)   (Total)
    R1        3.24239   0.01813   0.00000   0.05249   0.05249   3.29488
    R2        2.45535   0.01218   0.00000   0.01901   0.01902   2.47437
    R3        2.69100   0.00636   0.00000   0.01337   0.01334   2.70434
    R4        2.49610   0.03234   0.00000   0.05443   0.05446   2.55056
    R5        2.45526   0.01746   0.00000   0.02694   0.02696   2.48222
    R6        2.68228   0.00302   0.00000   0.00561   0.00560   2.68789
    R7        2.04319   0.00471   0.00000   0.01297   0.01297   2.05616
    R8        2.65724   0.00763   0.00000   0.01626   0.01626   2.67350
    R9        2.67935   0.00672   0.00000   0.01075   0.01070   2.69005
   R10        2.58792   0.00844   0.00000   0.01686   0.01687   2.60478
   R11        2.04040   0.00429   0.00000   0.01175   0.01175   2.05215
   R12        2.65139   0.00946   0.00000   0.02194   0.02195   2.67334
   R13        2.04079   0.00393   0.00000   0.01077   0.01077   2.05157
   R14        2.58890   0.00916   0.00000   0.01840   0.01841   2.60731
   R15        2.04049   0.00395   0.00000   0.01082   0.01082   2.05130
   R16        2.65412   0.00890   0.00000   0.01908   0.01908   2.67320
   R17        2.03843   0.00319   0.00000   0.00870   0.00870   2.04714
    A1        2.02394  -0.00095   0.00000  -0.00267  -0.00266   2.02128
    A2        2.08971  -0.00138   0.00000  -0.00435  -0.00434   2.08537
    A3        2.16954   0.00233   0.00000   0.00702   0.00700   2.17653
    A4        2.10383  -0.00402   0.00000  -0.00604  -0.00599   2.09783
    A5        2.10430  -0.00652   0.00000  -0.01526  -0.01519   2.08911
    A6        2.15699   0.00226   0.00000   0.00855   0.00855   2.16555
    A7        2.02189  -0.00021   0.00000   0.00128   0.00128   2.02317
    A8        2.10430  -0.00205   0.00000  -0.00983  -0.00983   2.09447
    A9        2.16993  -0.00471   0.00000  -0.01029  -0.01025   2.15968
   A10        2.03029   0.00364   0.00000   0.00582   0.00577   2.03606
   A11        2.08297   0.00107   0.00000   0.00448   0.00448   2.08745
   A12        2.09069   0.00088   0.00000   0.00155   0.00154   2.09224
   A13        2.07681   0.00007   0.00000   0.00228   0.00229   2.07910
   A14        2.11569  -0.00094   0.00000  -0.00384  -0.00383   2.11185
   A15        2.10662  -0.00127   0.00000  -0.00425  -0.00424   2.10237
   A16        2.09622   0.00021   0.00000  -0.00045  -0.00046   2.09576
   A17        2.08035   0.00106   0.00000   0.00470   0.00470   2.08505
   A18        2.10920  -0.00044   0.00000  -0.00033  -0.00032   2.10888
   A19        2.08023   0.00067   0.00000   0.00290   0.00290   2.08312
   A20        2.09375  -0.00023   0.00000  -0.00257  -0.00257   2.09118
   A21        2.08619   0.00094   0.00000   0.00234   0.00233   2.08852
   A22        2.11879  -0.00138   0.00000  -0.00671  -0.00670   2.11209
   A23        2.07821   0.00044   0.00000   0.00436   0.00437   2.08258
   A24        2.00142   0.00230   0.00000  -0.00008  -0.00013   2.00129
   A25        2.19107  -0.00113   0.00000   0.00387   0.00392   2.19499
   A26        2.09070  -0.00117   0.00000  -0.00379  -0.00379   2.08691
    D1        3.14146   0.00000   0.00000   0.00002   0.00002   3.14149
    D2       -0.00026   0.00001   0.00000   0.00018   0.00018  -0.00007
    D3        3.14149   0.00000   0.00000   0.00014   0.00014  -3.14155
    D4        0.00020  -0.00000   0.00000  -0.00007  -0.00007   0.00013
    D5        0.00003  -0.00000   0.00000  -0.00002  -0.00002   0.00001
    D6       -3.14126  -0.00001   0.00000  -0.00024  -0.00024  -3.14150
    D7        0.00023  -0.00001   0.00000  -0.00017  -0.00017   0.00006
    D8        0.00001   0.00000   0.00000  -0.00000   0.00000   0.00001
    D9        3.14152   0.00000   0.00000   0.00011   0.00011  -3.14155
   D10        3.14137   0.00000   0.00000   0.00011   0.00011   3.14149
   D11       -0.00022   0.00000   0.00000   0.00015   0.00015  -0.00007
   D12       -0.00013  -0.00000   0.00000  -0.00001  -0.00001  -0.00014
   D13        3.14146   0.00000   0.00000   0.00003   0.00003   3.14149
   D14       -3.14145  -0.00000   0.00000  -0.00010  -0.00010  -3.14155
   D15       -0.00004   0.00000   0.00000   0.00009   0.00009   0.00005
   D16        0.00014  -0.00000   0.00000  -0.00014  -0.00014   0.00000
   D17        3.14156   0.00000   0.00000   0.00005   0.00005  -3.14157
   D18        0.00019  -0.00000   0.00000  -0.00013  -0.00013   0.00006
   D19        3.14150   0.00000   0.00000   0.00007   0.00007   3.14158
   D20       -3.14141  -0.00000   0.00000  -0.00009  -0.00009  -3.14150
   D21       -0.00009   0.00000   0.00000   0.00011   0.00011   0.00002
   D22       -0.00004   0.00000   0.00000   0.00003   0.00003  -0.00002
   D23        3.14114   0.00001   0.00000   0.00040   0.00040   3.14154
   D24       -3.14146  -0.00000   0.00000  -0.00017  -0.00017   3.14156
   D25       -0.00027   0.00001   0.00000   0.00020   0.00020  -0.00007
   D26       -0.00011   0.00000   0.00000   0.00012   0.00012   0.00001
   D27        3.14138   0.00001   0.00000   0.00022   0.00022  -3.14159
   D28       -3.14130  -0.00001   0.00000  -0.00025  -0.00025  -3.14155
   D29        0.00019  -0.00000   0.00000  -0.00015  -0.00015   0.00004
   D30        0.00016  -0.00000   0.00000  -0.00015  -0.00015   0.00001
   D31        3.14149   0.00000   0.00000   0.00011   0.00010  -3.14159
   D32       -3.14133  -0.00001   0.00000  -0.00025  -0.00025  -3.14158
   D33       -0.00001   0.00000   0.00000   0.00001   0.00001   0.00000
   D34        3.14122   0.00001   0.00000   0.00026   0.00026   3.14148
   D35       -0.00006   0.00000   0.00000   0.00004   0.00004  -0.00002
   D36       -0.00011   0.00000   0.00000   0.00001   0.00001  -0.00010
   D37       -3.14139  -0.00001   0.00000  -0.00021  -0.00021   3.14158
         Item               Value     Threshold  Converged?
 Maximum Force            0.032336     0.000450     NO 
 RMS     Force            0.005607     0.000300     NO 
 Maximum Displacement     0.058707     0.001800     NO 
 RMS     Displacement     0.016298     0.001200     NO 
 Predicted change in Energy=-2.483693D-03
 Lowest energy point so far.  Saving SCF results.
 GradGradGradGradGradGradGradGradGradGradGradGradGradGradGradGradGradGrad

 Leave Link  103 at Tue Sep 17 09:46:19 2024, MaxMem=  1342177280 cpu:               0.1 elap:               0.0
 (Enter /groups/ReismanLab/Software/Gaussian16_RevC/Linux_Binary_AVX2-enabled-CPU/g16/l202.exe)
                          Input orientation:                          
 ---------------------------------------------------------------------
 Center     Atomic      Atomic             Coordinates (Angstroms)
 Number     Number       Type             X           Y           Z
 ---------------------------------------------------------------------
      1         17           0        2.380261    1.205695    0.000086
      2          6           0        1.188967   -0.067443    0.000009
      3          7           0        1.660158   -1.289106   -0.000020
      4          7           0        0.816056   -2.342283    0.000045
      5          6           0       -0.481256   -2.136472    0.000065
      6          6           0       -1.083771   -0.848020    0.000009
      7          6           0       -2.482329   -0.634552   -0.000095
      8          6           0       -2.980742    0.650574   -0.000189
      9          6           0       -2.103088    1.760084   -0.000163
     10          6           0       -0.735212    1.579635   -0.000052
     11          6           0       -0.201895    0.269424    0.000021
     12          1           0       -1.104318   -3.028492    0.000158
     13          1           0       -3.147943   -1.492601   -0.000085
     14          1           0       -4.053370    0.818167   -0.000315
     15          1           0       -2.515004    2.764396   -0.000232
     16          1           0       -0.060420    2.427096   -0.000031
 ---------------------------------------------------------------------
                    Distance matrix (angstroms):
                    1          2          3          4          5
     1  Cl   0.000000
     2  C    1.743577   0.000000
     3  N    2.596648   1.309382   0.000000
     4  N    3.877485   2.305203   1.349700   0.000000
     5  C    4.399813   2.659046   2.302972   1.313535   0.000000
     6  C    4.027067   2.403048   2.779155   2.417057   1.422368
     7  C    5.199162   3.714839   4.193880   3.714254   2.502010
     8  C    5.389667   4.231078   5.029941   4.834549   3.743668
     9  C    4.517496   3.765300   4.843509   5.034960   4.220603
    10  C    3.137833   2.532850   3.737308   4.217567   3.724774
    11  C    2.746658   1.431075   2.428220   2.803076   2.422060
    12  H    5.483670   3.745260   3.266158   2.039293   1.088075
    13  H    6.151572   4.565070   4.812405   4.054041   2.743317
    14  H    6.445291   5.316616   6.089745   5.805149   4.635719
    15  H    5.137428   4.662479   5.819180   6.097059   5.306094
    16  H    2.729238   2.789927   4.095186   4.849246   4.582931
                    6          7          8          9         10
     6  C    0.000000
     7  C    1.414755   0.000000
     8  C    2.417495   1.378392   0.000000
     9  C    2.800217   2.424480   1.414669   0.000000
    10  C    2.452551   2.820468   2.430136   1.379728   0.000000
    11  C    1.423512   2.453070   2.804865   2.415907   1.414596
    12  H    2.180569   2.762221   4.129951   4.891626   4.622886
    13  H    2.162473   1.085952   2.149687   3.416384   3.906393
    14  H    3.405099   2.139758   1.085642   2.165827   3.404410
    15  H    3.885612   3.399105   2.164522   1.085503   2.138064
    16  H    3.431274   3.903759   3.418232   2.148814   1.083298
                   11         12         13         14         15
    11  C    0.000000
    12  H    3.419155   0.000000
    13  H    3.432773   2.556436   0.000000
    14  H    3.890370   4.847030   2.481823   0.000000
    15  H    3.402258   5.962180   4.303793   2.480802   0.000000
    16  H    2.162306   5.554563   4.989672   4.304917   2.477651
                   16
    16  H    0.000000
 Stoichiometry    C8H5ClN2
 Framework group  C1[X(C8H5ClN2)]
 Deg. of freedom    42
 Full point group                 C1      NOp   1
 RotChk:  IX=0 Diff= 9.58D-03
 Largest Abelian subgroup         C1      NOp   1
 Largest concise Abelian subgroup C1      NOp   1
                         Standard orientation:                         
 ---------------------------------------------------------------------
 Center     Atomic      Atomic             Coordinates (Angstroms)
 Number     Number       Type             X           Y           Z
 ---------------------------------------------------------------------
      1         17           0        2.431023   -1.255167   -0.000101
      2          6           0        1.265779    0.041856   -0.000023
      3          7           0        1.761634    1.253717    0.000006
      4          7           0        0.939052    2.323787   -0.000060
      5          6           0       -0.362164    2.144313   -0.000079
      6          6           0       -0.990671    0.868338   -0.000024
      7          6           0       -2.393268    0.683261    0.000080
      8          6           0       -2.917627   -0.591499    0.000174
      9          6           0       -2.062642   -1.718570    0.000148
     10          6           0       -0.691389   -1.565883    0.000037
     11          6           0       -0.131625   -0.266751   -0.000036
     12          1           0       -0.967018    3.048779   -0.000173
     13          1           0       -3.041354    1.554625    0.000070
     14          1           0       -3.993431   -0.737316    0.000301
     15          1           0       -2.494829   -2.714327    0.000218
     16          1           0       -0.033912   -2.426848    0.000016
 ---------------------------------------------------------------------
 Rotational constants (GHZ):           1.5887996           0.9111787           0.5790772
 Leave Link  202 at Tue Sep 17 09:46:19 2024, MaxMem=  1342177280 cpu:               0.0 elap:               0.0
 (Enter /groups/ReismanLab/Software/Gaussian16_RevC/Linux_Binary_AVX2-enabled-CPU/g16/l301.exe)
 Standard basis: 6-31G(d,p) (6D, 7F)
 Ernie: Thresh=  0.10000D-02 Tol=  0.10000D-05 Strict=F.
 There are   194 symmetry adapted cartesian basis functions of A   symmetry.
 There are   194 symmetry adapted basis functions of A   symmetry.
   194 basis functions,   367 primitive gaussians,   194 cartesian basis functions
    42 alpha electrons       42 beta electrons
       nuclear repulsion energy       626.1470694687 Hartrees.
 IExCor=  402 DFT=T Ex+Corr=B3LYP ExCW=0 ScaHFX=  0.200000
 ScaDFX=  0.800000  0.720000  1.000000  0.810000 ScalE2=  1.000000  1.000000
 IRadAn=      5 IRanWt=     -1 IRanGd=            0 ICorTp=0 IEmpDi=141
 NAtoms=   16 NActive=   16 NUniq=   16 SFac= 1.00D+00 NAtFMM=   60 NAOKFM=F Big=F
 Integral buffers will be    131072 words long.
 Raffenetti 2 integral format.
 Two-electron integral symmetry is turned on.
 R6Disp:  Grimme-D3(BJ) Dispersion energy=       -0.0371053634 Hartrees.
 Nuclear repulsion after empirical dispersion term =      626.1099641053 Hartrees.
 Leave Link  301 at Tue Sep 17 09:46:19 2024, MaxMem=  1342177280 cpu:               0.0 elap:               0.0
 (Enter /groups/ReismanLab/Software/Gaussian16_RevC/Linux_Binary_AVX2-enabled-CPU/g16/l302.exe)
 NPDir=0 NMtPBC=     1 NCelOv=     1 NCel=       1 NClECP=     1 NCelD=      1
         NCelK=      1 NCelE2=     1 NClLst=     1 CellRange=     0.0.
 One-electron integrals computed using PRISM.
 One-electron integral symmetry used in STVInt
 NBasis=   194 RedAO= T EigKep=  3.59D-04  NBF=   194
 NBsUse=   194 1.00D-06 EigRej= -1.00D+00 NBFU=   194
 Precomputing XC quadrature grid using
 IXCGrd= 4 IRadAn=           5 IRanWt=          -1 IRanGd=           0 AccXCQ= 0.00D+00.
 Generated NRdTot=       0 NPtTot=           0 NUsed=           0 NTot=          32
 NSgBfM=   193   193   193   193   193 MxSgAt=    16 MxSgA2=    16.
 Leave Link  302 at Tue Sep 17 09:46:19 2024, MaxMem=  1342177280 cpu:               0.6 elap:               0.1
 (Enter /groups/ReismanLab/Software/Gaussian16_RevC/Linux_Binary_AVX2-enabled-CPU/g16/l303.exe)
 DipDrv:  MaxL=1.
 Leave Link  303 at Tue Sep 17 09:46:19 2024, MaxMem=  1342177280 cpu:               0.1 elap:               0.0
 (Enter /groups/ReismanLab/Software/Gaussian16_RevC/Linux_Binary_AVX2-enabled-CPU/g16/l401.exe)
 Initial guess from the checkpoint file:  "smiles_00019_conf_0.chk"
 B after Tr=     0.000000   -0.000000   -0.000000
         Rot=    0.999995    0.000007   -0.000018   -0.003049 Ang=   0.35 deg.
 Guess basis will be translated and rotated to current coordinates.
 JPrj=2 DoOrth=T DoCkMO=T.
 Generating alternative initial guess.
 ExpMin= 1.43D-01 ExpMax= 2.52D+04 ExpMxC= 3.78D+03 IAcc=3 IRadAn=         5 AccDes= 0.00D+00
 Harris functional with IExCor=  402 and IRadAn=       5 diagonalized for initial guess.
 HarFok:  IExCor=  402 AccDes= 0.00D+00 IRadAn=         5 IDoV= 1 UseB2=F ITyADJ=14
 ICtDFT=  3500011 ScaDFX=  1.000000  1.000000  1.000000  1.000000
 FoFCou: FMM=F IPFlag=           0 FMFlag=      100000 FMFlg1=           0
         NFxFlg=           0 DoJE=T BraDBF=F KetDBF=T FulRan=T
         wScrn=  0.000000 ICntrl=       500 IOpCl=  0 I1Cent=   200000004 NGrid=           0
         NMat0=    1 NMatS0=      1 NMatT0=    0 NMatD0=    1 NMtDS0=    0 NMtDT0=    0
 Petite list used in FoFCou.
 Harris En= -877.475935208714    
 Leave Link  401 at Tue Sep 17 09:46:20 2024, MaxMem=  1342177280 cpu:               3.4 elap:               0.5
 (Enter /groups/ReismanLab/Software/Gaussian16_RevC/Linux_Binary_AVX2-enabled-CPU/g16/l502.exe)
 Integral symmetry usage will be decided dynamically.
 Closed shell SCF:
 Using DIIS extrapolation, IDIIS=  1040.
 NGot=  1342177280 LenX=  1342098040 LenY=  1342059963
 Requested convergence on RMS density matrix=1.00D-08 within  32 cycles.
 Requested convergence on MAX density matrix=1.00D-06.
 Requested convergence on             energy=1.00D-06.
 No special actions if energy rises.
 Fock matrices will be formed incrementally for  20 cycles.
 Integral accuracy reduced to 1.0D-05 until final iterations.

 Cycle   1  Pass 0  IDiag  1:
 FoFJK:  IHMeth= 1 ICntrl=       0 DoSepK=F KAlg= 0 I1Cent=           0 FoldK=F
 IRaf= 910000000 NMat=       1 IRICut=       1 DoRegI=T DoRafI=F ISym2E= 0 IDoP0=0 IntGTp=1.
 FoFCou: FMM=F IPFlag=           0 FMFlag=      100000 FMFlg1=           0
         NFxFlg=           0 DoJE=F BraDBF=F KetDBF=F FulRan=T
         wScrn=  0.000000 ICntrl=         0 IOpCl=  0 I1Cent=           0 NGrid=           0
         NMat0=    1 NMatS0=      1 NMatT0=    0 NMatD0=    1 NMtDS0=    0 NMtDT0=    0
 Symmetry not used in FoFCou.
 E= -877.573283361492    
 DIIS: error= 1.50D-03 at cycle   1 NSaved=   1.
 NSaved= 1 IEnMin= 1 EnMin= -877.573283361492     IErMin= 1 ErrMin= 1.50D-03
 ErrMax= 1.50D-03  0.00D+00 EMaxC= 1.00D-01 BMatC= 6.82D-04 BMatP= 6.82D-04
 IDIUse=3 WtCom= 9.85D-01 WtEn= 1.50D-02
 Coeff-Com:  0.100D+01
 Coeff-En:   0.100D+01
 Coeff:      0.100D+01
 Gap=     1.880 Goal=   None    Shift=    0.000
 GapD=    1.880 DampG=2.000 DampE=1.000 DampFc=2.0000 IDamp=-1.
 RMSDP=3.93D-04 MaxDP=1.20D-02              OVMax= 8.83D-03

 Cycle   2  Pass 0  IDiag  1:
 RMSU=  3.90D-04    CP:  9.98D-01
 E= -877.574178614463     Delta-E=       -0.000895252971 Rises=F Damp=F
 DIIS: error= 6.73D-04 at cycle   2 NSaved=   2.
 NSaved= 2 IEnMin= 2 EnMin= -877.574178614463     IErMin= 2 ErrMin= 6.73D-04
 ErrMax= 6.73D-04  0.00D+00 EMaxC= 1.00D-01 BMatC= 1.18D-04 BMatP= 6.82D-04
 IDIUse=3 WtCom= 9.93D-01 WtEn= 6.73D-03
 Coeff-Com:  0.210D+00 0.790D+00
 Coeff-En:   0.000D+00 0.100D+01
 Coeff:      0.209D+00 0.791D+00
 Gap=     0.169 Goal=   None    Shift=    0.000
 RMSDP=1.55D-04 MaxDP=5.14D-03 DE=-8.95D-04 OVMax= 5.12D-03

 Cycle   3  Pass 0  IDiag  1:
 RMSU=  1.54D-04    CP:  9.99D-01  1.04D+00
 E= -877.574192287657     Delta-E=       -0.000013673194 Rises=F Damp=F
 DIIS: error= 5.93D-04 at cycle   3 NSaved=   3.
 NSaved= 3 IEnMin= 3 EnMin= -877.574192287657     IErMin= 3 ErrMin= 5.93D-04
 ErrMax= 5.93D-04  0.00D+00 EMaxC= 1.00D-01 BMatC= 1.05D-04 BMatP= 1.18D-04
 IDIUse=3 WtCom= 9.94D-01 WtEn= 5.93D-03
 Coeff-Com:  0.381D-02 0.484D+00 0.513D+00
 Coeff-En:   0.000D+00 0.473D+00 0.527D+00
 Coeff:      0.378D-02 0.484D+00 0.513D+00
 Gap=     0.167 Goal=   None    Shift=    0.000
 RMSDP=8.23D-05 MaxDP=2.33D-03 DE=-1.37D-05 OVMax= 4.28D-03

 Cycle   4  Pass 0  IDiag  1:
 RMSU=  4.17D-05    CP:  9.99D-01  1.05D+00  5.39D-01
 E= -877.574285689903     Delta-E=       -0.000093402246 Rises=F Damp=F
 DIIS: error= 2.73D-04 at cycle   4 NSaved=   4.
 NSaved= 4 IEnMin= 4 EnMin= -877.574285689903     IErMin= 4 ErrMin= 2.73D-04
 ErrMax= 2.73D-04  0.00D+00 EMaxC= 1.00D-01 BMatC= 1.43D-05 BMatP= 1.05D-04
 IDIUse=3 WtCom= 9.97D-01 WtEn= 2.73D-03
 Coeff-Com: -0.131D-01 0.239D+00 0.339D+00 0.434D+00
 Coeff-En:   0.000D+00 0.000D+00 0.934D-01 0.907D+00
 Coeff:     -0.131D-01 0.239D+00 0.339D+00 0.436D+00
 Gap=     0.168 Goal=   None    Shift=    0.000
 RMSDP=2.49D-05 MaxDP=6.92D-04 DE=-9.34D-05 OVMax= 1.78D-03

 Cycle   5  Pass 0  IDiag  1:
 RMSU=  1.54D-05    CP:  9.99D-01  1.05D+00  5.74D-01  5.48D-01
 E= -877.574300615176     Delta-E=       -0.000014925273 Rises=F Damp=F
 DIIS: error= 3.69D-05 at cycle   5 NSaved=   5.
 NSaved= 5 IEnMin= 5 EnMin= -877.574300615176     IErMin= 5 ErrMin= 3.69D-05
 ErrMax= 3.69D-05  0.00D+00 EMaxC= 1.00D-01 BMatC= 5.94D-07 BMatP= 1.43D-05
 IDIUse=1 WtCom= 1.00D+00 WtEn= 0.00D+00
 Coeff-Com: -0.776D-02 0.808D-01 0.137D+00 0.227D+00 0.562D+00
 Coeff:     -0.776D-02 0.808D-01 0.137D+00 0.227D+00 0.562D+00
 Gap=     0.167 Goal=   None    Shift=    0.000
 RMSDP=5.72D-06 MaxDP=1.93D-04 DE=-1.49D-05 OVMax= 2.27D-04

 Initial convergence to 1.0D-05 achieved.  Increase integral accuracy.
 Cycle   6  Pass 1  IDiag  1:
 E= -877.574312855955     Delta-E=       -0.000012240779 Rises=F Damp=F
 DIIS: error= 2.08D-05 at cycle   1 NSaved=   1.
 NSaved= 1 IEnMin= 1 EnMin= -877.574312855955     IErMin= 1 ErrMin= 2.08D-05
 ErrMax= 2.08D-05  0.00D+00 EMaxC= 1.00D-01 BMatC= 1.04D-07 BMatP= 1.04D-07
 IDIUse=1 WtCom= 1.00D+00 WtEn= 0.00D+00
 Coeff-Com:  0.100D+01
 Coeff:      0.100D+01
 Gap=     0.168 Goal=   None    Shift=    0.000
 RMSDP=5.72D-06 MaxDP=1.93D-04 DE=-1.22D-05 OVMax= 2.76D-04

 Cycle   7  Pass 1  IDiag  1:
 RMSU=  6.88D-06    CP:  1.00D+00
 E= -877.574312677160     Delta-E=        0.000000178794 Rises=F Damp=F
 DIIS: error= 3.12D-05 at cycle   2 NSaved=   2.
 NSaved= 2 IEnMin= 1 EnMin= -877.574312855955     IErMin= 1 ErrMin= 2.08D-05
 ErrMax= 3.12D-05  0.00D+00 EMaxC= 1.00D-01 BMatC= 2.85D-07 BMatP= 1.04D-07
 IDIUse=1 WtCom= 1.00D+00 WtEn= 0.00D+00
 Coeff-Com:  0.633D+00 0.367D+00
 Coeff:      0.633D+00 0.367D+00
 Gap=     0.168 Goal=   None    Shift=    0.000
 RMSDP=3.12D-06 MaxDP=1.15D-04 DE= 1.79D-07 OVMax= 1.95D-04

 Cycle   8  Pass 1  IDiag  1:
 RMSU=  2.42D-06    CP:  1.00D+00  7.16D-01
 E= -877.574312942646     Delta-E=       -0.000000265486 Rises=F Damp=F
 DIIS: error= 6.41D-06 at cycle   3 NSaved=   3.
 NSaved= 3 IEnMin= 3 EnMin= -877.574312942646     IErMin= 3 ErrMin= 6.41D-06
 ErrMax= 6.41D-06  0.00D+00 EMaxC= 1.00D-01 BMatC= 8.09D-09 BMatP= 1.04D-07
 IDIUse=1 WtCom= 1.00D+00 WtEn= 0.00D+00
 Coeff-Com:  0.190D+00 0.174D+00 0.636D+00
 Coeff:      0.190D+00 0.174D+00 0.636D+00
 Gap=     0.168 Goal=   None    Shift=    0.000
 RMSDP=8.23D-07 MaxDP=2.26D-05 DE=-2.65D-07 OVMax= 5.15D-05

 Cycle   9  Pass 1  IDiag  1:
 RMSU=  6.48D-07    CP:  1.00D+00  7.65D-01  8.46D-01
 E= -877.574312947304     Delta-E=       -0.000000004658 Rises=F Damp=F
 DIIS: error= 4.51D-06 at cycle   4 NSaved=   4.
 NSaved= 4 IEnMin= 4 EnMin= -877.574312947304     IErMin= 4 ErrMin= 4.51D-06
 ErrMax= 4.51D-06  0.00D+00 EMaxC= 1.00D-01 BMatC= 3.38D-09 BMatP= 8.09D-09
 IDIUse=1 WtCom= 1.00D+00 WtEn= 0.00D+00
 Coeff-Com:  0.133D-01 0.502D-01 0.435D+00 0.501D+00
 Coeff:      0.133D-01 0.502D-01 0.435D+00 0.501D+00
 Gap=     0.168 Goal=   None    Shift=    0.000
 RMSDP=3.57D-07 MaxDP=1.10D-05 DE=-4.66D-09 OVMax= 2.26D-05

 Cycle  10  Pass 1  IDiag  1:
 RMSU=  1.85D-07    CP:  1.00D+00  7.59D-01  8.87D-01  5.58D-01
 E= -877.574312950635     Delta-E=       -0.000000003332 Rises=F Damp=F
 DIIS: error= 8.07D-07 at cycle   5 NSaved=   5.
 NSaved= 5 IEnMin= 5 EnMin= -877.574312950635     IErMin= 5 ErrMin= 8.07D-07
 ErrMax= 8.07D-07  0.00D+00 EMaxC= 1.00D-01 BMatC= 1.38D-10 BMatP= 3.38D-09
 IDIUse=1 WtCom= 1.00D+00 WtEn= 0.00D+00
 Coeff-Com: -0.375D-02 0.171D-01 0.199D+00 0.275D+00 0.512D+00
 Coeff:     -0.375D-02 0.171D-01 0.199D+00 0.275D+00 0.512D+00
 Gap=     0.168 Goal=   None    Shift=    0.000
 RMSDP=8.87D-08 MaxDP=2.23D-06 DE=-3.33D-09 OVMax= 3.70D-06

 Cycle  11  Pass 1  IDiag  1:
 RMSU=  3.71D-08    CP:  1.00D+00  7.60D-01  8.88D-01  5.73D-01  5.74D-01
 E= -877.574312950780     Delta-E=       -0.000000000145 Rises=F Damp=F
 DIIS: error= 9.85D-08 at cycle   6 NSaved=   6.
 NSaved= 6 IEnMin= 6 EnMin= -877.574312950780     IErMin= 6 ErrMin= 9.85D-08
 ErrMax= 9.85D-08  0.00D+00 EMaxC= 1.00D-01 BMatC= 2.36D-12 BMatP= 1.38D-10
 IDIUse=1 WtCom= 1.00D+00 WtEn= 0.00D+00
 Coeff-Com: -0.200D-02 0.615D-02 0.742D-01 0.105D+00 0.215D+00 0.601D+00
 Coeff:     -0.200D-02 0.615D-02 0.742D-01 0.105D+00 0.215D+00 0.601D+00
 Gap=     0.168 Goal=   None    Shift=    0.000
 RMSDP=1.41D-08 MaxDP=4.10D-07 DE=-1.45D-10 OVMax= 7.95D-07

 Cycle  12  Pass 1  IDiag  1:
 RMSU=  1.32D-08    CP:  1.00D+00  7.60D-01  8.88D-01  5.74D-01  5.86D-01
                    CP:  9.07D-01
 E= -877.574312950792     Delta-E=       -0.000000000012 Rises=F Damp=F
 DIIS: error= 8.00D-08 at cycle   7 NSaved=   7.
 NSaved= 7 IEnMin= 7 EnMin= -877.574312950792     IErMin= 7 ErrMin= 8.00D-08
 ErrMax= 8.00D-08  0.00D+00 EMaxC= 1.00D-01 BMatC= 7.94D-13 BMatP= 2.36D-12
 IDIUse=1 WtCom= 1.00D+00 WtEn= 0.00D+00
 Coeff-Com: -0.270D-03-0.475D-03-0.402D-02-0.492D-02 0.324D-02 0.365D+00
 Coeff-Com:  0.641D+00
 Coeff:     -0.270D-03-0.475D-03-0.402D-02-0.492D-02 0.324D-02 0.365D+00
 Coeff:      0.641D+00
 Gap=     0.168 Goal=   None    Shift=    0.000
 RMSDP=7.68D-09 MaxDP=2.10D-07 DE=-1.18D-11 OVMax= 6.86D-07

 SCF Done:  E(RB3LYP) =  -877.574312951     A.U. after   12 cycles
            NFock= 12  Conv=0.77D-08     -V/T= 2.0061
 KE= 8.722125148955D+02 PE=-3.313589454852D+03 EE= 9.376926629007D+02
 Leave Link  502 at Tue Sep 17 09:46:27 2024, MaxMem=  1342177280 cpu:              47.4 elap:               6.8
 (Enter /groups/ReismanLab/Software/Gaussian16_RevC/Linux_Binary_AVX2-enabled-CPU/g16/l508.exe)
 QCSCF skips out because SCF is already converged.
 Leave Link  508 at Tue Sep 17 09:46:27 2024, MaxMem=  1342177280 cpu:               0.0 elap:               0.0
 (Enter /groups/ReismanLab/Software/Gaussian16_RevC/Linux_Binary_AVX2-enabled-CPU/g16/l701.exe)
 ... and contract with generalized density number  0.
 Compute integral first derivatives.
 R6Disp: Adding Grimme-D3(BJ) dispersion energy 1st derivatives to the gradient.
 Leave Link  701 at Tue Sep 17 09:46:27 2024, MaxMem=  1342177280 cpu:               0.4 elap:               0.1
 (Enter /groups/ReismanLab/Software/Gaussian16_RevC/Linux_Binary_AVX2-enabled-CPU/g16/l702.exe)
 L702 exits ... SP integral derivatives will be done elsewhere.
 Leave Link  702 at Tue Sep 17 09:46:27 2024, MaxMem=  1342177280 cpu:               0.0 elap:               0.0
 (Enter /groups/ReismanLab/Software/Gaussian16_RevC/Linux_Binary_AVX2-enabled-CPU/g16/l703.exe)
 Integral derivatives from FoFJK, PRISM(SPDF).
 Compute integral first derivatives, UseDBF=F ICtDFT=           0.
 Calling FoFJK, ICntrl=      2127 FMM=F ISym2X=0 I1Cent= 0 IOpClX= 0 NMat=1 NMatS=1 NMatT=0.
 FoFJK:  IHMeth= 1 ICntrl=    2127 DoSepK=F KAlg= 0 I1Cent=           0 FoldK=F
 IRaf=         0 NMat=       1 IRICut=       1 DoRegI=T DoRafI=F ISym2E= 0 IDoP0=0 IntGTp=1.
 FoFCou: FMM=F IPFlag=           0 FMFlag=      100000 FMFlg1=         800
         NFxFlg=           0 DoJE=F BraDBF=F KetDBF=F FulRan=T
         wScrn=  0.000000 ICntrl=      2127 IOpCl=  0 I1Cent=           0 NGrid=           0
         NMat0=    1 NMatS0=      1 NMatT0=    0 NMatD0=    1 NMtDS0=    0 NMtDT0=    0
 Symmetry not used in FoFCou.
 Leave Link  703 at Tue Sep 17 09:46:29 2024, MaxMem=  1342177280 cpu:              16.7 elap:               2.1
 (Enter /groups/ReismanLab/Software/Gaussian16_RevC/Linux_Binary_AVX2-enabled-CPU/g16/l716.exe)
 Dipole        =-2.06854699D+00-8.47186202D-01 3.80045170D-05
 ***** Axes restored to original set *****
 -------------------------------------------------------------------
 Center     Atomic                   Forces (Hartrees/Bohr)
 Number     Number              X              Y              Z
 -------------------------------------------------------------------
      1       17           0.002773395    0.003005610   -0.000002097
      2        6          -0.006720816   -0.008793314    0.000004510
      3        7           0.007002161    0.011467276    0.000002427
      4        7          -0.006136305   -0.008931144   -0.000001457
      5        6          -0.000337912    0.002904932    0.000002918
      6        6           0.001389437    0.001054185   -0.000001639
      7        6           0.000371092    0.000038309    0.000003490
      8        6           0.000209168   -0.000264034   -0.000002076
      9        6           0.000508354   -0.000641437    0.000000784
     10        6          -0.000072320   -0.000645302    0.000001272
     11        6           0.000165598    0.000943438   -0.000005558
     12        1           0.000431175   -0.000056891   -0.000002294
     13        1           0.000075187    0.000190094   -0.000001522
     14        1           0.000275967   -0.000100632    0.000001941
     15        1           0.000261913   -0.000155534   -0.000000159
[...]
   XY=   188.6295   YY=  -412.7444   ZY=     0.0052
   XZ=     0.0280   YZ=     0.0015   ZZ=   204.4447
   Eigenvalues:  -631.6415  -237.6952   204.4447
      5  C    Isotropic =     7.8421   Anisotropy =   193.3642
   XX=   -25.9649   YX=   102.5673   ZX=     0.0070
   XY=    40.2438   YY=   -87.2605   ZY=     0.0032
   XZ=     0.0097   YZ=    -0.0008   ZZ=   136.7515
   Eigenvalues:  -134.3175    21.0922   136.7515
      6  C    Isotropic =    35.1769   Anisotropy =   239.2920
   XX=   -39.0762   YX=   -14.0850   ZX=     0.0121
   XY=   -27.6650   YY=   -50.0979   ZY=     0.0087
   XZ=     0.0149   YZ=     0.0087   ZZ=   194.7049
   Eigenvalues:   -66.1772   -22.9969   194.7049
      7  C    Isotropic =    36.7728   Anisotropy =   206.0861
   XX=   -38.2965   YX=    44.2959   ZX=     0.0077
   XY=    51.1190   YY=   -25.5486   ZY=     0.0036
   XZ=     0.0075   YZ=     0.0068   ZZ=   174.1636
   Eigenvalues:   -80.0539    16.2088   174.1636
      8  C    Isotropic =    29.2877   Anisotropy =   230.3706
   XX=  -101.8920   YX=    -2.5054   ZX=     0.0113
   XY=     6.5231   YY=     6.8869   ZY=     0.0052
   XZ=     0.0113   YZ=     0.0053   ZZ=   182.8680
   Eigenvalues:  -101.9290     6.9240   182.8680
      9  C    Isotropic =    28.2602   Anisotropy =   227.3415
   XX=    -0.7253   YX=   -23.9115   ZX=     0.0082
   XY=   -30.1389   YY=   -94.3153   ZY=     0.0106
   XZ=     0.0086   YZ=     0.0086   ZZ=   179.8212
   Eigenvalues:  -101.5586     6.5179   179.8212
     10  C    Isotropic =    38.9034   Anisotropy =   209.5811
   XX=     1.1581   YX=    38.9758   ZX=     0.0068
   XY=    27.2627   YY=   -63.0720   ZY=     0.0077
   XZ=     0.0098   YZ=     0.0060   ZZ=   178.6242
   Eigenvalues:   -77.0901    15.1761   178.6242
     11  C    Isotropic =    38.1814   Anisotropy =   225.0700
   XX=   -54.8286   YX=   -20.7192   ZX=     0.0147
   XY=   -11.6903   YY=   -18.8552   ZY=     0.0081
   XZ=     0.0130   YZ=     0.0130   ZZ=   188.2281
   Eigenvalues:   -61.0518   -12.6321   188.2281
     12  H    Isotropic =    21.2026   Anisotropy =     9.9116
   XX=    22.7380   YX=     4.8152   ZX=    -0.0003
   XY=     4.9495   YY=    23.1109   ZY=    -0.0005
   XZ=    -0.0004   YZ=    -0.0003   ZZ=    17.7590
   Eigenvalues:    17.7590    18.0385    27.8104
     13  H    Isotropic =    22.9204   Anisotropy =     7.2539
   XX=    25.2575   YX=     2.7136   ZX=    -0.0004
   XY=     2.8469   YY=    24.6630   ZY=    -0.0003
   XZ=    -0.0004   YZ=    -0.0002   ZZ=    18.8407
   Eigenvalues:    18.8407    22.1641    27.7563
     14  H    Isotropic =    22.9779   Anisotropy =     6.8922
   XX=    21.7747   YX=    -0.5647   ZX=    -0.0001
   XY=     0.1437   YY=    27.5651   ZY=    -0.0003
   XZ=    -0.0000   YZ=    -0.0002   ZZ=    19.5940
   Eigenvalues:    19.5940    21.7671    27.5728
     15  H    Isotropic =    22.8662   Anisotropy =     7.6045
   XX=    27.4957   YX=    -1.2808   ZX=    -0.0003
   XY=    -1.9564   YY=    21.9841   ZY=    -0.0000
   XZ=    -0.0003   YZ=    -0.0001   ZZ=    19.1188
   Eigenvalues:    19.1188    21.5439    27.9359
     16  H    Isotropic =    22.5941   Anisotropy =    11.7015
   XX=    28.3916   YX=     4.3294   ZX=    -0.0007
   XY=     3.6779   YY=    22.3947   ZY=    -0.0003
   XZ=    -0.0006   YZ=    -0.0005   ZZ=    16.9960
   Eigenvalues:    16.9960    20.3912    30.3951
 End of Minotr F.D. properties file   721 does not exist.
 End of Minotr F.D. properties file   722 does not exist.
 End of Minotr F.D. properties file   788 does not exist.
 Leave Link 1002 at Tue Sep 17 10:32:03 2024, MaxMem=  1342177280 cpu:             611.8 elap:             613.2
 (Enter /groups/ReismanLab/Software/Gaussian16_RevC/Linux_Binary_AVX2-enabled-CPU/g16/l601.exe)
 Copying SCF densities to generalized density rwf, IOpCl= 0 IROHF=0.

 **********************************************************************

            Population analysis using the SCF Density.

 **********************************************************************

 Orbital symmetries:
       Occupied  (A) (A) (A) (A) (A) (A) (A) (A) (A) (A) (A) (A)
                 (A) (A) (A) (A) (A) (A) (A) (A) (A) (A) (A) (A)
                 (A) (A) (A) (A) (A) (A) (A) (A) (A) (A) (A) (A)
                 (A) (A) (A) (A) (A) (A)
       Virtual   (A) (A) (A) (A) (A) (A) (A) (A) (A) (A) (A) (A)
                 (A) (A) (A) (A) (A) (A) (A) (A) (A) (A) (A) (A)
                 (A) (A) (A) (A) (A) (A) (A) (A) (A) (A) (A) (A)
                 (A) (A) (A) (A) (A) (A) (A) (A) (A) (A) (A) (A)
                 (A) (A) (A) (A) (A) (A) (A) (A) (A) (A) (A) (A)
                 (A) (A) (A) (A) (A) (A) (A) (A) (A) (A) (A) (A)
                 (A) (A) (A) (A) (A) (A) (A) (A) (A) (A) (A) (A)
                 (A) (A) (A) (A) (A) (A) (A) (A) (A) (A) (A) (A)
                 (A) (A) (A) (A) (A) (A) (A) (A) (A) (A) (A) (A)
                 (A) (A) (A) (A) (A) (A) (A) (A) (A) (A) (A) (A)
                 (A) (A) (A) (A) (A) (A) (A) (A) (A) (A) (A) (A)
                 (A) (A) (A) (A) (A) (A) (A) (A) (A) (A) (A) (A)
                 (A) (A) (A) (A) (A) (A) (A) (A) (A) (A) (A) (A)
                 (A) (A) (A) (A) (A) (A) (A) (A) (A) (A) (A) (A)
                 (A) (A) (A) (A) (A) (A) (A) (A) (A) (A) (A) (A)
                 (A) (A) (A) (A) (A) (A) (A) (A) (A) (A) (A) (A)
                 (A) (A) (A) (A) (A) (A) (A) (A) (A) (A) (A) (A)
                 (A) (A) (A) (A) (A) (A) (A) (A) (A) (A) (A) (A)
                 (A) (A) (A) (A) (A) (A) (A) (A) (A) (A) (A) (A)
                 (A) (A) (A) (A) (A) (A) (A) (A) (A) (A) (A) (A)
                 (A) (A) (A) (A) (A) (A) (A) (A) (A) (A) (A) (A)
                 (A) (A) (A) (A) (A) (A) (A) (A) (A) (A) (A) (A)
                 (A) (A) (A) (A) (A) (A) (A) (A) (A) (A) (A) (A)
                 (A) (A) (A) (A) (A) (A) (A) (A) (A) (A) (A) (A)
                 (A) (A) (A) (A) (A) (A) (A) (A) (A) (A) (A) (A)
                 (A) (A) (A) (A) (A) (A) (A) (A) (A) (A) (A) (A)
                 (A) (A) (A) (A) (A) (A) (A) (A) (A) (A) (A) (A)
                 (A) (A) (A) (A) (A) (A) (A) (A) (A) (A) (A)
 The electronic state is 1-A.
 Alpha  occ. eigenvalues -- -102.65666 -14.79556 -14.79516 -10.65378 -10.59653
 Alpha  occ. eigenvalues --  -10.59025 -10.58503 -10.57209 -10.57140 -10.57077
 Alpha  occ. eigenvalues --  -10.57026  -9.81929  -7.54122  -7.53617  -7.53588
 Alpha  occ. eigenvalues --   -1.13894  -1.00017  -0.98871  -0.91491  -0.88902
 Alpha  occ. eigenvalues --   -0.87444  -0.75914  -0.74929  -0.70533  -0.63764
 Alpha  occ. eigenvalues --   -0.61343  -0.59088  -0.54072  -0.53698  -0.53148
 Alpha  occ. eigenvalues --   -0.51487  -0.51080  -0.45568  -0.45480  -0.43391
 Alpha  occ. eigenvalues --   -0.43311  -0.39931  -0.38241  -0.36316  -0.34261
 Alpha  occ. eigenvalues --   -0.32818  -0.30981
 Alpha virt. eigenvalues --   -0.04620  -0.03096   0.03222   0.06559   0.08156
 Alpha virt. eigenvalues --    0.09592   0.09898   0.11056   0.12186   0.13424
 Alpha virt. eigenvalues --    0.14830   0.17202   0.18061   0.18788   0.19220
 Alpha virt. eigenvalues --    0.21486   0.22544   0.23769   0.24476   0.26035
 Alpha virt. eigenvalues --    0.26273   0.27051   0.27089   0.27886   0.29855
 Alpha virt. eigenvalues --    0.30278   0.31467   0.32220   0.32612   0.32758
 Alpha virt. eigenvalues --    0.34384   0.34649   0.36218   0.37417   0.38307
 Alpha virt. eigenvalues --    0.39067   0.39458   0.40426   0.41722   0.42155
 Alpha virt. eigenvalues --    0.43616   0.44558   0.45278   0.45434   0.46727
 Alpha virt. eigenvalues --    0.46785   0.47727   0.47945   0.49079   0.49963
 Alpha virt. eigenvalues --    0.50792   0.51384   0.53955   0.54899   0.55859
 Alpha virt. eigenvalues --    0.56485   0.58565   0.59326   0.59675   0.61045
 Alpha virt. eigenvalues --    0.64012   0.64643   0.65384   0.67035   0.67438
 Alpha virt. eigenvalues --    0.69648   0.71492   0.71734   0.72352   0.72916
 Alpha virt. eigenvalues --    0.74791   0.76172   0.76458   0.76777   0.78046
 Alpha virt. eigenvalues --    0.78775   0.80693   0.82410   0.85394   0.85767
 Alpha virt. eigenvalues --    0.86989   0.89753   0.91414   0.91477   0.92820
 Alpha virt. eigenvalues --    0.94629   0.96263   1.00118   1.01392   1.01719
 Alpha virt. eigenvalues --    1.04248   1.04809   1.08242   1.09635   1.13679
 Alpha virt. eigenvalues --    1.14833   1.17135   1.20702   1.22573   1.23262
 Alpha virt. eigenvalues --    1.24892   1.25609   1.26491   1.26736   1.29710
 Alpha virt. eigenvalues --    1.30774   1.32903   1.33616   1.36310   1.40331
 Alpha virt. eigenvalues --    1.40676   1.40723   1.43344   1.44868   1.46759
 Alpha virt. eigenvalues --    1.47159   1.50195   1.50852   1.52832   1.54006
 Alpha virt. eigenvalues --    1.55677   1.57603   1.57633   1.59056   1.60180
 Alpha virt. eigenvalues --    1.62298   1.64608   1.66849   1.66949   1.69606
 Alpha virt. eigenvalues --    1.71426   1.72174   1.72907   1.75743   1.76445
 Alpha virt. eigenvalues --    1.80420   1.81934   1.82842   1.84386   1.86133
 Alpha virt. eigenvalues --    1.87132   1.87177   1.89118   1.89909   1.92249
 Alpha virt. eigenvalues --    1.94673   1.97499   1.98297   1.99828   2.00901
 Alpha virt. eigenvalues --    2.02031   2.04195   2.05101   2.07125   2.08558
 Alpha virt. eigenvalues --    2.11850   2.11876   2.12415   2.14654   2.16228
 Alpha virt. eigenvalues --    2.17735   2.18984   2.21056   2.22542   2.23131
 Alpha virt. eigenvalues --    2.24241   2.27348   2.28014   2.29199   2.30804
 Alpha virt. eigenvalues --    2.31134   2.32865   2.36180   2.36595   2.38647
 Alpha virt. eigenvalues --    2.42965   2.43534   2.46359   2.49211   2.51964
 Alpha virt. eigenvalues --    2.53044   2.54096   2.59210   2.59338   2.62494
 Alpha virt. eigenvalues --    2.63078   2.65035   2.66061   2.67077   2.69429
 Alpha virt. eigenvalues --    2.70847   2.71943   2.74852   2.76477   2.77482
 Alpha virt. eigenvalues --    2.78195   2.79386   2.81275   2.82220   2.84490
 Alpha virt. eigenvalues --    2.84892   2.85518   2.88434   2.89110   2.91255
 Alpha virt. eigenvalues --    2.94251   2.94704   2.95711   2.96837   2.98884
 Alpha virt. eigenvalues --    2.99383   3.00201   3.03557   3.05883   3.06483
 Alpha virt. eigenvalues --    3.11418   3.11567   3.12333   3.13171   3.15258
 Alpha virt. eigenvalues --    3.16315   3.18083   3.18189   3.18726   3.21064
 Alpha virt. eigenvalues --    3.22076   3.22750   3.26248   3.26431   3.27340
 Alpha virt. eigenvalues --    3.29123   3.30469   3.30473   3.31704   3.32344
 Alpha virt. eigenvalues --    3.35452   3.37865   3.39867   3.40437   3.42195
 Alpha virt. eigenvalues --    3.42525   3.44908   3.45508   3.51622   3.51751
 Alpha virt. eigenvalues --    3.52607   3.55212   3.56685   3.57438   3.61325
 Alpha virt. eigenvalues --    3.64118   3.64474   3.65434   3.67092   3.67422
 Alpha virt. eigenvalues --    3.72273   3.75140   3.76653   3.84147   3.84300
 Alpha virt. eigenvalues --    3.87154   3.88813   3.90316   3.92503   3.97344
 Alpha virt. eigenvalues --    3.98565   3.98630   4.00035   4.03970   4.05538
 Alpha virt. eigenvalues --    4.11513   4.13491   4.14182   4.15505   4.15643
 Alpha virt. eigenvalues --    4.17144   4.21130   4.23096   4.26063   4.29376
 Alpha virt. eigenvalues --    4.32219   4.33336   4.40966   4.43728   4.44250
 Alpha virt. eigenvalues --    4.48351   4.52016   4.54744   4.56982   4.64271
 Alpha virt. eigenvalues --    4.64978   4.68684   4.69961   4.75628   4.80085
 Alpha virt. eigenvalues --    4.82975   4.87081   4.88847   4.90069   4.93347
 Alpha virt. eigenvalues --    4.96466   5.00916   5.04565   5.04709   5.06440
 Alpha virt. eigenvalues --    5.16640   5.21381   5.27465   5.28617   5.30964
 Alpha virt. eigenvalues --    5.34715   5.41800   5.44438   5.55664   5.58165
 Alpha virt. eigenvalues --    5.59275   5.62527   5.75949   5.90533   6.30698
 Alpha virt. eigenvalues --    6.93804  10.80651  10.89496  11.39015  22.28743
 Alpha virt. eigenvalues --   22.68894  22.70848  22.76058  22.95081  22.96513
 Alpha virt. eigenvalues --   23.12056  23.58214  25.87211  32.27217  32.51588
          Condensed to atoms (all electrons):
               1          2          3          4          5          6
     1  Cl  16.842010   0.380896  -0.083812   0.008804  -0.004405   0.012484
     2  C    0.380896   4.863475   0.592247  -0.033516  -0.083498  -0.097769
     3  N   -0.083812   0.592247   6.592424   0.144785  -0.073809  -0.057666
     4  N    0.008804  -0.033516   0.144785   6.600595   0.533936  -0.003993
     5  C   -0.004405  -0.083498  -0.073809   0.533936   4.960348   0.417080
     6  C    0.012484  -0.097769  -0.057666  -0.003993   0.417080   5.104512
     7  C   -0.000693   0.012965   0.000687   0.016721  -0.082654   0.463289
     8  C    0.000375  -0.002241   0.000167  -0.002092   0.006139  -0.049757
     9  C   -0.000103  -0.003523  -0.000841   0.000814  -0.001203  -0.022444
    10  C    0.014657  -0.092421   0.015611  -0.005907   0.023669  -0.098268
    11  C   -0.121548   0.363757  -0.016790  -0.092391  -0.015891   0.308883
    12  H    0.000031   0.000116   0.005693  -0.026637   0.425175  -0.066458
    13  H    0.000008   0.000156   0.000143  -0.000042  -0.003312  -0.037082
    14  H    0.000000   0.000049  -0.000002   0.000006  -0.000123   0.004647
    15  H   -0.000071   0.000117   0.000002   0.000005  -0.000003   0.000017
    16  H    0.016413  -0.013620   0.000184  -0.000048   0.000346   0.010755
               7          8          9         10         11         12
     1  Cl  -0.000693   0.000375  -0.000103   0.014657  -0.121548   0.000031
     2  C    0.012965  -0.002241  -0.003523  -0.092421   0.363757   0.000116
     3  N    0.000687   0.000167  -0.000841   0.015611  -0.016790   0.005693
     4  N    0.016721  -0.002092   0.000814  -0.005907  -0.092391  -0.026637
     5  C   -0.082654   0.006139  -0.001203   0.023669  -0.015891   0.425175
     6  C    0.463289  -0.049757  -0.022444  -0.098268   0.308883  -0.066458
     7  C    5.131486   0.484869  -0.021952  -0.093267  -0.105721  -0.000970
     8  C    0.484869   4.929015   0.462005  -0.014119  -0.028017  -0.000469
     9  C   -0.021952   0.462005   4.905839   0.513207  -0.063886   0.000125
    10  C   -0.093267  -0.014119   0.513207   5.149678   0.422599  -0.000293
    11  C   -0.105721  -0.028017  -0.063886   0.422599   5.337903   0.012938
    12  H   -0.000970  -0.000469   0.000125  -0.000293   0.012938   0.484168
    13  H    0.408038  -0.030428   0.003769  -0.001319   0.012932   0.003945
    14  H   -0.032431   0.415135  -0.034401   0.005118  -0.000466  -0.000017
    15  H    0.004616  -0.033541   0.413024  -0.030984   0.004969  -0.000001
    16  H    0.000042   0.001609  -0.012545   0.394126  -0.028106   0.000003
              13         14         15         16
     1  Cl   0.000008   0.000000  -0.000071   0.016413
     2  C    0.000156   0.000049   0.000117  -0.013620
     3  N    0.000143  -0.000002   0.000002   0.000184
     4  N   -0.000042   0.000006   0.000005  -0.000048
     5  C   -0.003312  -0.000123  -0.000003   0.000346
     6  C   -0.037082   0.004647   0.000017   0.010755
     7  C    0.408038  -0.032431   0.004616   0.000042
     8  C   -0.030428   0.415135  -0.033541   0.001609
     9  C    0.003769  -0.034401   0.413024  -0.012545
    10  C   -0.001319   0.005118  -0.030984   0.394126
    11  C    0.012932  -0.000466   0.004969  -0.028106
    12  H    0.003945  -0.000017  -0.000001   0.000003
    13  H    0.476041  -0.003518  -0.000185   0.000030
    14  H   -0.003518   0.475306  -0.003074  -0.000171
    15  H   -0.000185  -0.003074   0.473191  -0.002822
    16  H    0.000030  -0.000171  -0.002822   0.458828
 Mulliken charges:
               1
     1  Cl  -0.065047
     2  C    0.112810
     3  N   -0.119025
     4  N   -0.141038
     5  C   -0.101797
     6  C    0.111771
     7  C   -0.185024
     8  C   -0.138650
     9  C   -0.137885
    10  C   -0.202086
    11  C    0.008835
    12  H    0.162651
    13  H    0.170825
    14  H    0.173941
    15  H    0.174741
    16  H    0.174977
 Sum of Mulliken charges =  -0.00000
 Mulliken charges with hydrogens summed into heavy atoms:
               1
     1  Cl  -0.065047
     2  C    0.112810
     3  N   -0.119025
     4  N   -0.141038
     5  C    0.060855
     6  C    0.111771
     7  C   -0.014198
     8  C    0.035290
     9  C    0.036856
    10  C   -0.027109
    11  C    0.008835
 Electronic spatial extent (au):  <R**2>=           1803.9280
 Charge=             -0.0000 electrons
 Dipole moment (field-independent basis, Debye):
    X=             -6.3615    Y=             -2.5162    Z=              0.0004  Tot=              6.8410
 Quadrupole moment (field-independent basis, Debye-Ang):
   XX=            -67.1219   YY=            -67.9013   ZZ=            -72.2005
   XY=             -6.3698   XZ=              0.0001   YZ=              0.0002
 Traceless Quadrupole moment (field-independent basis, Debye-Ang):
   XX=              1.9526   YY=              1.1733   ZZ=             -3.1259
   XY=             -6.3698   XZ=              0.0001   YZ=              0.0002
 Octapole moment (field-independent basis, Debye-Ang**2):
  XXX=            -42.4981  YYY=            -28.3749  ZZZ=             -0.0012  XYY=            -26.8283
  XXY=            -16.0854  XXZ=              0.0036  XZZ=              9.4659  YZZ=              0.3009
  YYZ=              0.0026  XYZ=              0.0018
 Hexadecapole moment (field-independent basis, Debye-Ang**3):
 XXXX=          -1355.4983 YYYY=           -883.0194 ZZZZ=            -79.5562 XXXY=            -29.0975
 XXXZ=              0.0255 YYYX=            -61.5002 YYYZ=              0.0173 ZZZX=              0.0327
 ZZZY=              0.0172 XXYY=           -371.0545 XXZZ=           -273.3093 YYZZ=           -171.7512
 XXYZ=              0.0046 YYXZ=              0.0106 ZZXY=             -6.3801
 N-N= 6.258752949078D+02 E-N=-3.315587511330D+03  KE= 8.748659445234D+02
 Calculating spin-rotation constants.
 Leave Link  601 at Tue Sep 17 10:32:06 2024, MaxMem=  1342177280 cpu:               2.9 elap:               2.9
 (Enter /groups/ReismanLab/Software/Gaussian16_RevC/Linux_Binary_AVX2-enabled-CPU/g16/l9999.exe)
 Unable to Open any file for archive entry.
 1\1\GINC-HPC-20-23\SP\RM062X\def2TZVP\C8H5Cl1N2\MANTIND\17-Sep-2024\0\
 \#p M062X/def2tzvp geom=check guess=read scf(xqc,tight) integral(grid=
 ultrafine) scrf(SMD, solvent=1,4-Dioxane) nmr=giao\\spe\\0,1\Cl,0,2.37
 79196024,1.2147608326,0.0000264787\C,0,1.1824121002,-0.0755575944,0.00
 00738672\N,0,1.6660175265,-1.2846912122,0.0001355315\N,0,0.8115052005,
 -2.3530653,0.0001137087\C,0,-0.4817460132,-2.1336014208,0.0000374734\C
 ,0,-1.0826962477,-0.8445869989,-0.0000326138\C,0,-2.4805075783,-0.6348
 096206,-0.000098836\C,0,-2.9794744284,0.6497341106,-0.0001594987\C,0,-
 2.1018906622,1.7582588197,-0.0001618128\C,0,-0.7342857877,1.5793214809
 ,-0.0000987004\C,0,-0.2037435344,0.2702589363,-0.0000239417\H,0,-1.107
 6274431,-3.023720723,0.0000226493\H,0,-3.1451231878,-1.4932046977,-0.0
 001042895\H,0,-4.0516791017,0.81706046,-0.000205451\H,0,-2.5124254408,
 2.7627752274,-0.0002137657\H,0,-0.0605604772,2.4271697805,-0.000099558
 9\\Version=ES64L-G16RevC.02\State=1-A\HF=-877.5212088\RMSD=1.496e-09\D
 ipole=-2.4849331,1.0339692,-0.000154\Quadrupole=1.6186514,0.7054125,-2
 .3240638,4.722595,-0.0000461,0.0001748\PG=C01 [X(C8H5Cl1N2)]\\@
 The archive entry for this job was punched.


 TO DETECT ERRORS, THE PROGRAMMER MUST HAVE A CONNIVING MIND,
 ONE THAT DELIGHTS IN UNCOVERING FLAWS WHERE BEAUTY AND
 PERFECTION WERE ONCE THOUGHT TO LIE.

             -- THE PSYCHOLOGY OF COMPUTER PROGRAMMING
                GERALD M. WEINBERG
 Job cpu time:       0 days  0 hours 11 minutes 14.3 seconds.
 Elapsed time:       0 days  0 hours 11 minutes 17.6 seconds.
 File lengths (MBytes):  RWF=    240 Int=      0 D2E=      0 Chk=     24 Scr=     16
 Normal termination of Gaussian 16 at Tue Sep 17 10:32:06 2024.
