 Entering Gaussian System, Link 0=g16
 Input=smiles_00047_conf_5.gjf
 Output=smiles_00047_conf_5.log
 Initial command:
 /groups/ReismanLab/Software/Gaussian16_RevC/Linux_Binary_AVX2-enabled-CPU/g16/l1.exe "/central/groups/ReismanLab/DM/dft_final/smiles_00047/Gau-3299623.inp" -scrdir="/central/groups/ReismanLab/DM/dft_final/smiles_00047/"
 Entering Link 1 = /groups/ReismanLab/Software/Gaussian16_RevC/Linux_Binary_AVX2-enabled-CPU/g16/l1.exe PID=   3299624.
  
 Copyright (c) 1988-2021, Gaussian, Inc.  All Rights Reserved.
  
 This is part of the Gaussian(R) 16 program.  It is based on
 the Gaussian(R) 09 system (copyright 2009, Gaussian, Inc.),
 the Gaussian(R) 03 system (copyright 2003, Gaussian, Inc.),
 the Gaussian(R) 98 system (copyright 1998, Gaussian, Inc.),
 the Gaussian(R) 94 system (copyright 1995, Gaussian, Inc.),
 the Gaussian 92(TM) system (copyright 1992, Gaussian, Inc.),
 the Gaussian 90(TM) system (copyright 1990, Gaussian, Inc.),
 the Gaussian 88(TM) system (copyright 1988, Gaussian, Inc.),
 the Gaussian 86(TM) system (copyright 1986, Carnegie Mellon
 University), and the Gaussian 82(TM) system (copyright 1983,
 Carnegie Mellon University). Gaussian is a federally registered
 trademark of Gaussian, Inc.
  
 This software contains proprietary and confidential information,
 including trade secrets, belonging to Gaussian, Inc.
  
 This software is provided under written license and may be
 used, copied, transmitted, or stored only in accord with that
 written license.
  
 The following legend is applicable only to US Government
 contracts under FAR:
  
                    RESTRICTED RIGHTS LEGEND
  
 Use, reproduction and disclosure by the US Government is
 subject to restrictions as set forth in subparagraphs (a)
 and (c) of the Commercial Computer Software - Restricted
 Rights clause in FAR 52.227-19.
  
 Gaussian, Inc.
 340 Quinnipiac St., Bldg. 40, Wallingford CT 06492
  
  
 ---------------------------------------------------------------
 Warning -- This program may not be used in any manner that
 competes with the business of Gaussian, Inc. or will provide
 assistance to any competitor of Gaussian, Inc.  The licensee
 of this program is prohibited from giving any competitor of
 Gaussian, Inc. access to this program.  By using this program,
 the user acknowledges that Gaussian, Inc. is engaged in the
 business of creating and licensing software in the field of
 computational chemistry and represents and warrants to the
 licensee that it is not a competitor of Gaussian, Inc. and that
 it will not use this program in any manner prohibited above.
 ---------------------------------------------------------------
  

 Cite this work as:
 Gaussian 16, Revision C.02,
 M. J. Frisch, G. W. Trucks, H. B. Schlegel, G. E. Scuseria, 
 M. A. Robb, J. R. Cheeseman, G. Scalmani, V. Barone, 
 G. A. Petersson, H. Nakatsuji, X. Li, M. Caricato, A. V. Marenich, 
 J. Bloino, B. G. Janesko, R. Gomperts, B. Mennucci, H. P. Hratchian, 
 J. V. Ortiz, A. F. Izmaylov, J. L. Sonnenberg, D. Williams-Young, 
 F. Ding, F. Lipparini, F. Egidi, J. Goings, B. Peng, A. Petrone, 
 T. Henderson, D. Ranasinghe, V. G. Zakrzewski, J. Gao, N. Rega, 
 G. Zheng, W. Liang, M. Hada, M. Ehara, K. Toyota, R. Fukuda, 
 J. Hasegawa, M. Ishida, T. Nakajima, Y. Honda, O. Kitao, H. Nakai, 
 T. Vreven, K. Throssell, J. A. Montgomery, Jr., J. E. Peralta, 
 F. Ogliaro, M. J. Bearpark, J. J. Heyd, E. N. Brothers, K. N. Kudin, 
 V. N. Staroverov, T. A. Keith, R. Kobayashi, J. Normand, 
 K. Raghavachari, A. P. Rendell, J. C. Burant, S. S. Iyengar, 
 J. Tomasi, M. Cossi, J. M. Millam, M. Klene, C. Adamo, R. Cammi, 
 J. W. Ochterski, R. L. Martin, K. Morokuma, O. Farkas, 
 J. B. Foresman, and D. J. Fox, Gaussian, Inc., Wallingford CT, 2019.
 
 ******************************************
 Gaussian 16:  ES64L-G16RevC.02  7-Dec-2021
                17-Sep-2024 
 ******************************************
 %nprocshared=8
 Will use up to    8 processors via shared memory.
 %Mem=10GB
 %Chk=smiles_00047_conf_5.chk
 ----------------------------------------------------------------------
 #p B3LYP/6-31G(d,p) EmpiricalDispersion=GD3BJ opt freq scf(xqc,tight) 
 integral(grid=ultrafine)
 ----------------------------------------------------------------------
 1/18=20,19=15,26=4,38=1/1,3;
 2/9=110,12=2,17=6,18=5,40=1/2;
 3/5=1,6=6,7=101,11=2,25=1,30=1,71=1,74=-5,75=-5,124=41/1,2,3;
 4//1;
 5/5=2,8=3,13=1,32=2,38=5/2,8;
 6/7=2,8=2,9=2,10=2,28=1/1;
 7//1,2,3,16;
 1/18=20,19=15,26=4/3(2);
 2/9=110/2;
 99//99;
 2/9=110/2;
 3/5=1,6=6,7=101,11=2,25=1,30=1,71=1,74=-5,75=-5,124=41/1,2,3;
 4/5=5,16=3,69=1/1;
 5/5=2,8=3,13=1,32=2,38=5/2,8;
 7//1,2,3,16;
 1/18=20,19=15,26=4/3(-5);
 2/9=110/2;
 6/7=2,8=2,9=2,10=2,19=2,28=1/1;
 99/9=1/99;
 Leave Link    1 at Tue Sep 17 09:41:32 2024, MaxMem=  1342177280 cpu:               0.1 elap:               0.5
 (Enter /groups/ReismanLab/Software/Gaussian16_RevC/Linux_Binary_AVX2-enabled-CPU/g16/l101.exe)
 ----------------------------------
 opt-freq conformers_unique/conf_af
 ----------------------------------
 Symbolic Z-matrix:
 Charge =  0 Multiplicity = 1
 C                     3.92862  -1.74594   0.08617 
 O                     3.04732  -0.63443   0.19407 
 C                     3.57517   0.55862   0.4696 
 O                     4.74658   0.76763   0.63467 
 C                     2.50576   1.63893   0.55093 
 C                     1.1235    1.11072   0.31428 
 C                     0.36051   0.63061   1.37196 
 C                    -0.90351   0.11275   1.15799 
 C                    -1.4057    0.07589  -0.13096 
 Br                   -3.14687  -0.63653  -0.43744 
 C                    -0.66654   0.54852  -1.20113 
 C                     0.59601   1.06294  -0.9706 
 H                     4.95722  -1.4245    0.25895 
 H                     3.82739  -2.16536  -0.91466 
 H                     3.63476  -2.487     0.82935 
 H                     2.59094   2.09451   1.54008 
 H                     2.76914   2.40079  -0.18624 
 H                     0.75705   0.65973   2.37613 
 H                    -1.49282  -0.25865   1.98227 
 H                    -1.07242   0.5137   -2.20047 
 H                     1.17732   1.43091  -1.80325 
 
 ITRead=  0  0  0  0  0  0  0  0  0  0  0  0  0  0  0  0  0  0  0  0
 ITRead=  0
 MicOpt= -1 -1 -1 -1 -1 -1 -1 -1 -1 -1 -1 -1 -1 -1 -1 -1 -1 -1 -1 -1
 MicOpt= -1
 NAtoms=     21 NQM=       21 NQMF=       0 NMMI=      0 NMMIF=      0
                NMic=       0 NMicF=      0.
                    Isotopes and Nuclear Properties:
 (Nuclear quadrupole moments (NQMom) in fm**2, nuclear magnetic moments (NMagM)
  in nuclear magnetons)

  Atom         1           2           3           4           5           6           7           8           9          10
 IAtWgt=          12          16          12          16          12          12          12          12          12          79
 AtmWgt=  12.0000000  15.9949146  12.0000000  15.9949146  12.0000000  12.0000000  12.0000000  12.0000000  12.0000000  78.9183361
 NucSpn=           0           0           0           0           0           0           0           0           0           3
 AtZEff=  -0.0000000  -0.0000000  -0.0000000  -0.0000000  -0.0000000  -0.0000000  -0.0000000  -0.0000000  -0.0000000  -0.0000000
 NQMom=    0.0000000   0.0000000   0.0000000   0.0000000   0.0000000   0.0000000   0.0000000   0.0000000   0.0000000  31.3000000
 NMagM=    0.0000000   0.0000000   0.0000000   0.0000000   0.0000000   0.0000000   0.0000000   0.0000000   0.0000000   2.1063990
 AtZNuc=   6.0000000   8.0000000   6.0000000   8.0000000   6.0000000   6.0000000   6.0000000   6.0000000   6.0000000  35.0000000

  Atom        11          12          13          14          15          16          17          18          19          20
 IAtWgt=          12          12           1           1           1           1           1           1           1           1
 AtmWgt=  12.0000000  12.0000000   1.0078250   1.0078250   1.0078250   1.0078250   1.0078250   1.0078250   1.0078250   1.0078250
 NucSpn=           0           0           1           1           1           1           1           1           1           1
 AtZEff=  -0.0000000  -0.0000000  -0.0000000  -0.0000000  -0.0000000  -0.0000000  -0.0000000  -0.0000000  -0.0000000  -0.0000000
 NQMom=    0.0000000   0.0000000   0.0000000   0.0000000   0.0000000   0.0000000   0.0000000   0.0000000   0.0000000   0.0000000
 NMagM=    0.0000000   0.0000000   2.7928460   2.7928460   2.7928460   2.7928460   2.7928460   2.7928460   2.7928460   2.7928460
 AtZNuc=   6.0000000   6.0000000   1.0000000   1.0000000   1.0000000   1.0000000   1.0000000   1.0000000   1.0000000   1.0000000

  Atom        21
 IAtWgt=           1
 AtmWgt=   1.0078250
 NucSpn=           1
 AtZEff=  -0.0000000
 NQMom=    0.0000000
 NMagM=    2.7928460
 AtZNuc=   1.0000000
 Leave Link  101 at Tue Sep 17 09:41:33 2024, MaxMem=  1342177280 cpu:               0.2 elap:               0.2
 (Enter /groups/ReismanLab/Software/Gaussian16_RevC/Linux_Binary_AVX2-enabled-CPU/g16/l103.exe)

 GradGradGradGradGradGradGradGradGradGradGradGradGradGradGradGradGradGrad
 Berny optimization.
 Initialization pass.
                           ----------------------------
                           !    Initial Parameters    !
                           ! (Angstroms and Degrees)  !
 --------------------------                            --------------------------
 ! Name  Definition              Value          Derivative Info.                !
 --------------------------------------------------------------------------------
 ! R1    R(1,2)                  1.4226         estimate D2E/DX2                !
 ! R2    R(1,13)                 1.0914         estimate D2E/DX2                !
 ! R3    R(1,14)                 1.0899         estimate D2E/DX2                !
 ! R4    R(1,15)                 1.0899         estimate D2E/DX2                !
 ! R5    R(2,3)                  1.3334         estimate D2E/DX2                !
 ! R6    R(3,4)                  1.2013         estimate D2E/DX2                !
 ! R7    R(3,5)                  1.5223         estimate D2E/DX2                !
 ! R8    R(5,6)                  1.4985         estimate D2E/DX2                !
 ! R9    R(5,16)                 1.0924         estimate D2E/DX2                !
 ! R10   R(5,17)                 1.0923         estimate D2E/DX2                !
 ! R11   R(6,7)                  1.3897         estimate D2E/DX2                !
 ! R12   R(6,12)                 1.3898         estimate D2E/DX2                !
 ! R13   R(7,8)                  1.3826         estimate D2E/DX2                !
 ! R14   R(7,18)                 1.08           estimate D2E/DX2                !
 ! R15   R(8,9)                  1.3838         estimate D2E/DX2                !
 ! R16   R(8,19)                 1.0792         estimate D2E/DX2                !
 ! R17   R(9,10)                 1.9061         estimate D2E/DX2                !
 ! R18   R(9,11)                 1.3838         estimate D2E/DX2                !
 ! R19   R(11,12)                1.3827         estimate D2E/DX2                !
 ! R20   R(11,20)                1.0792         estimate D2E/DX2                !
 ! R21   R(12,21)                1.0801         estimate D2E/DX2                !
 ! A1    A(2,1,13)             109.9821         estimate D2E/DX2                !
 ! A2    A(2,1,14)             108.2271         estimate D2E/DX2                !
 ! A3    A(2,1,15)             108.21           estimate D2E/DX2                !
 ! A4    A(13,1,14)            110.2582         estimate D2E/DX2                !
 ! A5    A(13,1,15)            110.2688         estimate D2E/DX2                !
 ! A6    A(14,1,15)            109.8443         estimate D2E/DX2                !
 ! A7    A(1,2,3)              118.0028         estimate D2E/DX2                !
 ! A8    A(2,3,4)              124.7567         estimate D2E/DX2                !
 ! A9    A(2,3,5)              111.5869         estimate D2E/DX2                !
 ! A10   A(4,3,5)              123.6564         estimate D2E/DX2                !
 ! A11   A(3,5,6)              112.9178         estimate D2E/DX2                !
 ! A12   A(3,5,16)             106.8324         estimate D2E/DX2                !
 ! A13   A(3,5,17)             106.829          estimate D2E/DX2                !
 ! A14   A(6,5,16)             111.2196         estimate D2E/DX2                !
 ! A15   A(6,5,17)             111.2025         estimate D2E/DX2                !
 ! A16   A(16,5,17)            107.5424         estimate D2E/DX2                !
 ! A17   A(5,6,7)              120.5303         estimate D2E/DX2                !
 ! A18   A(5,6,12)             120.5457         estimate D2E/DX2                !
 ! A19   A(7,6,12)             118.9059         estimate D2E/DX2                !
 ! A20   A(6,7,8)              120.8991         estimate D2E/DX2                !
 ! A21   A(6,7,18)             119.7841         estimate D2E/DX2                !
 ! A22   A(8,7,18)             119.3168         estimate D2E/DX2                !
 ! A23   A(7,8,9)              119.0709         estimate D2E/DX2                !
 ! A24   A(7,8,19)             120.6577         estimate D2E/DX2                !
 ! A25   A(9,8,19)             120.2714         estimate D2E/DX2                !
 ! A26   A(8,9,10)             119.4215         estimate D2E/DX2                !
 ! A27   A(8,9,11)             121.157          estimate D2E/DX2                !
 ! A28   A(10,9,11)            119.4214         estimate D2E/DX2                !
 ! A29   A(9,11,12)            119.0687         estimate D2E/DX2                !
 ! A30   A(9,11,20)            120.2795         estimate D2E/DX2                !
 ! A31   A(12,11,20)           120.6518         estimate D2E/DX2                !
 ! A32   A(6,12,11)            120.8984         estimate D2E/DX2                !
 ! A33   A(6,12,21)            119.784          estimate D2E/DX2                !
 ! A34   A(11,12,21)           119.3175         estimate D2E/DX2                !
 ! D1    D(13,1,2,3)             0.1358         estimate D2E/DX2                !
 ! D2    D(14,1,2,3)          -120.3707         estimate D2E/DX2                !
 ! D3    D(15,1,2,3)           120.6446         estimate D2E/DX2                !
 ! D4    D(1,2,3,4)              0.0066         estimate D2E/DX2                !
 ! D5    D(1,2,3,5)            179.9815         estimate D2E/DX2                !
 ! D6    D(2,3,5,6)              0.412          estimate D2E/DX2                !
 ! D7    D(2,3,5,16)           122.9908         estimate D2E/DX2                !
 ! D8    D(2,3,5,17)          -122.143          estimate D2E/DX2                !
 ! D9    D(4,3,5,6)           -179.6128         estimate D2E/DX2                !
 ! D10   D(4,3,5,16)           -57.034          estimate D2E/DX2                !
 ! D11   D(4,3,5,17)            57.8322         estimate D2E/DX2                !
 ! D12   D(3,5,6,7)             88.799          estimate D2E/DX2                !
 ! D13   D(3,5,6,12)           -89.6342         estimate D2E/DX2                !
 ! D14   D(16,5,6,7)           -31.2942         estimate D2E/DX2                !
 ! D15   D(16,5,6,12)          150.2725         estimate D2E/DX2                !
 ! D16   D(17,5,6,7)          -151.1243         estimate D2E/DX2                !
 ! D17   D(17,5,6,12)           30.4424         estimate D2E/DX2                !
 ! D18   D(5,6,7,8)           -178.4767         estimate D2E/DX2                !
 ! D19   D(5,6,7,18)             1.4631         estimate D2E/DX2                !
 ! D20   D(12,6,7,8)            -0.0181         estimate D2E/DX2                !
 ! D21   D(12,6,7,18)          179.9218         estimate D2E/DX2                !
 ! D22   D(5,6,12,11)          178.4974         estimate D2E/DX2                !
 ! D23   D(5,6,12,21)           -1.4534         estimate D2E/DX2                !
 ! D24   D(7,6,12,11)            0.039          estimate D2E/DX2                !
 ! D25   D(7,6,12,21)         -179.9118         estimate D2E/DX2                !
 ! D26   D(6,7,8,9)              0.0451         estimate D2E/DX2                !
 ! D27   D(6,7,8,19)          -179.9744         estimate D2E/DX2                !
 ! D28   D(18,7,8,9)          -179.895          estimate D2E/DX2                !
 ! D29   D(18,7,8,19)            0.0855         estimate D2E/DX2                !
 ! D30   D(7,8,9,10)           179.977          estimate D2E/DX2                !
 ! D31   D(7,8,9,11)            -0.0941         estimate D2E/DX2                !
 ! D32   D(19,8,9,10)           -0.0036         estimate D2E/DX2                !
 ! D33   D(19,8,9,11)          179.9253         estimate D2E/DX2                !
 ! D34   D(8,9,11,12)            0.1145         estimate D2E/DX2                !
 ! D35   D(8,9,11,20)         -179.9469         estimate D2E/DX2                !
 ! D36   D(10,9,11,12)        -179.9567         estimate D2E/DX2                !
 ! D37   D(10,9,11,20)          -0.018          estimate D2E/DX2                !
 ! D38   D(9,11,12,6)           -0.0863         estimate D2E/DX2                !
 ! D39   D(9,11,12,21)         179.8647         estimate D2E/DX2                !
 ! D40   D(20,11,12,6)         179.9753         estimate D2E/DX2                !
 ! D41   D(20,11,12,21)         -0.0737         estimate D2E/DX2                !
 --------------------------------------------------------------------------------
 Trust Radius=3.00D-01 FncErr=1.00D-07 GrdErr=1.00D-06 EigMax=2.50D+02 EigMin=1.00D-04
 Number of steps in this run=    106 maximum allowed number of steps=    126.
 GradGradGradGradGradGradGradGradGradGradGradGradGradGradGradGradGradGrad

 Leave Link  103 at Tue Sep 17 09:41:33 2024, MaxMem=  1342177280 cpu:               0.0 elap:               0.1
 (Enter /groups/ReismanLab/Software/Gaussian16_RevC/Linux_Binary_AVX2-enabled-CPU/g16/l202.exe)
                          Input orientation:                          
 ---------------------------------------------------------------------
 Center     Atomic      Atomic             Coordinates (Angstroms)
 Number     Number       Type             X           Y           Z
 ---------------------------------------------------------------------
      1          6           0        3.928624   -1.745940    0.086171
      2          8           0        3.047315   -0.634434    0.194068
      3          6           0        3.575169    0.558618    0.469597
      4          8           0        4.746583    0.767630    0.634674
      5          6           0        2.505756    1.638927    0.550933
      6          6           0        1.123502    1.110718    0.314278
      7          6           0        0.360512    0.630613    1.371962
      8          6           0       -0.903510    0.112754    1.157989
      9          6           0       -1.405700    0.075893   -0.130958
     10         35           0       -3.146874   -0.636535   -0.437444
     11          6           0       -0.666545    0.548524   -1.201129
     12          6           0        0.596010    1.062936   -0.970596
     13          1           0        4.957218   -1.424496    0.258947
     14          1           0        3.827392   -2.165361   -0.914661
     15          1           0        3.634758   -2.487003    0.829348
     16          1           0        2.590944    2.094506    1.540084
     17          1           0        2.769135    2.400786   -0.186242
     18          1           0        0.757046    0.659730    2.376131
     19          1           0       -1.492821   -0.258647    1.982275
     20          1           0       -1.072421    0.513704   -2.200472
     21          1           0        1.177316    1.430914   -1.803252
 ---------------------------------------------------------------------
                    Distance matrix (angstroms):
                    1          2          3          4          5
     1  C    0.000000
     2  O    1.422601   0.000000
     3  C    2.362823   1.333386   0.000000
     4  O    2.699620   2.246648   1.201311   0.000000
     5  C    3.701065   2.364066   1.522276   2.405717   0.000000
     6  C    4.010142   2.600204   2.517858   3.653365   1.498545
     7  C    4.475789   3.194790   3.339680   4.449717   2.508557
     8  C    5.287065   4.134786   4.553157   5.711941   3.784285
     9  C    5.641032   4.521012   5.040114   6.238211   4.267030
    10  Br   7.181061   6.226299   6.887450   8.088744   6.173074
    11  C    5.295025   4.139894   4.558899   5.720151   3.784467
    12  C    4.484736   3.201001   3.347219   4.459972   2.508773
    13  H    1.091413   2.067882   2.426350   2.234045   3.934397
    14  H    1.089875   2.044881   3.065917   3.442062   4.285707
    15  H    1.089883   2.044671   3.067373   3.444806   4.286660
    16  H    4.318828   3.076873   2.115087   2.688335   1.092351
    17  H    4.314390   3.071576   2.115041   2.692842   1.092348
    18  H    4.592393   3.417834   3.403955   4.354391   2.710749
    19  H    5.932901   4.894051   5.351694   6.465248   4.651682
    20  H    5.945182   4.901456   5.360166   6.477911   4.651850
    21  H    4.607821   3.428097   3.417080   4.372996   2.711126
                    6          7          8          9         10
     6  C    0.000000
     7  C    1.389730   0.000000
     8  C    2.411754   1.382647   0.000000
     9  C    2.768747   2.384532   1.383813   0.000000
    10  Br   4.674836   4.145042   2.852985   1.906088   0.000000
    11  C    2.411802   2.771711   2.410703   1.383835   2.853001
    12  C    1.389759   2.393729   2.771692   2.384553   4.145074
    13  H    4.596493   5.156741   6.125320   6.549039   8.172034
    14  H    4.421991   5.006532   5.645097   5.746534   7.155797
    15  H    4.417612   4.553531   5.240479   5.735577   7.142796
    16  H    2.150309   2.673214   4.035411   4.779158   6.655206
    17  H    2.150094   3.370902   4.531045   4.778853   6.654892
    18  H    2.142176   1.080019   2.130844   3.362117   4.983683
    19  H    3.391536   2.144320   1.079200   2.141322   2.955288
    20  H    3.391529   3.850877   3.386525   2.141411   2.955448
    21  H    2.142278   3.374853   3.851796   3.362235   4.983814
                   11         12         13         14         15
    11  C    0.000000
    12  C    1.382682   0.000000
    13  H    6.136068   5.169064   0.000000
    14  H    5.257632   4.568025   1.789621   0.000000
    15  H    5.642559   5.007580   1.789742   1.783853   0.000000
    16  H    4.529409   3.368592   4.429891   5.069619   4.752359
    17  H    4.032960   2.669743   4.429298   4.743437   5.066676
    18  H    3.851723   3.374772   5.144697   5.313894   4.536044
    19  H    3.386491   3.850875   6.777319   6.350784   5.708491
    20  H    1.079182   2.144275   6.794255   5.730520   6.351503
    21  H    2.130959   1.080111   5.166593   4.554743   5.321623
                   16         17         18         19         20
    16  H    0.000000
    17  H    1.762317   0.000000
    18  H    2.474013   3.693986   0.000000
    19  H    4.733920   5.471684   2.461796   0.000000
    20  H    5.469090   4.730302   4.930879   4.274182   0.000000
    21  H    3.690067   2.467643   4.270666   4.930969   2.461783
                   21
    21  H    0.000000
 Stoichiometry    C9H9BrO2
 Framework group  C1[X(C9H9BrO2)]
 Deg. of freedom    57
 Full point group                 C1      NOp   1
 Largest Abelian subgroup         C1      NOp   1
 Largest concise Abelian subgroup C1      NOp   1
                         Standard orientation:                         
 ---------------------------------------------------------------------
 Center     Atomic      Atomic             Coordinates (Angstroms)
 Number     Number       Type             X           Y           Z
 ---------------------------------------------------------------------
      1          6           0       -3.511746    2.156204   -0.012772
      2          8           0       -2.759635    0.948682   -0.009119
      3          6           0       -3.427925   -0.205086    0.002066
      4          8           0       -4.625218   -0.302992    0.009231
      5          6           0       -2.483774   -1.399196    0.004109
      6          6           0       -1.039135   -1.000881    0.003096
      7          6           0       -0.365000   -0.786819    1.199370
      8          6           0        0.959104   -0.388816    1.206829
      9          6           0        1.612188   -0.203106    0.001038
     10         35           0        3.437432    0.346124   -0.000348
     11          6           0        0.963806   -0.410553   -1.203771
     12          6           0       -0.360488   -0.808002   -1.194262
     13          1           0       -4.579532    1.930552   -0.002954
     14          1           0       -3.252682    2.716461   -0.911006
     15          1           0       -3.238956    2.730045    0.872742
     16          1           0       -2.729043   -1.994860    0.886298
     17          1           0       -2.729132   -1.997865   -0.876016
     18          1           0       -0.879065   -0.931287    2.138150
     19          1           0        1.478967   -0.224091    2.138109
     20          1           0        1.487075   -0.262333   -2.135895
     21          1           0       -0.871118   -0.968939   -2.132343
 ---------------------------------------------------------------------
 Rotational constants (GHZ):           1.9753937           0.2559802           0.2467066
 Leave Link  202 at Tue Sep 17 09:41:34 2024, MaxMem=  1342177280 cpu:               0.1 elap:               0.1
 (Enter /groups/ReismanLab/Software/Gaussian16_RevC/Linux_Binary_AVX2-enabled-CPU/g16/l301.exe)
 Standard basis: 6-31G(d,p) (6D, 7F)
 Ernie: Thresh=  0.10000D-02 Tol=  0.10000D-05 Strict=F.
 There are   240 symmetry adapted cartesian basis functions of A   symmetry.
 There are   240 symmetry adapted basis functions of A   symmetry.
   240 basis functions,   454 primitive gaussians,   240 cartesian basis functions
    57 alpha electrons       57 beta electrons
       nuclear repulsion energy       910.6309913325 Hartrees.
 IExCor=  402 DFT=T Ex+Corr=B3LYP ExCW=0 ScaHFX=  0.200000
 ScaDFX=  0.800000  0.720000  1.000000  0.810000 ScalE2=  1.000000  1.000000
 IRadAn=      5 IRanWt=     -1 IRanGd=            0 ICorTp=0 IEmpDi=141
 NAtoms=   21 NActive=   21 NUniq=   21 SFac= 1.00D+00 NAtFMM=   60 NAOKFM=F Big=F
 Integral buffers will be    131072 words long.
 Raffenetti 2 integral format.
 Two-electron integral symmetry is turned on.
 R6Disp:  Grimme-D3(BJ) Dispersion energy=       -0.0412610066 Hartrees.
 Nuclear repulsion after empirical dispersion term =      910.5897303259 Hartrees.
 Leave Link  301 at Tue Sep 17 09:41:34 2024, MaxMem=  1342177280 cpu:               0.1 elap:               0.1
 (Enter /groups/ReismanLab/Software/Gaussian16_RevC/Linux_Binary_AVX2-enabled-CPU/g16/l302.exe)
 NPDir=0 NMtPBC=     1 NCelOv=     1 NCel=       1 NClECP=     1 NCelD=      1
         NCelK=      1 NCelE2=     1 NClLst=     1 CellRange=     0.0.
 One-electron integrals computed using PRISM.
 One-electron integral symmetry used in STVInt
 NBasis=   240 RedAO= T EigKep=  4.09D-04  NBF=   240
 NBsUse=   240 1.00D-06 EigRej= -1.00D+00 NBFU=   240
 Precomputing XC quadrature grid using
 IXCGrd= 4 IRadAn=           5 IRanWt=          -1 IRanGd=           0 AccXCQ= 0.00D+00.
 Generated NRdTot=       0 NPtTot=           0 NUsed=           0 NTot=          32
 NSgBfM=   237   237   237   237   237 MxSgAt=    21 MxSgA2=    21.
 Leave Link  302 at Tue Sep 17 09:41:34 2024, MaxMem=  1342177280 cpu:               1.0 elap:               0.2
 (Enter /groups/ReismanLab/Software/Gaussian16_RevC/Linux_Binary_AVX2-enabled-CPU/g16/l303.exe)
 DipDrv:  MaxL=1.
 Leave Link  303 at Tue Sep 17 09:41:35 2024, MaxMem=  1342177280 cpu:               0.1 elap:               0.1
 (Enter /groups/ReismanLab/Software/Gaussian16_RevC/Linux_Binary_AVX2-enabled-CPU/g16/l401.exe)
 ExpMin= 1.43D-01 ExpMax= 5.74D+05 ExpMxC= 5.74D+03 IAcc=3 IRadAn=         5 AccDes= 0.00D+00
 Harris functional with IExCor=  402 and IRadAn=       5 diagonalized for initial guess.
 HarFok:  IExCor=  402 AccDes= 0.00D+00 IRadAn=         5 IDoV= 1 UseB2=F ITyADJ=14
 ICtDFT=  3500011 ScaDFX=  1.000000  1.000000  1.000000  1.000000
 FoFCou: FMM=F IPFlag=           0 FMFlag=      100000 FMFlg1=           0
         NFxFlg=           0 DoJE=T BraDBF=F KetDBF=T FulRan=T
         wScrn=  0.000000 ICntrl=       500 IOpCl=  0 I1Cent=   200000004 NGrid=           0
         NMat0=    1 NMatS0=      1 NMatT0=    0 NMatD0=    1 NMtDS0=    0 NMtDT0=    0
 Petite list used in FoFCou.
 Harris En= -3070.72560593185    
 JPrj=0 DoOrth=F DoCkMO=F.
 Leave Link  401 at Tue Sep 17 09:41:36 2024, MaxMem=  1342177280 cpu:               4.8 elap:               0.8
 (Enter /groups/ReismanLab/Software/Gaussian16_RevC/Linux_Binary_AVX2-enabled-CPU/g16/l502.exe)
 Integral symmetry usage will be decided dynamically.
 Closed shell SCF:
 Using DIIS extrapolation, IDIIS=  1040.
 NGot=  1342177280 LenX=  1342057097 LenY=  1341999056
 Requested convergence on RMS density matrix=1.00D-08 within  32 cycles.
 Requested convergence on MAX density matrix=1.00D-06.
 Requested convergence on             energy=1.00D-06.
 No special actions if energy rises.
 Fock matrices will be formed incrementally for  20 cycles.
 Integral accuracy reduced to 1.0D-05 until final iterations.

 Cycle   1  Pass 0  IDiag  1:
 FoFJK:  IHMeth= 1 ICntrl=       0 DoSepK=F KAlg= 0 I1Cent=           0 FoldK=F
 IRaf= 850000000 NMat=       1 IRICut=       1 DoRegI=T DoRafI=F ISym2E= 0 IDoP0=0 IntGTp=1.
 FoFCou: FMM=F IPFlag=           0 FMFlag=      100000 FMFlg1=           0
         NFxFlg=           0 DoJE=F BraDBF=F KetDBF=F FulRan=T
         wScrn=  0.000000 ICntrl=         0 IOpCl=  0 I1Cent=           0 NGrid=           0
         NMat0=    1 NMatS0=      1 NMatT0=    0 NMatD0=    1 NMtDS0=    0 NMtDT0=    0
 Symmetry not used in FoFCou.
 E= -3070.31289826393    
 DIIS: error= 2.09D-01 at cycle   1 NSaved=   1.
 NSaved= 1 IEnMin= 1 EnMin= -3070.31289826393     IErMin= 1 ErrMin= 2.09D-01
 ErrMax= 2.09D-01  0.00D+00 EMaxC= 1.00D-01 BMatC= 6.43D-01 BMatP= 6.43D-01
 IDIUse=3 WtCom= 0.00D+00 WtEn= 1.00D+00
 Coeff-Com:  0.100D+01
 Coeff-En:   0.100D+01
 Coeff:      0.100D+01
 Gap=     0.288 Goal=   None    Shift=    0.000
 GapD=    0.288 DampG=1.000 DampE=0.250 DampFc=0.2500 IDamp=-1.
 Damping current iteration by 2.50D-01
 RMSDP=5.16D-03 MaxDP=2.06D-01              OVMax= 2.48D-01

 Cycle   2  Pass 0  IDiag  1:
 RMSU=  1.26D-03    CP:  9.93D-01
 E= -3070.41127741764     Delta-E=       -0.098379153708 Rises=F Damp=T
 DIIS: error= 1.54D-01 at cycle   2 NSaved=   2.
 NSaved= 2 IEnMin= 2 EnMin= -3070.41127741764     IErMin= 2 ErrMin= 1.54D-01
 ErrMax= 1.54D-01  0.00D+00 EMaxC= 1.00D-01 BMatC= 2.59D-01 BMatP= 6.43D-01
 IDIUse=3 WtCom= 0.00D+00 WtEn= 1.00D+00
 Coeff-Com: -0.113D+01 0.213D+01
 Coeff-En:   0.000D+00 0.100D+01
 Coeff:      0.000D+00 0.100D+01
 Gap=     0.239 Goal=   None    Shift=    0.000
 RMSDP=2.49D-03 MaxDP=1.11D-01 DE=-9.84D-02 OVMax= 1.27D-01

 Cycle   3  Pass 0  IDiag  1:
 RMSU=  1.09D-03    CP:  9.70D-01  2.64D+00
 E= -3070.53309194836     Delta-E=       -0.121814530724 Rises=F Damp=F
 DIIS: error= 1.58D-02 at cycle   3 NSaved=   3.
 NSaved= 3 IEnMin= 3 EnMin= -3070.53309194836     IErMin= 3 ErrMin= 1.58D-02
 ErrMax= 1.58D-02  0.00D+00 EMaxC= 1.00D-01 BMatC= 6.14D-02 BMatP= 2.59D-01
 IDIUse=3 WtCom= 8.42D-01 WtEn= 1.58D-01
 Coeff-Com:  0.774D+00-0.859D+00 0.109D+01
 Coeff-En:   0.116D+00 0.000D+00 0.884D+00
 Coeff:      0.670D+00-0.723D+00 0.105D+01
 Gap=     0.234 Goal=   None    Shift=    0.000
 RMSDP=1.59D-03 MaxDP=4.28D-02 DE=-1.22D-01 OVMax= 6.58D-02

 Cycle   4  Pass 0  IDiag  1:
 RMSU=  1.13D-03    CP:  9.71D-01  1.76D+00  9.05D-01
 E= -3070.56545156879     Delta-E=       -0.032359620429 Rises=F Damp=F
 DIIS: error= 9.73D-03 at cycle   4 NSaved=   4.
 NSaved= 4 IEnMin= 4 EnMin= -3070.56545156879     IErMin= 4 ErrMin= 9.73D-03
 ErrMax= 9.73D-03  0.00D+00 EMaxC= 1.00D-01 BMatC= 2.74D-02 BMatP= 6.14D-02
 IDIUse=3 WtCom= 9.03D-01 WtEn= 9.73D-02
 Coeff-Com:  0.620D+00-0.800D+00 0.720D+00 0.460D+00
 Coeff-En:   0.000D+00 0.000D+00 0.269D+00 0.731D+00
 Coeff:      0.560D+00-0.723D+00 0.676D+00 0.487D+00
 Gap=     0.228 Goal=   None    Shift=    0.000
 RMSDP=8.08D-04 MaxDP=3.05D-02 DE=-3.24D-02 OVMax= 5.40D-02

 Cycle   5  Pass 0  IDiag  1:
 RMSU=  2.02D-04    CP:  9.71D-01  1.92D+00  1.08D+00  3.53D-01
 E= -3070.58978389173     Delta-E=       -0.024332322943 Rises=F Damp=F
 DIIS: error= 2.62D-03 at cycle   5 NSaved=   5.
 NSaved= 5 IEnMin= 5 EnMin= -3070.58978389173     IErMin= 5 ErrMin= 2.62D-03
 ErrMax= 2.62D-03  0.00D+00 EMaxC= 1.00D-01 BMatC= 1.27D-03 BMatP= 2.74D-02
 IDIUse=3 WtCom= 9.74D-01 WtEn= 2.62D-02
 Coeff-Com:  0.257D+00-0.335D+00 0.312D+00 0.270D+00 0.495D+00
 Coeff-En:   0.000D+00 0.000D+00 0.000D+00 0.000D+00 0.100D+01
 Coeff:      0.251D+00-0.326D+00 0.304D+00 0.263D+00 0.508D+00
 Gap=     0.222 Goal=   None    Shift=    0.000
 RMSDP=1.51D-04 MaxDP=7.23D-03 DE=-2.43D-02 OVMax= 1.14D-02

 Cycle   6  Pass 0  IDiag  1:
 RMSU=  5.47D-05    CP:  9.71D-01  1.93D+00  1.07D+00  4.41D-01  5.17D-01
 E= -3070.59076981550     Delta-E=       -0.000985923766 Rises=F Damp=F
 DIIS: error= 5.59D-04 at cycle   6 NSaved=   6.
 NSaved= 6 IEnMin= 6 EnMin= -3070.59076981550     IErMin= 6 ErrMin= 5.59D-04
 ErrMax= 5.59D-04  0.00D+00 EMaxC= 1.00D-01 BMatC= 7.39D-05 BMatP= 1.27D-03
 IDIUse=3 WtCom= 9.94D-01 WtEn= 5.59D-03
 Coeff-Com:  0.685D-01-0.898D-01 0.791D-01 0.747D-01 0.252D+00 0.615D+00
 Coeff-En:   0.000D+00 0.000D+00 0.000D+00 0.000D+00 0.000D+00 0.100D+01
 Coeff:      0.681D-01-0.893D-01 0.786D-01 0.743D-01 0.251D+00 0.617D+00
 Gap=     0.221 Goal=   None    Shift=    0.000
 RMSDP=3.43D-05 MaxDP=1.65D-03 DE=-9.86D-04 OVMax= 1.88D-03

 Cycle   7  Pass 0  IDiag  1:
 RMSU=  2.05D-05    CP:  9.71D-01  1.93D+00  1.08D+00  4.40D-01  5.51D-01
                    CP:  5.86D-01
 E= -3070.59082553361     Delta-E=       -0.000055718107 Rises=F Damp=F
 DIIS: error= 9.80D-05 at cycle   7 NSaved=   7.
 NSaved= 7 IEnMin= 7 EnMin= -3070.59082553361     IErMin= 7 ErrMin= 9.80D-05
 ErrMax= 9.80D-05  0.00D+00 EMaxC= 1.00D-01 BMatC= 5.20D-06 BMatP= 7.39D-05
 IDIUse=1 WtCom= 1.00D+00 WtEn= 0.00D+00
 Coeff-Com:  0.212D-01-0.281D-01 0.225D-01 0.214D-01 0.991D-01 0.317D+00
 Coeff-Com:  0.547D+00
 Coeff:      0.212D-01-0.281D-01 0.225D-01 0.214D-01 0.991D-01 0.317D+00
 Coeff:      0.547D+00
 Gap=     0.221 Goal=   None    Shift=    0.000
 RMSDP=1.30D-05 MaxDP=5.33D-04 DE=-5.57D-05 OVMax= 7.05D-04

 Cycle   8  Pass 0  IDiag  1:
 RMSU=  7.35D-06    CP:  9.71D-01  1.93D+00  1.08D+00  4.37D-01  5.59D-01
                    CP:  6.45D-01  5.39D-01
 E= -3070.59082939648     Delta-E=       -0.000003862873 Rises=F Damp=F
 DIIS: error= 6.36D-05 at cycle   8 NSaved=   8.
 NSaved= 8 IEnMin= 8 EnMin= -3070.59082939648     IErMin= 8 ErrMin= 6.36D-05
 ErrMax= 6.36D-05  0.00D+00 EMaxC= 1.00D-01 BMatC= 6.80D-07 BMatP= 5.20D-06
 IDIUse=1 WtCom= 1.00D+00 WtEn= 0.00D+00
 Coeff-Com:  0.657D-02-0.878D-02 0.610D-02 0.525D-02 0.328D-01 0.122D+00
 Coeff-Com:  0.317D+00 0.520D+00
 Coeff:      0.657D-02-0.878D-02 0.610D-02 0.525D-02 0.328D-01 0.122D+00
 Coeff:      0.317D+00 0.520D+00
 Gap=     0.221 Goal=   None    Shift=    0.000
 RMSDP=4.75D-06 MaxDP=2.27D-04 DE=-3.86D-06 OVMax= 3.90D-04

 Initial convergence to 1.0D-05 achieved.  Increase integral accuracy.
 Cycle   9  Pass 1  IDiag  1:
 E= -3070.59085402925     Delta-E=       -0.000024632772 Rises=F Damp=F
 DIIS: error= 4.15D-05 at cycle   1 NSaved=   1.
 NSaved= 1 IEnMin= 1 EnMin= -3070.59085402925     IErMin= 1 ErrMin= 4.15D-05
 ErrMax= 4.15D-05  0.00D+00 EMaxC= 1.00D-01 BMatC= 2.64D-07 BMatP= 2.64D-07
 IDIUse=1 WtCom= 1.00D+00 WtEn= 0.00D+00
 Coeff-Com:  0.100D+01
 Coeff:      0.100D+01
 Gap=     0.221 Goal=   None    Shift=    0.000
 RMSDP=4.75D-06 MaxDP=2.27D-04 DE=-2.46D-05 OVMax= 3.48D-04

 Cycle  10  Pass 1  IDiag  1:
 RMSU=  1.99D-05    CP:  1.00D+00
 E= -3070.59085386244     Delta-E=        0.000000166807 Rises=F Damp=F
 DIIS: error= 4.59D-05 at cycle   2 NSaved=   2.
 NSaved= 2 IEnMin= 1 EnMin= -3070.59085402925     IErMin= 1 ErrMin= 4.15D-05
 ErrMax= 4.59D-05  0.00D+00 EMaxC= 1.00D-01 BMatC= 3.64D-07 BMatP= 2.64D-07
 IDIUse=1 WtCom= 1.00D+00 WtEn= 0.00D+00
 Coeff-Com:  0.550D+00 0.450D+00
 Coeff:      0.550D+00 0.450D+00
 Gap=     0.221 Goal=   None    Shift=    0.000
 RMSDP=3.47D-06 MaxDP=1.57D-04 DE= 1.67D-07 OVMax= 3.10D-04

 Cycle  11  Pass 1  IDiag  1:
 RMSU=  3.38D-06    CP:  1.00D+00  9.61D-01
 E= -3070.59085419019     Delta-E=       -0.000000327748 Rises=F Damp=F
 DIIS: error= 1.87D-05 at cycle   3 NSaved=   3.
 NSaved= 3 IEnMin= 3 EnMin= -3070.59085419019     IErMin= 3 ErrMin= 1.87D-05
 ErrMax= 1.87D-05  0.00D+00 EMaxC= 1.00D-01 BMatC= 5.30D-08 BMatP= 2.64D-07
 IDIUse=1 WtCom= 1.00D+00 WtEn= 0.00D+00
 Coeff-Com:  0.380D-01 0.275D+00 0.687D+00
 Coeff:      0.380D-01 0.275D+00 0.687D+00
 Gap=     0.221 Goal=   None    Shift=    0.000
 RMSDP=1.16D-06 MaxDP=4.34D-05 DE=-3.28D-07 OVMax= 9.37D-05

 Cycle  12  Pass 1  IDiag  1:
 RMSU=  6.03D-07    CP:  1.00D+00  9.79D-01  7.30D-01
 E= -3070.59085424367     Delta-E=       -0.000000053480 Rises=F Damp=F
 DIIS: error= 2.77D-06 at cycle   4 NSaved=   4.
 NSaved= 4 IEnMin= 4 EnMin= -3070.59085424367     IErMin= 4 ErrMin= 2.77D-06
 ErrMax= 2.77D-06  0.00D+00 EMaxC= 1.00D-01 BMatC= 4.04D-09 BMatP= 5.30D-08
 IDIUse=1 WtCom= 1.00D+00 WtEn= 0.00D+00
 Coeff-Com: -0.190D-02 0.140D+00 0.398D+00 0.464D+00
 Coeff:     -0.190D-02 0.140D+00 0.398D+00 0.464D+00
 Gap=     0.221 Goal=   None    Shift=    0.000
 RMSDP=3.14D-07 MaxDP=1.15D-05 DE=-5.35D-08 OVMax= 1.60D-05

 Cycle  13  Pass 1  IDiag  1:
 RMSU=  9.04D-08    CP:  1.00D+00  9.80D-01  7.45D-01  5.10D-01
 E= -3070.59085424762     Delta-E=       -0.000000003947 Rises=F Damp=F
 DIIS: error= 8.40D-07 at cycle   5 NSaved=   5.
 NSaved= 5 IEnMin= 5 EnMin= -3070.59085424762     IErMin= 5 ErrMin= 8.40D-07
 ErrMax= 8.40D-07  0.00D+00 EMaxC= 1.00D-01 BMatC= 1.43D-10 BMatP= 4.04D-09
 IDIUse=1 WtCom= 1.00D+00 WtEn= 0.00D+00
 Coeff-Com: -0.207D-02 0.784D-01 0.225D+00 0.282D+00 0.417D+00
 Coeff:     -0.207D-02 0.784D-01 0.225D+00 0.282D+00 0.417D+00
 Gap=     0.221 Goal=   None    Shift=    0.000
 RMSDP=4.99D-08 MaxDP=2.46D-06 DE=-3.95D-09 OVMax= 4.58D-06

 Cycle  14  Pass 1  IDiag  1:
 RMSU=  3.49D-08    CP:  1.00D+00  9.80D-01  7.41D-01  5.03D-01  6.34D-01
 E= -3070.59085424774     Delta-E=       -0.000000000118 Rises=F Damp=F
 DIIS: error= 2.37D-07 at cycle   6 NSaved=   6.
 NSaved= 6 IEnMin= 6 EnMin= -3070.59085424774     IErMin= 6 ErrMin= 2.37D-07
 ErrMax= 2.37D-07  0.00D+00 EMaxC= 1.00D-01 BMatC= 1.16D-11 BMatP= 1.43D-10
 IDIUse=1 WtCom= 1.00D+00 WtEn= 0.00D+00
 Coeff-Com: -0.111D-02 0.352D-01 0.101D+00 0.130D+00 0.263D+00 0.471D+00
 Coeff:     -0.111D-02 0.352D-01 0.101D+00 0.130D+00 0.263D+00 0.471D+00
 Gap=     0.221 Goal=   None    Shift=    0.000
 RMSDP=1.48D-08 MaxDP=7.48D-07 DE=-1.18D-10 OVMax= 1.08D-06

 Cycle  15  Pass 1  IDiag  1:
 RMSU=  1.10D-08    CP:  1.00D+00  9.80D-01  7.42D-01  5.06D-01  6.63D-01
                    CP:  7.32D-01
 E= -3070.59085424772     Delta-E=        0.000000000018 Rises=F Damp=F
 DIIS: error= 5.97D-08 at cycle   7 NSaved=   7.
 NSaved= 7 IEnMin= 6 EnMin= -3070.59085424774     IErMin= 7 ErrMin= 5.97D-08
 ErrMax= 5.97D-08  0.00D+00 EMaxC= 1.00D-01 BMatC= 5.35D-13 BMatP= 1.16D-11
 IDIUse=1 WtCom= 1.00D+00 WtEn= 0.00D+00
 Coeff-Com: -0.219D-03 0.540D-02 0.155D-01 0.210D-01 0.657D-01 0.218D+00
 Coeff-Com:  0.675D+00
 Coeff:     -0.219D-03 0.540D-02 0.155D-01 0.210D-01 0.657D-01 0.218D+00
 Coeff:      0.675D+00
 Gap=     0.221 Goal=   None    Shift=    0.000
 RMSDP=3.11D-09 MaxDP=1.81D-07 DE= 1.82D-11 OVMax= 1.97D-07

 SCF Done:  E(RB3LYP) =  -3070.59085425     A.U. after   15 cycles
            NFock= 15  Conv=0.31D-08     -V/T= 2.0066
 KE= 3.050569092152D+03 PE=-9.116298549507D+03 EE= 2.084548872781D+03
 Leave Link  502 at Tue Sep 17 09:41:49 2024, MaxMem=  1342177280 cpu:              95.3 elap:              13.0
 (Enter /groups/ReismanLab/Software/Gaussian16_RevC/Linux_Binary_AVX2-enabled-CPU/g16/l508.exe)
 QCSCF skips out because SCF is already converged.
 Leave Link  508 at Tue Sep 17 09:41:49 2024, MaxMem=  1342177280 cpu:               0.0 elap:               0.0
 (Enter /groups/ReismanLab/Software/Gaussian16_RevC/Linux_Binary_AVX2-enabled-CPU/g16/l601.exe)
 Copying SCF densities to generalized density rwf, IOpCl= 0 IROHF=0.

 **********************************************************************

            Population analysis using the SCF Density.

 **********************************************************************

 Orbital symmetries:
       Occupied  (A) (A) (A) (A) (A) (A) (A) (A) (A) (A) (A) (A)
                 (A) (A) (A) (A) (A) (A) (A) (A) (A) (A) (A) (A)
                 (A) (A) (A) (A) (A) (A) (A) (A) (A) (A) (A) (A)
                 (A) (A) (A) (A) (A) (A) (A) (A) (A) (A) (A) (A)
                 (A) (A) (A) (A) (A) (A) (A) (A) (A)
       Virtual   (A) (A) (A) (A) (A) (A) (A) (A) (A) (A) (A) (A)
                 (A) (A) (A) (A) (A) (A) (A) (A) (A) (A) (A) (A)
                 (A) (A) (A) (A) (A) (A) (A) (A) (A) (A) (A) (A)
                 (A) (A) (A) (A) (A) (A) (A) (A) (A) (A) (A) (A)
                 (A) (A) (A) (A) (A) (A) (A) (A) (A) (A) (A) (A)
                 (A) (A) (A) (A) (A) (A) (A) (A) (A) (A) (A) (A)
                 (A) (A) (A) (A) (A) (A) (A) (A) (A) (A) (A) (A)
                 (A) (A) (A) (A) (A) (A) (A) (A) (A) (A) (A) (A)
                 (A) (A) (A) (A) (A) (A) (A) (A) (A) (A) (A) (A)
                 (A) (A) (A) (A) (A) (A) (A) (A) (A) (A) (A) (A)
                 (A) (A) (A) (A) (A) (A) (A) (A) (A) (A) (A) (A)
                 (A) (A) (A) (A) (A) (A) (A) (A) (A) (A) (A) (A)
                 (A) (A) (A) (A) (A) (A) (A) (A) (A) (A) (A) (A)
                 (A) (A) (A) (A) (A) (A) (A) (A) (A) (A) (A) (A)
                 (A) (A) (A) (A) (A) (A) (A) (A) (A) (A) (A) (A)
                 (A) (A) (A)
 The electronic state is 1-A.
 Alpha  occ. eigenvalues -- -482.90904 -61.87080 -56.39212 -56.38805 -56.38794
 Alpha  occ. eigenvalues --  -19.19866 -19.13603 -10.31939 -10.24469 -10.24143
 Alpha  occ. eigenvalues --  -10.20960 -10.20610 -10.20228 -10.20227 -10.19918
 Alpha  occ. eigenvalues --  -10.19916  -8.58226  -6.53616  -6.52352  -6.52326
 Alpha  occ. eigenvalues --   -2.65190  -2.64828  -2.64810  -2.63800  -2.63800
 Alpha  occ. eigenvalues --   -1.11441  -1.02332  -0.88292  -0.82165  -0.77596
 Alpha  occ. eigenvalues --   -0.76323  -0.73075  -0.69100  -0.62610  -0.59643
 Alpha  occ. eigenvalues --   -0.57195  -0.52385  -0.50049  -0.49922  -0.47665
 Alpha  occ. eigenvalues --   -0.47139  -0.46126  -0.43868  -0.42825  -0.41793
 Alpha  occ. eigenvalues --   -0.41102  -0.38654  -0.37941  -0.35844  -0.35623
 Alpha  occ. eigenvalues --   -0.35165  -0.31252  -0.30396  -0.28539  -0.27875
 Alpha  occ. eigenvalues --   -0.26548  -0.23591
 Alpha virt. eigenvalues --   -0.01447  -0.01329   0.00924   0.01497   0.09384
 Alpha virt. eigenvalues --    0.11484   0.12381   0.12557   0.13130   0.14890
 Alpha virt. eigenvalues --    0.16098   0.16872   0.17075   0.17857   0.18665
 Alpha virt. eigenvalues --    0.21586   0.24933   0.26777   0.28288   0.29572
 Alpha virt. eigenvalues --    0.32128   0.32502   0.32771   0.39688   0.41500
 Alpha virt. eigenvalues --    0.44789   0.46429   0.46508   0.46581   0.47930
 Alpha virt. eigenvalues --    0.48087   0.48932   0.49725   0.51506   0.52888
 Alpha virt. eigenvalues --    0.53469   0.54353   0.55768   0.57260   0.58251
 Alpha virt. eigenvalues --    0.58544   0.60310   0.60916   0.61715   0.63633
 Alpha virt. eigenvalues --    0.64943   0.68351   0.68426   0.70496   0.72698
 Alpha virt. eigenvalues --    0.73409   0.73592   0.78242   0.79585   0.79620
 Alpha virt. eigenvalues --    0.81388   0.82038   0.82440   0.82476   0.83838
 Alpha virt. eigenvalues --    0.85727   0.87070   0.87866   0.89116   0.89724
 Alpha virt. eigenvalues --    0.90096   0.94536   0.96912   0.98617   0.99724
 Alpha virt. eigenvalues --    1.00427   1.01515   1.07520   1.10207   1.11057
 Alpha virt. eigenvalues --    1.14960   1.15049   1.20114   1.24146   1.25075
 Alpha virt. eigenvalues --    1.25867   1.32722   1.33396   1.37391   1.38988
 Alpha virt. eigenvalues --    1.41068   1.41736   1.42434   1.46926   1.50674
 Alpha virt. eigenvalues --    1.52640   1.55054   1.56839   1.57998   1.62792
 Alpha virt. eigenvalues --    1.63119   1.72918   1.75414   1.76672   1.78310
 Alpha virt. eigenvalues --    1.78857   1.81277   1.84696   1.85100   1.86156
 Alpha virt. eigenvalues --    1.90440   1.92118   1.93577   1.93682   1.96698
 Alpha virt. eigenvalues --    1.97817   1.99750   1.99935   2.01735   2.01759
 Alpha virt. eigenvalues --    2.04862   2.05849   2.07021   2.07748   2.10212
 Alpha virt. eigenvalues --    2.11332   2.13094   2.17413   2.23248   2.24416
 Alpha virt. eigenvalues --    2.27816   2.30407   2.31003   2.33708   2.40354
 Alpha virt. eigenvalues --    2.40414   2.43614   2.43906   2.45923   2.47241
 Alpha virt. eigenvalues --    2.48504   2.50380   2.51540   2.53388   2.56753
 Alpha virt. eigenvalues --    2.59095   2.59749   2.64923   2.65313   2.69438
 Alpha virt. eigenvalues --    2.70832   2.71822   2.74135   2.76599   2.77452
 Alpha virt. eigenvalues --    2.81059   2.86411   2.88480   2.90788   2.94277
 Alpha virt. eigenvalues --    2.94588   3.06172   3.07595   3.18483   3.20224
 Alpha virt. eigenvalues --    3.22118   3.24820   3.29239   3.30184   3.36357
 Alpha virt. eigenvalues --    3.40423   3.42969   3.47737   3.52044   3.81526
 Alpha virt. eigenvalues --    3.97950   4.11107   4.14837   4.17278   4.24979
 Alpha virt. eigenvalues --    4.28335   4.42975   4.43210   4.45992   4.66538
 Alpha virt. eigenvalues --    4.82179   8.60868  72.81698
          Condensed to atoms (all electrons):
               1          2          3          4          5          6
     1  C    4.764223   0.218128  -0.024205  -0.013592   0.008318  -0.000479
     2  O    0.218128   8.202451   0.295870  -0.076420  -0.112375   0.002160
     3  C   -0.024205   0.295870   4.341421   0.555302   0.333432  -0.045000
     4  O   -0.013592  -0.076420   0.555302   8.042113  -0.070564   0.003432
     5  C    0.008318  -0.112375   0.333432  -0.070564   5.300631   0.282856
     6  C   -0.000479   0.002160  -0.045000   0.003432   0.282856   4.733050
     7  C   -0.000185   0.003119  -0.003186   0.000022  -0.056051   0.548010
     8  C    0.000010  -0.000316  -0.000037   0.000000   0.006858  -0.025618
     9  C   -0.000001   0.000134   0.000023  -0.000000   0.000326  -0.033148
    10  Br  -0.000000  -0.000000   0.000000   0.000000   0.000003   0.000327
    11  C    0.000010  -0.000310  -0.000039   0.000000   0.006867  -0.025732
    12  C   -0.000180   0.003093  -0.003199   0.000019  -0.055315   0.548121
    13  H    0.373929  -0.032238  -0.010345   0.026432   0.000570  -0.000068
    14  H    0.390815  -0.034201   0.001370   0.000493  -0.000192  -0.000007
    15  H    0.390825  -0.034219   0.001395   0.000491  -0.000184  -0.000007
    16  H   -0.000178   0.001293  -0.028137  -0.000442   0.367816  -0.027381
    17  H   -0.000179   0.001247  -0.027986  -0.000462   0.367673  -0.027313
    18  H   -0.000014   0.000253   0.000122  -0.000029  -0.009199  -0.044257
    19  H    0.000000  -0.000003  -0.000001  -0.000000  -0.000173   0.004140
    20  H    0.000000  -0.000003  -0.000001  -0.000000  -0.000172   0.004146
    21  H   -0.000014   0.000242   0.000112  -0.000027  -0.009263  -0.044149
               7          8          9         10         11         12
     1  C   -0.000185   0.000010  -0.000001  -0.000000   0.000010  -0.000180
     2  O    0.003119  -0.000316   0.000134  -0.000000  -0.000310   0.003093
     3  C   -0.003186  -0.000037   0.000023   0.000000  -0.000039  -0.003199
     4  O    0.000022   0.000000  -0.000000   0.000000   0.000000   0.000019
     5  C   -0.056051   0.006858   0.000326   0.000003   0.006867  -0.055315
     6  C    0.548010  -0.025618  -0.033148   0.000327  -0.025732   0.548121
     7  C    4.886892   0.496384  -0.030254   0.005741  -0.051472  -0.026399
     8  C    0.496384   4.887279   0.531491  -0.060683  -0.032961  -0.051439
     9  C   -0.030254   0.531491   4.797283   0.256574   0.531591  -0.030263
    10  Br   0.005741  -0.060683   0.256574  34.996674  -0.060697   0.005739
    11  C   -0.051472  -0.032961   0.531591  -0.060697   4.887485   0.496179
    12  C   -0.026399  -0.051439  -0.030263   0.005739   0.496179   4.886845
    13  H   -0.000008  -0.000000   0.000000  -0.000000  -0.000000  -0.000007
    14  H    0.000009  -0.000001  -0.000000   0.000000   0.000005   0.000009
    15  H    0.000010   0.000005  -0.000001   0.000000  -0.000001   0.000009
    16  H   -0.004317   0.000063   0.000017  -0.000000  -0.000197   0.003402
    17  H    0.003452  -0.000197   0.000016  -0.000000   0.000066  -0.004352
    18  H    0.366093  -0.039065   0.004611  -0.000163   0.000617   0.005750
    19  H   -0.036095   0.369154  -0.043261  -0.003530   0.005309   0.000600
    20  H    0.000599   0.005307  -0.043268  -0.003532   0.369154  -0.036088
    21  H    0.005758   0.000616   0.004608  -0.000163  -0.039112   0.366031
              13         14         15         16         17         18
     1  C    0.373929   0.390815   0.390825  -0.000178  -0.000179  -0.000014
     2  O   -0.032238  -0.034201  -0.034219   0.001293   0.001247   0.000253
     3  C   -0.010345   0.001370   0.001395  -0.028137  -0.027986   0.000122
     4  O    0.026432   0.000493   0.000491  -0.000442  -0.000462  -0.000029
     5  C    0.000570  -0.000192  -0.000184   0.367816   0.367673  -0.009199
     6  C   -0.000068  -0.000007  -0.000007  -0.027381  -0.027313  -0.044257
     7  C   -0.000008   0.000009   0.000010  -0.004317   0.003452   0.366093
     8  C   -0.000000  -0.000001   0.000005   0.000063  -0.000197  -0.039065
     9  C    0.000000  -0.000000  -0.000001   0.000017   0.000016   0.004611
    10  Br  -0.000000   0.000000   0.000000  -0.000000  -0.000000  -0.000163
    11  C   -0.000000   0.000005  -0.000001  -0.000197   0.000066   0.000617
    12  C   -0.000007   0.000009   0.000009   0.003402  -0.004352   0.005750
    13  H    0.552009  -0.029982  -0.029956  -0.000013  -0.000013   0.000001
    14  H   -0.029982   0.582461  -0.037460  -0.000005   0.000031   0.000000
    15  H   -0.029956  -0.037460   0.582395   0.000030  -0.000005   0.000002
    16  H   -0.000013  -0.000005   0.000030   0.559240  -0.022475   0.004846
    17  H   -0.000013   0.000031  -0.000005  -0.022475   0.559230   0.000057
    18  H    0.000001   0.000000   0.000002   0.004846   0.000057   0.628444
    19  H   -0.000000   0.000000   0.000000  -0.000006   0.000003  -0.006399
    20  H   -0.000000   0.000000   0.000000   0.000003  -0.000006   0.000019
    21  H    0.000001   0.000002   0.000000   0.000058   0.004937  -0.000211
              19         20         21
     1  C    0.000000   0.000000  -0.000014
     2  O   -0.000003  -0.000003   0.000242
     3  C   -0.000001  -0.000001   0.000112
     4  O   -0.000000  -0.000000  -0.000027
     5  C   -0.000173  -0.000172  -0.009263
     6  C    0.004140   0.004146  -0.044149
     7  C   -0.036095   0.000599   0.005758
     8  C    0.369154   0.005307   0.000616
     9  C   -0.043261  -0.043268   0.004608
    10  Br  -0.003530  -0.003532  -0.000163
    11  C    0.005309   0.369154  -0.039112
    12  C    0.000600  -0.036088   0.366031
    13  H   -0.000000  -0.000000   0.000001
    14  H    0.000000   0.000000   0.000002
    15  H    0.000000   0.000000   0.000000
    16  H   -0.000006   0.000003   0.000058
    17  H    0.000003  -0.000006   0.004937
    18  H   -0.006399   0.000019  -0.000211
    19  H    0.603345  -0.000176   0.000019
    20  H   -0.000176   0.603352  -0.006402
    21  H    0.000019  -0.006402   0.628464
 Mulliken charges:
               1
     1  C   -0.107231
     2  O   -0.437905
     3  C    0.613086
     4  O   -0.466770
     5  C   -0.361863
     6  C    0.146916
     7  C   -0.108123
     8  C   -0.086852
     9  C    0.053523
    10  Br  -0.136289
    11  C   -0.086762
    12  C   -0.108555
    13  H    0.149687
    14  H    0.126653
    15  H    0.126670
    16  H    0.146381
    17  H    0.146275
    18  H    0.088523
    19  H    0.107074
    20  H    0.107067
    21  H    0.088493
 Sum of Mulliken charges =  -0.00000
 Mulliken charges with hydrogens summed into heavy atoms:
               1
     1  C    0.295780
     2  O   -0.437905
     3  C    0.613086
     4  O   -0.466770
     5  C   -0.069207
     6  C    0.146916
     7  C   -0.019600
     8  C    0.020223
     9  C    0.053523
    10  Br  -0.136289
    11  C    0.020305
    12  C   -0.020063
 Electronic spatial extent (au):  <R**2>=           4031.2329
 Charge=              0.0000 electrons
 Dipole moment (field-independent basis, Debye):
    X=             -0.3369    Y=              0.5142    Z=             -0.0144  Tot=              0.6149
 Quadrupole moment (field-independent basis, Debye-Ang):
   XX=            -96.9175   YY=            -77.2027   ZZ=            -74.6994
   XY=             -4.4589   XZ=              0.0769   YZ=              0.0524
 Traceless Quadrupole moment (field-independent basis, Debye-Ang):
   XX=            -13.9776   YY=              5.7372   ZZ=              8.2405
   XY=             -4.4589   XZ=              0.0769   YZ=              0.0524
 Octapole moment (field-independent basis, Debye-Ang**2):
  XXX=            159.0672  YYY=             28.4522  ZZZ=             -0.0158  XYY=              2.0033
  XXY=             34.4243  XXZ=             -0.5092  XZZ=             22.0323  YZZ=              2.2911
  YYZ=             -0.1361  XYZ=              0.0926
 Hexadecapole moment (field-independent basis, Debye-Ang**3):
 XXXX=          -4154.9559 YYYY=           -503.0128 ZZZZ=           -315.8507 XXXY=            -83.8380
 XXXZ=              2.0901 YYYX=             -2.7348 YYYZ=             -0.1332 ZZZX=             -0.1034
 ZZZY=              0.2085 XXYY=           -631.2666 XXZZ=           -647.8739 YYZZ=           -141.0854
 XXYZ=             -0.0800 YYXZ=              0.2442 ZZXY=             12.3284
 N-N= 9.105897303259D+02 E-N=-9.116298554656D+03  KE= 3.050569092152D+03
 No NMR shielding tensors so no spin-rotation constants.
 Leave Link  601 at Tue Sep 17 09:41:49 2024, MaxMem=  1342177280 cpu:               0.5 elap:               0.1
 (Enter /groups/ReismanLab/Software/Gaussian16_RevC/Linux_Binary_AVX2-enabled-CPU/g16/l701.exe)
 ... and contract with generalized density number  0.
 Compute integral first derivatives.
 R6Disp: Adding Grimme-D3(BJ) dispersion energy 1st derivatives to the gradient.
 Leave Link  701 at Tue Sep 17 09:41:50 2024, MaxMem=  1342177280 cpu:               0.5 elap:               0.1
 (Enter /groups/ReismanLab/Software/Gaussian16_RevC/Linux_Binary_AVX2-enabled-CPU/g16/l702.exe)
 L702 exits ... SP integral derivatives will be done elsewhere.
 Leave Link  702 at Tue Sep 17 09:41:50 2024, MaxMem=  1342177280 cpu:               0.0 elap:               0.0
 (Enter /groups/ReismanLab/Software/Gaussian16_RevC/Linux_Binary_AVX2-enabled-CPU/g16/l703.exe)
 Integral derivatives from FoFJK, PRISM(SPDF).
 Compute integral first derivatives, UseDBF=F ICtDFT=           0.
 Calling FoFJK, ICntrl=      2127 FMM=F ISym2X=0 I1Cent= 0 IOpClX= 0 NMat=1 NMatS=1 NMatT=0.
 FoFJK:  IHMeth= 1 ICntrl=    2127 DoSepK=F KAlg= 0 I1Cent=           0 FoldK=F
 IRaf=         0 NMat=       1 IRICut=       1 DoRegI=T DoRafI=F ISym2E= 0 IDoP0=0 IntGTp=1.
 FoFCou: FMM=F IPFlag=           0 FMFlag=      100000 FMFlg1=         800
         NFxFlg=           0 DoJE=F BraDBF=F KetDBF=F FulRan=T
         wScrn=  0.000000 ICntrl=      2127 IOpCl=  0 I1Cent=           0 NGrid=           0
         NMat0=    1 NMatS0=      1 NMatT0=    0 NMatD0=    1 NMtDS0=    0 NMtDT0=    0
 Symmetry not used in FoFCou.
 Leave Link  703 at Tue Sep 17 09:41:53 2024, MaxMem=  1342177280 cpu:              28.1 elap:               3.6
 (Enter /groups/ReismanLab/Software/Gaussian16_RevC/Linux_Binary_AVX2-enabled-CPU/g16/l716.exe)
 Dipole        =-1.32537841D-01 2.02303348D-01-5.66565091D-03
 ***** Axes restored to original set *****
 -------------------------------------------------------------------
 Center     Atomic                   Forces (Hartrees/Bohr)
 Number     Number              X              Y              Z
 -------------------------------------------------------------------
      1        6           0.008089734   -0.003249183    0.000304698
      2        8          -0.010081913   -0.007305979   -0.002453397
      3        6          -0.006150066    0.007254461    0.000646129
      4        8           0.017784187    0.004707881    0.002786319
      5        6          -0.000647327   -0.004516145   -0.000837929
      6        6           0.001456340    0.006422708    0.001219165
      7        6           0.001773483    0.001435384    0.002224619
      8        6          -0.004499058   -0.002906966    0.004724924
      9        6          -0.005895918   -0.002555023   -0.001121531
     10       35          -0.002378910   -0.000911177   -0.000406244
     11        6          -0.003395529   -0.000959285   -0.006182553
     12        6           0.002186638    0.002088834   -0.001162392
     13        1          -0.000132478   -0.001054600   -0.000208448
     14        1          -0.000673364   -0.000907693   -0.001325276
     15        1          -0.000902978   -0.001278017    0.000731068
     16        1           0.001429538    0.001630876    0.000475455
     17        1           0.001420346    0.001670182    0.000382216
     18        1           0.001822384    0.000189108    0.004118178
     19        1          -0.002117499   -0.001135034    0.002283945
     20        1          -0.001618733   -0.000171720   -0.002903289
     21        1           0.002531121    0.001551389   -0.003295658
 -------------------------------------------------------------------
 Cartesian Forces:  Max     0.017784187 RMS     0.003966642
 Leave Link  716 at Tue Sep 17 09:41:53 2024, MaxMem=  1342177280 cpu:               0.1 elap:               0.0
 (Enter /groups/ReismanLab/Software/Gaussian16_RevC/Linux_Binary_AVX2-enabled-CPU/g16/l103.exe)

 GradGradGradGradGradGradGradGradGradGradGradGradGradGradGradGradGradGrad
 Berny optimization.
 FormGI is forming the generalized inverse of G from B-inverse, IUseBI=4.
 Internal  Forces:  Max     0.018543591 RMS     0.004226474
 Search for a local minimum.
 Step number   1 out of a maximum of  106
 All quantities printed in internal units (Hartrees-Bohrs-Radians)
 RMS Force = .42265D-02 SwitMx=.10000D-02 MixMth= 1
 Mixed Optimization -- RFO/linear search
 Second derivative matrix not updated -- first step.
 ITU=  0
     Eigenvalues ---    0.00471   0.00785   0.01007   0.01393   0.01645
     Eigenvalues ---    0.02235   0.02266   0.02274   0.02295   0.02303
     Eigenvalues ---    0.02307   0.02311   0.02312   0.02573   0.04898
     Eigenvalues ---    0.06406   0.10021   0.10396   0.10597   0.13285
     Eigenvalues ---    0.16000   0.16000   0.16000   0.16000   0.16000
     Eigenvalues ---    0.16000   0.16000   0.17957   0.22000   0.22012
     Eigenvalues ---    0.22980   0.23998   0.24990   0.25000   0.25000
     Eigenvalues ---    0.25000   0.25000   0.30148   0.32530   0.34542
     Eigenvalues ---    0.34543   0.34650   0.34826   0.34827   0.35981
     Eigenvalues ---    0.35992   0.36091   0.36093   0.42071   0.43558
     Eigenvalues ---    0.43599   0.47614   0.47933   0.48453   0.48618
     Eigenvalues ---    0.58713   1.04167
 RFO step:  Lambda=-4.38599966D-03 EMin= 4.71272824D-03
 Linear search not attempted -- first point.
 Iteration  1 RMS(Cart)=  0.09946694 RMS(Int)=  0.00078472
 Iteration  2 RMS(Cart)=  0.00232246 RMS(Int)=  0.00011048
 Iteration  3 RMS(Cart)=  0.00000410 RMS(Int)=  0.00011048
 Iteration  4 RMS(Cart)=  0.00000000 RMS(Int)=  0.00011048
 ITry= 1 IFail=0 DXMaxC= 3.71D-01 DCOld= 1.00D+10 DXMaxT= 3.00D-01 DXLimC= 3.00D+00 Rises=F
 Variable       Old X    -DE/DX   Delta X   Delta X   Delta X     New X
                                 (Linear)    (Quad)   (Total)
    R1        2.68833   0.00906   0.00000   0.02131   0.02131   2.70964
    R2        2.06247  -0.00047   0.00000  -0.00133  -0.00133   2.06114
    R3        2.05956   0.00163   0.00000   0.00462   0.00462   2.06418
    R4        2.05958   0.00161   0.00000   0.00457   0.00457   2.06415
    R5        2.51973   0.01442   0.00000   0.02437   0.02437   2.54410
    R6        2.27015   0.01854   0.00000   0.01773   0.01773   2.28788
    R7        2.87669   0.00685   0.00000   0.02239   0.02239   2.89907
    R8        2.83184   0.00836   0.00000   0.02534   0.02534   2.85718
    R9        2.06424   0.00122   0.00000   0.00349   0.00349   2.06774
   R10        2.06424   0.00125   0.00000   0.00357   0.00357   2.06781
   R11        2.62621   0.00869   0.00000   0.01811   0.01811   2.64432
   R12        2.62626   0.00862   0.00000   0.01796   0.01796   2.64423
   R13        2.61282   0.01099   0.00000   0.02241   0.02241   2.63524
   R14        2.04094   0.00450   0.00000   0.01236   0.01236   2.05330
   R15        2.61503   0.00859   0.00000   0.01767   0.01766   2.63269
   R16        2.03939   0.00329   0.00000   0.00901   0.00901   2.04840
   R17        3.60199   0.00258   0.00000   0.01402   0.01402   3.61601
   R18        2.61507   0.00854   0.00000   0.01755   0.01755   2.63261
   R19        2.61289   0.01101   0.00000   0.02244   0.02244   2.63533
   R20        2.03936   0.00330   0.00000   0.00904   0.00904   2.04840
   R21        2.04111   0.00443   0.00000   0.01217   0.01217   2.05328
    A1        1.91955   0.00194   0.00000   0.01320   0.01318   1.93273
    A2        1.88892  -0.00059   0.00000  -0.00424  -0.00426   1.88466
    A3        1.88862  -0.00059   0.00000  -0.00427  -0.00429   1.88433
    A4        1.92437  -0.00007   0.00000   0.00096   0.00095   1.92532
    A5        1.92455  -0.00007   0.00000   0.00098   0.00097   1.92552
    A6        1.91715  -0.00064   0.00000  -0.00680  -0.00683   1.91031
    A7        2.05954   0.00029   0.00000   0.00113   0.00113   2.06067
    A8        2.17742  -0.00059   0.00000  -0.00233  -0.00233   2.17509
    A9        1.94756   0.00466   0.00000   0.01832   0.01832   1.96587
   A10        2.15821  -0.00407   0.00000  -0.01599  -0.01599   2.14222
   A11        1.97079   0.01419   0.00000   0.07048   0.07013   2.04091
   A12        1.86458  -0.00479   0.00000  -0.01888  -0.01938   1.84520
   A13        1.86452  -0.00478   0.00000  -0.01879  -0.01929   1.84523
   A14        1.94115  -0.00279   0.00000  -0.00600  -0.00618   1.93497
   A15        1.94085  -0.00279   0.00000  -0.00595  -0.00613   1.93472
   A16        1.87697   0.00029   0.00000  -0.02584  -0.02631   1.85066
   A17        2.10365   0.00097   0.00000   0.00415   0.00412   2.10777
   A18        2.10392   0.00098   0.00000   0.00420   0.00418   2.10810
   A19        2.07530  -0.00194   0.00000  -0.00803  -0.00806   2.06724
   A20        2.11009   0.00131   0.00000   0.00545   0.00544   2.11553
   A21        2.09063  -0.00085   0.00000  -0.00393  -0.00393   2.08670
   A22        2.08247  -0.00046   0.00000  -0.00152  -0.00152   2.08095
   A23        2.07818  -0.00009   0.00000  -0.00048  -0.00049   2.07769
   A24        2.10587   0.00044   0.00000   0.00262   0.00262   2.10849
   A25        2.09913  -0.00034   0.00000  -0.00213  -0.00213   2.09700
   A26        2.08430   0.00025   0.00000   0.00096   0.00096   2.08526
   A27        2.11459  -0.00051   0.00000  -0.00194  -0.00195   2.11264
   A28        2.08430   0.00026   0.00000   0.00097   0.00097   2.08527
   A29        2.07814  -0.00009   0.00000  -0.00047  -0.00048   2.07766
   A30        2.09927  -0.00036   0.00000  -0.00223  -0.00223   2.09704
   A31        2.10577   0.00045   0.00000   0.00270   0.00270   2.10848
   A32        2.11008   0.00132   0.00000   0.00548   0.00548   2.11555
   A33        2.09063  -0.00086   0.00000  -0.00395  -0.00395   2.08668
   A34        2.08248  -0.00046   0.00000  -0.00154  -0.00154   2.08094
    D1        0.00237   0.00000   0.00000   0.00023   0.00023   0.00260
    D2       -2.10086  -0.00071   0.00000  -0.00620  -0.00618  -2.10705
    D3        2.10565   0.00071   0.00000   0.00666   0.00664   2.11229
    D4        0.00011   0.00001   0.00000   0.00063   0.00064   0.00075
    D5        3.14127  -0.00001   0.00000  -0.00066  -0.00067   3.14060
    D6        0.00719   0.00002   0.00000   0.00202   0.00202   0.00921
    D7        2.14659   0.00212   0.00000   0.02571   0.02549   2.17208
    D8       -2.13180  -0.00208   0.00000  -0.02177  -0.02155  -2.15335
    D9       -3.13483   0.00001   0.00000   0.00075   0.00076  -3.13408
   D10       -0.99543   0.00210   0.00000   0.02444   0.02422  -0.97121
   D11        1.00936  -0.00210   0.00000  -0.02304  -0.02282   0.98654
   D12        1.54984   0.00014   0.00000   0.00758   0.00760   1.55743
   D13       -1.56441  -0.00012   0.00000  -0.00604  -0.00607  -1.57048
   D14       -0.54619  -0.00154   0.00000  -0.01271  -0.01281  -0.55899
   D15        2.62275  -0.00180   0.00000  -0.02632  -0.02647   2.59628
   D16       -2.63762   0.00183   0.00000   0.02798   0.02812  -2.60949
   D17        0.53132   0.00156   0.00000   0.01436   0.01446   0.54578
   D18       -3.11501  -0.00001   0.00000  -0.00182  -0.00180  -3.11680
   D19        0.02554  -0.00013   0.00000  -0.00614  -0.00613   0.01941
   D20       -0.00032   0.00029   0.00000   0.01177   0.01174   0.01142
   D21        3.14023   0.00017   0.00000   0.00744   0.00741  -3.13555
   D22        3.11537   0.00000   0.00000   0.00144   0.00142   3.11678
   D23       -0.02537   0.00012   0.00000   0.00599   0.00597  -0.01940
   D24        0.00068  -0.00030   0.00000  -0.01215  -0.01212  -0.01144
   D25       -3.14005  -0.00018   0.00000  -0.00760  -0.00756   3.13557
   D26        0.00079  -0.00012   0.00000  -0.00481  -0.00483  -0.00405
   D27       -3.14115  -0.00004   0.00000  -0.00166  -0.00167   3.14037
   D28       -3.13976  -0.00000   0.00000  -0.00051  -0.00052  -3.14028
   D29        0.00149   0.00008   0.00000   0.00265   0.00265   0.00414
   D30        3.14119   0.00009   0.00000   0.00321   0.00321  -3.13878
   D31       -0.00164  -0.00005   0.00000  -0.00199  -0.00200  -0.00364
   D32       -0.00006   0.00000   0.00000   0.00007   0.00007   0.00000
   D33        3.14029  -0.00013   0.00000  -0.00513  -0.00514   3.13515
   D34        0.00200   0.00004   0.00000   0.00161   0.00162   0.00362
   D35       -3.14067   0.00014   0.00000   0.00549   0.00550  -3.13516
   D36       -3.14084  -0.00010   0.00000  -0.00358  -0.00358   3.13877
   D37       -0.00031   0.00001   0.00000   0.00030   0.00030  -0.00002
   D38       -0.00151   0.00014   0.00000   0.00556   0.00558   0.00408
   D39        3.13923   0.00002   0.00000   0.00103   0.00105   3.14028
   D40        3.14116   0.00004   0.00000   0.00167   0.00168  -3.14034
   D41       -0.00129  -0.00008   0.00000  -0.00286  -0.00286  -0.00414
         Item               Value     Threshold  Converged?
 Maximum Force            0.018544     0.000450     NO 
 RMS     Force            0.004226     0.000300     NO 
 Maximum Displacement     0.371078     0.001800     NO 
 RMS     Displacement     0.101195     0.001200     NO 
 Predicted change in Energy=-2.232786D-03
 Lowest energy point so far.  Saving SCF results.
 GradGradGradGradGradGradGradGradGradGradGradGradGradGradGradGradGradGrad

 Leave Link  103 at Tue Sep 17 09:41:53 2024, MaxMem=  1342177280 cpu:               0.1 elap:               0.0
 (Enter /groups/ReismanLab/Software/Gaussian16_RevC/Linux_Binary_AVX2-enabled-CPU/g16/l202.exe)
                          Input orientation:                          
 ---------------------------------------------------------------------
 Center     Atomic      Atomic             Coordinates (Angstroms)
 Number     Number       Type             X           Y           Z
 ---------------------------------------------------------------------
      1          6           0        4.099476   -1.776880    0.096451
      2          8           0        3.151001   -0.705660    0.190761
      3          6           0        3.613866    0.527566    0.468941
      4          8           0        4.779944    0.800947    0.645857
      5          6           0        2.495999    1.575888    0.539112
      6          6           0        1.083942    1.088016    0.306538
      7          6           0        0.299091    0.633329    1.372064
      8          6           0       -0.993833    0.153988    1.164154
      9          6           0       -1.508131    0.135138   -0.130467
     10         35           0       -3.282552   -0.515725   -0.429332
     11          6           0       -0.753815    0.589733   -1.209879
     12          6           0        0.537055    1.065304   -0.981228
     13          1           0        5.111878   -1.413308    0.276727
     14          1           0        4.023758   -2.207186   -0.904680
     15          1           0        3.829790   -2.531915    0.838279
     16          1           0        2.589508    2.043581    1.523893
     17          1           0        2.766482    2.346987   -0.188626
     18          1           0        0.703683    0.648245    2.380378
     19          1           0       -1.595708   -0.197711    1.994239
     20          1           0       -1.170552    0.574049   -2.210413
     21          1           0        1.128528    1.419453   -1.821066
 ---------------------------------------------------------------------
                    Distance matrix (angstroms):
                    1          2          3          4          5
     1  C    0.000000
     2  O    1.433880   0.000000
     3  C    2.384332   1.346282   0.000000
     4  O    2.722145   2.265046   1.210691   0.000000
     5  C    3.742745   2.399133   1.534122   2.414194   0.000000
     6  C    4.164758   2.739235   2.596343   3.722630   1.511957
     7  C    4.677523   3.364782   3.437230   4.542413   2.531527
     8  C    5.550680   4.343517   4.674802   5.832983   3.819869
     9  C    5.928960   4.745275   5.171860   6.370703   4.307801
    10  Br   7.507416   6.466157   7.032491   8.239751   6.221284
    11  C    5.555339   4.345967   4.679631   5.840450   3.820047
    12  C    4.682974   3.367876   3.443679   4.551856   2.531717
    13  H    1.090707   2.086431   2.459264   2.269221   3.980825
    14  H    1.092318   2.053357   3.087672   3.467686   4.327844
    15  H    1.092299   2.053105   3.089248   3.470992   4.329266
    16  H    4.348967   3.106581   2.111998   2.667039   1.094200
    17  H    4.343319   3.100071   2.112048   2.672195   1.094238
    18  H    4.756992   3.552021   3.483866   4.432583   2.731881
    19  H    6.207294   5.103116   5.476515   6.592753   4.690960
    20  H    6.214635   5.106772   5.483772   6.604405   4.691180
    21  H    4.766545   3.557239   3.495211   4.449842   2.732195
                    6          7          8          9         10
     6  C    0.000000
     7  C    1.399313   0.000000
     8  C    2.434145   1.394507   0.000000
     9  C    2.796031   2.402466   1.393161   0.000000
    10  Br   4.709539   4.170554   2.868091   1.913508   0.000000
    11  C    2.434165   2.788718   2.425596   1.393119   2.868066
    12  C    1.399265   2.404415   2.788687   2.402454   4.170567
    13  H    4.741495   5.343351   6.365819   6.810874   8.471755
    14  H    4.579074   5.208189   5.918736   6.057036   7.514596
    15  H    4.574530   4.771743   5.530607   6.045249   7.500485
    16  H    2.159118   2.694044   4.066978   4.813492   6.696732
    17  H    2.158967   3.385321   4.558424   4.813312   6.696556
    18  H    2.153789   1.086560   2.145939   3.385223   5.013917
    19  H    3.417887   2.160553   1.083968   2.152402   2.969895
    20  H    3.417887   3.872662   3.405199   2.152389   2.969915
    21  H    2.153726   3.391466   3.875223   3.385198   5.013927
                   11         12         13         14         15
    11  C    0.000000
    12  C    1.394559   0.000000
    13  H    6.374052   5.353035   0.000000
    14  H    5.544467   4.782484   1.791640   0.000000
    15  H    5.911775   5.205065   1.791751   1.783530   0.000000
    16  H    4.556862   3.383079   4.457337   5.101378   4.789940
    17  H    4.064898   2.690962   4.456148   4.778490   5.097925
    18  H    3.875264   3.391474   5.301654   5.474303   4.718478
    19  H    3.405177   3.872633   7.029881   6.634766   6.018370
    20  H    1.083967   2.160590   7.043038   6.034987   6.629100
    21  H    2.145973   1.086550   5.319055   4.730183   5.475605
                   16         17         18         19         20
    16  H    0.000000
    17  H    1.748169   0.000000
    18  H    2.497372   3.706838   0.000000
    19  H    4.770812   5.501735   2.480310   0.000000
    20  H    5.499329   4.767722   4.959196   4.295983   0.000000
    21  H    3.703073   2.491601   4.292713   4.959157   2.480337
                   21
    21  H    0.000000
 Stoichiometry    C9H9BrO2
 Framework group  C1[X(C9H9BrO2)]
 Deg. of freedom    57
 Full point group                 C1      NOp   1
 RotChk:  IX=2 Diff= 4.32D-02
 Largest Abelian subgroup         C1      NOp   1
 Largest concise Abelian subgroup C1      NOp   1
                         Standard orientation:                         
 ---------------------------------------------------------------------
 Center     Atomic      Atomic             Coordinates (Angstroms)
 Number     Number       Type             X           Y           Z
 ---------------------------------------------------------------------
      1          6           0       -3.783971    2.128516   -0.007460
      2          8           0       -2.924726    0.980601   -0.007246
      3          6           0       -3.496145   -0.238359    0.002411
      4          8           0       -4.690187   -0.438298    0.010240
      5          6           0       -2.464726   -1.374008    0.000070
      6          6           0       -1.006430   -0.974776    0.000112
      7          6           0       -0.319756   -0.772280    1.202423
      8          6           0        1.017074   -0.375520    1.213118
      9          6           0        1.675429   -0.183940    0.000367
     10         35           0        3.511186    0.355974    0.000572
     11          6           0        1.020610   -0.386596   -1.212450
     12          6           0       -0.316295   -0.783292   -1.201965
     13          1           0       -4.831969    1.826478    0.003342
     14          1           0       -3.566787    2.712160   -0.904874
     15          1           0       -3.551470    2.723527    0.878555
     16          1           0       -2.700141   -1.990148    0.873125
     17          1           0       -2.700676   -1.987088   -0.875041
     18          1           0       -0.836526   -0.921383    2.146525
     19          1           0        1.542383   -0.219438    2.148359
     20          1           0        1.548587   -0.239061   -2.147575
     21          1           0       -0.830344   -0.941026   -2.146139
 ---------------------------------------------------------------------
 Rotational constants (GHZ):           1.9792448           0.2431418           0.2350121
 Leave Link  202 at Tue Sep 17 09:41:53 2024, MaxMem=  1342177280 cpu:               0.0 elap:               0.0
 (Enter /groups/ReismanLab/Software/Gaussian16_RevC/Linux_Binary_AVX2-enabled-CPU/g16/l301.exe)
 Standard basis: 6-31G(d,p) (6D, 7F)
 Ernie: Thresh=  0.10000D-02 Tol=  0.10000D-05 Strict=F.
 There are   240 symmetry adapted cartesian basis functions of A   symmetry.
 There are   240 symmetry adapted basis functions of A   symmetry.
   240 basis functions,   454 primitive gaussians,   240 cartesian basis functions
    57 alpha electrons       57 beta electrons
       nuclear repulsion energy       898.0208163705 Hartrees.
 IExCor=  402 DFT=T Ex+Corr=B3LYP ExCW=0 ScaHFX=  0.200000
 ScaDFX=  0.800000  0.720000  1.000000  0.810000 ScalE2=  1.000000  1.000000
 IRadAn=      5 IRanWt=     -1 IRanGd=            0 ICorTp=0 IEmpDi=141
 NAtoms=   21 NActive=   21 NUniq=   21 SFac= 1.00D+00 NAtFMM=   60 NAOKFM=F Big=F
 Integral buffers will be    131072 words long.
 Raffenetti 2 integral format.
 Two-electron integral symmetry is turned on.
 R6Disp:  Grimme-D3(BJ) Dispersion energy=       -0.0405053680 Hartrees.
 Nuclear repulsion after empirical dispersion term =      897.9803110025 Hartrees.
 Leave Link  301 at Tue Sep 17 09:41:53 2024, MaxMem=  1342177280 cpu:               0.1 elap:               0.1
 (Enter /groups/ReismanLab/Software/Gaussian16_RevC/Linux_Binary_AVX2-enabled-CPU/g16/l302.exe)
 NPDir=0 NMtPBC=     1 NCelOv=     1 NCel=       1 NClECP=     1 NCelD=      1
         NCelK=      1 NCelE2=     1 NClLst=     1 CellRange=     0.0.
 One-electron integrals computed using PRISM.
 One-electron integral symmetry used in STVInt
 NBasis=   240 RedAO= T EigKep=  4.39D-04  NBF=   240
 NBsUse=   240 1.00D-06 EigRej= -1.00D+00 NBFU=   240
 Precomputing XC quadrature grid using
 IXCGrd= 4 IRadAn=           5 IRanWt=          -1 IRanGd=           0 AccXCQ= 0.00D+00.
 Generated NRdTot=       0 NPtTot=           0 NUsed=           0 NTot=          32
 NSgBfM=   237   237   237   237   237 MxSgAt=    21 MxSgA2=    21.
 Leave Link  302 at Tue Sep 17 09:41:54 2024, MaxMem=  1342177280 cpu:               1.0 elap:               0.2
 (Enter /groups/ReismanLab/Software/Gaussian16_RevC/Linux_Binary_AVX2-enabled-CPU/g16/l303.exe)
 DipDrv:  MaxL=1.
 Leave Link  303 at Tue Sep 17 09:41:54 2024, MaxMem=  1342177280 cpu:               0.1 elap:               0.0
 (Enter /groups/ReismanLab/Software/Gaussian16_RevC/Linux_Binary_AVX2-enabled-CPU/g16/l401.exe)
 Initial guess from the checkpoint file:  "smiles_00047_conf_5.chk"
 B after Tr=    -0.000000   -0.000000    0.000000
         Rot=    0.999976   -0.001620   -0.000059   -0.006788 Ang=  -0.80 deg.
 Guess basis will be translated and rotated to current coordinates.
 JPrj=2 DoOrth=T DoCkMO=T.
 Generating alternative initial guess.
 ExpMin= 1.43D-01 ExpMax= 5.74D+05 ExpMxC= 5.74D+03 IAcc=3 IRadAn=         5 AccDes= 0.00D+00
 Harris functional with IExCor=  402 and IRadAn=       5 diagonalized for initial guess.
 HarFok:  IExCor=  402 AccDes= 0.00D+00 IRadAn=         5 IDoV= 1 UseB2=F ITyADJ=14
 ICtDFT=  3500011 ScaDFX=  1.000000  1.000000  1.000000  1.000000
 FoFCou: FMM=F IPFlag=           0 FMFlag=      100000 FMFlg1=           0
         NFxFlg=           0 DoJE=T BraDBF=F KetDBF=T FulRan=T
         wScrn=  0.000000 ICntrl=       500 IOpCl=  0 I1Cent=   200000004 NGrid=           0
         NMat0=    1 NMatS0=      1 NMatT0=    0 NMatD0=    1 NMtDS0=    0 NMtDT0=    0
 Petite list used in FoFCou.
 Harris En= -3070.72010161268    
 Leave Link  401 at Tue Sep 17 09:41:54 2024, MaxMem=  1342177280 cpu:               5.0 elap:               0.7
 (Enter /groups/ReismanLab/Software/Gaussian16_RevC/Linux_Binary_AVX2-enabled-CPU/g16/l502.exe)
 Integral symmetry usage will be decided dynamically.
 Closed shell SCF:
 Using DIIS extrapolation, IDIIS=  1040.
 NGot=  1342177280 LenX=  1342057097 LenY=  1341999056
 Requested convergence on RMS density matrix=1.00D-08 within  32 cycles.
 Requested convergence on MAX density matrix=1.00D-06.
 Requested convergence on             energy=1.00D-06.
 No special actions if energy rises.
 Fock matrices will be formed incrementally for  20 cycles.
 Integral accuracy reduced to 1.0D-05 until final iterations.

[...]
                 (A) (A) (A) (A) (A) (A) (A) (A) (A) (A) (A) (A)
                 (A) (A) (A) (A) (A) (A) (A) (A) (A)
       Virtual   (A) (A) (A) (A) (A) (A) (A) (A) (A) (A) (A) (A)
                 (A) (A) (A) (A) (A) (A) (A) (A) (A) (A) (A) (A)
                 (A) (A) (A) (A) (A) (A) (A) (A) (A) (A) (A) (A)
                 (A) (A) (A) (A) (A) (A) (A) (A) (A) (A) (A) (A)
                 (A) (A) (A) (A) (A) (A) (A) (A) (A) (A) (A) (A)
                 (A) (A) (A) (A) (A) (A) (A) (A) (A) (A) (A) (A)
                 (A) (A) (A) (A) (A) (A) (A) (A) (A) (A) (A) (A)
                 (A) (A) (A) (A) (A) (A) (A) (A) (A) (A) (A) (A)
                 (A) (A) (A) (A) (A) (A) (A) (A) (A) (A) (A) (A)
                 (A) (A) (A) (A) (A) (A) (A) (A) (A) (A) (A) (A)
                 (A) (A) (A) (A) (A) (A) (A) (A) (A) (A) (A) (A)
                 (A) (A) (A) (A) (A) (A) (A) (A) (A) (A) (A) (A)
                 (A) (A) (A) (A) (A) (A) (A) (A) (A) (A) (A) (A)
                 (A) (A) (A) (A) (A) (A) (A) (A) (A) (A) (A) (A)
                 (A) (A) (A) (A) (A) (A) (A) (A) (A) (A) (A) (A)
                 (A) (A) (A) (A) (A) (A) (A) (A) (A) (A) (A) (A)
                 (A) (A) (A) (A) (A) (A) (A) (A) (A) (A) (A) (A)
                 (A) (A) (A) (A) (A) (A) (A) (A) (A) (A) (A) (A)
                 (A) (A) (A) (A) (A) (A) (A) (A) (A) (A) (A) (A)
                 (A) (A) (A) (A) (A) (A) (A) (A) (A) (A) (A) (A)
                 (A) (A) (A) (A) (A) (A) (A) (A) (A) (A) (A) (A)
                 (A) (A) (A) (A) (A) (A) (A) (A) (A) (A) (A) (A)
                 (A) (A) (A) (A) (A) (A) (A) (A) (A) (A) (A) (A)
                 (A) (A) (A) (A) (A) (A) (A) (A) (A) (A) (A) (A)
                 (A) (A) (A) (A) (A) (A) (A) (A) (A) (A) (A) (A)
                 (A) (A) (A) (A) (A) (A) (A) (A) (A) (A) (A) (A)
                 (A) (A) (A) (A) (A) (A) (A) (A) (A) (A) (A) (A)
                 (A) (A) (A) (A) (A) (A) (A) (A) (A) (A) (A) (A)
                 (A) (A) (A) (A) (A) (A) (A) (A) (A) (A) (A) (A)
                 (A) (A) (A) (A) (A) (A) (A) (A) (A) (A) (A) (A)
                 (A) (A) (A) (A) (A) (A) (A) (A) (A) (A) (A) (A)
                 (A) (A) (A) (A) (A) (A) (A) (A) (A) (A) (A) (A)
                 (A) (A)
 The electronic state is 1-A.
 Alpha  occ. eigenvalues -- -485.37515 -63.35996 -57.17940 -57.17705 -57.17699
 Alpha  occ. eigenvalues --  -19.67753 -19.62171 -10.67879 -10.60403 -10.58871
 Alpha  occ. eigenvalues --  -10.56743 -10.55947 -10.55798 -10.55745 -10.55545
 Alpha  occ. eigenvalues --  -10.55272  -9.02641  -6.85045  -6.84175  -6.84156
 Alpha  occ. eigenvalues --   -2.88421  -2.88106  -2.88083  -2.87273  -2.87272
 Alpha  occ. eigenvalues --   -1.23634  -1.14384  -0.98518  -0.91844  -0.87002
 Alpha  occ. eigenvalues --   -0.85707  -0.82224  -0.77616  -0.70805  -0.67580
 Alpha  occ. eigenvalues --   -0.65270  -0.59609  -0.58490  -0.57204  -0.55701
 Alpha  occ. eigenvalues --   -0.54397  -0.53249  -0.50182  -0.49533  -0.48448
 Alpha  occ. eigenvalues --   -0.47260  -0.45534  -0.44844  -0.43575  -0.41802
 Alpha  occ. eigenvalues --   -0.40885  -0.38186  -0.37839  -0.35891  -0.35163
 Alpha  occ. eigenvalues --   -0.32180  -0.29512
 Alpha virt. eigenvalues --    0.00275   0.00692   0.03583   0.04905   0.07720
 Alpha virt. eigenvalues --    0.09766   0.10464   0.10877   0.12310   0.13347
 Alpha virt. eigenvalues --    0.14136   0.14469   0.15516   0.16184   0.16540
 Alpha virt. eigenvalues --    0.17635   0.18018   0.19827   0.20806   0.21647
 Alpha virt. eigenvalues --    0.22965   0.23660   0.24256   0.24665   0.24803
 Alpha virt. eigenvalues --    0.26315   0.26816   0.27284   0.27844   0.29262
 Alpha virt. eigenvalues --    0.30419   0.31092   0.31387   0.32361   0.32826
 Alpha virt. eigenvalues --    0.33288   0.34457   0.34939   0.35288   0.36178
 Alpha virt. eigenvalues --    0.36872   0.38088   0.38300   0.40008   0.40542
 Alpha virt. eigenvalues --    0.40936   0.41124   0.42187   0.43580   0.44373
 Alpha virt. eigenvalues --    0.44740   0.45978   0.46672   0.47055   0.47665
 Alpha virt. eigenvalues --    0.48637   0.49380   0.49446   0.49691   0.50652
 Alpha virt. eigenvalues --    0.52951   0.53684   0.54196   0.55226   0.56688
 Alpha virt. eigenvalues --    0.57490   0.58007   0.58757   0.59418   0.60421
 Alpha virt. eigenvalues --    0.62549   0.63624   0.65147   0.66700   0.66983
 Alpha virt. eigenvalues --    0.69136   0.69426   0.71553   0.71983   0.72818
 Alpha virt. eigenvalues --    0.73920   0.75872   0.76677   0.77721   0.78799
 Alpha virt. eigenvalues --    0.80332   0.81042   0.84088   0.84549   0.86650
 Alpha virt. eigenvalues --    0.88295   0.89519   0.89683   0.90400   0.91994
 Alpha virt. eigenvalues --    0.93088   0.94002   0.96977   0.98455   0.99889
 Alpha virt. eigenvalues --    1.00183   1.02080   1.03315   1.04342   1.06395
 Alpha virt. eigenvalues --    1.06925   1.08717   1.09398   1.10788   1.11365
 Alpha virt. eigenvalues --    1.12999   1.15241   1.18535   1.19341   1.21524
 Alpha virt. eigenvalues --    1.23079   1.23663   1.25082   1.25406   1.26262
 Alpha virt. eigenvalues --    1.27303   1.29428   1.30232   1.33122   1.36371
 Alpha virt. eigenvalues --    1.38334   1.39192   1.39892   1.42196   1.42641
 Alpha virt. eigenvalues --    1.45023   1.45212   1.47434   1.48268   1.49425
 Alpha virt. eigenvalues --    1.50421   1.50933   1.51672   1.52983   1.53959
 Alpha virt. eigenvalues --    1.54824   1.56888   1.57073   1.57769   1.58052
 Alpha virt. eigenvalues --    1.58822   1.59758   1.60633   1.61806   1.63334
 Alpha virt. eigenvalues --    1.63827   1.65504   1.66364   1.66770   1.67099
 Alpha virt. eigenvalues --    1.67714   1.69085   1.71965   1.73379   1.73923
 Alpha virt. eigenvalues --    1.74806   1.75307   1.76575   1.77944   1.79305
 Alpha virt. eigenvalues --    1.82498   1.83265   1.85184   1.86090   1.88035
 Alpha virt. eigenvalues --    1.89027   1.92629   1.93029   1.93866   1.94021
 Alpha virt. eigenvalues --    1.94944   1.95868   1.99989   2.00122   2.04177
 Alpha virt. eigenvalues --    2.05941   2.06659   2.08146   2.10237   2.11221
 Alpha virt. eigenvalues --    2.13859   2.15820   2.17101   2.17660   2.18649
 Alpha virt. eigenvalues --    2.20128   2.21649   2.25656   2.26476   2.27931
 Alpha virt. eigenvalues --    2.28438   2.29718   2.33379   2.34021   2.36371
 Alpha virt. eigenvalues --    2.38266   2.40887   2.42711   2.43517   2.45154
 Alpha virt. eigenvalues --    2.47654   2.48754   2.51978   2.54473   2.55015
 Alpha virt. eigenvalues --    2.56278   2.57306   2.59247   2.60798   2.61091
 Alpha virt. eigenvalues --    2.62814   2.63072   2.64137   2.66670   2.68774
 Alpha virt. eigenvalues --    2.69144   2.71049   2.72029   2.72541   2.75846
 Alpha virt. eigenvalues --    2.77162   2.78045   2.78112   2.80779   2.81106
 Alpha virt. eigenvalues --    2.81761   2.83551   2.83768   2.84875   2.85917
 Alpha virt. eigenvalues --    2.87594   2.89652   2.91841   2.93543   2.96542
 Alpha virt. eigenvalues --    2.96649   2.97413   3.01385   3.02839   3.04309
 Alpha virt. eigenvalues --    3.05339   3.05715   3.06700   3.09429   3.10237
 Alpha virt. eigenvalues --    3.11094   3.12313   3.14102   3.15174   3.15373
 Alpha virt. eigenvalues --    3.16086   3.17615   3.20063   3.20500   3.22544
 Alpha virt. eigenvalues --    3.23464   3.23948   3.26099   3.26743   3.28056
 Alpha virt. eigenvalues --    3.29712   3.30224   3.32117   3.32849   3.34771
 Alpha virt. eigenvalues --    3.35090   3.37567   3.38644   3.39102   3.40296
 Alpha virt. eigenvalues --    3.41364   3.41988   3.43385   3.44672   3.45146
 Alpha virt. eigenvalues --    3.45889   3.46640   3.47701   3.49333   3.50836
 Alpha virt. eigenvalues --    3.52304   3.53821   3.55349   3.57014   3.58279
 Alpha virt. eigenvalues --    3.58988   3.60211   3.62461   3.66621   3.66981
 Alpha virt. eigenvalues --    3.74465   3.75184   3.76182   3.78625   3.80942
 Alpha virt. eigenvalues --    3.84564   3.86503   3.87736   3.92649   3.97649
 Alpha virt. eigenvalues --    3.98748   4.01928   4.03158   4.05641   4.07104
 Alpha virt. eigenvalues --    4.09132   4.11488   4.13805   4.15185   4.16504
 Alpha virt. eigenvalues --    4.17332   4.17994   4.19520   4.21967   4.22470
 Alpha virt. eigenvalues --    4.22924   4.25803   4.27127   4.30282   4.34451
 Alpha virt. eigenvalues --    4.37063   4.38542   4.39458   4.42703   4.46239
 Alpha virt. eigenvalues --    4.48560   4.50932   4.53106   4.56538   4.60452
 Alpha virt. eigenvalues --    4.61755   4.63992   4.72439   4.77026   4.81174
 Alpha virt. eigenvalues --    4.82583   4.85209   4.91509   4.92794   5.09671
 Alpha virt. eigenvalues --    5.13182   5.18806   5.22774   5.28582   5.30648
 Alpha virt. eigenvalues --    5.33623   5.41561   5.41917   5.49762   5.53163
 Alpha virt. eigenvalues --    5.61823   5.66638   5.81070   5.95755   6.02032
 Alpha virt. eigenvalues --    6.10679   6.16684   6.36031   6.37122   6.49882
 Alpha virt. eigenvalues --    6.63351   6.64256   6.76295   6.79550   6.87085
 Alpha virt. eigenvalues --    6.97702   7.09654   7.21391   7.34640   7.85121
 Alpha virt. eigenvalues --   22.08934  22.41245  22.61000  22.72878  22.76159
 Alpha virt. eigenvalues --   22.80851  22.88320  23.27321  23.39888  44.03765
 Alpha virt. eigenvalues --   44.23878
          Condensed to atoms (all electrons):
               1          2          3          4          5          6
     1  C    4.876077   0.203162  -0.053876   0.001491   0.008479  -0.000406
     2  O    0.203162   7.977212   0.350476  -0.084567  -0.091059   0.001292
     3  C   -0.053876   0.350476   4.482274   0.623416   0.301998  -0.007881
     4  O    0.001491  -0.084567   0.623416   7.885868  -0.073713  -0.029588
     5  C    0.008479  -0.091059   0.301998  -0.073713   5.223326   0.282448
     6  C   -0.000406   0.001292  -0.007881  -0.029588   0.282448   5.060937
     7  C   -0.000023   0.000448  -0.004061   0.012313  -0.079830   0.403659
     8  C   -0.000027   0.000099   0.002291   0.000364   0.007457  -0.016525
     9  C    0.000009   0.000053   0.000182   0.000190  -0.004129  -0.071045
    10  Br  -0.000000  -0.000000   0.000007   0.000000  -0.000071  -0.005924
    11  C   -0.000003  -0.000317  -0.001196  -0.000077   0.015927  -0.012308
    12  C   -0.000055   0.002397   0.001974   0.000789  -0.067792   0.457562
    13  H    0.417332  -0.035533  -0.005662   0.004632  -0.001021  -0.000398
    14  H    0.421245  -0.033213  -0.009505   0.003302   0.000104  -0.000073
    15  H    0.394834  -0.029361   0.005296   0.001871   0.000692   0.000241
    16  H   -0.000514   0.003188  -0.045484   0.000501   0.423409  -0.037455
    17  H   -0.000134   0.006590  -0.032666   0.004795   0.421964  -0.055357
    18  H   -0.000087   0.000667  -0.004394   0.015093   0.001026  -0.032763
    19  H    0.000000  -0.000001   0.000002  -0.000047   0.000025   0.007666
    20  H    0.000000  -0.000005  -0.000006  -0.000000   0.000072   0.006895
    21  H   -0.000003  -0.000026  -0.000483   0.000007  -0.004880  -0.031714
               7          8          9         10         11         12
     1  C   -0.000023  -0.000027   0.000009  -0.000000  -0.000003  -0.000055
     2  O    0.000448   0.000099   0.000053  -0.000000  -0.000317   0.002397
     3  C   -0.004061   0.002291   0.000182   0.000007  -0.001196   0.001974
     4  O    0.012313   0.000364   0.000190   0.000000  -0.000077   0.000789
     5  C   -0.079830   0.007457  -0.004129  -0.000071   0.015927  -0.067792
     6  C    0.403659  -0.016525  -0.071045  -0.005924  -0.012308   0.457562
     7  C    5.137910   0.395016   0.029073   0.023590  -0.098444   0.000907
     8  C    0.395016   5.131558   0.394512  -0.103621   0.030137  -0.098554
     9  C    0.029073   0.394512   4.911314   0.366689   0.400516   0.029958
    10  Br   0.023590  -0.103621   0.366689  34.930700  -0.101309   0.022672
    11  C   -0.098444   0.030137   0.400516  -0.101309   5.135771   0.380775
    12  C    0.000907  -0.098554   0.029958   0.022672   0.380775   5.090263
    13  H    0.000485  -0.000051   0.000012   0.000000  -0.000020   0.000131
    14  H   -0.000081   0.000002  -0.000000  -0.000000  -0.000001   0.000003
    15  H   -0.000064   0.000000  -0.000001  -0.000000  -0.000000  -0.000010
    16  H   -0.010643  -0.000671   0.000468  -0.000002  -0.001180   0.006157
    17  H    0.013187  -0.000451   0.000059   0.000001   0.001575  -0.008873
    18  H    0.393019  -0.018037   0.002307  -0.000221  -0.000646   0.005996
    19  H   -0.033226   0.419762  -0.047785  -0.007946   0.011740  -0.003180
    20  H   -0.003802   0.012613  -0.046223  -0.007392   0.420387  -0.035552
    21  H    0.007986  -0.000622   0.002104  -0.000293  -0.025743   0.402646
              13         14         15         16         17         18
     1  C    0.417332   0.421245   0.394834  -0.000514  -0.000134  -0.000087
     2  O   -0.035533  -0.033213  -0.029361   0.003188   0.006590   0.000667
     3  C   -0.005662  -0.009505   0.005296  -0.045484  -0.032666  -0.004394
     4  O    0.004632   0.003302   0.001871   0.000501   0.004795   0.015093
     5  C   -0.001021   0.000104   0.000692   0.423409   0.421964   0.001026
     6  C   -0.000398  -0.000073   0.000241  -0.037455  -0.055357  -0.032763
     7  C    0.000485  -0.000081  -0.000064  -0.010643   0.013187   0.393019
     8  C   -0.000051   0.000002   0.000000  -0.000671  -0.000451  -0.018037
     9  C    0.000012  -0.000000  -0.000001   0.000468   0.000059   0.002307
    10  Br   0.000000  -0.000000  -0.000000  -0.000002   0.000001  -0.000221
    11  C   -0.000020  -0.000001  -0.000000  -0.001180   0.001575  -0.000646
    12  C    0.000131   0.000003  -0.000010   0.006157  -0.008873   0.005996
    13  H    0.521842  -0.040941  -0.022218  -0.000039   0.000112   0.000043
    14  H   -0.040941   0.523369  -0.024350   0.000127  -0.000070  -0.000024
    15  H   -0.022218  -0.024350   0.516783  -0.000003  -0.000307  -0.000003
    16  H   -0.000039   0.000127  -0.000003   0.485148  -0.016884   0.000641
    17  H    0.000112  -0.000070  -0.000307  -0.016884   0.493573   0.000344
    18  H    0.000043  -0.000024  -0.000003   0.000641   0.000344   0.450098
    19  H   -0.000001   0.000000   0.000000  -0.000022   0.000001  -0.002778
    20  H    0.000000  -0.000000   0.000000  -0.000000  -0.000049   0.000038
    21  H    0.000003  -0.000001   0.000003   0.000309   0.000667  -0.000163
              19         20         21
     1  C    0.000000   0.000000  -0.000003
     2  O   -0.000001  -0.000005  -0.000026
     3  C    0.000002  -0.000006  -0.000483
     4  O   -0.000047  -0.000000   0.000007
     5  C    0.000025   0.000072  -0.004880
     6  C    0.007666   0.006895  -0.031714
     7  C   -0.033226  -0.003802   0.007986
     8  C    0.419762   0.012613  -0.000622
     9  C   -0.047785  -0.046223   0.002104
    10  Br  -0.007946  -0.007392  -0.000293
    11  C    0.011740   0.420387  -0.025743
    12  C   -0.003180  -0.035552   0.402646
    13  H   -0.000001   0.000000   0.000003
    14  H    0.000000  -0.000000  -0.000001
    15  H    0.000000   0.000000   0.000003
    16  H   -0.000022  -0.000000   0.000309
    17  H    0.000001  -0.000049   0.000667
    18  H   -0.002778   0.000038  -0.000163
    19  H    0.473677   0.000051   0.000056
    20  H    0.000051   0.475508  -0.002663
    21  H    0.000056  -0.002663   0.483997
 Mulliken charges:
               1
     1  C   -0.267500
     2  O   -0.271501
     3  C    0.397295
     4  O   -0.366637
     5  C   -0.364434
     6  C    0.080738
     7  C   -0.187419
     8  C   -0.155253
     9  C    0.031737
    10  Br  -0.116882
    11  C   -0.155584
    12  C   -0.188214
    13  H    0.161292
    14  H    0.160107
    15  H    0.156595
    16  H    0.192949
    17  H    0.171924
    18  H    0.189842
    19  H    0.182004
    20  H    0.180127
    21  H    0.168813
 Sum of Mulliken charges =  -0.00000
 Mulliken charges with hydrogens summed into heavy atoms:
               1
     1  C    0.210493
     2  O   -0.271501
     3  C    0.397295
     4  O   -0.366637
     5  C    0.000439
     6  C    0.080738
     7  C    0.002423
     8  C    0.026751
     9  C    0.031737
    10  Br  -0.116882
    11  C    0.024543
    12  C   -0.019400
 Electronic spatial extent (au):  <R**2>=           4326.3862
 Charge=             -0.0000 electrons
 Dipole moment (field-independent basis, Debye):
    X=             -2.2311    Y=              2.0011    Z=              0.3558  Tot=              3.0181
 Quadrupole moment (field-independent basis, Debye-Ang):
   XX=            -81.6301   YY=            -80.6646   ZZ=            -80.5199
   XY=             -5.6707   XZ=             -4.4823   YZ=             -1.1962
 Traceless Quadrupole moment (field-independent basis, Debye-Ang):
   XX=             -0.6919   YY=              0.2736   ZZ=              0.4183
   XY=             -5.6707   XZ=             -4.4823   YZ=             -1.1962
 Octapole moment (field-independent basis, Debye-Ang**2):
  XXX=             26.0651  YYY=              3.5805  ZZZ=             21.1786  XYY=             43.1340
  XXY=             16.0774  XXZ=             37.1183  XZZ=              3.3814  YZZ=             -4.2813
  YYZ=              4.9324  XYZ=             10.6436
 Hexadecapole moment (field-independent basis, Debye-Ang**3):
 XXXX=          -3842.1059 YYYY=           -430.6445 ZZZZ=           -385.2455 XXXY=            -71.7165
 XXXZ=           -116.5806 YYYX=            -39.3763 YYYZ=              4.3557 ZZZX=              8.3932
 ZZZY=              2.0324 XXYY=           -809.9334 XXZZ=           -674.2608 YYZZ=           -145.6504
 XXYZ=            -28.5826 YYXZ=              6.1852 ZZXY=             -8.3217
 N-N= 8.955952720635D+02 E-N=-9.106874910930D+03  KE= 3.067091881722D+03
 Calculating spin-rotation constants.
 Leave Link  601 at Tue Sep 17 10:47:03 2024, MaxMem=  1342177280 cpu:               4.6 elap:               4.6
 (Enter /groups/ReismanLab/Software/Gaussian16_RevC/Linux_Binary_AVX2-enabled-CPU/g16/l9999.exe)
 Unable to Open any file for archive entry.
 1\1\GINC-HPC-23-24\SP\RM062X\def2TZVP\C9H9Br1O2\MANTIND\17-Sep-2024\0\
 \#p M062X/def2tzvp geom=check guess=read scf(xqc,tight) integral(grid=
 ultrafine) scrf(SMD, solvent=1,4-Dioxane) nmr=giao\\spe\\0,1\C,0,4.657
 7280874,-1.5509953123,-0.006372028\O,0,3.8652302775,-0.4240498483,-0.4
 199828974\C,0,3.3516970124,0.3119018239,0.5856596455\O,0,3.5440638504,
 0.0788227114,1.7598402962\C,0,2.4667080472,1.4269678425,0.0602387167\C
 ,0,1.0074974936,1.0127005193,0.1122702418\C,0,0.4098406063,0.685090178
 6,1.3357551976\C,0,-0.9271895572,0.3013550352,1.3962043405\C,0,-1.6704
 036375,0.2444906332,0.2186511574\Br,0,-3.5072815648,-0.2778152913,0.29
 34125483\C,0,-1.0992414446,0.5597845547,-1.0101440376\C,0,0.2420996538
 ,0.9403558157,-1.054042857\H,0,4.0570173813,-2.2395883417,0.5921859639
 \H,0,5.5126114897,-1.2204520715,0.5878307961\H,0,4.9902364098,-2.02984
 77227,-0.9264536296\H,0,2.6355620103,2.2988221829,0.6992627897\H,0,2.7
 542358478,1.6781204193,-0.9620842332\H,0,1.0039578609,0.7179691732,2.2
 432966369\H,0,-1.3885035322,0.048602382,2.3435652851\H,0,-1.6906958888
 ,0.5072430589,-1.9165198411\H,0,0.6942413584,1.1843618935,-2.010870863
 8\\Version=ES64L-G16RevC.02\State=1-A\HF=-3073.0246399\RMSD=5.050e-09\
 Dipole=0.8886446,0.1022465,-0.7808787\Quadrupole=-0.4111132,0.8469265,
 -0.4358132,-1.8592034,-5.0415597,-0.6786998\PG=C01 [X(C9H9Br1O2)]\\@
 The archive entry for this job was punched.


 WERE I TO AWAIT PERFECTION, MY BOOK WOULD NEVER BE FINISHED.
                                    -- HISTORY OF CHINESE WRITING

                                       TAI T'UNG, 13TH CENTURY
 Job cpu time:       0 days  0 hours 14 minutes 54.9 seconds.
 Elapsed time:       0 days  0 hours 14 minutes 59.5 seconds.
 File lengths (MBytes):  RWF=    288 Int=      0 D2E=      0 Chk=     32 Scr=     16
 Normal termination of Gaussian 16 at Tue Sep 17 10:47:04 2024.
