 Entering Gaussian System, Link 0=g16
 Input=smiles_00047_conf_0.gjf
 Output=smiles_00047_conf_0.log
 Initial command:
 /groups/ReismanLab/Software/Gaussian16_RevC/Linux_Binary_AVX2-enabled-CPU/g16/l1.exe "/central/groups/ReismanLab/DM/dft_final/smiles_00047/Gau-1491600.inp" -scrdir="/central/groups/ReismanLab/DM/dft_final/smiles_00047/"
 Entering Link 1 = /groups/ReismanLab/Software/Gaussian16_RevC/Linux_Binary_AVX2-enabled-CPU/g16/l1.exe PID=   1491601.
  
 Copyright (c) 1988-2021, Gaussian, Inc.  All Rights Reserved.
  
 This is part of the Gaussian(R) 16 program.  It is based on
 the Gaussian(R) 09 system (copyright 2009, Gaussian, Inc.),
 the Gaussian(R) 03 system (copyright 2003, Gaussian, Inc.),
 the Gaussian(R) 98 system (copyright 1998, Gaussian, Inc.),
 the Gaussian(R) 94 system (copyright 1995, Gaussian, Inc.),
 the Gaussian 92(TM) system (copyright 1992, Gaussian, Inc.),
 the Gaussian 90(TM) system (copyright 1990, Gaussian, Inc.),
 the Gaussian 88(TM) system (copyright 1988, Gaussian, Inc.),
 the Gaussian 86(TM) system (copyright 1986, Carnegie Mellon
 University), and the Gaussian 82(TM) system (copyright 1983,
 Carnegie Mellon University). Gaussian is a federally registered
 trademark of Gaussian, Inc.
  
 This software contains proprietary and confidential information,
 including trade secrets, belonging to Gaussian, Inc.
  
 This software is provided under written license and may be
 used, copied, transmitted, or stored only in accord with that
 written license.
  
 The following legend is applicable only to US Government
 contracts under FAR:
  
                    RESTRICTED RIGHTS LEGEND
  
 Use, reproduction and disclosure by the US Government is
 subject to restrictions as set forth in subparagraphs (a)
 and (c) of the Commercial Computer Software - Restricted
 Rights clause in FAR 52.227-19.
  
 Gaussian, Inc.
 340 Quinnipiac St., Bldg. 40, Wallingford CT 06492
  
  
 ---------------------------------------------------------------
 Warning -- This program may not be used in any manner that
 competes with the business of Gaussian, Inc. or will provide
 assistance to any competitor of Gaussian, Inc.  The licensee
 of this program is prohibited from giving any competitor of
 Gaussian, Inc. access to this program.  By using this program,
 the user acknowledges that Gaussian, Inc. is engaged in the
 business of creating and licensing software in the field of
 computational chemistry and represents and warrants to the
 licensee that it is not a competitor of Gaussian, Inc. and that
 it will not use this program in any manner prohibited above.
 ---------------------------------------------------------------
  

 Cite this work as:
 Gaussian 16, Revision C.02,
 M. J. Frisch, G. W. Trucks, H. B. Schlegel, G. E. Scuseria, 
 M. A. Robb, J. R. Cheeseman, G. Scalmani, V. Barone, 
 G. A. Petersson, H. Nakatsuji, X. Li, M. Caricato, A. V. Marenich, 
 J. Bloino, B. G. Janesko, R. Gomperts, B. Mennucci, H. P. Hratchian, 
 J. V. Ortiz, A. F. Izmaylov, J. L. Sonnenberg, D. Williams-Young, 
 F. Ding, F. Lipparini, F. Egidi, J. Goings, B. Peng, A. Petrone, 
 T. Henderson, D. Ranasinghe, V. G. Zakrzewski, J. Gao, N. Rega, 
 G. Zheng, W. Liang, M. Hada, M. Ehara, K. Toyota, R. Fukuda, 
 J. Hasegawa, M. Ishida, T. Nakajima, Y. Honda, O. Kitao, H. Nakai, 
 T. Vreven, K. Throssell, J. A. Montgomery, Jr., J. E. Peralta, 
 F. Ogliaro, M. J. Bearpark, J. J. Heyd, E. N. Brothers, K. N. Kudin, 
 V. N. Staroverov, T. A. Keith, R. Kobayashi, J. Normand, 
 K. Raghavachari, A. P. Rendell, J. C. Burant, S. S. Iyengar, 
 J. Tomasi, M. Cossi, J. M. Millam, M. Klene, C. Adamo, R. Cammi, 
 J. W. Ochterski, R. L. Martin, K. Morokuma, O. Farkas, 
 J. B. Foresman, and D. J. Fox, Gaussian, Inc., Wallingford CT, 2019.
 
 ******************************************
 Gaussian 16:  ES64L-G16RevC.02  7-Dec-2021
                17-Sep-2024 
 ******************************************
 %nprocshared=8
 Will use up to    8 processors via shared memory.
 %Mem=10GB
 %Chk=smiles_00047_conf_0.chk
 ----------------------------------------------------------------------
 #p B3LYP/6-31G(d,p) EmpiricalDispersion=GD3BJ opt freq scf(xqc,tight) 
 integral(grid=ultrafine)
 ----------------------------------------------------------------------
 1/18=20,19=15,26=4,38=1/1,3;
 2/9=110,12=2,17=6,18=5,40=1/2;
 3/5=1,6=6,7=101,11=2,25=1,30=1,71=1,74=-5,75=-5,124=41/1,2,3;
 4//1;
 5/5=2,8=3,13=1,32=2,38=5/2,8;
 6/7=2,8=2,9=2,10=2,28=1/1;
 7//1,2,3,16;
 1/18=20,19=15,26=4/3(2);
 2/9=110/2;
 99//99;
 2/9=110/2;
 3/5=1,6=6,7=101,11=2,25=1,30=1,71=1,74=-5,75=-5,124=41/1,2,3;
 4/5=5,16=3,69=1/1;
 5/5=2,8=3,13=1,32=2,38=5/2,8;
 7//1,2,3,16;
 1/18=20,19=15,26=4/3(-5);
 2/9=110/2;
 6/7=2,8=2,9=2,10=2,19=2,28=1/1;
 99/9=1/99;
 Leave Link    1 at Tue Sep 17 09:41:32 2024, MaxMem=  1342177280 cpu:               0.1 elap:               0.5
 (Enter /groups/ReismanLab/Software/Gaussian16_RevC/Linux_Binary_AVX2-enabled-CPU/g16/l101.exe)
 ----------------------------------
 opt-freq conformers_unique/conf_aa
 ----------------------------------
 Symbolic Z-matrix:
 Charge =  0 Multiplicity = 1
 C                     4.48742  -1.62622   0.90958 
 O                     3.79941  -0.95823  -0.1405 
 C                     3.46592   0.31487   0.08662 
 O                     3.72682   0.91041   1.09568 
 C                     2.67445   0.8792   -1.08023 
 C                     1.22177   0.62131  -0.7811 
 C                     0.58881  -0.51246  -1.27521 
 C                    -0.73578  -0.77041  -0.9721 
 C                    -1.425     0.11347  -0.1601 
 Br                   -3.25139  -0.23324   0.26004 
 C                    -0.81123   1.24319   0.35319 
 C                     0.5129    1.4898    0.04072 
 H                     5.40045  -1.08612   1.16703 
 H                     4.72158  -2.61962   0.53648 
 H                     3.85351  -1.6887    1.79609 
 H                     2.86829   1.94925  -1.14688 
 H                     2.97683   0.37517  -1.99664 
 H                     1.13442  -1.20124  -1.90268 
 H                    -1.22741  -1.64882  -1.36098 
 H                    -1.36066   1.91969   0.98944 
 H                     1.00301   2.36258   0.44443 
 
 ITRead=  0  0  0  0  0  0  0  0  0  0  0  0  0  0  0  0  0  0  0  0
 ITRead=  0
 MicOpt= -1 -1 -1 -1 -1 -1 -1 -1 -1 -1 -1 -1 -1 -1 -1 -1 -1 -1 -1 -1
 MicOpt= -1
 NAtoms=     21 NQM=       21 NQMF=       0 NMMI=      0 NMMIF=      0
                NMic=       0 NMicF=      0.
                    Isotopes and Nuclear Properties:
 (Nuclear quadrupole moments (NQMom) in fm**2, nuclear magnetic moments (NMagM)
  in nuclear magnetons)

  Atom         1           2           3           4           5           6           7           8           9          10
 IAtWgt=          12          16          12          16          12          12          12          12          12          79
 AtmWgt=  12.0000000  15.9949146  12.0000000  15.9949146  12.0000000  12.0000000  12.0000000  12.0000000  12.0000000  78.9183361
 NucSpn=           0           0           0           0           0           0           0           0           0           3
 AtZEff=  -0.0000000  -0.0000000  -0.0000000  -0.0000000  -0.0000000  -0.0000000  -0.0000000  -0.0000000  -0.0000000  -0.0000000
 NQMom=    0.0000000   0.0000000   0.0000000   0.0000000   0.0000000   0.0000000   0.0000000   0.0000000   0.0000000  31.3000000
 NMagM=    0.0000000   0.0000000   0.0000000   0.0000000   0.0000000   0.0000000   0.0000000   0.0000000   0.0000000   2.1063990
 AtZNuc=   6.0000000   8.0000000   6.0000000   8.0000000   6.0000000   6.0000000   6.0000000   6.0000000   6.0000000  35.0000000

  Atom        11          12          13          14          15          16          17          18          19          20
 IAtWgt=          12          12           1           1           1           1           1           1           1           1
 AtmWgt=  12.0000000  12.0000000   1.0078250   1.0078250   1.0078250   1.0078250   1.0078250   1.0078250   1.0078250   1.0078250
 NucSpn=           0           0           1           1           1           1           1           1           1           1
 AtZEff=  -0.0000000  -0.0000000  -0.0000000  -0.0000000  -0.0000000  -0.0000000  -0.0000000  -0.0000000  -0.0000000  -0.0000000
 NQMom=    0.0000000   0.0000000   0.0000000   0.0000000   0.0000000   0.0000000   0.0000000   0.0000000   0.0000000   0.0000000
 NMagM=    0.0000000   0.0000000   2.7928460   2.7928460   2.7928460   2.7928460   2.7928460   2.7928460   2.7928460   2.7928460
 AtZNuc=   6.0000000   6.0000000   1.0000000   1.0000000   1.0000000   1.0000000   1.0000000   1.0000000   1.0000000   1.0000000

  Atom        21
 IAtWgt=           1
 AtmWgt=   1.0078250
 NucSpn=           1
 AtZEff=  -0.0000000
 NQMom=    0.0000000
 NMagM=    2.7928460
 AtZNuc=   1.0000000
 Leave Link  101 at Tue Sep 17 09:41:33 2024, MaxMem=  1342177280 cpu:               0.2 elap:               0.3
 (Enter /groups/ReismanLab/Software/Gaussian16_RevC/Linux_Binary_AVX2-enabled-CPU/g16/l103.exe)

 GradGradGradGradGradGradGradGradGradGradGradGradGradGradGradGradGradGrad
 Berny optimization.
 Initialization pass.
                           ----------------------------
                           !    Initial Parameters    !
                           ! (Angstroms and Degrees)  !
 --------------------------                            --------------------------
 ! Name  Definition              Value          Derivative Info.                !
 --------------------------------------------------------------------------------
 ! R1    R(1,2)                  1.4221         estimate D2E/DX2                !
 ! R2    R(1,13)                 1.0916         estimate D2E/DX2                !
 ! R3    R(1,14)                 1.0867         estimate D2E/DX2                !
 ! R4    R(1,15)                 1.0916         estimate D2E/DX2                !
 ! R5    R(2,3)                  1.3355         estimate D2E/DX2                !
 ! R6    R(3,4)                  1.2004         estimate D2E/DX2                !
 ! R7    R(3,5)                  1.5187         estimate D2E/DX2                !
 ! R8    R(5,6)                  1.5054         estimate D2E/DX2                !
 ! R9    R(5,16)                 1.0895         estimate D2E/DX2                !
 ! R10   R(5,17)                 1.0887         estimate D2E/DX2                !
 ! R11   R(6,7)                  1.3893         estimate D2E/DX2                !
 ! R12   R(6,12)                 1.39           estimate D2E/DX2                !
 ! R13   R(7,8)                  1.3831         estimate D2E/DX2                !
 ! R14   R(7,18)                 1.0797         estimate D2E/DX2                !
 ! R15   R(8,9)                  1.3841         estimate D2E/DX2                !
 ! R16   R(8,19)                 1.0791         estimate D2E/DX2                !
 ! R17   R(9,10)                 1.9059         estimate D2E/DX2                !
 ! R18   R(9,11)                 1.3844         estimate D2E/DX2                !
 ! R19   R(11,12)                1.3827         estimate D2E/DX2                !
 ! R20   R(11,20)                1.079          estimate D2E/DX2                !
 ! R21   R(12,21)                1.0793         estimate D2E/DX2                !
 ! A1    A(2,1,13)             110.2674         estimate D2E/DX2                !
 ! A2    A(2,1,14)             106.2682         estimate D2E/DX2                !
 ! A3    A(2,1,15)             110.219          estimate D2E/DX2                !
 ! A4    A(13,1,14)            110.674          estimate D2E/DX2                !
 ! A5    A(13,1,15)            108.8141         estimate D2E/DX2                !
 ! A6    A(14,1,15)            110.5871         estimate D2E/DX2                !
 ! A7    A(1,2,3)              116.2966         estimate D2E/DX2                !
 ! A8    A(2,3,4)              124.1683         estimate D2E/DX2                !
 ! A9    A(2,3,5)              110.7138         estimate D2E/DX2                !
 ! A10   A(4,3,5)              125.0836         estimate D2E/DX2                !
 ! A11   A(3,5,6)              106.6528         estimate D2E/DX2                !
 ! A12   A(3,5,16)             108.6169         estimate D2E/DX2                !
 ! A13   A(3,5,17)             109.266          estimate D2E/DX2                !
 ! A14   A(6,5,16)             110.6155         estimate D2E/DX2                !
 ! A15   A(6,5,17)             110.8518         estimate D2E/DX2                !
 ! A16   A(16,5,17)            110.7188         estimate D2E/DX2                !
 ! A17   A(5,6,7)              120.5816         estimate D2E/DX2                !
 ! A18   A(5,6,12)             120.1689         estimate D2E/DX2                !
 ! A19   A(7,6,12)             119.1964         estimate D2E/DX2                !
 ! A20   A(6,7,8)              120.7019         estimate D2E/DX2                !
 ! A21   A(6,7,18)             119.804          estimate D2E/DX2                !
 ! A22   A(8,7,18)             119.4941         estimate D2E/DX2                !
 ! A23   A(7,8,9)              119.103          estimate D2E/DX2                !
 ! A24   A(7,8,19)             120.6066         estimate D2E/DX2                !
 ! A25   A(9,8,19)             120.2904         estimate D2E/DX2                !
 ! A26   A(8,9,10)             119.364          estimate D2E/DX2                !
 ! A27   A(8,9,11)             121.1912         estimate D2E/DX2                !
 ! A28   A(10,9,11)            119.4448         estimate D2E/DX2                !
 ! A29   A(9,11,12)            119.1007         estimate D2E/DX2                !
 ! A30   A(9,11,20)            120.2981         estimate D2E/DX2                !
 ! A31   A(12,11,20)           120.6012         estimate D2E/DX2                !
 ! A32   A(6,12,11)            120.701          estimate D2E/DX2                !
 ! A33   A(6,12,21)            119.6569         estimate D2E/DX2                !
 ! A34   A(11,12,21)           119.6409         estimate D2E/DX2                !
 ! D1    D(13,1,2,3)           -57.1363         estimate D2E/DX2                !
 ! D2    D(14,1,2,3)          -177.1235         estimate D2E/DX2                !
 ! D3    D(15,1,2,3)            63.02           estimate D2E/DX2                !
 ! D4    D(1,2,3,4)              1.0478         estimate D2E/DX2                !
 ! D5    D(1,2,3,5)           -176.9131         estimate D2E/DX2                !
 ! D6    D(2,3,5,6)             90.645          estimate D2E/DX2                !
 ! D7    D(2,3,5,16)          -150.1088         estimate D2E/DX2                !
 ! D8    D(2,3,5,17)           -29.2311         estimate D2E/DX2                !
 ! D9    D(4,3,5,6)            -87.2933         estimate D2E/DX2                !
 ! D10   D(4,3,5,16)            31.9529         estimate D2E/DX2                !
 ! D11   D(4,3,5,17)           152.8306         estimate D2E/DX2                !
 ! D12   D(3,5,6,7)            -94.2865         estimate D2E/DX2                !
 ! D13   D(3,5,6,12)            83.0432         estimate D2E/DX2                !
 ! D14   D(16,5,6,7)           147.7743         estimate D2E/DX2                !
 ! D15   D(16,5,6,12)          -34.896          estimate D2E/DX2                !
 ! D16   D(17,5,6,7)            24.5603         estimate D2E/DX2                !
 ! D17   D(17,5,6,12)         -158.11           estimate D2E/DX2                !
 ! D18   D(5,6,7,8)            178.2413         estimate D2E/DX2                !
 ! D19   D(5,6,7,18)            -1.7546         estimate D2E/DX2                !
 ! D20   D(12,6,7,8)             0.8859         estimate D2E/DX2                !
 ! D21   D(12,6,7,18)         -179.11           estimate D2E/DX2                !
 ! D22   D(5,6,12,11)         -178.1661         estimate D2E/DX2                !
 ! D23   D(5,6,12,21)            1.4367         estimate D2E/DX2                !
 ! D24   D(7,6,12,11)           -0.7995         estimate D2E/DX2                !
 ! D25   D(7,6,12,21)          178.8033         estimate D2E/DX2                !
 ! D26   D(6,7,8,9)             -0.4042         estimate D2E/DX2                !
 ! D27   D(6,7,8,19)           179.6754         estimate D2E/DX2                !
 ! D28   D(18,7,8,9)           179.5917         estimate D2E/DX2                !
 ! D29   D(18,7,8,19)           -0.3287         estimate D2E/DX2                !
 ! D30   D(7,8,9,10)           179.9008         estimate D2E/DX2                !
 ! D31   D(7,8,9,11)            -0.1767         estimate D2E/DX2                !
 ! D32   D(19,8,9,10)           -0.1786         estimate D2E/DX2                !
 ! D33   D(19,8,9,11)          179.7439         estimate D2E/DX2                !
 ! D34   D(8,9,11,12)            0.2612         estimate D2E/DX2                !
 ! D35   D(8,9,11,20)         -179.6496         estimate D2E/DX2                !
 ! D36   D(10,9,11,12)        -179.8164         estimate D2E/DX2                !
 ! D37   D(10,9,11,20)           0.2728         estimate D2E/DX2                !
 ! D38   D(9,11,12,6)            0.2337         estimate D2E/DX2                !
 ! D39   D(9,11,12,21)        -179.3691         estimate D2E/DX2                !
 ! D40   D(20,11,12,6)        -179.8558         estimate D2E/DX2                !
 ! D41   D(20,11,12,21)          0.5414         estimate D2E/DX2                !
 --------------------------------------------------------------------------------
 Trust Radius=3.00D-01 FncErr=1.00D-07 GrdErr=1.00D-06 EigMax=2.50D+02 EigMin=1.00D-04
 Number of steps in this run=    106 maximum allowed number of steps=    126.
 GradGradGradGradGradGradGradGradGradGradGradGradGradGradGradGradGradGrad

 Leave Link  103 at Tue Sep 17 09:41:33 2024, MaxMem=  1342177280 cpu:               0.0 elap:               0.0
 (Enter /groups/ReismanLab/Software/Gaussian16_RevC/Linux_Binary_AVX2-enabled-CPU/g16/l202.exe)
                          Input orientation:                          
 ---------------------------------------------------------------------
 Center     Atomic      Atomic             Coordinates (Angstroms)
 Number     Number       Type             X           Y           Z
 ---------------------------------------------------------------------
      1          6           0        4.487422   -1.626216    0.909583
      2          8           0        3.799412   -0.958228   -0.140500
      3          6           0        3.465920    0.314869    0.086620
      4          8           0        3.726816    0.910415    1.095681
      5          6           0        2.674450    0.879201   -1.080226
      6          6           0        1.221775    0.621305   -0.781098
      7          6           0        0.588811   -0.512463   -1.275209
      8          6           0       -0.735778   -0.770408   -0.972097
      9          6           0       -1.424997    0.113470   -0.160097
     10         35           0       -3.251392   -0.233236    0.260038
     11          6           0       -0.811228    1.243190    0.353191
     12          6           0        0.512898    1.489796    0.040719
     13          1           0        5.400448   -1.086115    1.167029
     14          1           0        4.721579   -2.619617    0.536484
     15          1           0        3.853511   -1.688698    1.796092
     16          1           0        2.868293    1.949254   -1.146881
     17          1           0        2.976826    0.375167   -1.996644
     18          1           0        1.134421   -1.201239   -1.902684
     19          1           0       -1.227411   -1.648819   -1.360982
     20          1           0       -1.360658    1.919690    0.989438
     21          1           0        1.003011    2.362577    0.444430
 ---------------------------------------------------------------------
                    Distance matrix (angstroms):
                    1          2          3          4          5
     1  C    0.000000
     2  O    1.422056   0.000000
     3  C    2.342764   1.335506   0.000000
     4  O    2.654741   2.241705   1.200394   0.000000
     5  C    3.677407   2.350483   1.518692   2.417234   0.000000
     6  C    4.309781   3.090227   2.425496   3.143424   1.505408
     7  C    4.605750   3.434273   3.288893   4.182437   2.514883
     8  C    5.617379   4.614626   4.466875   5.197654   3.789795
     9  C    6.255191   5.333232   4.901275   5.362207   4.270649
    10  Br   7.889965   7.099287   6.741868   7.120507   6.176522
    11  C    6.051343   5.133027   4.384842   4.610409   3.786438
    12  C    5.124578   4.102052   3.178506   3.431893   2.510308
    13  H    1.091606   2.071063   2.621533   2.606198   4.042732
    14  H    1.086682   2.017155   3.223393   3.709903   4.364197
    15  H    1.091625   2.070483   2.662104   2.694812   4.032058
    16  H    4.431097   3.214536   2.133050   2.616360   1.089510
    17  H    3.838437   2.428963   2.140757   3.226678   1.088717
    18  H    4.396825   3.204141   3.419328   4.491078   2.715945
    19  H    6.149414   5.218759   5.289516   6.093376   4.657706
    20  H    6.839581   6.015438   5.165887   5.187707   4.652764
    21  H    5.316762   4.380610   3.222896   3.154681   2.705307
                    6          7          8          9         10
     6  C    0.000000
     7  C    1.389324   0.000000
     8  C    2.409430   1.383093   0.000000
     9  C    2.765671   2.385516   1.384054   0.000000
    10  Br   4.671554   4.145130   2.852196   1.905895   0.000000
    11  C    2.409657   2.773826   2.411774   1.384357   2.853579
    12  C    1.390023   2.397180   2.773718   2.385380   4.145699
    13  H    4.916481   5.426367   6.506058   7.055987   8.740959
    14  H    4.948558   4.980171   5.956352   6.762794   8.327035
    15  H    4.347879   4.634078   5.437618   5.910763   7.413331
    16  H    2.146688   3.357463   4.518455   4.772440   6.647798
    17  H    2.149033   2.647824   4.018141   4.776760   6.652327
    18  H    2.141787   1.079735   2.132897   3.363880   4.984953
    19  H    3.389431   2.144137   1.079140   2.141688   2.954332
    20  H    3.389625   3.852846   3.387436   2.141962   2.956686
    21  H    2.140515   3.375586   3.852989   3.364396   4.987203
                   11         12         13         14         15
    11  C    0.000000
    12  C    1.382665   0.000000
    13  H    6.683779   5.638442   0.000000
    14  H    6.750320   5.903054   1.791669   0.000000
    15  H    5.695411   4.933948   1.775343   1.790745   0.000000
    16  H    4.035791   2.677570   4.580334   5.209892   4.781887
    17  H    4.541425   3.385880   4.244775   4.292975   4.406014
    18  H    3.853538   3.377096   5.256936   4.563884   4.616493
    19  H    3.387523   3.852837   7.115897   6.319281   5.982012
    20  H    1.079044   2.143616   7.401280   7.602899   6.392081
    21  H    2.133733   1.079324   5.634987   6.217594   5.134702
                   16         17         18         19         20
    16  H    0.000000
    17  H    1.792102   0.000000
    18  H    3.674664   2.426590   0.000000
    19  H    5.455892   4.709161   2.464147   0.000000
    20  H    4.738012   5.487805   4.932544   4.275101   0.000000
    21  H    2.486440   3.715452   4.269309   4.932099   2.465789
                   21
    21  H    0.000000
 Stoichiometry    C9H9BrO2
 Framework group  C1[X(C9H9BrO2)]
 Deg. of freedom    57
 Full point group                 C1      NOp   1
 Largest Abelian subgroup         C1      NOp   1
 Largest concise Abelian subgroup C1      NOp   1
                         Standard orientation:                         
 ---------------------------------------------------------------------
 Center     Atomic      Atomic             Coordinates (Angstroms)
 Number     Number       Type             X           Y           Z
 ---------------------------------------------------------------------
      1          6           0       -4.293256   -1.570952   -0.884019
      2          8           0       -3.587001   -0.907598    0.156849
      3          6           0       -3.236655    0.359205   -0.079885
      4          8           0       -3.496922    0.953142   -1.090056
      5          6           0       -2.427534    0.918012    1.077476
      6          6           0       -0.981285    0.637102    0.768115
      7          6           0       -0.361098   -0.503234    1.263314
      8          6           0        0.957050   -0.782323    0.950998
      9          6           0        1.652605    0.086934    0.128682
     10         35           0        3.470235   -0.288939   -0.304192
     11          6           0        1.051395    1.222836   -0.385824
     12          6           0       -0.266382    1.490631   -0.064090
     13          1           0       -5.200288   -1.018811   -1.137076
     14          1           0       -4.538982   -2.558781   -0.503636
     15          1           0       -3.667537   -1.647519   -1.775231
     16          1           0       -2.605057    1.991152    1.139843
     17          1           0       -2.729863    0.423398    1.999029
     18          1           0       -0.911687   -1.180518    1.898897
     19          1           0        1.438834   -1.665808    1.340715
     20          1           0        1.605552    1.887744   -1.030142
     21          1           0       -0.746847    2.368386   -0.468614
 ---------------------------------------------------------------------
 Rotational constants (GHZ):           1.8787757           0.2503744           0.2434596
 Leave Link  202 at Tue Sep 17 09:41:34 2024, MaxMem=  1342177280 cpu:               0.0 elap:               0.1
 (Enter /groups/ReismanLab/Software/Gaussian16_RevC/Linux_Binary_AVX2-enabled-CPU/g16/l301.exe)
 Standard basis: 6-31G(d,p) (6D, 7F)
 Ernie: Thresh=  0.10000D-02 Tol=  0.10000D-05 Strict=F.
 There are   240 symmetry adapted cartesian basis functions of A   symmetry.
 There are   240 symmetry adapted basis functions of A   symmetry.
   240 basis functions,   454 primitive gaussians,   240 cartesian basis functions
    57 alpha electrons       57 beta electrons
       nuclear repulsion energy       906.1374136363 Hartrees.
 IExCor=  402 DFT=T Ex+Corr=B3LYP ExCW=0 ScaHFX=  0.200000
 ScaDFX=  0.800000  0.720000  1.000000  0.810000 ScalE2=  1.000000  1.000000
 IRadAn=      5 IRanWt=     -1 IRanGd=            0 ICorTp=0 IEmpDi=141
 NAtoms=   21 NActive=   21 NUniq=   21 SFac= 1.00D+00 NAtFMM=   60 NAOKFM=F Big=F
 Integral buffers will be    131072 words long.
 Raffenetti 2 integral format.
 Two-electron integral symmetry is turned on.
 R6Disp:  Grimme-D3(BJ) Dispersion energy=       -0.0412250558 Hartrees.
 Nuclear repulsion after empirical dispersion term =      906.0961885805 Hartrees.
 Leave Link  301 at Tue Sep 17 09:41:34 2024, MaxMem=  1342177280 cpu:               0.1 elap:               0.1
 (Enter /groups/ReismanLab/Software/Gaussian16_RevC/Linux_Binary_AVX2-enabled-CPU/g16/l302.exe)
 NPDir=0 NMtPBC=     1 NCelOv=     1 NCel=       1 NClECP=     1 NCelD=      1
         NCelK=      1 NCelE2=     1 NClLst=     1 CellRange=     0.0.
 One-electron integrals computed using PRISM.
 One-electron integral symmetry used in STVInt
 NBasis=   240 RedAO= T EigKep=  4.12D-04  NBF=   240
 NBsUse=   240 1.00D-06 EigRej= -1.00D+00 NBFU=   240
 Precomputing XC quadrature grid using
 IXCGrd= 4 IRadAn=           5 IRanWt=          -1 IRanGd=           0 AccXCQ= 0.00D+00.
 Generated NRdTot=       0 NPtTot=           0 NUsed=           0 NTot=          32
 NSgBfM=   237   237   237   237   237 MxSgAt=    21 MxSgA2=    21.
 Leave Link  302 at Tue Sep 17 09:41:34 2024, MaxMem=  1342177280 cpu:               1.0 elap:               0.2
 (Enter /groups/ReismanLab/Software/Gaussian16_RevC/Linux_Binary_AVX2-enabled-CPU/g16/l303.exe)
 DipDrv:  MaxL=1.
 Leave Link  303 at Tue Sep 17 09:41:35 2024, MaxMem=  1342177280 cpu:               0.1 elap:               0.0
 (Enter /groups/ReismanLab/Software/Gaussian16_RevC/Linux_Binary_AVX2-enabled-CPU/g16/l401.exe)
 ExpMin= 1.43D-01 ExpMax= 5.74D+05 ExpMxC= 5.74D+03 IAcc=3 IRadAn=         5 AccDes= 0.00D+00
 Harris functional with IExCor=  402 and IRadAn=       5 diagonalized for initial guess.
 HarFok:  IExCor=  402 AccDes= 0.00D+00 IRadAn=         5 IDoV= 1 UseB2=F ITyADJ=14
 ICtDFT=  3500011 ScaDFX=  1.000000  1.000000  1.000000  1.000000
 FoFCou: FMM=F IPFlag=           0 FMFlag=      100000 FMFlg1=           0
         NFxFlg=           0 DoJE=T BraDBF=F KetDBF=T FulRan=T
         wScrn=  0.000000 ICntrl=       500 IOpCl=  0 I1Cent=   200000004 NGrid=           0
         NMat0=    1 NMatS0=      1 NMatT0=    0 NMatD0=    1 NMtDS0=    0 NMtDT0=    0
 Petite list used in FoFCou.
 Harris En= -3070.72545558519    
 JPrj=0 DoOrth=F DoCkMO=F.
 Leave Link  401 at Tue Sep 17 09:41:35 2024, MaxMem=  1342177280 cpu:               4.7 elap:               0.6
 (Enter /groups/ReismanLab/Software/Gaussian16_RevC/Linux_Binary_AVX2-enabled-CPU/g16/l502.exe)
 Integral symmetry usage will be decided dynamically.
 Closed shell SCF:
 Using DIIS extrapolation, IDIIS=  1040.
 NGot=  1342177280 LenX=  1342057097 LenY=  1341999056
 Requested convergence on RMS density matrix=1.00D-08 within  32 cycles.
 Requested convergence on MAX density matrix=1.00D-06.
 Requested convergence on             energy=1.00D-06.
 No special actions if energy rises.
 Fock matrices will be formed incrementally for  20 cycles.
 Integral accuracy reduced to 1.0D-05 until final iterations.

 Cycle   1  Pass 0  IDiag  1:
 FoFJK:  IHMeth= 1 ICntrl=       0 DoSepK=F KAlg= 0 I1Cent=           0 FoldK=F
 IRaf= 840000000 NMat=       1 IRICut=       1 DoRegI=T DoRafI=F ISym2E= 0 IDoP0=0 IntGTp=1.
 FoFCou: FMM=F IPFlag=           0 FMFlag=      100000 FMFlg1=           0
         NFxFlg=           0 DoJE=F BraDBF=F KetDBF=F FulRan=T
         wScrn=  0.000000 ICntrl=         0 IOpCl=  0 I1Cent=           0 NGrid=           0
         NMat0=    1 NMatS0=      1 NMatT0=    0 NMatD0=    1 NMtDS0=    0 NMtDT0=    0
 Symmetry not used in FoFCou.
 E= -3070.31902144739    
 DIIS: error= 1.89D-01 at cycle   1 NSaved=   1.
 NSaved= 1 IEnMin= 1 EnMin= -3070.31902144739     IErMin= 1 ErrMin= 1.89D-01
 ErrMax= 1.89D-01  0.00D+00 EMaxC= 1.00D-01 BMatC= 6.40D-01 BMatP= 6.40D-01
 IDIUse=3 WtCom= 0.00D+00 WtEn= 1.00D+00
 Coeff-Com:  0.100D+01
 Coeff-En:   0.100D+01
 Coeff:      0.100D+01
 Gap=     0.292 Goal=   None    Shift=    0.000
 GapD=    0.292 DampG=1.000 DampE=0.250 DampFc=0.2500 IDamp=-1.
 Damping current iteration by 2.50D-01
 RMSDP=5.07D-03 MaxDP=1.90D-01              OVMax= 2.44D-01

 Cycle   2  Pass 0  IDiag  1:
 RMSU=  1.23D-03    CP:  9.92D-01
 E= -3070.41613722797     Delta-E=       -0.097115780580 Rises=F Damp=T
 DIIS: error= 1.39D-01 at cycle   2 NSaved=   2.
 NSaved= 2 IEnMin= 2 EnMin= -3070.41613722797     IErMin= 2 ErrMin= 1.39D-01
 ErrMax= 1.39D-01  0.00D+00 EMaxC= 1.00D-01 BMatC= 2.58D-01 BMatP= 6.40D-01
 IDIUse=3 WtCom= 0.00D+00 WtEn= 1.00D+00
 Coeff-Com: -0.112D+01 0.212D+01
 Coeff-En:   0.000D+00 0.100D+01
 Coeff:      0.000D+00 0.100D+01
 Gap=     0.245 Goal=   None    Shift=    0.000
 RMSDP=2.45D-03 MaxDP=1.11D-01 DE=-9.71D-02 OVMax= 1.24D-01

 Cycle   3  Pass 0  IDiag  1:
 RMSU=  1.12D-03    CP:  9.70D-01  2.62D+00
 E= -3070.53794413501     Delta-E=       -0.121806907041 Rises=F Damp=F
 DIIS: error= 1.23D-02 at cycle   3 NSaved=   3.
 NSaved= 3 IEnMin= 3 EnMin= -3070.53794413501     IErMin= 3 ErrMin= 1.23D-02
 ErrMax= 1.23D-02  0.00D+00 EMaxC= 1.00D-01 BMatC= 5.98D-02 BMatP= 2.58D-01
 IDIUse=3 WtCom= 8.77D-01 WtEn= 1.23D-01
 Coeff-Com:  0.745D+00-0.820D+00 0.108D+01
 Coeff-En:   0.112D+00 0.000D+00 0.888D+00
 Coeff:      0.667D+00-0.719D+00 0.105D+01
 Gap=     0.222 Goal=   None    Shift=    0.000
 RMSDP=1.50D-03 MaxDP=3.90D-02 DE=-1.22D-01 OVMax= 6.36D-02

 Cycle   4  Pass 0  IDiag  1:
 RMSU=  1.06D-03    CP:  9.71D-01  1.77D+00  8.99D-01
 E= -3070.57048692104     Delta-E=       -0.032542786029 Rises=F Damp=F
 DIIS: error= 7.52D-03 at cycle   4 NSaved=   4.
 NSaved= 4 IEnMin= 4 EnMin= -3070.57048692104     IErMin= 4 ErrMin= 7.52D-03
 ErrMax= 7.52D-03  0.00D+00 EMaxC= 1.00D-01 BMatC= 2.57D-02 BMatP= 5.98D-02
 IDIUse=3 WtCom= 9.25D-01 WtEn= 7.52D-02
 Coeff-Com:  0.608D+00-0.786D+00 0.706D+00 0.471D+00
 Coeff-En:   0.000D+00 0.000D+00 0.251D+00 0.749D+00
 Coeff:      0.562D+00-0.726D+00 0.672D+00 0.492D+00
 Gap=     0.223 Goal=   None    Shift=    0.000
 RMSDP=7.31D-04 MaxDP=2.51D-02 DE=-3.25D-02 OVMax= 4.89D-02

 Cycle   5  Pass 0  IDiag  1:
 RMSU=  1.91D-04    CP:  9.71D-01  1.91D+00  1.06D+00  3.82D-01
 E= -3070.59336480299     Delta-E=       -0.022877881954 Rises=F Damp=F
 DIIS: error= 1.41D-03 at cycle   5 NSaved=   5.
 NSaved= 5 IEnMin= 5 EnMin= -3070.59336480299     IErMin= 5 ErrMin= 1.41D-03
 ErrMax= 1.41D-03  0.00D+00 EMaxC= 1.00D-01 BMatC= 8.40D-04 BMatP= 2.57D-02
 IDIUse=3 WtCom= 9.86D-01 WtEn= 1.41D-02
 Coeff-Com:  0.258D+00-0.336D+00 0.304D+00 0.258D+00 0.516D+00
 Coeff-En:   0.000D+00 0.000D+00 0.000D+00 0.000D+00 0.100D+01
 Coeff:      0.254D+00-0.331D+00 0.300D+00 0.255D+00 0.523D+00
 Gap=     0.217 Goal=   None    Shift=    0.000
 RMSDP=1.27D-04 MaxDP=5.12D-03 DE=-2.29D-02 OVMax= 8.42D-03

 Cycle   6  Pass 0  IDiag  1:
 RMSU=  5.16D-05    CP:  9.71D-01  1.92D+00  1.06D+00  4.53D-01  5.43D-01
 E= -3070.59403021464     Delta-E=       -0.000665411646 Rises=F Damp=F
 DIIS: error= 3.65D-04 at cycle   6 NSaved=   6.
 NSaved= 6 IEnMin= 6 EnMin= -3070.59403021464     IErMin= 6 ErrMin= 3.65D-04
 ErrMax= 3.65D-04  0.00D+00 EMaxC= 1.00D-01 BMatC= 5.77D-05 BMatP= 8.40D-04
 IDIUse=3 WtCom= 9.96D-01 WtEn= 3.65D-03
 Coeff-Com:  0.734D-01-0.965D-01 0.808D-01 0.725D-01 0.256D+00 0.614D+00
 Coeff-En:   0.000D+00 0.000D+00 0.000D+00 0.000D+00 0.000D+00 0.100D+01
 Coeff:      0.732D-01-0.961D-01 0.805D-01 0.722D-01 0.255D+00 0.615D+00
 Gap=     0.217 Goal=   None    Shift=    0.000
 RMSDP=3.34D-05 MaxDP=1.29D-03 DE=-6.65D-04 OVMax= 1.98D-03

 Cycle   7  Pass 0  IDiag  1:
 RMSU=  2.10D-05    CP:  9.71D-01  1.91D+00  1.07D+00  4.53D-01  5.71D-01
                    CP:  5.86D-01
 E= -3070.59407526051     Delta-E=       -0.000045045870 Rises=F Damp=F
 DIIS: error= 8.52D-05 at cycle   7 NSaved=   7.
 NSaved= 7 IEnMin= 7 EnMin= -3070.59407526051     IErMin= 7 ErrMin= 8.52D-05
 ErrMax= 8.52D-05  0.00D+00 EMaxC= 1.00D-01 BMatC= 4.92D-06 BMatP= 5.77D-05
 IDIUse=1 WtCom= 1.00D+00 WtEn= 0.00D+00
 Coeff-Com:  0.236D-01-0.313D-01 0.235D-01 0.204D-01 0.962D-01 0.318D+00
 Coeff-Com:  0.550D+00
 Coeff:      0.236D-01-0.313D-01 0.235D-01 0.204D-01 0.962D-01 0.318D+00
 Coeff:      0.550D+00
 Gap=     0.217 Goal=   None    Shift=    0.000
 RMSDP=1.28D-05 MaxDP=3.59D-04 DE=-4.50D-05 OVMax= 8.88D-04

 Cycle   8  Pass 0  IDiag  1:
 RMSU=  6.71D-06    CP:  9.71D-01  1.92D+00  1.07D+00  4.50D-01  5.80D-01
                    CP:  6.57D-01  5.52D-01
 E= -3070.59407933364     Delta-E=       -0.000004073137 Rises=F Damp=F
 DIIS: error= 4.50D-05 at cycle   8 NSaved=   8.
 NSaved= 8 IEnMin= 8 EnMin= -3070.59407933364     IErMin= 8 ErrMin= 4.50D-05
 ErrMax= 4.50D-05  0.00D+00 EMaxC= 1.00D-01 BMatC= 5.36D-07 BMatP= 4.92D-06
 IDIUse=1 WtCom= 1.00D+00 WtEn= 0.00D+00
 Coeff-Com:  0.591D-02-0.792D-02 0.482D-02 0.338D-02 0.251D-01 0.108D+00
 Coeff-Com:  0.300D+00 0.560D+00
 Coeff:      0.591D-02-0.792D-02 0.482D-02 0.338D-02 0.251D-01 0.108D+00
 Coeff:      0.300D+00 0.560D+00
 Gap=     0.217 Goal=   None    Shift=    0.000
 RMSDP=4.03D-06 MaxDP=9.98D-05 DE=-4.07D-06 OVMax= 3.41D-04

 Initial convergence to 1.0D-05 achieved.  Increase integral accuracy.
 Cycle   9  Pass 1  IDiag  1:
 E= -3070.59407661339     Delta-E=        0.000002720254 Rises=F Damp=F
 DIIS: error= 2.77D-05 at cycle   1 NSaved=   1.
 NSaved= 1 IEnMin= 1 EnMin= -3070.59407661339     IErMin= 1 ErrMin= 2.77D-05
 ErrMax= 2.77D-05  0.00D+00 EMaxC= 1.00D-01 BMatC= 1.81D-07 BMatP= 1.81D-07
 IDIUse=1 WtCom= 1.00D+00 WtEn= 0.00D+00
 Coeff-Com:  0.100D+01
 Coeff:      0.100D+01
 Gap=     0.217 Goal=   None    Shift=    0.000
 RMSDP=4.03D-06 MaxDP=9.98D-05 DE= 2.72D-06 OVMax= 2.47D-04

 Cycle  10  Pass 1  IDiag  1:
 RMSU=  1.84D-05    CP:  1.00D+00
 E= -3070.59407658072     Delta-E=        0.000000032675 Rises=F Damp=F
 DIIS: error= 3.00D-05 at cycle   2 NSaved=   2.
 NSaved= 2 IEnMin= 1 EnMin= -3070.59407661339     IErMin= 1 ErrMin= 2.77D-05
 ErrMax= 3.00D-05  0.00D+00 EMaxC= 1.00D-01 BMatC= 1.68D-07 BMatP= 1.81D-07
 IDIUse=1 WtCom= 1.00D+00 WtEn= 0.00D+00
 Coeff-Com:  0.488D+00 0.512D+00
 Coeff:      0.488D+00 0.512D+00
 Gap=     0.217 Goal=   None    Shift=    0.000
 RMSDP=2.66D-06 MaxDP=8.93D-05 DE= 3.27D-08 OVMax= 2.43D-04

 Cycle  11  Pass 1  IDiag  1:
 RMSU=  2.64D-06    CP:  1.00D+00  9.83D-01
 E= -3070.59407672243     Delta-E=       -0.000000141713 Rises=F Damp=F
 DIIS: error= 1.44D-05 at cycle   3 NSaved=   3.
 NSaved= 3 IEnMin= 3 EnMin= -3070.59407672243     IErMin= 3 ErrMin= 1.44D-05
 ErrMax= 1.44D-05  0.00D+00 EMaxC= 1.00D-01 BMatC= 3.74D-08 BMatP= 1.68D-07
 IDIUse=1 WtCom= 1.00D+00 WtEn= 0.00D+00
 Coeff-Com:  0.248D-01 0.319D+00 0.657D+00
 Coeff:      0.248D-01 0.319D+00 0.657D+00
 Gap=     0.217 Goal=   None    Shift=    0.000
 RMSDP=9.66D-07 MaxDP=2.48D-05 DE=-1.42D-07 OVMax= 8.84D-05

 Cycle  12  Pass 1  IDiag  1:
 RMSU=  4.09D-07    CP:  1.00D+00  9.96D-01  6.83D-01
 E= -3070.59407676202     Delta-E=       -0.000000039596 Rises=F Damp=F
 DIIS: error= 1.36D-06 at cycle   4 NSaved=   4.
 NSaved= 4 IEnMin= 4 EnMin= -3070.59407676202     IErMin= 4 ErrMin= 1.36D-06
 ErrMax= 1.36D-06  0.00D+00 EMaxC= 1.00D-01 BMatC= 1.97D-09 BMatP= 3.74D-08
 IDIUse=1 WtCom= 1.00D+00 WtEn= 0.00D+00
 Coeff-Com: -0.194D-02 0.165D+00 0.374D+00 0.463D+00
 Coeff:     -0.194D-02 0.165D+00 0.374D+00 0.463D+00
 Gap=     0.217 Goal=   None    Shift=    0.000
 RMSDP=2.14D-07 MaxDP=6.84D-06 DE=-3.96D-08 OVMax= 1.24D-05

 Cycle  13  Pass 1  IDiag  1:
 RMSU=  5.88D-08    CP:  1.00D+00  9.97D-01  6.96D-01  5.08D-01
 E= -3070.59407676395     Delta-E=       -0.000000001924 Rises=F Damp=F
 DIIS: error= 2.75D-07 at cycle   5 NSaved=   5.
 NSaved= 5 IEnMin= 5 EnMin= -3070.59407676395     IErMin= 5 ErrMin= 2.75D-07
 ErrMax= 2.75D-07  0.00D+00 EMaxC= 1.00D-01 BMatC= 3.68D-11 BMatP= 1.97D-09
 IDIUse=1 WtCom= 1.00D+00 WtEn= 0.00D+00
 Coeff-Com: -0.167D-02 0.784D-01 0.180D+00 0.244D+00 0.500D+00
 Coeff:     -0.167D-02 0.784D-01 0.180D+00 0.244D+00 0.500D+00
 Gap=     0.217 Goal=   None    Shift=    0.000
 RMSDP=2.52D-08 MaxDP=9.97D-07 DE=-1.92D-09 OVMax= 1.34D-06

 Cycle  14  Pass 1  IDiag  1:
 RMSU=  1.96D-08    CP:  1.00D+00  9.97D-01  6.95D-01  5.00D-01  7.47D-01
 E= -3070.59407676396     Delta-E=       -0.000000000014 Rises=F Damp=F
 DIIS: error= 6.78D-08 at cycle   6 NSaved=   6.
 NSaved= 6 IEnMin= 6 EnMin= -3070.59407676396     IErMin= 6 ErrMin= 6.78D-08
 ErrMax= 6.78D-08  0.00D+00 EMaxC= 1.00D-01 BMatC= 2.14D-12 BMatP= 3.68D-11
 IDIUse=1 WtCom= 1.00D+00 WtEn= 0.00D+00
 Coeff-Com: -0.796D-03 0.347D-01 0.797D-01 0.110D+00 0.272D+00 0.504D+00
 Coeff:     -0.796D-03 0.347D-01 0.797D-01 0.110D+00 0.272D+00 0.504D+00
 Gap=     0.217 Goal=   None    Shift=    0.000
 RMSDP=6.78D-09 MaxDP=3.23D-07 DE=-1.41D-11 OVMax= 4.15D-07

 SCF Done:  E(RB3LYP) =  -3070.59407676     A.U. after   14 cycles
            NFock= 14  Conv=0.68D-08     -V/T= 2.0066
 KE= 3.050574431152D+03 PE=-9.107286004205D+03 EE= 2.080021307709D+03
 Leave Link  502 at Tue Sep 17 09:41:47 2024, MaxMem=  1342177280 cpu:              85.8 elap:              11.4
 (Enter /groups/ReismanLab/Software/Gaussian16_RevC/Linux_Binary_AVX2-enabled-CPU/g16/l508.exe)
 QCSCF skips out because SCF is already converged.
 Leave Link  508 at Tue Sep 17 09:41:47 2024, MaxMem=  1342177280 cpu:               0.0 elap:               0.0
 (Enter /groups/ReismanLab/Software/Gaussian16_RevC/Linux_Binary_AVX2-enabled-CPU/g16/l601.exe)
 Copying SCF densities to generalized density rwf, IOpCl= 0 IROHF=0.

 **********************************************************************

            Population analysis using the SCF Density.

 **********************************************************************

 Orbital symmetries:
       Occupied  (A) (A) (A) (A) (A) (A) (A) (A) (A) (A) (A) (A)
                 (A) (A) (A) (A) (A) (A) (A) (A) (A) (A) (A) (A)
                 (A) (A) (A) (A) (A) (A) (A) (A) (A) (A) (A) (A)
                 (A) (A) (A) (A) (A) (A) (A) (A) (A) (A) (A) (A)
                 (A) (A) (A) (A) (A) (A) (A) (A) (A)
       Virtual   (A) (A) (A) (A) (A) (A) (A) (A) (A) (A) (A) (A)
                 (A) (A) (A) (A) (A) (A) (A) (A) (A) (A) (A) (A)
                 (A) (A) (A) (A) (A) (A) (A) (A) (A) (A) (A) (A)
                 (A) (A) (A) (A) (A) (A) (A) (A) (A) (A) (A) (A)
                 (A) (A) (A) (A) (A) (A) (A) (A) (A) (A) (A) (A)
                 (A) (A) (A) (A) (A) (A) (A) (A) (A) (A) (A) (A)
                 (A) (A) (A) (A) (A) (A) (A) (A) (A) (A) (A) (A)
                 (A) (A) (A) (A) (A) (A) (A) (A) (A) (A) (A) (A)
                 (A) (A) (A) (A) (A) (A) (A) (A) (A) (A) (A) (A)
                 (A) (A) (A) (A) (A) (A) (A) (A) (A) (A) (A) (A)
                 (A) (A) (A) (A) (A) (A) (A) (A) (A) (A) (A) (A)
                 (A) (A) (A) (A) (A) (A) (A) (A) (A) (A) (A) (A)
                 (A) (A) (A) (A) (A) (A) (A) (A) (A) (A) (A) (A)
                 (A) (A) (A) (A) (A) (A) (A) (A) (A) (A) (A) (A)
                 (A) (A) (A) (A) (A) (A) (A) (A) (A) (A) (A) (A)
                 (A) (A) (A)
 The electronic state is 1-A.
 Alpha  occ. eigenvalues -- -482.90927 -61.87102 -56.39234 -56.38826 -56.38816
 Alpha  occ. eigenvalues --  -19.19843 -19.13750 -10.31734 -10.24563 -10.24390
 Alpha  occ. eigenvalues --  -10.20985 -10.20717 -10.20309 -10.20263 -10.20051
 Alpha  occ. eigenvalues --  -10.19914  -8.58248  -6.53639  -6.52374  -6.52346
 Alpha  occ. eigenvalues --   -2.65213  -2.64851  -2.64831  -2.63821  -2.63821
 Alpha  occ. eigenvalues --   -1.11476  -1.02330  -0.88399  -0.82217  -0.77642
 Alpha  occ. eigenvalues --   -0.76377  -0.73286  -0.68780  -0.62625  -0.59595
 Alpha  occ. eigenvalues --   -0.57199  -0.51942  -0.50602  -0.49169  -0.48271
 Alpha  occ. eigenvalues --   -0.46911  -0.46411  -0.43753  -0.42955  -0.41877
 Alpha  occ. eigenvalues --   -0.40428  -0.38746  -0.38390  -0.36237  -0.35811
 Alpha  occ. eigenvalues --   -0.34972  -0.31188  -0.30739  -0.28549  -0.27734
 Alpha  occ. eigenvalues --   -0.26599  -0.23784
 Alpha virt. eigenvalues --   -0.02112  -0.01378   0.00914   0.02408   0.10547
 Alpha virt. eigenvalues --    0.11384   0.11972   0.12642   0.13239   0.15277
 Alpha virt. eigenvalues --    0.15555   0.16646   0.17023   0.18014   0.18974
 Alpha virt. eigenvalues --    0.21284   0.23250   0.25923   0.28290   0.29955
 Alpha virt. eigenvalues --    0.31752   0.32925   0.34499   0.35222   0.42171
 Alpha virt. eigenvalues --    0.44839   0.46484   0.46518   0.46572   0.47580
 Alpha virt. eigenvalues --    0.48512   0.49052   0.49961   0.51745   0.52759
 Alpha virt. eigenvalues --    0.53794   0.54595   0.56823   0.57421   0.57644
 Alpha virt. eigenvalues --    0.58189   0.59769   0.60885   0.62309   0.63144
 Alpha virt. eigenvalues --    0.64153   0.66406   0.69389   0.71741   0.72275
 Alpha virt. eigenvalues --    0.73627   0.74849   0.78295   0.78948   0.79927
 Alpha virt. eigenvalues --    0.81372   0.81942   0.82392   0.83018   0.83953
 Alpha virt. eigenvalues --    0.85288   0.87221   0.89434   0.90167   0.90632
 Alpha virt. eigenvalues --    0.95269   0.96221   0.96613   0.99234   1.00058
 Alpha virt. eigenvalues --    1.01050   1.06520   1.08205   1.09361   1.12508
 Alpha virt. eigenvalues --    1.15369   1.17035   1.18986   1.23709   1.24497
 Alpha virt. eigenvalues --    1.26203   1.29374   1.30451   1.33309   1.35410
 Alpha virt. eigenvalues --    1.38718   1.40705   1.42114   1.43209   1.46754
 Alpha virt. eigenvalues --    1.54066   1.54103   1.57089   1.58890   1.61781
 Alpha virt. eigenvalues --    1.64766   1.71035   1.76361   1.77640   1.81078
 Alpha virt. eigenvalues --    1.82527   1.83624   1.83908   1.88009   1.90359
 Alpha virt. eigenvalues --    1.91147   1.92012   1.92629   1.93176   1.96702
 Alpha virt. eigenvalues --    1.97432   1.99070   1.99710   2.00262   2.01304
 Alpha virt. eigenvalues --    2.04561   2.05386   2.07190   2.08228   2.10470
 Alpha virt. eigenvalues --    2.12225   2.15891   2.19228   2.19793   2.23109
 Alpha virt. eigenvalues --    2.29402   2.30453   2.32268   2.34200   2.40305
 Alpha virt. eigenvalues --    2.40793   2.41931   2.43009   2.45043   2.47359
 Alpha virt. eigenvalues --    2.48238   2.50645   2.51871   2.54123   2.57282
 Alpha virt. eigenvalues --    2.59105   2.60027   2.64757   2.65891   2.67630
 Alpha virt. eigenvalues --    2.69696   2.71179   2.74741   2.76753   2.77891
 Alpha virt. eigenvalues --    2.82086   2.85368   2.88393   2.89407   2.92835
 Alpha virt. eigenvalues --    2.97775   3.06743   3.07632   3.16830   3.19715
 Alpha virt. eigenvalues --    3.21443   3.25012   3.30172   3.32474   3.36643
 Alpha virt. eigenvalues --    3.40513   3.42861   3.48942   3.52236   3.81598
 Alpha virt. eigenvalues --    4.06980   4.10975   4.14392   4.15908   4.21741
 Alpha virt. eigenvalues --    4.29106   4.41786   4.44451   4.47553   4.65624
 Alpha virt. eigenvalues --    4.83169   8.60850  72.81700
          Condensed to atoms (all electrons):
               1          2          3          4          5          6
     1  C    4.726335   0.214054  -0.023315   0.004461   0.007888  -0.000207
     2  O    0.214054   8.233218   0.268923  -0.084555  -0.098159  -0.001772
     3  C   -0.023315   0.268923   4.349891   0.566685   0.343397  -0.038076
     4  O    0.004461  -0.084555   0.566685   8.035261  -0.070131  -0.006172
     5  C    0.007888  -0.098159   0.343397  -0.070131   5.167742   0.364170
     6  C   -0.000207  -0.001772  -0.038076  -0.006172   0.364170   4.708555
     7  C   -0.000151   0.002361  -0.004225  -0.000007  -0.058608   0.550909
     8  C   -0.000002   0.000023   0.000049   0.000004   0.006847  -0.028370
     9  C    0.000001  -0.000000   0.000023   0.000002   0.000463  -0.032338
    10  Br  -0.000000  -0.000000   0.000000  -0.000000   0.000004   0.000343
    11  C   -0.000001   0.000003   0.000130   0.000033   0.006475  -0.028997
    12  C   -0.000053   0.000333  -0.003587   0.002780  -0.063789   0.544961
    13  H    0.384645  -0.032045  -0.005973   0.007014   0.000087  -0.000018
    14  H    0.388693  -0.032908   0.004871   0.000706  -0.000123  -0.000001
    15  H    0.385340  -0.032451  -0.004688   0.005250  -0.000011   0.000039
    16  H   -0.000210   0.002908  -0.030499  -0.000048   0.367641  -0.024460
    17  H   -0.000216   0.004582  -0.028316   0.002911   0.353870  -0.026610
    18  H    0.000003   0.001263  -0.000041   0.000003  -0.010416  -0.041523
    19  H    0.000000   0.000000  -0.000001   0.000000  -0.000180   0.004053
    20  H    0.000000   0.000000  -0.000002  -0.000000  -0.000182   0.004021
    21  H   -0.000002   0.000032   0.000389   0.002133  -0.010224  -0.041626
               7          8          9         10         11         12
     1  C   -0.000151  -0.000002   0.000001  -0.000000  -0.000001  -0.000053
     2  O    0.002361   0.000023  -0.000000  -0.000000   0.000003   0.000333
     3  C   -0.004225   0.000049   0.000023   0.000000   0.000130  -0.003587
     4  O   -0.000007   0.000004   0.000002  -0.000000   0.000033   0.002780
     5  C   -0.058608   0.006847   0.000463   0.000004   0.006475  -0.063789
     6  C    0.550909  -0.028370  -0.032338   0.000343  -0.028997   0.544961
     7  C    4.900437   0.489160  -0.031028   0.005669  -0.049807  -0.034577
     8  C    0.489160   4.896394   0.531650  -0.060828  -0.033613  -0.049667
     9  C   -0.031028   0.531650   4.797488   0.257956   0.529867  -0.030934
    10  Br   0.005669  -0.060828   0.257956  34.992931  -0.060577   0.005619
    11  C   -0.049807  -0.033613   0.529867  -0.060577   4.893264   0.492358
    12  C   -0.034577  -0.049667  -0.030934   0.005619   0.492358   4.898091
    13  H    0.000004   0.000000   0.000000  -0.000000  -0.000000  -0.000002
    14  H   -0.000000  -0.000000  -0.000000  -0.000000   0.000000  -0.000001
    15  H    0.000045  -0.000000  -0.000000   0.000000  -0.000000   0.000005
    16  H    0.003998  -0.000190   0.000017  -0.000000   0.000163  -0.006565
    17  H   -0.007155   0.000214   0.000009  -0.000000  -0.000171   0.005096
    18  H    0.368464  -0.040217   0.004570  -0.000158   0.000550   0.005735
    19  H   -0.036011   0.369412  -0.042952  -0.003535   0.005297   0.000583
    20  H    0.000623   0.005249  -0.043209  -0.003529   0.369855  -0.035528
    21  H    0.005574   0.000557   0.004510  -0.000153  -0.038325   0.369432
              13         14         15         16         17         18
     1  C    0.384645   0.388693   0.385340  -0.000210  -0.000216   0.000003
     2  O   -0.032045  -0.032908  -0.032451   0.002908   0.004582   0.001263
     3  C   -0.005973   0.004871  -0.004688  -0.030499  -0.028316  -0.000041
     4  O    0.007014   0.000706   0.005250  -0.000048   0.002911   0.000003
     5  C    0.000087  -0.000123  -0.000011   0.367641   0.353870  -0.010416
     6  C   -0.000018  -0.000001   0.000039  -0.024460  -0.026610  -0.041523
     7  C    0.000004  -0.000000   0.000045   0.003998  -0.007155   0.368464
     8  C    0.000000  -0.000000  -0.000000  -0.000190   0.000214  -0.040217
     9  C    0.000000  -0.000000  -0.000000   0.000017   0.000009   0.004570
    10  Br  -0.000000  -0.000000   0.000000  -0.000000  -0.000000  -0.000158
    11  C   -0.000000   0.000000  -0.000000   0.000163  -0.000171   0.000550
    12  C   -0.000002  -0.000001   0.000005  -0.006565   0.005096   0.005735
    13  H    0.585274  -0.032710  -0.038027   0.000029  -0.000019   0.000002
    14  H   -0.032710   0.583294  -0.033229   0.000003  -0.000069  -0.000006
    15  H   -0.038027  -0.033229   0.585880  -0.000003   0.000019   0.000001
    16  H    0.000029   0.000003  -0.000003   0.575718  -0.028394   0.000068
    17  H   -0.000019  -0.000069   0.000019  -0.028394   0.591232   0.004744
    18  H    0.000002  -0.000006   0.000001   0.000068   0.004744   0.617675
    19  H    0.000000  -0.000000  -0.000000   0.000003  -0.000008  -0.006250
    20  H    0.000000   0.000000  -0.000000  -0.000006   0.000002   0.000018
    21  H   -0.000000  -0.000000   0.000000   0.004236   0.000109  -0.000200
              19         20         21
     1  C    0.000000   0.000000  -0.000002
     2  O    0.000000   0.000000   0.000032
     3  C   -0.000001  -0.000002   0.000389
     4  O    0.000000  -0.000000   0.002133
     5  C   -0.000180  -0.000182  -0.010224
     6  C    0.004053   0.004021  -0.041626
     7  C   -0.036011   0.000623   0.005574
     8  C    0.369412   0.005249   0.000557
     9  C   -0.042952  -0.043209   0.004510
    10  Br  -0.003535  -0.003529  -0.000153
    11  C    0.005297   0.369855  -0.038325
    12  C    0.000583  -0.035528   0.369432
    13  H    0.000000   0.000000  -0.000000
    14  H   -0.000000   0.000000  -0.000000
    15  H   -0.000000  -0.000000   0.000000
    16  H    0.000003  -0.000006   0.004236
    17  H   -0.000008   0.000002   0.000109
    18  H   -0.006250   0.000018  -0.000200
    19  H    0.601651  -0.000173   0.000018
    20  H   -0.000173   0.598903  -0.006112
    21  H    0.000018  -0.006112   0.604665
 Mulliken charges:
               1
     1  C   -0.087263
     2  O   -0.445810
     3  C    0.604364
     4  O   -0.466330
     5  C   -0.306759
     6  C    0.093117
     7  C   -0.105676
     8  C   -0.086672
     9  C    0.053906
    10  Br  -0.133743
    11  C   -0.086506
    12  C   -0.100292
    13  H    0.131737
    14  H    0.121478
    15  H    0.131830
    16  H    0.135590
    17  H    0.128168
    18  H    0.095712
    19  H    0.108094
    20  H    0.110068
    21  H    0.104986
 Sum of Mulliken charges =  -0.00000
 Mulliken charges with hydrogens summed into heavy atoms:
               1
     1  C    0.297782
     2  O   -0.445810
     3  C    0.604364
     4  O   -0.466330
     5  C   -0.043001
     6  C    0.093117
     7  C   -0.009964
     8  C    0.021422
     9  C    0.053906
    10  Br  -0.133743
    11  C    0.023562
    12  C    0.004695
 Electronic spatial extent (au):  <R**2>=           4120.3498
 Charge=             -0.0000 electrons
 Dipole moment (field-independent basis, Debye):
    X=             -1.6821    Y=             -1.0857    Z=              1.3051  Tot=              2.3899
 Quadrupole moment (field-independent basis, Debye-Ang):
   XX=            -81.1272   YY=            -76.6624   ZZ=            -81.5975
   XY=              6.5755   XZ=             -3.6884   YZ=              1.3697
 Traceless Quadrupole moment (field-independent basis, Debye-Ang):
   XX=             -1.3315   YY=              3.1333   ZZ=             -1.8018
   XY=              6.5755   XZ=             -3.6884   YZ=              1.3697
 Octapole moment (field-independent basis, Debye-Ang**2):
  XXX=             46.2280  YYY=            -12.1077  ZZZ=            -11.0220  XYY=             19.2740
  XXY=            -35.8097  XXZ=             -0.6627  XZZ=             26.3900  YZZ=             -9.9905
  YYZ=             -5.2760  XYZ=            -19.1205
 Hexadecapole moment (field-independent basis, Debye-Ang**3):
 XXXX=          -3571.3120 YYYY=           -487.9914 ZZZZ=           -361.5429 XXXY=            102.3005
 XXXZ=            -35.0214 YYYX=             -3.4479 YYYZ=             -5.7919 ZZZX=            -32.3524
 ZZZY=             -1.9569 XXYY=           -677.9116 XXZZ=           -695.9534 YYZZ=           -141.3060
 XXYZ=             59.4134 YYXZ=             -7.4738 ZZXY=              5.9926
 N-N= 9.060961885805D+02 E-N=-9.107286001011D+03  KE= 3.050574431152D+03
 No NMR shielding tensors so no spin-rotation constants.
 Leave Link  601 at Tue Sep 17 09:41:47 2024, MaxMem=  1342177280 cpu:               0.5 elap:               0.1
 (Enter /groups/ReismanLab/Software/Gaussian16_RevC/Linux_Binary_AVX2-enabled-CPU/g16/l701.exe)
 ... and contract with generalized density number  0.
 Compute integral first derivatives.
 R6Disp: Adding Grimme-D3(BJ) dispersion energy 1st derivatives to the gradient.
 Leave Link  701 at Tue Sep 17 09:41:47 2024, MaxMem=  1342177280 cpu:               0.5 elap:               0.1
 (Enter /groups/ReismanLab/Software/Gaussian16_RevC/Linux_Binary_AVX2-enabled-CPU/g16/l702.exe)
 L702 exits ... SP integral derivatives will be done elsewhere.
 Leave Link  702 at Tue Sep 17 09:41:47 2024, MaxMem=  1342177280 cpu:               0.1 elap:               0.0
 (Enter /groups/ReismanLab/Software/Gaussian16_RevC/Linux_Binary_AVX2-enabled-CPU/g16/l703.exe)
 Integral derivatives from FoFJK, PRISM(SPDF).
 Compute integral first derivatives, UseDBF=F ICtDFT=           0.
 Calling FoFJK, ICntrl=      2127 FMM=F ISym2X=0 I1Cent= 0 IOpClX= 0 NMat=1 NMatS=1 NMatT=0.
 FoFJK:  IHMeth= 1 ICntrl=    2127 DoSepK=F KAlg= 0 I1Cent=           0 FoldK=F
 IRaf=         0 NMat=       1 IRICut=       1 DoRegI=T DoRafI=F ISym2E= 0 IDoP0=0 IntGTp=1.
 FoFCou: FMM=F IPFlag=           0 FMFlag=      100000 FMFlg1=         800
         NFxFlg=           0 DoJE=F BraDBF=F KetDBF=F FulRan=T
         wScrn=  0.000000 ICntrl=      2127 IOpCl=  0 I1Cent=           0 NGrid=           0
         NMat0=    1 NMatS0=      1 NMatT0=    0 NMatD0=    1 NMtDS0=    0 NMtDT0=    0
 Symmetry not used in FoFCou.
 Leave Link  703 at Tue Sep 17 09:41:51 2024, MaxMem=  1342177280 cpu:              27.7 elap:               3.6
 (Enter /groups/ReismanLab/Software/Gaussian16_RevC/Linux_Binary_AVX2-enabled-CPU/g16/l716.exe)
 Dipole        =-6.61797415D-01-4.27152977D-01 5.13481463D-01
 ***** Axes restored to original set *****
 -------------------------------------------------------------------
 Center     Atomic                   Forces (Hartrees/Bohr)
 Number     Number              X              Y              Z
 -------------------------------------------------------------------
      1        6           0.002740345   -0.000189128    0.006721387
      2        8          -0.001683786   -0.009476089   -0.011122119
      3        6          -0.000595495    0.003714459   -0.013136052
      4        8           0.003638631    0.009740692    0.016623307
      5        6           0.001286134   -0.002895340    0.004034785
      6        6           0.002662447    0.002117310   -0.004589459
      7        6           0.002369607   -0.001631350   -0.002218295
      8        6          -0.004178177   -0.005448471   -0.001671957
      9        6          -0.006144451   -0.001386603    0.001467726
     10       35          -0.002402934   -0.000383302    0.000545853
     11        6          -0.004380287    0.003464977    0.004045288
     12        6           0.002340463    0.002789504    0.000803171
     13        1           0.000935626   -0.000301159    0.000922595
     14        1           0.000189520   -0.001639305   -0.000781889
     15        1           0.000076755   -0.000555787    0.001395859
     16        1           0.001933590    0.000705625   -0.000529498
     17        1           0.000586082    0.001062050   -0.002461540
     18        1           0.002356950   -0.002561503   -0.002494907
     19        1          -0.001874234   -0.002544268   -0.001070014
     20        1          -0.002034953    0.001934695    0.001863243
     21        1           0.002178166    0.003482993    0.001652514
 -------------------------------------------------------------------
 Cartesian Forces:  Max     0.016623307 RMS     0.004275648
 Leave Link  716 at Tue Sep 17 09:41:51 2024, MaxMem=  1342177280 cpu:               0.1 elap:               0.0
 (Enter /groups/ReismanLab/Software/Gaussian16_RevC/Linux_Binary_AVX2-enabled-CPU/g16/l103.exe)

 GradGradGradGradGradGradGradGradGradGradGradGradGradGradGradGradGradGrad
 Berny optimization.
 FormGI is forming the generalized inverse of G from B-inverse, IUseBI=4.
 Internal  Forces:  Max     0.019597059 RMS     0.003890567
 Search for a local minimum.
 Step number   1 out of a maximum of  106
 All quantities printed in internal units (Hartrees-Bohrs-Radians)
 RMS Force = .38906D-02 SwitMx=.10000D-02 MixMth= 1
 Mixed Optimization -- RFO/linear search
 Second derivative matrix not updated -- first step.
 ITU=  0
     Eigenvalues ---    0.00519   0.00694   0.01021   0.01400   0.01614
     Eigenvalues ---    0.02235   0.02265   0.02273   0.02293   0.02298
     Eigenvalues ---    0.02302   0.02306   0.02308   0.02545   0.05725
     Eigenvalues ---    0.06706   0.08943   0.10306   0.10643   0.12604
     Eigenvalues ---    0.16000   0.16000   0.16000   0.16000   0.16000
     Eigenvalues ---    0.16000   0.16000   0.17966   0.21999   0.22009
     Eigenvalues ---    0.22979   0.23994   0.24972   0.24990   0.25000
     Eigenvalues ---    0.25000   0.25000   0.30493   0.31817   0.34626
     Eigenvalues ---    0.34628   0.34869   0.34961   0.35199   0.36026
     Eigenvalues ---    0.36076   0.36098   0.36110   0.42152   0.43526
     Eigenvalues ---    0.43593   0.47607   0.47900   0.48391   0.48582
     Eigenvalues ---    0.58224   1.04625
 RFO step:  Lambda=-3.29287318D-03 EMin= 5.18684792D-03
 Linear search not attempted -- first point.
 Iteration  1 RMS(Cart)=  0.03463912 RMS(Int)=  0.00042028
 Iteration  2 RMS(Cart)=  0.00088516 RMS(Int)=  0.00015827
 Iteration  3 RMS(Cart)=  0.00000048 RMS(Int)=  0.00015827
 ITry= 1 IFail=0 DXMaxC= 1.10D-01 DCOld= 1.00D+10 DXMaxT= 3.00D-01 DXLimC= 3.00D+00 Rises=F
 Variable       Old X    -DE/DX   Delta X   Delta X   Delta X     New X
                                 (Linear)    (Quad)   (Total)
    R1        2.68730   0.00926   0.00000   0.02181   0.02181   2.70910
    R2        2.06284   0.00085   0.00000   0.00243   0.00243   2.06527
    R3        2.05353   0.00181   0.00000   0.00509   0.00509   2.05862
    R4        2.06287   0.00112   0.00000   0.00320   0.00320   2.06608
    R5        2.52374   0.01265   0.00000   0.02160   0.02160   2.54534
    R6        2.26842   0.01960   0.00000   0.01867   0.01867   2.28709
    R7        2.86991   0.00276   0.00000   0.00895   0.00895   2.87886
    R8        2.84481   0.00849   0.00000   0.02640   0.02640   2.87121
    R9        2.05888   0.00107   0.00000   0.00304   0.00304   2.06192
   R10        2.05738   0.00174   0.00000   0.00494   0.00494   2.06232
   R11        2.62544   0.00925   0.00000   0.01938   0.01939   2.64483
   R12        2.62676   0.00920   0.00000   0.01931   0.01932   2.64608
   R13        2.61367   0.01110   0.00000   0.02272   0.02272   2.63638
   R14        2.04040   0.00427   0.00000   0.01176   0.01176   2.05216
   R15        2.61548   0.00845   0.00000   0.01734   0.01733   2.63282
   R16        2.03928   0.00331   0.00000   0.00909   0.00909   2.04837
   R17        3.60162   0.00249   0.00000   0.01363   0.01363   3.61525
   R18        2.61606   0.00857   0.00000   0.01759   0.01759   2.63364
   R19        2.61286   0.01098   0.00000   0.02244   0.02244   2.63529
   R20        2.03910   0.00335   0.00000   0.00919   0.00919   2.04829
   R21        2.03963   0.00442   0.00000   0.01215   0.01215   2.05178
    A1        1.92453   0.00149   0.00000   0.00963   0.00961   1.93414
    A2        1.85473  -0.00095   0.00000  -0.00658  -0.00658   1.84815
    A3        1.92368   0.00136   0.00000   0.00866   0.00863   1.93232
    A4        1.93163  -0.00043   0.00000  -0.00321  -0.00320   1.92842
    A5        1.89916  -0.00090   0.00000  -0.00407  -0.00412   1.89504
    A6        1.93011  -0.00053   0.00000  -0.00420  -0.00419   1.92592
    A7        2.02976  -0.00328   0.00000  -0.01295  -0.01295   2.01681
    A8        2.16714  -0.00001   0.00000  -0.00084  -0.00165   2.16549
    A9        1.93232   0.00058   0.00000   0.00153   0.00072   1.93304
   A10        2.18312  -0.00061   0.00000  -0.00310  -0.00391   2.17921
   A11        1.86144   0.00695   0.00000   0.03679   0.03660   1.89804
   A12        1.89572  -0.00333   0.00000  -0.02050  -0.02060   1.87512
   A13        1.90705  -0.00064   0.00000   0.00647   0.00618   1.91323
   A14        1.93061  -0.00048   0.00000   0.00231   0.00244   1.93305
   A15        1.93473  -0.00194   0.00000  -0.00284  -0.00319   1.93154
   A16        1.93241  -0.00036   0.00000  -0.02045  -0.02052   1.91189
   A17        2.10455   0.00109   0.00000   0.00430   0.00429   2.10884
   A18        2.09734   0.00073   0.00000   0.00287   0.00286   2.10021
   A19        2.08037  -0.00183   0.00000  -0.00741  -0.00741   2.07296
   A20        2.10664   0.00113   0.00000   0.00492   0.00493   2.11157
   A21        2.09097  -0.00082   0.00000  -0.00405  -0.00406   2.08692
   A22        2.08557  -0.00030   0.00000  -0.00087  -0.00087   2.08469
   A23        2.07874  -0.00007   0.00000  -0.00048  -0.00049   2.07825
   A24        2.10498   0.00045   0.00000   0.00278   0.00278   2.10776
   A25        2.09946  -0.00038   0.00000  -0.00229  -0.00229   2.09717
   A26        2.08329   0.00027   0.00000   0.00116   0.00116   2.08445
   A27        2.11519  -0.00033   0.00000  -0.00150  -0.00151   2.11368
   A28        2.08470   0.00006   0.00000   0.00035   0.00035   2.08505
   A29        2.07870   0.00009   0.00000   0.00018   0.00017   2.07887
   A30        2.09960  -0.00042   0.00000  -0.00241  -0.00241   2.09718
   A31        2.10489   0.00034   0.00000   0.00224   0.00224   2.10713
   A32        2.10663   0.00101   0.00000   0.00434   0.00434   2.11097
   A33        2.08841  -0.00067   0.00000  -0.00323  -0.00323   2.08518
   A34        2.08813  -0.00033   0.00000  -0.00114  -0.00114   2.08699
    D1       -0.99722  -0.00040   0.00000  -0.00740  -0.00744  -1.00466
    D2       -3.09139  -0.00014   0.00000  -0.00493  -0.00493  -3.09632
    D3        1.09991   0.00031   0.00000  -0.00075  -0.00070   1.09920
    D4        0.01829   0.00009   0.00000  -0.01580  -0.01582   0.00246
    D5       -3.08772   0.00106   0.00000   0.05585   0.05587  -3.03184
    D6        1.58205  -0.00065   0.00000  -0.04480  -0.04455   1.53750
    D7       -2.61989   0.00087   0.00000  -0.03260  -0.03269  -2.65258
    D8       -0.51018  -0.00198   0.00000  -0.06610  -0.06615  -0.57633
    D9       -1.52356   0.00033   0.00000   0.02759   0.02777  -1.49579
   D10        0.55768   0.00184   0.00000   0.03979   0.03963   0.59732
   D11        2.66740  -0.00101   0.00000   0.00629   0.00617   2.67356
   D12       -1.64561  -0.00087   0.00000  -0.01758  -0.01754  -1.66315
   D13        1.44938  -0.00103   0.00000  -0.02391  -0.02389   1.42549
   D14        2.57915  -0.00069   0.00000  -0.01580  -0.01586   2.56329
   D15       -0.60905  -0.00085   0.00000  -0.02213  -0.02221  -0.63126
   D16        0.42866   0.00146   0.00000   0.01070   0.01076   0.43942
   D17       -2.75954   0.00130   0.00000   0.00437   0.00440  -2.75514
   D18        3.11090  -0.00021   0.00000  -0.00931  -0.00930   3.10160
   D19       -0.03062  -0.00013   0.00000  -0.00641  -0.00641  -0.03703
   D20        0.01546  -0.00012   0.00000  -0.00330  -0.00331   0.01215
   D21       -3.12606  -0.00004   0.00000  -0.00041  -0.00042  -3.12648
   D22       -3.10958   0.00018   0.00000   0.00841   0.00840  -3.10119
   D23        0.02507   0.00007   0.00000   0.00418   0.00417   0.02924
   D24       -0.01395   0.00010   0.00000   0.00248   0.00248  -0.01147
   D25        3.12071  -0.00001   0.00000  -0.00175  -0.00175   3.11896
   D26       -0.00705   0.00005   0.00000   0.00192   0.00193  -0.00512
   D27        3.13593  -0.00000   0.00000  -0.00026  -0.00026   3.13567
   D28        3.13447  -0.00002   0.00000  -0.00096  -0.00095   3.13351
   D29       -0.00574  -0.00008   0.00000  -0.00314  -0.00314  -0.00888
   D30        3.13986  -0.00007   0.00000  -0.00244  -0.00244   3.13742
   D31       -0.00308   0.00001   0.00000   0.00023   0.00023  -0.00285
   D32       -0.00312  -0.00001   0.00000  -0.00026  -0.00026  -0.00337
   D33        3.13712   0.00007   0.00000   0.00241   0.00241   3.13954
   D34        0.00456  -0.00003   0.00000  -0.00105  -0.00105   0.00351
   D35       -3.13548  -0.00006   0.00000  -0.00189  -0.00189  -3.13737
   D36       -3.13839   0.00004   0.00000   0.00162   0.00162  -3.13676
   D37        0.00476   0.00002   0.00000   0.00078   0.00078   0.00554
   D38        0.00408  -0.00001   0.00000  -0.00029  -0.00029   0.00378
   D39       -3.13058   0.00010   0.00000   0.00395   0.00395  -3.12663
   D40       -3.13908   0.00001   0.00000   0.00056   0.00055  -3.13852
   D41        0.00945   0.00012   0.00000   0.00479   0.00479   0.01424
         Item               Value     Threshold  Converged?
 Maximum Force            0.019597     0.000450     NO 
 RMS     Force            0.003891     0.000300     NO 
 Maximum Displacement     0.109686     0.001800     NO 
 RMS     Displacement     0.034776     0.001200     NO 
 Predicted change in Energy=-1.685256D-03
 Lowest energy point so far.  Saving SCF results.
 GradGradGradGradGradGradGradGradGradGradGradGradGradGradGradGradGradGrad

 Leave Link  103 at Tue Sep 17 09:41:51 2024, MaxMem=  1342177280 cpu:               0.1 elap:               0.0
 (Enter /groups/ReismanLab/Software/Gaussian16_RevC/Linux_Binary_AVX2-enabled-CPU/g16/l202.exe)
                          Input orientation:                          
 ---------------------------------------------------------------------
 Center     Atomic      Atomic             Coordinates (Angstroms)
 Number     Number       Type             X           Y           Z
 ---------------------------------------------------------------------
      1          6           0        4.492993   -1.624112    0.937506
      2          8           0        3.826630   -0.965495   -0.147567
      3          6           0        3.523964    0.330871    0.057520
      4          8           0        3.782578    0.934978    1.073855
      5          6           0        2.687153    0.878250   -1.091810
      6          6           0        1.219722    0.621653   -0.792953
      7          6           0        0.570770   -0.508461   -1.303381
      8          6           0       -0.763415   -0.772243   -0.992394
      9          6           0       -1.449765    0.105055   -0.155523
     10         35           0       -3.281670   -0.243167    0.272075
     11          6           0       -0.824610    1.232552    0.373846
     12          6           0        0.509232    1.482395    0.052634
     13          1           0        5.421852   -1.108204    1.193393
     14          1           0        4.701680   -2.635176    0.589746
     15          1           0        3.854027   -1.651402    1.824257
     16          1           0        2.886351    1.948840   -1.160340
     17          1           0        2.981330    0.391816   -2.023392
     18          1           0        1.113692   -1.192336   -1.949022
     19          1           0       -1.264155   -1.645657   -1.394081
     20          1           0       -1.372039    1.902770    1.026519
     21          1           0        1.007810    2.350966    0.471998
 ---------------------------------------------------------------------
                    Distance matrix (angstroms):
                    1          2          3          4          5
     1  C    0.000000
     2  O    1.433597   0.000000
     3  C    2.352732   1.346934   0.000000
     4  O    2.659365   2.259560   1.210275   0.000000
     5  C    3.693372   2.364190   1.523429   2.427608   0.000000
     6  C    4.330387   3.119540   2.473336   3.186123   1.519379
     7  C    4.652965   3.485027   3.358256   4.248586   2.539056
     8  C    5.663923   4.671145   4.549813   5.277314   3.826281
     9  C    6.284991   5.383910   4.983409   5.438526   4.311445
    10  Br   7.924342   7.157219   6.833170   7.206558   6.224517
    11  C    6.062602   5.170814   4.452324   4.669555   3.821800
    12  C    5.128716   4.127635   3.227172   3.472369   2.533393
    13  H    1.092894   2.088845   2.638773   2.622232   4.080040
    14  H    1.089375   2.024149   3.235385   3.718214   4.385215
    15  H    1.093321   2.087896   2.675763   2.693988   4.032887
    16  H    4.443899   3.225396   2.123101   2.612043   1.091119
    17  H    3.887931   2.464862   2.151362   3.244990   1.091331
    18  H    4.465216   3.264465   3.486514   4.559189   2.738233
    19  H    6.211402   5.285122   5.379581   6.182225   4.698330
    20  H    6.844371   6.052402   5.232654   5.244896   4.691908
    21  H    5.307018   4.396421   3.253246   3.172789   2.726643
                    6          7          8          9         10
     6  C    0.000000
     7  C    1.399583   0.000000
     8  C    2.432191   1.395114   0.000000
     9  C    2.792732   2.403444   1.393227   0.000000
    10  Br   4.705818   4.170580   2.867126   1.913106   0.000000
    11  C    2.431853   2.791290   2.426842   1.393665   2.867970
    12  C    1.400246   2.409579   2.791972   2.403761   4.170931
    13  H    4.959423   5.488767   6.568719   7.107088   8.794795
    14  H    4.964154   5.017097   5.986731   6.775291   8.340054
    15  H    4.353864   4.676346   5.479710   5.927469   7.437108
    16  H    2.161955   3.379453   4.555578   4.817790   6.700835
    17  H    2.161034   2.672025   4.054764   4.817237   6.700563
    18  H    2.153670   1.085957   2.148289   3.386913   5.015317
    19  H    3.416386   2.160646   1.083949   2.152549   2.968741
    20  H    3.415986   3.875174   3.406190   2.152916   2.970004
    21  H    2.153028   3.394009   3.877643   3.387857   5.016885
                   11         12         13         14         15
    11  C    0.000000
    12  C    1.394537   0.000000
    13  H    6.720795   5.669776   0.000000
    14  H    6.748764   5.900805   1.792954   0.000000
    15  H    5.684235   4.913958   1.775142   1.791744   0.000000
    16  H    4.078974   2.709164   4.616746   5.231770   4.775559
    17  H    4.575890   3.407420   4.307425   4.353249   4.443056
    18  H    3.877218   3.395024   5.333113   4.626098   4.685917
    19  H    3.406296   3.875899   7.189337   6.364425   6.045951
    20  H    1.083906   2.159710   7.433085   7.594326   6.370266
    21  H    2.149010   1.085754   5.654205   6.206461   5.093968
                   16         17         18         19         20
    16  H    0.000000
    17  H    1.782751   0.000000
    18  H    3.692063   2.450131   0.000000
    19  H    5.495611   4.750944   2.483468   0.000000
    20  H    4.787312   5.526008   4.961088   4.296775   0.000000
    21  H    2.520942   3.736311   4.292731   4.961559   2.484361
                   21
    21  H    0.000000
 Stoichiometry    C9H9BrO2
 Framework group  C1[X(C9H9BrO2)]
 Deg. of freedom    57
 Full point group                 C1      NOp   1
 RotChk:  IX=0 Diff= 1.02D-02
 Largest Abelian subgroup         C1      NOp   1
 Largest concise Abelian subgroup C1      NOp   1
                         Standard orientation:                         
 ---------------------------------------------------------------------
 Center     Atomic      Atomic             Coordinates (Angstroms)
 Number     Number       Type             X           Y           Z
 ---------------------------------------------------------------------
      1          6           0       -4.295905   -1.587933   -0.910652
      2          8           0       -3.615651   -0.924624    0.162882
      3          6           0       -3.299977    0.365922   -0.058638
      4          8           0       -3.558166    0.961427   -1.080145
      5          6           0       -2.450120    0.916836    1.079375
      6          6           0       -0.987475    0.640638    0.774585
      7          6           0       -0.347895   -0.490813    1.293805
      8          6           0        0.981360   -0.772853    0.977771
      9          6           0        1.672177    0.087335    0.126931
     10         35           0        3.497464   -0.285965   -0.307754
     11          6           0        1.056246    1.215693   -0.411343
     12          6           0       -0.272757    1.483906   -0.084929
     13          1           0       -5.220576   -1.064651   -1.166735
     14          1           0       -4.513583   -2.592656   -0.550256
     15          1           0       -3.662750   -1.632253   -1.800878
     16          1           0       -2.637074    1.990272    1.137024
     17          1           0       -2.743902    0.444174    2.018143
     18          1           0       -0.894340   -1.161339    1.950383
     19          1           0        1.474902   -1.647210    1.386258
     20          1           0        1.607003    1.872434   -1.074826
     21          1           0       -0.764299    2.353199   -0.511050
 ---------------------------------------------------------------------
 Rotational constants (GHZ):           1.8531825           0.2459128           0.2395284
 Leave Link  202 at Tue Sep 17 09:41:51 2024, MaxMem=  1342177280 cpu:               0.0 elap:               0.0
 (Enter /groups/ReismanLab/Software/Gaussian16_RevC/Linux_Binary_AVX2-enabled-CPU/g16/l301.exe)
 Standard basis: 6-31G(d,p) (6D, 7F)
 Ernie: Thresh=  0.10000D-02 Tol=  0.10000D-05 Strict=F.
 There are   240 symmetry adapted cartesian basis functions of A   symmetry.
 There are   240 symmetry adapted basis functions of A   symmetry.
   240 basis functions,   454 primitive gaussians,   240 cartesian basis functions
    57 alpha electrons       57 beta electrons
       nuclear repulsion energy       899.4182413107 Hartrees.
 IExCor=  402 DFT=T Ex+Corr=B3LYP ExCW=0 ScaHFX=  0.200000
 ScaDFX=  0.800000  0.720000  1.000000  0.810000 ScalE2=  1.000000  1.000000
 IRadAn=      5 IRanWt=     -1 IRanGd=            0 ICorTp=0 IEmpDi=141
 NAtoms=   21 NActive=   21 NUniq=   21 SFac= 1.00D+00 NAtFMM=   60 NAOKFM=F Big=F
 Integral buffers will be    131072 words long.
 Raffenetti 2 integral format.
 Two-electron integral symmetry is turned on.
 R6Disp:  Grimme-D3(BJ) Dispersion energy=       -0.0408683910 Hartrees.
 Nuclear repulsion after empirical dispersion term =      899.3773729197 Hartrees.
 Leave Link  301 at Tue Sep 17 09:41:51 2024, MaxMem=  1342177280 cpu:               0.1 elap:               0.1
 (Enter /groups/ReismanLab/Software/Gaussian16_RevC/Linux_Binary_AVX2-enabled-CPU/g16/l302.exe)
 NPDir=0 NMtPBC=     1 NCelOv=     1 NCel=       1 NClECP=     1 NCelD=      1
         NCelK=      1 NCelE2=     1 NClLst=     1 CellRange=     0.0.
 One-electron integrals computed using PRISM.
 One-electron integral symmetry used in STVInt
 NBasis=   240 RedAO= T EigKep=  4.44D-04  NBF=   240
 NBsUse=   240 1.00D-06 EigRej= -1.00D+00 NBFU=   240
 Precomputing XC quadrature grid using
 IXCGrd= 4 IRadAn=           5 IRanWt=          -1 IRanGd=           0 AccXCQ= 0.00D+00.
 Generated NRdTot=       0 NPtTot=           0 NUsed=           0 NTot=          32
 NSgBfM=   237   237   237   237   237 MxSgAt=    21 MxSgA2=    21.
 Leave Link  302 at Tue Sep 17 09:41:51 2024, MaxMem=  1342177280 cpu:               1.1 elap:               0.2
 (Enter /groups/ReismanLab/Software/Gaussian16_RevC/Linux_Binary_AVX2-enabled-CPU/g16/l303.exe)
 DipDrv:  MaxL=1.
 Leave Link  303 at Tue Sep 17 09:41:51 2024, MaxMem=  1342177280 cpu:               0.1 elap:               0.0
 (Enter /groups/ReismanLab/Software/Gaussian16_RevC/Linux_Binary_AVX2-enabled-CPU/g16/l401.exe)
 Initial guess from the checkpoint file:  "smiles_00047_conf_0.chk"
 B after Tr=    -0.000000    0.000000    0.000000
         Rot=    0.999997    0.001987   -0.000338   -0.001140 Ang=   0.27 deg.
 Guess basis will be translated and rotated to current coordinates.
 JPrj=2 DoOrth=T DoCkMO=T.
 Generating alternative initial guess.
 ExpMin= 1.43D-01 ExpMax= 5.74D+05 ExpMxC= 5.74D+03 IAcc=3 IRadAn=         5 AccDes= 0.00D+00
 Harris functional with IExCor=  402 and IRadAn=       5 diagonalized for initial guess.
 HarFok:  IExCor=  402 AccDes= 0.00D+00 IRadAn=         5 IDoV= 1 UseB2=F ITyADJ=14
 ICtDFT=  3500011 ScaDFX=  1.000000  1.000000  1.000000  1.000000
 FoFCou: FMM=F IPFlag=           0 FMFlag=      100000 FMFlg1=           0
         NFxFlg=           0 DoJE=T BraDBF=F KetDBF=T FulRan=T
         wScrn=  0.000000 ICntrl=       500 IOpCl=  0 I1Cent=   200000004 NGrid=           0
         NMat0=    1 NMatS0=      1 NMatT0=    0 NMatD0=    1 NMtDS0=    0 NMtDT0=    0
 Petite list used in FoFCou.
 Harris En= -3070.71955850102    
 Leave Link  401 at Tue Sep 17 09:41:52 2024, MaxMem=  1342177280 cpu:               4.9 elap:               0.7
 (Enter /groups/ReismanLab/Software/Gaussian16_RevC/Linux_Binary_AVX2-enabled-CPU/g16/l502.exe)
 Integral symmetry usage will be decided dynamically.
 Closed shell SCF:
 Using DIIS extrapolation, IDIIS=  1040.
 NGot=  1342177280 LenX=  1342057097 LenY=  1341999056
 Requested convergence on RMS density matrix=1.00D-08 within  32 cycles.
 Requested convergence on MAX density matrix=1.00D-06.
 Requested convergence on             energy=1.00D-06.
 No special actions if energy rises.
 Fock matrices will be formed incrementally for  20 cycles.
 Integral accuracy reduced to 1.0D-05 until final iterations.

 Cycle   1  Pass 0  IDiag  1:
 FoFJK:  IHMeth= 1 ICntrl=       0 DoSepK=F KAlg= 0 I1Cent=           0 FoldK=F
 IRaf= 840000000 NMat=       1 IRICut=       1 DoRegI=T DoRafI=F ISym2E= 0 IDoP0=0 IntGTp=1.
 FoFCou: FMM=F IPFlag=           0 FMFlag=      100000 FMFlg1=           0
         NFxFlg=           0 DoJE=F BraDBF=F KetDBF=F FulRan=T
         wScrn=  0.000000 ICntrl=         0 IOpCl=  0 I1Cent=           0 NGrid=           0
         NMat0=    1 NMatS0=      1 NMatT0=    0 NMatD0=    1 NMtDS0=    0 NMtDT0=    0
 Symmetry not used in FoFCou.
 E= -3070.59322344088    
 DIIS: error= 1.86D-03 at cycle   1 NSaved=   1.
 NSaved= 1 IEnMin= 1 EnMin= -3070.59322344088     IErMin= 1 ErrMin= 1.86D-03
 ErrMax= 1.86D-03  0.00D+00 EMaxC= 1.00D-01 BMatC= 2.03D-03 BMatP= 2.03D-03
 IDIUse=3 WtCom= 9.81D-01 WtEn= 1.86D-02
[...]
                 (A) (A) (A) (A) (A) (A) (A) (A) (A) (A) (A) (A)
                 (A) (A) (A) (A) (A) (A) (A) (A) (A)
       Virtual   (A) (A) (A) (A) (A) (A) (A) (A) (A) (A) (A) (A)
                 (A) (A) (A) (A) (A) (A) (A) (A) (A) (A) (A) (A)
                 (A) (A) (A) (A) (A) (A) (A) (A) (A) (A) (A) (A)
                 (A) (A) (A) (A) (A) (A) (A) (A) (A) (A) (A) (A)
                 (A) (A) (A) (A) (A) (A) (A) (A) (A) (A) (A) (A)
                 (A) (A) (A) (A) (A) (A) (A) (A) (A) (A) (A) (A)
                 (A) (A) (A) (A) (A) (A) (A) (A) (A) (A) (A) (A)
                 (A) (A) (A) (A) (A) (A) (A) (A) (A) (A) (A) (A)
                 (A) (A) (A) (A) (A) (A) (A) (A) (A) (A) (A) (A)
                 (A) (A) (A) (A) (A) (A) (A) (A) (A) (A) (A) (A)
                 (A) (A) (A) (A) (A) (A) (A) (A) (A) (A) (A) (A)
                 (A) (A) (A) (A) (A) (A) (A) (A) (A) (A) (A) (A)
                 (A) (A) (A) (A) (A) (A) (A) (A) (A) (A) (A) (A)
                 (A) (A) (A) (A) (A) (A) (A) (A) (A) (A) (A) (A)
                 (A) (A) (A) (A) (A) (A) (A) (A) (A) (A) (A) (A)
                 (A) (A) (A) (A) (A) (A) (A) (A) (A) (A) (A) (A)
                 (A) (A) (A) (A) (A) (A) (A) (A) (A) (A) (A) (A)
                 (A) (A) (A) (A) (A) (A) (A) (A) (A) (A) (A) (A)
                 (A) (A) (A) (A) (A) (A) (A) (A) (A) (A) (A) (A)
                 (A) (A) (A) (A) (A) (A) (A) (A) (A) (A) (A) (A)
                 (A) (A) (A) (A) (A) (A) (A) (A) (A) (A) (A) (A)
                 (A) (A) (A) (A) (A) (A) (A) (A) (A) (A) (A) (A)
                 (A) (A) (A) (A) (A) (A) (A) (A) (A) (A) (A) (A)
                 (A) (A) (A) (A) (A) (A) (A) (A) (A) (A) (A) (A)
                 (A) (A) (A) (A) (A) (A) (A) (A) (A) (A) (A) (A)
                 (A) (A) (A) (A) (A) (A) (A) (A) (A) (A) (A) (A)
                 (A) (A) (A) (A) (A) (A) (A) (A) (A) (A) (A) (A)
                 (A) (A) (A) (A) (A) (A) (A) (A) (A) (A) (A) (A)
                 (A) (A) (A) (A) (A) (A) (A) (A) (A) (A) (A) (A)
                 (A) (A) (A) (A) (A) (A) (A) (A) (A) (A) (A) (A)
                 (A) (A) (A) (A) (A) (A) (A) (A) (A) (A) (A) (A)
                 (A) (A) (A) (A) (A) (A) (A) (A) (A) (A) (A) (A)
                 (A) (A)
 The electronic state is 1-A.
 Alpha  occ. eigenvalues -- -485.37515 -63.35996 -57.17939 -57.17705 -57.17699
 Alpha  occ. eigenvalues --  -19.67754 -19.62171 -10.67879 -10.60403 -10.58871
 Alpha  occ. eigenvalues --  -10.56742 -10.55947 -10.55798 -10.55745 -10.55544
 Alpha  occ. eigenvalues --  -10.55272  -9.02641  -6.85044  -6.84175  -6.84156
 Alpha  occ. eigenvalues --   -2.88421  -2.88106  -2.88082  -2.87272  -2.87272
 Alpha  occ. eigenvalues --   -1.23635  -1.14384  -0.98518  -0.91844  -0.87002
 Alpha  occ. eigenvalues --   -0.85707  -0.82224  -0.77615  -0.70805  -0.67579
 Alpha  occ. eigenvalues --   -0.65271  -0.59609  -0.58490  -0.57204  -0.55701
 Alpha  occ. eigenvalues --   -0.54397  -0.53249  -0.50182  -0.49533  -0.48448
 Alpha  occ. eigenvalues --   -0.47260  -0.45535  -0.44843  -0.43575  -0.41802
 Alpha  occ. eigenvalues --   -0.40885  -0.38186  -0.37839  -0.35891  -0.35163
 Alpha  occ. eigenvalues --   -0.32180  -0.29512
 Alpha virt. eigenvalues --    0.00275   0.00692   0.03584   0.04904   0.07720
 Alpha virt. eigenvalues --    0.09766   0.10464   0.10877   0.12311   0.13347
 Alpha virt. eigenvalues --    0.14137   0.14469   0.15516   0.16185   0.16541
 Alpha virt. eigenvalues --    0.17635   0.18019   0.19827   0.20807   0.21646
 Alpha virt. eigenvalues --    0.22964   0.23660   0.24257   0.24665   0.24804
 Alpha virt. eigenvalues --    0.26315   0.26815   0.27284   0.27844   0.29262
 Alpha virt. eigenvalues --    0.30419   0.31093   0.31387   0.32362   0.32826
 Alpha virt. eigenvalues --    0.33288   0.34456   0.34939   0.35288   0.36180
 Alpha virt. eigenvalues --    0.36871   0.38087   0.38302   0.40008   0.40542
 Alpha virt. eigenvalues --    0.40936   0.41124   0.42186   0.43581   0.44373
 Alpha virt. eigenvalues --    0.44741   0.45978   0.46671   0.47056   0.47666
 Alpha virt. eigenvalues --    0.48637   0.49377   0.49445   0.49691   0.50652
 Alpha virt. eigenvalues --    0.52951   0.53683   0.54197   0.55228   0.56688
 Alpha virt. eigenvalues --    0.57492   0.58003   0.58760   0.59423   0.60421
 Alpha virt. eigenvalues --    0.62548   0.63623   0.65147   0.66698   0.66980
 Alpha virt. eigenvalues --    0.69135   0.69425   0.71553   0.71983   0.72819
 Alpha virt. eigenvalues --    0.73920   0.75870   0.76673   0.77721   0.78801
 Alpha virt. eigenvalues --    0.80334   0.81042   0.84090   0.84548   0.86649
 Alpha virt. eigenvalues --    0.88297   0.89520   0.89686   0.90402   0.91993
 Alpha virt. eigenvalues --    0.93087   0.94001   0.96977   0.98452   0.99889
 Alpha virt. eigenvalues --    1.00183   1.02078   1.03320   1.04341   1.06397
 Alpha virt. eigenvalues --    1.06922   1.08717   1.09399   1.10787   1.11363
 Alpha virt. eigenvalues --    1.12997   1.15243   1.18538   1.19344   1.21524
 Alpha virt. eigenvalues --    1.23078   1.23662   1.25082   1.25406   1.26262
 Alpha virt. eigenvalues --    1.27303   1.29428   1.30234   1.33123   1.36371
 Alpha virt. eigenvalues --    1.38332   1.39192   1.39891   1.42196   1.42640
 Alpha virt. eigenvalues --    1.45024   1.45212   1.47435   1.48269   1.49425
 Alpha virt. eigenvalues --    1.50421   1.50931   1.51671   1.52977   1.53958
 Alpha virt. eigenvalues --    1.54824   1.56892   1.57072   1.57768   1.58052
 Alpha virt. eigenvalues --    1.58823   1.59759   1.60631   1.61804   1.63334
 Alpha virt. eigenvalues --    1.63824   1.65504   1.66364   1.66770   1.67099
 Alpha virt. eigenvalues --    1.67714   1.69085   1.71965   1.73378   1.73923
 Alpha virt. eigenvalues --    1.74803   1.75306   1.76575   1.77942   1.79305
 Alpha virt. eigenvalues --    1.82500   1.83265   1.85185   1.86091   1.88036
 Alpha virt. eigenvalues --    1.89026   1.92629   1.93029   1.93865   1.94021
 Alpha virt. eigenvalues --    1.94944   1.95868   1.99983   2.00125   2.04177
 Alpha virt. eigenvalues --    2.05939   2.06663   2.08143   2.10231   2.11221
 Alpha virt. eigenvalues --    2.13862   2.15818   2.17101   2.17660   2.18648
 Alpha virt. eigenvalues --    2.20129   2.21647   2.25657   2.26476   2.27929
 Alpha virt. eigenvalues --    2.28443   2.29717   2.33381   2.34019   2.36370
 Alpha virt. eigenvalues --    2.38271   2.40890   2.42708   2.43518   2.45154
 Alpha virt. eigenvalues --    2.47654   2.48754   2.51974   2.54473   2.55013
 Alpha virt. eigenvalues --    2.56278   2.57307   2.59247   2.60800   2.61093
 Alpha virt. eigenvalues --    2.62814   2.63073   2.64139   2.66673   2.68773
 Alpha virt. eigenvalues --    2.69144   2.71049   2.72029   2.72541   2.75847
 Alpha virt. eigenvalues --    2.77162   2.78047   2.78114   2.80780   2.81109
 Alpha virt. eigenvalues --    2.81762   2.83552   2.83769   2.84875   2.85917
 Alpha virt. eigenvalues --    2.87593   2.89654   2.91839   2.93540   2.96542
 Alpha virt. eigenvalues --    2.96649   2.97416   3.01377   3.02838   3.04309
 Alpha virt. eigenvalues --    3.05338   3.05714   3.06701   3.09428   3.10240
 Alpha virt. eigenvalues --    3.11095   3.12314   3.14101   3.15174   3.15372
 Alpha virt. eigenvalues --    3.16086   3.17615   3.20061   3.20501   3.22545
 Alpha virt. eigenvalues --    3.23459   3.23951   3.26104   3.26739   3.28058
 Alpha virt. eigenvalues --    3.29712   3.30222   3.32115   3.32844   3.34772
 Alpha virt. eigenvalues --    3.35089   3.37568   3.38644   3.39103   3.40299
 Alpha virt. eigenvalues --    3.41363   3.41988   3.43386   3.44674   3.45147
 Alpha virt. eigenvalues --    3.45888   3.46643   3.47699   3.49331   3.50833
 Alpha virt. eigenvalues --    3.52303   3.53820   3.55351   3.57024   3.58277
 Alpha virt. eigenvalues --    3.58989   3.60211   3.62457   3.66620   3.66978
 Alpha virt. eigenvalues --    3.74465   3.75185   3.76181   3.78624   3.80940
 Alpha virt. eigenvalues --    3.84567   3.86504   3.87738   3.92650   3.97649
 Alpha virt. eigenvalues --    3.98752   4.01924   4.03160   4.05642   4.07104
 Alpha virt. eigenvalues --    4.09134   4.11488   4.13805   4.15184   4.16504
 Alpha virt. eigenvalues --    4.17332   4.17995   4.19520   4.21968   4.22469
 Alpha virt. eigenvalues --    4.22924   4.25804   4.27129   4.30290   4.34447
 Alpha virt. eigenvalues --    4.37059   4.38543   4.39462   4.42704   4.46233
 Alpha virt. eigenvalues --    4.48558   4.50932   4.53106   4.56538   4.60452
 Alpha virt. eigenvalues --    4.61755   4.63988   4.72447   4.77026   4.81174
 Alpha virt. eigenvalues --    4.82583   4.85208   4.91509   4.92794   5.09672
 Alpha virt. eigenvalues --    5.13182   5.18808   5.22773   5.28584   5.30647
 Alpha virt. eigenvalues --    5.33623   5.41562   5.41916   5.49763   5.53164
 Alpha virt. eigenvalues --    5.61824   5.66636   5.81070   5.95757   6.02032
 Alpha virt. eigenvalues --    6.10678   6.16680   6.36030   6.37125   6.49881
 Alpha virt. eigenvalues --    6.63350   6.64254   6.76295   6.79551   6.87085
 Alpha virt. eigenvalues --    6.97702   7.09655   7.21392   7.34641   7.85122
 Alpha virt. eigenvalues --   22.08928  22.41245  22.60994  22.72878  22.76156
 Alpha virt. eigenvalues --   22.80851  22.88320  23.27324  23.39886  44.03766
 Alpha virt. eigenvalues --   44.23879
          Condensed to atoms (all electrons):
               1          2          3          4          5          6
     1  C    4.876090   0.203155  -0.053882   0.001490   0.008481  -0.000404
     2  O    0.203155   7.977181   0.350508  -0.084567  -0.091040   0.001276
     3  C   -0.053882   0.350508   4.482235   0.623397   0.301984  -0.007833
     4  O    0.001490  -0.084567   0.623397   7.885906  -0.073727  -0.029589
     5  C    0.008481  -0.091040   0.301984  -0.073727   5.223360   0.282446
     6  C   -0.000404   0.001276  -0.007833  -0.029589   0.282446   5.060858
     7  C   -0.000055   0.002391   0.001977   0.000791  -0.067830   0.457566
     8  C   -0.000003  -0.000315  -0.001196  -0.000077   0.015936  -0.012295
     9  C    0.000009   0.000053   0.000183   0.000190  -0.004133  -0.071064
    10  Br  -0.000000  -0.000000   0.000007   0.000000  -0.000071  -0.005925
    11  C   -0.000027   0.000100   0.002288   0.000362   0.007464  -0.016494
    12  C   -0.000022   0.000450  -0.004081   0.012316  -0.079833   0.403643
    13  H    0.421244  -0.033213  -0.009496   0.003297   0.000104  -0.000075
    14  H    0.394834  -0.029361   0.005296   0.001871   0.000692   0.000241
    15  H    0.417333  -0.035533  -0.005671   0.004638  -0.001023  -0.000395
    16  H   -0.000514   0.003185  -0.045467   0.000499   0.423407  -0.037481
    17  H   -0.000134   0.006597  -0.032685   0.004796   0.421972  -0.055343
    18  H   -0.000003  -0.000027  -0.000484   0.000007  -0.004888  -0.031707
    19  H    0.000000  -0.000005  -0.000006  -0.000000   0.000072   0.006896
    20  H    0.000000  -0.000001   0.000002  -0.000047   0.000025   0.007667
    21  H   -0.000087   0.000667  -0.004399   0.015105   0.001031  -0.032765
               7          8          9         10         11         12
     1  C   -0.000055  -0.000003   0.000009  -0.000000  -0.000027  -0.000022
     2  O    0.002391  -0.000315   0.000053  -0.000000   0.000100   0.000450
     3  C    0.001977  -0.001196   0.000183   0.000007   0.002288  -0.004081
     4  O    0.000791  -0.000077   0.000190   0.000000   0.000362   0.012316
     5  C   -0.067830   0.015936  -0.004133  -0.000071   0.007464  -0.079833
     6  C    0.457566  -0.012295  -0.071064  -0.005925  -0.016494   0.403643
     7  C    5.090279   0.380756   0.029977   0.022674  -0.098581   0.000968
     8  C    0.380756   5.135778   0.400513  -0.101313   0.030154  -0.098469
     9  C    0.029977   0.400513   4.911317   0.366692   0.394495   0.029090
    10  Br   0.022674  -0.101313   0.366692  34.930702  -0.103623   0.023591
    11  C   -0.098581   0.030154   0.394495  -0.103623   5.131580   0.394990
    12  C    0.000968  -0.098469   0.029090   0.023591   0.394990   5.137927
    13  H    0.000003  -0.000001  -0.000000  -0.000000   0.000002  -0.000081
    14  H   -0.000010  -0.000000  -0.000001  -0.000000   0.000000  -0.000063
    15  H    0.000131  -0.000020   0.000012   0.000000  -0.000052   0.000485
    16  H    0.006158  -0.001180   0.000469  -0.000002  -0.000670  -0.010641
    17  H   -0.008871   0.001576   0.000059   0.000001  -0.000450   0.013181
    18  H    0.402641  -0.025740   0.002104  -0.000293  -0.000623   0.007988
    19  H   -0.035556   0.420390  -0.046222  -0.007392   0.012613  -0.003802
    20  H   -0.003181   0.011741  -0.047788  -0.007946   0.419763  -0.033225
    21  H    0.005997  -0.000646   0.002308  -0.000221  -0.018039   0.393024
              13         14         15         16         17         18
     1  C    0.421244   0.394834   0.417333  -0.000514  -0.000134  -0.000003
     2  O   -0.033213  -0.029361  -0.035533   0.003185   0.006597  -0.000027
     3  C   -0.009496   0.005296  -0.005671  -0.045467  -0.032685  -0.000484
     4  O    0.003297   0.001871   0.004638   0.000499   0.004796   0.000007
     5  C    0.000104   0.000692  -0.001023   0.423407   0.421972  -0.004888
     6  C   -0.000075   0.000241  -0.000395  -0.037481  -0.055343  -0.031707
     7  C    0.000003  -0.000010   0.000131   0.006158  -0.008871   0.402641
     8  C   -0.000001  -0.000000  -0.000020  -0.001180   0.001576  -0.025740
     9  C   -0.000000  -0.000001   0.000012   0.000469   0.000059   0.002104
    10  Br  -0.000000  -0.000000   0.000000  -0.000002   0.000001  -0.000293
    11  C    0.000002   0.000000  -0.000052  -0.000670  -0.000450  -0.000623
    12  C   -0.000081  -0.000063   0.000485  -0.010641   0.013181   0.007988
    13  H    0.523369  -0.024350  -0.040941   0.000127  -0.000070  -0.000001
    14  H   -0.024350   0.516781  -0.022218  -0.000003  -0.000307   0.000003
    15  H   -0.040941  -0.022218   0.521838  -0.000039   0.000112   0.000003
    16  H    0.000127  -0.000003  -0.000039   0.485165  -0.016891   0.000308
    17  H   -0.000070  -0.000307   0.000112  -0.016891   0.493595   0.000667
    18  H   -0.000001   0.000003   0.000003   0.000308   0.000667   0.483998
    19  H   -0.000000   0.000000   0.000000  -0.000000  -0.000049  -0.002662
    20  H    0.000000   0.000000  -0.000001  -0.000022   0.000001   0.000056
    21  H   -0.000024  -0.000003   0.000043   0.000639   0.000344  -0.000163
              19         20         21
     1  C    0.000000   0.000000  -0.000087
     2  O   -0.000005  -0.000001   0.000667
     3  C   -0.000006   0.000002  -0.004399
     4  O   -0.000000  -0.000047   0.015105
     5  C    0.000072   0.000025   0.001031
     6  C    0.006896   0.007667  -0.032765
     7  C   -0.035556  -0.003181   0.005997
     8  C    0.420390   0.011741  -0.000646
     9  C   -0.046222  -0.047788   0.002308
    10  Br  -0.007392  -0.007946  -0.000221
    11  C    0.012613   0.419763  -0.018039
    12  C   -0.003802  -0.033225   0.393024
    13  H   -0.000000   0.000000  -0.000024
    14  H    0.000000   0.000000  -0.000003
    15  H    0.000000  -0.000001   0.000043
    16  H   -0.000000  -0.000022   0.000639
    17  H   -0.000049   0.000001   0.000344
    18  H   -0.002662   0.000056  -0.000163
    19  H    0.475510   0.000051   0.000038
    20  H    0.000051   0.473679  -0.002778
    21  H    0.000038  -0.002778   0.450089
 Mulliken charges:
               1
     1  C   -0.267504
     2  O   -0.271502
     3  C    0.397322
     4  O   -0.366656
     5  C   -0.364428
     6  C    0.080776
     7  C   -0.188224
     8  C   -0.155588
     9  C    0.031739
    10  Br  -0.116882
    11  C   -0.155253
    12  C   -0.187436
    13  H    0.160105
    14  H    0.156598
    15  H    0.161297
    16  H    0.192953
    17  H    0.171900
    18  H    0.168815
    19  H    0.180125
    20  H    0.182002
    21  H    0.189840
 Sum of Mulliken charges =  -0.00000
 Mulliken charges with hydrogens summed into heavy atoms:
               1
     1  C    0.210496
     2  O   -0.271502
     3  C    0.397322
     4  O   -0.366656
     5  C    0.000426
     6  C    0.080776
     7  C   -0.019409
     8  C    0.024537
     9  C    0.031739
    10  Br  -0.116882
    11  C    0.026750
    12  C    0.002404
 Electronic spatial extent (au):  <R**2>=           4326.8701
 Charge=             -0.0000 electrons
 Dipole moment (field-independent basis, Debye):
    X=             -2.2328    Y=             -2.0013    Z=             -0.3548  Tot=              3.0194
 Quadrupole moment (field-independent basis, Debye-Ang):
   XX=            -81.6176   YY=            -80.6670   ZZ=            -80.5211
   XY=              5.6696   XZ=              4.4790   YZ=             -1.1939
 Traceless Quadrupole moment (field-independent basis, Debye-Ang):
   XX=             -0.6823   YY=              0.2682   ZZ=              0.4141
   XY=              5.6696   XZ=              4.4790   YZ=             -1.1939
 Octapole moment (field-independent basis, Debye-Ang**2):
  XXX=             25.9743  YYY=             -3.5863  ZZZ=            -21.1692  XYY=             43.1431
  XXY=            -16.0667  XXZ=            -37.1106  XZZ=              3.3819  YZZ=              4.2794
  YYZ=             -4.9300  XYZ=             10.6283
 Hexadecapole moment (field-independent basis, Debye-Ang**3):
 XXXX=          -3842.3029 YYYY=           -430.6670 ZZZZ=           -385.0604 XXXY=             71.6395
 XXXZ=            116.5991 YYYX=             39.3774 YYYZ=              4.3516 ZZZX=             -8.4258
 ZZZY=              2.0325 XXYY=           -810.0736 XXZZ=           -674.3433 YYZZ=           -145.6205
 XXYZ=            -28.5243 YYXZ=             -6.1906 ZZXY=              8.3186
 N-N= 8.955809913901D+02 E-N=-9.106846527348D+03  KE= 3.067091892838D+03
 Calculating spin-rotation constants.
 Leave Link  601 at Tue Sep 17 10:43:28 2024, MaxMem=  1342177280 cpu:               4.8 elap:               4.8
 (Enter /groups/ReismanLab/Software/Gaussian16_RevC/Linux_Binary_AVX2-enabled-CPU/g16/l9999.exe)
 Unable to Open any file for archive entry.
 1\1\GINC-HPC-93-19\SP\RM062X\def2TZVP\C9H9Br1O2\MANTIND\17-Sep-2024\0\
 \#p M062X/def2tzvp geom=check guess=read scf(xqc,tight) integral(grid=
 ultrafine) scrf(SMD, solvent=1,4-Dioxane) nmr=giao\\spe\\0,1\C,0,4.703
 3515789,-1.4362437704,1.1164449987\O,0,3.9504445715,-0.9860111133,-0.0
 235223689\C,0,3.4928503978,0.2790803166,0.0586776356\O,0,3.7026465878,
 1.0134631735,1.0003292714\C,0,2.644556037,0.6408229129,-1.1464103198\C
 ,0,1.1704188742,0.4805003886,-0.8226596203\C,0,0.3746888345,-0.4188207
 164,-1.5363576299\C,0,-0.980486526,-0.5690007595,-1.2415263586\C,0,-1.
 5349999654,0.1895002006,-0.2154932246\Br,0,-3.39050682,-0.0057135387,0
 .198602955\C,0,-0.761818908,1.0884120603,0.5169019754\C,0,0.5887743858
 ,1.2282385656,0.2088701325\H,0,5.5856433288,-0.8094708208,1.2643897061
 \H,0,4.9928520055,-2.4617876404,0.8909210211\H,0,4.0880588854,-1.39798
 15754,2.0182402091\H,0,2.8664310895,1.6832261159,-1.3937408229\H,0,2.9
 179966362,0.0112665653,-1.9948105698\H,0,0.8137891825,-1.0107723528,-2
 .3340280726\H,0,-1.5953510985,-1.2656770978,-1.79891448\H,0,-1.2107025
 808,1.6679102789,1.3149466542\H,0,1.2054919362,1.9129529047,0.78202692
 21\\Version=ES64L-G16RevC.02\State=1-A\HF=-3073.0246391\RMSD=4.698e-09
 \Dipole=0.8738322,-0.5697256,-0.568307\Quadrupole=-0.8071714,-0.101287
 7,0.9084591,-5.0219646,-1.898317,-0.5235526\PG=C01 [X(C9H9Br1O2)]\\@
 The archive entry for this job was punched.


 NOTHING WILL BE ATTEMPTED IF ALL POSSIBLE OBJECTIONS
 MUST FIRST BE OVERCOME.

                               -- THE GOLDEN PRINCIPLE,
                    PAUL DICKSON'S "THE OFFICIAL RULES"
 Job cpu time:       0 days  0 hours 15 minutes 10.5 seconds.
 Elapsed time:       0 days  0 hours 15 minutes 14.5 seconds.
 File lengths (MBytes):  RWF=    288 Int=      0 D2E=      0 Chk=     32 Scr=     16
 Normal termination of Gaussian 16 at Tue Sep 17 10:43:28 2024.
