 Entering Gaussian System, Link 0=g16
 Input=smiles_00034_conf_5.gjf
 Output=smiles_00034_conf_5.log
 Initial command:
 /groups/ReismanLab/Software/Gaussian16_RevC/Linux_Binary_AVX2-enabled-CPU/g16/l1.exe "/central/groups/ReismanLab/DM/dft_final/smiles_00034/Gau-2869787.inp" -scrdir="/central/groups/ReismanLab/DM/dft_final/smiles_00034/"
 Entering Link 1 = /groups/ReismanLab/Software/Gaussian16_RevC/Linux_Binary_AVX2-enabled-CPU/g16/l1.exe PID=   2869789.
  
 Copyright (c) 1988-2021, Gaussian, Inc.  All Rights Reserved.
  
 This is part of the Gaussian(R) 16 program.  It is based on
 the Gaussian(R) 09 system (copyright 2009, Gaussian, Inc.),
 the Gaussian(R) 03 system (copyright 2003, Gaussian, Inc.),
 the Gaussian(R) 98 system (copyright 1998, Gaussian, Inc.),
 the Gaussian(R) 94 system (copyright 1995, Gaussian, Inc.),
 the Gaussian 92(TM) system (copyright 1992, Gaussian, Inc.),
 the Gaussian 90(TM) system (copyright 1990, Gaussian, Inc.),
 the Gaussian 88(TM) system (copyright 1988, Gaussian, Inc.),
 the Gaussian 86(TM) system (copyright 1986, Carnegie Mellon
 University), and the Gaussian 82(TM) system (copyright 1983,
 Carnegie Mellon University). Gaussian is a federally registered
 trademark of Gaussian, Inc.
  
 This software contains proprietary and confidential information,
 including trade secrets, belonging to Gaussian, Inc.
  
 This software is provided under written license and may be
 used, copied, transmitted, or stored only in accord with that
 written license.
  
 The following legend is applicable only to US Government
 contracts under FAR:
  
                    RESTRICTED RIGHTS LEGEND
  
 Use, reproduction and disclosure by the US Government is
 subject to restrictions as set forth in subparagraphs (a)
 and (c) of the Commercial Computer Software - Restricted
 Rights clause in FAR 52.227-19.
  
 Gaussian, Inc.
 340 Quinnipiac St., Bldg. 40, Wallingford CT 06492
  
  
 ---------------------------------------------------------------
 Warning -- This program may not be used in any manner that
 competes with the business of Gaussian, Inc. or will provide
 assistance to any competitor of Gaussian, Inc.  The licensee
 of this program is prohibited from giving any competitor of
 Gaussian, Inc. access to this program.  By using this program,
 the user acknowledges that Gaussian, Inc. is engaged in the
 business of creating and licensing software in the field of
 computational chemistry and represents and warrants to the
 licensee that it is not a competitor of Gaussian, Inc. and that
 it will not use this program in any manner prohibited above.
 ---------------------------------------------------------------
  

 Cite this work as:
 Gaussian 16, Revision C.02,
 M. J. Frisch, G. W. Trucks, H. B. Schlegel, G. E. Scuseria, 
 M. A. Robb, J. R. Cheeseman, G. Scalmani, V. Barone, 
 G. A. Petersson, H. Nakatsuji, X. Li, M. Caricato, A. V. Marenich, 
 J. Bloino, B. G. Janesko, R. Gomperts, B. Mennucci, H. P. Hratchian, 
 J. V. Ortiz, A. F. Izmaylov, J. L. Sonnenberg, D. Williams-Young, 
 F. Ding, F. Lipparini, F. Egidi, J. Goings, B. Peng, A. Petrone, 
 T. Henderson, D. Ranasinghe, V. G. Zakrzewski, J. Gao, N. Rega, 
 G. Zheng, W. Liang, M. Hada, M. Ehara, K. Toyota, R. Fukuda, 
 J. Hasegawa, M. Ishida, T. Nakajima, Y. Honda, O. Kitao, H. Nakai, 
 T. Vreven, K. Throssell, J. A. Montgomery, Jr., J. E. Peralta, 
 F. Ogliaro, M. J. Bearpark, J. J. Heyd, E. N. Brothers, K. N. Kudin, 
 V. N. Staroverov, T. A. Keith, R. Kobayashi, J. Normand, 
 K. Raghavachari, A. P. Rendell, J. C. Burant, S. S. Iyengar, 
 J. Tomasi, M. Cossi, J. M. Millam, M. Klene, C. Adamo, R. Cammi, 
 J. W. Ochterski, R. L. Martin, K. Morokuma, O. Farkas, 
 J. B. Foresman, and D. J. Fox, Gaussian, Inc., Wallingford CT, 2019.
 
 ******************************************
 Gaussian 16:  ES64L-G16RevC.02  7-Dec-2021
                17-Sep-2024 
 ******************************************
 %nprocshared=8
 Will use up to    8 processors via shared memory.
 %Mem=10GB
 %Chk=smiles_00034_conf_5.chk
 ----------------------------------------------------------------------
 #p B3LYP/6-31G(d,p) EmpiricalDispersion=GD3BJ opt freq scf(xqc,tight) 
 integral(grid=ultrafine)
 ----------------------------------------------------------------------
 1/18=20,19=15,26=4,38=1/1,3;
 2/9=110,12=2,17=6,18=5,40=1/2;
 3/5=1,6=6,7=101,11=2,25=1,30=1,71=1,74=-5,75=-5,124=41/1,2,3;
 4//1;
 5/5=2,8=3,13=1,32=2,38=5/2,8;
 6/7=2,8=2,9=2,10=2,28=1/1;
 7//1,2,3,16;
 1/18=20,19=15,26=4/3(2);
 2/9=110/2;
 99//99;
 2/9=110/2;
 3/5=1,6=6,7=101,11=2,25=1,30=1,71=1,74=-5,75=-5,124=41/1,2,3;
 4/5=5,16=3,69=1/1;
 5/5=2,8=3,13=1,32=2,38=5/2,8;
 7//1,2,3,16;
 1/18=20,19=15,26=4/3(-5);
 2/9=110/2;
 6/7=2,8=2,9=2,10=2,19=2,28=1/1;
 99/9=1/99;
 Leave Link    1 at Tue Sep 17 09:49:11 2024, MaxMem=  1342177280 cpu:               0.1 elap:               0.6
 (Enter /groups/ReismanLab/Software/Gaussian16_RevC/Linux_Binary_AVX2-enabled-CPU/g16/l101.exe)
 ----------------------------------
 opt-freq conformers_unique/conf_af
 ----------------------------------
 Symbolic Z-matrix:
 Charge =  0 Multiplicity = 1
 C                     4.75372   1.77839  -0.10897 
 C                     3.7132    2.09975   0.95816 
 O                     2.37251   2.00487   0.50904 
 C                     1.87225   0.71082   0.35501 
 O                     2.32416   0.07181  -0.81335 
 C                     1.92139   0.69801  -2.02418 
 C                     2.70286   0.07378  -3.16747 
 C                     0.35554   0.75024   0.41397 
 C                    -0.34863   1.94395   0.46463 
 C                    -1.73327   1.93231   0.49689 
 C                    -2.42738   0.73578   0.4734 
 C                    -1.71167  -0.44821   0.41641 
 Br                   -2.65205  -2.10473   0.38072 
 C                    -0.33033  -0.4573    0.38704 
 H                     4.64403   0.7509   -0.4458 
 H                     4.63352   2.44249  -0.96159 
 H                     5.74928   1.91344   0.30592 
 H                     3.85181   1.43848   1.82616 
 H                     3.81554   3.13802   1.28622 
 H                     2.24798   0.05957   1.16609 
 H                     0.84137   0.55386  -2.17359 
 H                     2.11844   1.77542  -1.96016 
 H                     2.39138   0.51564  -4.10979 
 H                     3.76784   0.2399   -3.02966 
 H                     2.52075  -0.99688  -3.19696 
 H                     0.19731   2.87295   0.48103 
 H                    -2.27923   2.86258   0.53823 
 H                    -3.50612   0.71917   0.49762 
 H                     0.21686  -1.38654   0.33439 
 
 ITRead=  0  0  0  0  0  0  0  0  0  0  0  0  0  0  0  0  0  0  0  0
 ITRead=  0  0  0  0  0  0  0  0  0
 MicOpt= -1 -1 -1 -1 -1 -1 -1 -1 -1 -1 -1 -1 -1 -1 -1 -1 -1 -1 -1 -1
 MicOpt= -1 -1 -1 -1 -1 -1 -1 -1 -1
 NAtoms=     29 NQM=       29 NQMF=       0 NMMI=      0 NMMIF=      0
                NMic=       0 NMicF=      0.
                    Isotopes and Nuclear Properties:
 (Nuclear quadrupole moments (NQMom) in fm**2, nuclear magnetic moments (NMagM)
  in nuclear magnetons)

  Atom         1           2           3           4           5           6           7           8           9          10
 IAtWgt=          12          12          16          12          16          12          12          12          12          12
 AtmWgt=  12.0000000  12.0000000  15.9949146  12.0000000  15.9949146  12.0000000  12.0000000  12.0000000  12.0000000  12.0000000
 NucSpn=           0           0           0           0           0           0           0           0           0           0
 AtZEff=  -0.0000000  -0.0000000  -0.0000000  -0.0000000  -0.0000000  -0.0000000  -0.0000000  -0.0000000  -0.0000000  -0.0000000
 NQMom=    0.0000000   0.0000000   0.0000000   0.0000000   0.0000000   0.0000000   0.0000000   0.0000000   0.0000000   0.0000000
 NMagM=    0.0000000   0.0000000   0.0000000   0.0000000   0.0000000   0.0000000   0.0000000   0.0000000   0.0000000   0.0000000
 AtZNuc=   6.0000000   6.0000000   8.0000000   6.0000000   8.0000000   6.0000000   6.0000000   6.0000000   6.0000000   6.0000000

  Atom        11          12          13          14          15          16          17          18          19          20
 IAtWgt=          12          12          79          12           1           1           1           1           1           1
 AtmWgt=  12.0000000  12.0000000  78.9183361  12.0000000   1.0078250   1.0078250   1.0078250   1.0078250   1.0078250   1.0078250
 NucSpn=           0           0           3           0           1           1           1           1           1           1
 AtZEff=  -0.0000000  -0.0000000  -0.0000000  -0.0000000  -0.0000000  -0.0000000  -0.0000000  -0.0000000  -0.0000000  -0.0000000
 NQMom=    0.0000000   0.0000000  31.3000000   0.0000000   0.0000000   0.0000000   0.0000000   0.0000000   0.0000000   0.0000000
 NMagM=    0.0000000   0.0000000   2.1063990   0.0000000   2.7928460   2.7928460   2.7928460   2.7928460   2.7928460   2.7928460
 AtZNuc=   6.0000000   6.0000000  35.0000000   6.0000000   1.0000000   1.0000000   1.0000000   1.0000000   1.0000000   1.0000000

  Atom        21          22          23          24          25          26          27          28          29
 IAtWgt=           1           1           1           1           1           1           1           1           1
 AtmWgt=   1.0078250   1.0078250   1.0078250   1.0078250   1.0078250   1.0078250   1.0078250   1.0078250   1.0078250
 NucSpn=           1           1           1           1           1           1           1           1           1
 AtZEff=  -0.0000000  -0.0000000  -0.0000000  -0.0000000  -0.0000000  -0.0000000  -0.0000000  -0.0000000  -0.0000000
 NQMom=    0.0000000   0.0000000   0.0000000   0.0000000   0.0000000   0.0000000   0.0000000   0.0000000   0.0000000
 NMagM=    2.7928460   2.7928460   2.7928460   2.7928460   2.7928460   2.7928460   2.7928460   2.7928460   2.7928460
 AtZNuc=   1.0000000   1.0000000   1.0000000   1.0000000   1.0000000   1.0000000   1.0000000   1.0000000   1.0000000
 Leave Link  101 at Tue Sep 17 09:49:11 2024, MaxMem=  1342177280 cpu:               0.3 elap:               0.4
 (Enter /groups/ReismanLab/Software/Gaussian16_RevC/Linux_Binary_AVX2-enabled-CPU/g16/l103.exe)

 GradGradGradGradGradGradGradGradGradGradGradGradGradGradGradGradGradGrad
 Berny optimization.
 Initialization pass.
                           ----------------------------
                           !    Initial Parameters    !
                           ! (Angstroms and Degrees)  !
 --------------------------                            --------------------------
 ! Name  Definition              Value          Derivative Info.                !
 --------------------------------------------------------------------------------
 ! R1    R(1,2)                  1.5247         estimate D2E/DX2                !
 ! R2    R(1,15)                 1.0868         estimate D2E/DX2                !
 ! R3    R(1,16)                 1.0874         estimate D2E/DX2                !
 ! R4    R(1,17)                 1.087          estimate D2E/DX2                !
 ! R5    R(2,3)                  1.4171         estimate D2E/DX2                !
 ! R6    R(2,18)                 1.1            estimate D2E/DX2                !
 ! R7    R(2,19)                 1.0937         estimate D2E/DX2                !
 ! R8    R(3,4)                  1.3959         estimate D2E/DX2                !
 ! R9    R(4,5)                  1.4063         estimate D2E/DX2                !
 ! R10   R(4,8)                  1.5184         estimate D2E/DX2                !
 ! R11   R(4,20)                 1.106          estimate D2E/DX2                !
 ! R12   R(5,6)                  1.4214         estimate D2E/DX2                !
 ! R13   R(6,7)                  1.519          estimate D2E/DX2                !
 ! R14   R(6,21)                 1.0998         estimate D2E/DX2                !
 ! R15   R(6,22)                 1.0972         estimate D2E/DX2                !
 ! R16   R(7,23)                 1.0864         estimate D2E/DX2                !
 ! R17   R(7,24)                 1.0866         estimate D2E/DX2                !
 ! R18   R(7,25)                 1.0864         estimate D2E/DX2                !
 ! R19   R(8,9)                  1.3869         estimate D2E/DX2                !
 ! R20   R(8,14)                 1.389          estimate D2E/DX2                !
 ! R21   R(9,10)                 1.3851         estimate D2E/DX2                !
 ! R22   R(9,26)                 1.0777         estimate D2E/DX2                !
 ! R23   R(10,11)                1.3835         estimate D2E/DX2                !
 ! R24   R(10,27)                1.0794         estimate D2E/DX2                !
 ! R25   R(11,12)                1.3847         estimate D2E/DX2                !
 ! R26   R(11,28)                1.0791         estimate D2E/DX2                !
 ! R27   R(12,13)                1.9052         estimate D2E/DX2                !
 ! R28   R(12,14)                1.3817         estimate D2E/DX2                !
 ! R29   R(14,29)                1.0797         estimate D2E/DX2                !
 ! A1    A(2,1,15)             110.3215         estimate D2E/DX2                !
 ! A2    A(2,1,16)             110.1585         estimate D2E/DX2                !
 ! A3    A(2,1,17)             109.3723         estimate D2E/DX2                !
 ! A4    A(15,1,16)            108.8582         estimate D2E/DX2                !
 ! A5    A(15,1,17)            109.1593         estimate D2E/DX2                !
 ! A6    A(16,1,17)            108.9442         estimate D2E/DX2                !
 ! A7    A(1,2,3)              114.1866         estimate D2E/DX2                !
 ! A8    A(1,2,18)             109.852          estimate D2E/DX2                !
 ! A9    A(1,2,19)             110.2537         estimate D2E/DX2                !
 ! A10   A(3,2,18)             109.2118         estimate D2E/DX2                !
 ! A11   A(3,2,19)             104.3096         estimate D2E/DX2                !
 ! A12   A(18,2,19)            108.7983         estimate D2E/DX2                !
 ! A13   A(2,3,4)              115.8554         estimate D2E/DX2                !
 ! A14   A(3,4,5)              113.4374         estimate D2E/DX2                !
 ! A15   A(3,4,8)              109.2465         estimate D2E/DX2                !
 ! A16   A(3,4,20)             110.0725         estimate D2E/DX2                !
 ! A17   A(5,4,8)              111.4113         estimate D2E/DX2                !
 ! A18   A(5,4,20)             103.4473         estimate D2E/DX2                !
 ! A19   A(8,4,20)             109.037          estimate D2E/DX2                !
 ! A20   A(4,5,6)              114.6134         estimate D2E/DX2                !
 ! A21   A(5,6,7)              108.3202         estimate D2E/DX2                !
 ! A22   A(5,6,21)             109.6479         estimate D2E/DX2                !
 ! A23   A(5,6,22)             109.391          estimate D2E/DX2                !
 ! A24   A(7,6,21)             110.4322         estimate D2E/DX2                !
 ! A25   A(7,6,22)             110.7977         estimate D2E/DX2                !
 ! A26   A(21,6,22)            108.2404         estimate D2E/DX2                !
 ! A27   A(6,7,23)             109.7669         estimate D2E/DX2                !
 ! A28   A(6,7,24)             110.238          estimate D2E/DX2                !
 ! A29   A(6,7,25)             109.8264         estimate D2E/DX2                !
 ! A30   A(23,7,24)            109.1972         estimate D2E/DX2                !
 ! A31   A(23,7,25)            109.2215         estimate D2E/DX2                !
 ! A32   A(24,7,25)            108.5652         estimate D2E/DX2                !
 ! A33   A(4,8,9)              122.0703         estimate D2E/DX2                !
 ! A34   A(4,8,14)             118.0292         estimate D2E/DX2                !
 ! A35   A(9,8,14)             119.8865         estimate D2E/DX2                !
 ! A36   A(8,9,10)             120.0796         estimate D2E/DX2                !
 ! A37   A(8,9,26)             119.0344         estimate D2E/DX2                !
 ! A38   A(10,9,26)            120.8858         estimate D2E/DX2                !
 ! A39   A(9,10,11)            120.5597         estimate D2E/DX2                !
 ! A40   A(9,10,27)            119.9516         estimate D2E/DX2                !
 ! A41   A(11,10,27)           119.4885         estimate D2E/DX2                !
 ! A42   A(10,11,12)           118.7437         estimate D2E/DX2                !
 ! A43   A(10,11,28)           120.9611         estimate D2E/DX2                !
 ! A44   A(12,11,28)           120.2951         estimate D2E/DX2                !
 ! A45   A(11,12,13)           119.2823         estimate D2E/DX2                !
 ! A46   A(11,12,14)           121.5509         estimate D2E/DX2                !
 ! A47   A(13,12,14)           119.1667         estimate D2E/DX2                !
 ! A48   A(8,14,12)            119.1784         estimate D2E/DX2                !
 ! A49   A(8,14,29)            119.9288         estimate D2E/DX2                !
 ! A50   A(12,14,29)           120.8903         estimate D2E/DX2                !
 ! D1    D(15,1,2,3)           -62.175          estimate D2E/DX2                !
 ! D2    D(15,1,2,18)           60.8961         estimate D2E/DX2                !
 ! D3    D(15,1,2,19)         -179.2097         estimate D2E/DX2                !
 ! D4    D(16,1,2,3)            58.0321         estimate D2E/DX2                !
 ! D5    D(16,1,2,18)         -178.8968         estimate D2E/DX2                !
 ! D6    D(16,1,2,19)          -59.0027         estimate D2E/DX2                !
 ! D7    D(17,1,2,3)           177.7458         estimate D2E/DX2                !
 ! D8    D(17,1,2,18)          -59.1832         estimate D2E/DX2                !
 ! D9    D(17,1,2,19)           60.711          estimate D2E/DX2                !
 ! D10   D(1,2,3,4)             75.4144         estimate D2E/DX2                !
 ! D11   D(18,2,3,4)           -48.0031         estimate D2E/DX2                !
 ! D12   D(19,2,3,4)          -164.1742         estimate D2E/DX2                !
 ! D13   D(2,3,4,5)            -77.1412         estimate D2E/DX2                !
 ! D14   D(2,3,4,8)            157.9129         estimate D2E/DX2                !
 ! D15   D(2,3,4,20)            38.2161         estimate D2E/DX2                !
 ! D16   D(3,4,5,6)            -63.014          estimate D2E/DX2                !
 ! D17   D(8,4,5,6)             60.7587         estimate D2E/DX2                !
 ! D18   D(20,4,5,6)           177.759          estimate D2E/DX2                !
 ! D19   D(3,4,8,9)              6.4234         estimate D2E/DX2                !
 ! D20   D(3,4,8,14)          -174.945          estimate D2E/DX2                !
 ! D21   D(5,4,8,9)           -119.6935         estimate D2E/DX2                !
 ! D22   D(5,4,8,14)            58.9382         estimate D2E/DX2                !
 ! D23   D(20,4,8,9)           126.7568         estimate D2E/DX2                !
 ! D24   D(20,4,8,14)          -54.6115         estimate D2E/DX2                !
 ! D25   D(4,5,6,7)            168.7385         estimate D2E/DX2                !
 ! D26   D(4,5,6,21)           -70.6851         estimate D2E/DX2                !
 ! D27   D(4,5,6,22)            47.8703         estimate D2E/DX2                !
 ! D28   D(5,6,7,23)           178.3306         estimate D2E/DX2                !
 ! D29   D(5,6,7,24)           -61.3452         estimate D2E/DX2                !
 ! D30   D(5,6,7,25)            58.2349         estimate D2E/DX2                !
 ! D31   D(21,6,7,23)           58.2432         estimate D2E/DX2                !
 ! D32   D(21,6,7,24)          178.5674         estimate D2E/DX2                !
 ! D33   D(21,6,7,25)          -61.8526         estimate D2E/DX2                !
 ! D34   D(22,6,7,23)          -61.6773         estimate D2E/DX2                !
 ! D35   D(22,6,7,24)           58.6469         estimate D2E/DX2                !
 ! D36   D(22,6,7,25)          178.2269         estimate D2E/DX2                !
 ! D37   D(4,8,9,10)           179.0153         estimate D2E/DX2                !
 ! D38   D(4,8,9,26)            -1.1504         estimate D2E/DX2                !
 ! D39   D(14,8,9,10)            0.4084         estimate D2E/DX2                !
 ! D40   D(14,8,9,26)         -179.7572         estimate D2E/DX2                !
 ! D41   D(4,8,14,12)         -178.9022         estimate D2E/DX2                !
 ! D42   D(4,8,14,29)            0.5278         estimate D2E/DX2                !
 ! D43   D(9,8,14,12)           -0.2396         estimate D2E/DX2                !
 ! D44   D(9,8,14,29)          179.1904         estimate D2E/DX2                !
 ! D45   D(8,9,10,11)           -0.2718         estimate D2E/DX2                !
 ! D46   D(8,9,10,27)          179.8821         estimate D2E/DX2                !
 ! D47   D(26,9,10,11)         179.8969         estimate D2E/DX2                !
 ! D48   D(26,9,10,27)           0.0509         estimate D2E/DX2                !
 ! D49   D(9,10,11,12)          -0.0325         estimate D2E/DX2                !
 ! D50   D(9,10,11,28)        -179.959          estimate D2E/DX2                !
 ! D51   D(27,10,11,12)        179.8143         estimate D2E/DX2                !
 ! D52   D(27,10,11,28)         -0.1122         estimate D2E/DX2                !
 ! D53   D(10,11,12,13)       -179.9079         estimate D2E/DX2                !
 ! D54   D(10,11,12,14)          0.2035         estimate D2E/DX2                !
 ! D55   D(28,11,12,13)          0.0192         estimate D2E/DX2                !
 ! D56   D(28,11,12,14)       -179.8695         estimate D2E/DX2                !
 ! D57   D(11,12,14,8)          -0.0676         estimate D2E/DX2                !
 ! D58   D(11,12,14,29)       -179.492          estimate D2E/DX2                !
 ! D59   D(13,12,14,8)        -179.9564         estimate D2E/DX2                !
 ! D60   D(13,12,14,29)          0.6192         estimate D2E/DX2                !
 --------------------------------------------------------------------------------
 Trust Radius=3.00D-01 FncErr=1.00D-07 GrdErr=1.00D-06 EigMax=2.50D+02 EigMin=1.00D-04
 Number of steps in this run=    149 maximum allowed number of steps=    174.
 GradGradGradGradGradGradGradGradGradGradGradGradGradGradGradGradGradGrad

 Leave Link  103 at Tue Sep 17 09:49:11 2024, MaxMem=  1342177280 cpu:               0.0 elap:               0.0
 (Enter /groups/ReismanLab/Software/Gaussian16_RevC/Linux_Binary_AVX2-enabled-CPU/g16/l202.exe)
                          Input orientation:                          
 ---------------------------------------------------------------------
 Center     Atomic      Atomic             Coordinates (Angstroms)
 Number     Number       Type             X           Y           Z
 ---------------------------------------------------------------------
      1          6           0        4.753721    1.778390   -0.108974
      2          6           0        3.713204    2.099754    0.958165
      3          8           0        2.372515    2.004869    0.509044
      4          6           0        1.872248    0.710817    0.355012
      5          8           0        2.324159    0.071815   -0.813346
      6          6           0        1.921393    0.698007   -2.024183
      7          6           0        2.702858    0.073777   -3.167467
      8          6           0        0.355538    0.750244    0.413966
      9          6           0       -0.348628    1.943951    0.464629
     10          6           0       -1.733273    1.932306    0.496889
     11          6           0       -2.427384    0.735779    0.473404
     12          6           0       -1.711673   -0.448210    0.416406
     13         35           0       -2.652055   -2.104730    0.380722
     14          6           0       -0.330332   -0.457304    0.387037
     15          1           0        4.644026    0.750896   -0.445795
     16          1           0        4.633520    2.442493   -0.961586
     17          1           0        5.749282    1.913444    0.305923
     18          1           0        3.851815    1.438484    1.826156
     19          1           0        3.815541    3.138017    1.286216
     20          1           0        2.247980    0.059568    1.166092
     21          1           0        0.841368    0.553861   -2.173586
     22          1           0        2.118440    1.775420   -1.960161
     23          1           0        2.391381    0.515644   -4.109789
     24          1           0        3.767835    0.239904   -3.029656
     25          1           0        2.520753   -0.996878   -3.196958
     26          1           0        0.197306    2.872953    0.481033
     27          1           0       -2.279229    2.862581    0.538231
     28          1           0       -3.506120    0.719171    0.497623
     29          1           0        0.216861   -1.386536    0.334387
 ---------------------------------------------------------------------
                    Distance matrix (angstroms):
                    1          2          3          4          5
     1  C    0.000000
     2  C    1.524709   0.000000
     3  O    2.470503   1.417096   0.000000
     4  C    3.107713   2.383707   1.395909   0.000000
     5  O    3.051444   3.029890   2.342595   1.406275   0.000000
     6  C    3.585713   3.750984   2.885938   2.379737   1.421431
     7  C    4.057847   4.705976   4.165930   3.674723   2.384387
     8  C    4.546930   3.659406   2.377250   1.518368   2.417029
     9  C    5.137158   4.094671   2.722186   2.542622   3.504555
    10  C    6.517043   5.468540   4.106447   3.809455   4.651978
    11  C    7.279730   6.308902   4.964966   4.301334   4.967266
    12  C    6.858214   6.017883   4.765162   3.767175   4.250960
    13  Br   8.376392   7.650336   6.492424   5.328910   5.561101
    14  C    5.576016   4.818186   3.658218   2.493369   2.960947
    15  H    1.086841   2.157997   2.764766   2.885421   2.445001
    16  H    1.087395   2.156361   2.732474   3.515218   3.312890
    17  H    1.086978   2.146100   3.384106   4.059571   4.046706
    18  H    2.161874   1.099954   2.060074   2.571468   3.341929
    19  H    2.162250   1.093654   1.992572   3.245739   4.004245
    20  H    3.295282   2.520412   2.057041   1.105961   1.980941
    21  H    4.590054   4.521624   3.412673   2.735170   2.069128
    22  H    3.220498   3.341420   2.492825   2.560082   2.063923
    23  H    4.814737   5.471816   4.853016   4.499115   3.326866
    24  H    3.445184   4.400538   4.193378   3.907811   2.650374
    25  H    4.714224   5.317529   4.771468   3.994155   2.619610
    26  H    4.723039   3.631395   2.342197   2.737909   3.747706
    27  H    7.145399   6.055370   4.730247   4.679575   5.550344
    28  H    8.349544   7.364560   6.017598   5.380265   6.010812
    29  H    5.549453   4.976719   4.022310   2.672007   2.807985
                    6          7          8          9         10
     6  C    0.000000
     7  C    1.519029   0.000000
     8  C    2.898138   4.335226   0.000000
     9  C    3.591595   5.099141   1.386850   0.000000
    10  C    4.608240   6.046560   2.401516   1.385070   0.000000
    11  C    5.015100   6.325628   2.783594   2.404368   1.383481
    12  C    4.524318   5.710053   2.389489   2.753662   2.381974
    13  Br   5.878378   6.783114   4.146998   4.658824   4.141897
    14  C    3.495567   4.702849   1.388998   2.402579   2.773184
    15  H    3.147514   3.410883   4.373823   5.213334   6.553955
    16  H    3.395288   3.768843   4.801769   5.206191   6.551602
    17  H    4.643212   4.972877   5.518803   6.100051   7.485015
    18  H    4.370349   5.302715   3.833002   4.444431   5.762293
    19  H    4.527713   5.519322   4.293472   4.409206   5.732897
    20  H    3.269880   4.357389   2.150364   3.284102   4.450321
    21  H    1.099796   2.164122   2.640080   3.210704   3.957313
    22  H    1.097153   2.166730   3.129743   3.463298   4.571368
    23  H    2.145669   1.086386   4.966292   5.520236   6.343594
    24  H    2.151786   1.086630   4.874705   5.662073   6.750032
    25  H    2.146455   1.086432   4.558439   5.503548   6.349910
    26  H    3.738847   5.236862   2.129655   1.077662   2.147604
    27  H    5.375553   6.806674   3.379261   2.139280   1.079439
    28  H    5.984801   7.238841   3.862689   3.386876   2.148181
    29  H    3.579609   4.536042   2.142754   3.380664   3.852810
                   11         12         13         14         15
    11  C    0.000000
    12  C    1.384673   0.000000
    13  Br   2.850887   1.905164   0.000000
    14  C    2.414236   1.381684   2.846832   0.000000
    15  H    7.130919   6.525042   7.878486   5.186289   0.000000
    16  H    7.404623   7.107496   8.692447   5.904865   1.768517
    17  H    8.262737   7.826588   9.313097   6.526004   1.771493
    18  H    6.461584   6.041474   7.546123   4.812008   2.502426
    19  H    6.738362   6.645878   8.374730   5.560856   3.063429
    20  H    4.774527   4.061862   5.413994   2.742585   2.969369
    21  H    4.210034   3.772297   5.079035   2.992010   4.181422
    22  H    5.260001   5.026169   6.579736   4.060897   3.117938
    23  H    6.653916   6.184699   7.243431   5.345633   4.307506
    24  H    7.134287   6.509520   7.638257   5.380972   2.775817
    25  H    6.399821   5.592036   6.386319   4.611382   3.889975
    26  H    3.384755   3.831253   5.736396   3.373107   5.013528
    27  H    2.132942   3.361294   4.983773   3.852623   7.304723
    28  H    1.079135   2.142291   2.952543   3.388503   8.204628
    29  H    3.393461   2.146259   2.957808   1.079659   4.977659
                   16         17         18         19         20
    16  H    0.000000
    17  H    1.769575   0.000000
    18  H    3.064409   2.477312   0.000000
    19  H    2.491075   2.489962   1.783609   0.000000
    20  H    3.986997   4.054117   2.215712   3.456664   0.000000
    21  H    4.406392   5.664278   5.083628   5.243452   3.657366
    22  H    2.787071   4.282196   4.177835   3.908425   3.568527
    23  H    4.318694   5.720826   6.182227   6.166193   5.297498
    24  H    3.142884   4.225275   5.002255   5.198854   4.466181
    25  H    4.614103   5.582432   5.738849   6.234796   4.497409
    26  H    4.684703   5.637000   4.149999   3.716208   3.548198
    27  H    7.086044   8.087757   6.424679   6.146671   5.361597
    28  H    8.447062   9.334104   7.511432   7.751091   5.830231
    29  H    5.987311   6.441922   4.839318   5.859015   2.628382
                   21         22         23         24         25
    21  H    0.000000
    22  H    1.780075   0.000000
    23  H    2.480500   2.506478   0.000000
    24  H    3.065230   2.494420   1.771255   0.000000
    25  H    2.504479   3.062215   1.771361   1.764323   0.000000
    26  H    3.583295   3.294657   5.607719   5.657434   5.822509
    27  H    4.735215   5.173333   6.994769   7.495014   7.203255
    28  H    5.105226   6.228326   7.486667   8.098260   7.274472
    29  H    3.231885   4.344988   5.300710   5.154756   4.234400
                   26         27         28         29
    26  H    0.000000
    27  H    2.477217   0.000000
    28  H    4.284205   2.470044   0.000000
    29  H    4.262058   4.932243   4.280331   0.000000
 Stoichiometry    C11H15BrO2
 Framework group  C1[X(C11H15BrO2)]
 Deg. of freedom    81
 Full point group                 C1      NOp   1
 Largest Abelian subgroup         C1      NOp   1
 Largest concise Abelian subgroup C1      NOp   1
                         Standard orientation:                         
 ---------------------------------------------------------------------
 Center     Atomic      Atomic             Coordinates (Angstroms)
 Number     Number       Type             X           Y           Z
 ---------------------------------------------------------------------
      1          6           0        4.757470   -0.011509   -0.796541
      2          6           0        3.826817   -1.203398   -0.991532
      3          8           0        2.654289   -1.160593   -0.196859
      4          6           0        1.665647   -0.269651   -0.618013
      5          8           0        1.947999    1.070638   -0.299406
      6          6           0        2.028161    1.343868    1.093212
      7          6           0        2.606635    2.736756    1.273982
      8          6           0        0.325912   -0.703888   -0.050573
      9          6           0        0.213683   -1.746658    0.856835
     10          6           0       -1.027247   -2.095192    1.363822
     11          6           0       -2.163527   -1.407051    0.977364
     12          6           0       -2.035925   -0.364073    0.075570
     13         35           0       -3.590307    0.595717   -0.465124
     14          6           0       -0.807379   -0.003707   -0.443911
     15          1           0        4.257436    0.909096   -1.085812
     16          1           0        5.056636    0.063686    0.246184
     17          1           0        5.645251   -0.143148   -1.409760
     18          1           0        3.543164   -1.286421   -2.051035
     19          1           0        4.326202   -2.127477   -0.686946
     20          1           0        1.605013   -0.264227   -1.722298
     21          1           0        1.025095    1.283729    1.540194
     22          1           0        2.664864    0.591953    1.575892
     23          1           0        2.650934    2.981802    2.331444
     24          1           0        3.607492    2.785573    0.853663
     25          1           0        1.981463    3.464426    0.764089
     26          1           0        1.102396   -2.278017    1.155502
     27          1           0       -1.112461   -2.908403    2.068531
     28          1           0       -3.133462   -1.672679    1.368773
     29          1           0       -0.719067    0.816641   -1.140254
 ---------------------------------------------------------------------
 Rotational constants (GHZ):           0.9617263           0.2272583           0.2067745
 Leave Link  202 at Tue Sep 17 09:49:11 2024, MaxMem=  1342177280 cpu:               0.0 elap:               0.0
 (Enter /groups/ReismanLab/Software/Gaussian16_RevC/Linux_Binary_AVX2-enabled-CPU/g16/l301.exe)
 Standard basis: 6-31G(d,p) (6D, 7F)
 Ernie: Thresh=  0.10000D-02 Tol=  0.10000D-05 Strict=F.
 There are   300 symmetry adapted cartesian basis functions of A   symmetry.
 There are   300 symmetry adapted basis functions of A   symmetry.
   300 basis functions,   552 primitive gaussians,   300 cartesian basis functions
    66 alpha electrons       66 beta electrons
       nuclear repulsion energy      1202.1180368507 Hartrees.
 IExCor=  402 DFT=T Ex+Corr=B3LYP ExCW=0 ScaHFX=  0.200000
 ScaDFX=  0.800000  0.720000  1.000000  0.810000 ScalE2=  1.000000  1.000000
 IRadAn=      5 IRanWt=     -1 IRanGd=            0 ICorTp=0 IEmpDi=141
 NAtoms=   29 NActive=   29 NUniq=   29 SFac= 1.00D+00 NAtFMM=   60 NAOKFM=F Big=F
 Integral buffers will be    131072 words long.
 Raffenetti 2 integral format.
 Two-electron integral symmetry is turned on.
 R6Disp:  Grimme-D3(BJ) Dispersion energy=       -0.0551998305 Hartrees.
 Nuclear repulsion after empirical dispersion term =     1202.0628370202 Hartrees.
 Leave Link  301 at Tue Sep 17 09:49:12 2024, MaxMem=  1342177280 cpu:               0.1 elap:               0.1
 (Enter /groups/ReismanLab/Software/Gaussian16_RevC/Linux_Binary_AVX2-enabled-CPU/g16/l302.exe)
 NPDir=0 NMtPBC=     1 NCelOv=     1 NCel=       1 NClECP=     1 NCelD=      1
         NCelK=      1 NCelE2=     1 NClLst=     1 CellRange=     0.0.
 One-electron integrals computed using PRISM.
 One-electron integral symmetry used in STVInt
 NBasis=   300 RedAO= T EigKep=  4.11D-04  NBF=   300
 NBsUse=   300 1.00D-06 EigRej= -1.00D+00 NBFU=   300
 Precomputing XC quadrature grid using
 IXCGrd= 4 IRadAn=           5 IRanWt=          -1 IRanGd=           0 AccXCQ= 0.00D+00.
 Generated NRdTot=       0 NPtTot=           0 NUsed=           0 NTot=          32
 NSgBfM=   298   298   298   298   298 MxSgAt=    29 MxSgA2=    29.
 Leave Link  302 at Tue Sep 17 09:49:12 2024, MaxMem=  1342177280 cpu:               1.2 elap:               0.2
 (Enter /groups/ReismanLab/Software/Gaussian16_RevC/Linux_Binary_AVX2-enabled-CPU/g16/l303.exe)
 DipDrv:  MaxL=1.
 Leave Link  303 at Tue Sep 17 09:49:12 2024, MaxMem=  1342177280 cpu:               0.1 elap:               0.0
 (Enter /groups/ReismanLab/Software/Gaussian16_RevC/Linux_Binary_AVX2-enabled-CPU/g16/l401.exe)
 ExpMin= 1.43D-01 ExpMax= 5.74D+05 ExpMxC= 5.74D+03 IAcc=3 IRadAn=         5 AccDes= 0.00D+00
 Harris functional with IExCor=  402 and IRadAn=       5 diagonalized for initial guess.
 HarFok:  IExCor=  402 AccDes= 0.00D+00 IRadAn=         5 IDoV= 1 UseB2=F ITyADJ=14
 ICtDFT=  3500011 ScaDFX=  1.000000  1.000000  1.000000  1.000000
 FoFCou: FMM=F IPFlag=           0 FMFlag=      100000 FMFlg1=           0
         NFxFlg=           0 DoJE=T BraDBF=F KetDBF=T FulRan=T
         wScrn=  0.000000 ICntrl=       500 IOpCl=  0 I1Cent=   200000004 NGrid=           0
         NMat0=    1 NMatS0=      1 NMatT0=    0 NMatD0=    1 NMtDS0=    0 NMtDT0=    0
 Petite list used in FoFCou.
 Harris En= -3150.56971174579    
 JPrj=0 DoOrth=F DoCkMO=F.
 Leave Link  401 at Tue Sep 17 09:49:13 2024, MaxMem=  1342177280 cpu:               8.7 elap:               1.2
 (Enter /groups/ReismanLab/Software/Gaussian16_RevC/Linux_Binary_AVX2-enabled-CPU/g16/l502.exe)
 Integral symmetry usage will be decided dynamically.
 Closed shell SCF:
 Using DIIS extrapolation, IDIIS=  1040.
 NGot=  1342177280 LenX=  1341990939 LenY=  1341900498
 Requested convergence on RMS density matrix=1.00D-08 within  32 cycles.
 Requested convergence on MAX density matrix=1.00D-06.
 Requested convergence on             energy=1.00D-06.
 No special actions if energy rises.
 Fock matrices will be formed incrementally for  20 cycles.
 Integral accuracy reduced to 1.0D-05 until final iterations.

 Cycle   1  Pass 0  IDiag  1:
 FoFJK:  IHMeth= 1 ICntrl=       0 DoSepK=F KAlg= 0 I1Cent=           0 FoldK=F
 IRaf= 820000000 NMat=       1 IRICut=       1 DoRegI=T DoRafI=F ISym2E= 0 IDoP0=0 IntGTp=1.
 FoFCou: FMM=F IPFlag=           0 FMFlag=      100000 FMFlg1=           0
         NFxFlg=           0 DoJE=F BraDBF=F KetDBF=F FulRan=T
         wScrn=  0.000000 ICntrl=         0 IOpCl=  0 I1Cent=           0 NGrid=           0
         NMat0=    1 NMatS0=      1 NMatT0=    0 NMatD0=    1 NMtDS0=    0 NMtDT0=    0
 Symmetry not used in FoFCou.
 E= -3150.07514033866    
 DIIS: error= 1.57D-01 at cycle   1 NSaved=   1.
 NSaved= 1 IEnMin= 1 EnMin= -3150.07514033866     IErMin= 1 ErrMin= 1.57D-01
 ErrMax= 1.57D-01  0.00D+00 EMaxC= 1.00D-01 BMatC= 6.86D-01 BMatP= 6.86D-01
 IDIUse=3 WtCom= 0.00D+00 WtEn= 1.00D+00
 Coeff-Com:  0.100D+01
 Coeff-En:   0.100D+01
 Coeff:      0.100D+01
 Gap=     0.297 Goal=   None    Shift=    0.000
 GapD=    0.297 DampG=1.000 DampE=0.250 DampFc=0.2500 IDamp=-1.
 Damping current iteration by 2.50D-01
 RMSDP=4.36D-03 MaxDP=1.41D-01              OVMax= 1.54D-01

 Cycle   2  Pass 0  IDiag  1:
 RMSU=  1.06D-03    CP:  9.92D-01
 E= -3150.19994489081     Delta-E=       -0.124804552147 Rises=F Damp=T
 DIIS: error= 1.16D-01 at cycle   2 NSaved=   2.
 NSaved= 2 IEnMin= 2 EnMin= -3150.19994489081     IErMin= 2 ErrMin= 1.16D-01
 ErrMax= 1.16D-01  0.00D+00 EMaxC= 1.00D-01 BMatC= 2.79D-01 BMatP= 6.86D-01
 IDIUse=3 WtCom= 0.00D+00 WtEn= 1.00D+00
 Coeff-Com: -0.131D+01 0.231D+01
 Coeff-En:   0.000D+00 0.100D+01
 Coeff:      0.000D+00 0.100D+01
 Gap=     0.238 Goal=   None    Shift=    0.000
 RMSDP=2.24D-03 MaxDP=1.11D-01 DE=-1.25D-01 OVMax= 5.02D-02

 Cycle   3  Pass 0  IDiag  1:
 RMSU=  6.74D-04    CP:  9.70D-01  2.90D+00
 E= -3150.34264995936     Delta-E=       -0.142705068554 Rises=F Damp=F
 DIIS: error= 9.62D-03 at cycle   3 NSaved=   3.
 NSaved= 3 IEnMin= 3 EnMin= -3150.34264995936     IErMin= 3 ErrMin= 9.62D-03
 ErrMax= 9.62D-03  0.00D+00 EMaxC= 1.00D-01 BMatC= 7.80D-02 BMatP= 2.79D-01
 IDIUse=3 WtCom= 9.04D-01 WtEn= 9.62D-02
 EnCoef did   100 forward-backward iterations
 Coeff-Com:  0.197D+01-0.257D+01 0.159D+01
 Coeff-En:   0.128D+00 0.154D-02 0.870D+00
 Coeff:      0.180D+01-0.232D+01 0.152D+01
 Gap=     0.237 Goal=   None    Shift=    0.000
 RMSDP=1.06D-03 MaxDP=3.89D-02 DE=-1.43D-01 OVMax= 4.48D-02

 Cycle   4  Pass 0  IDiag  1:
 RMSU=  3.26D-04    CP:  9.71D-01  1.99D+00  1.42D+00
 E= -3150.41792219119     Delta-E=       -0.075272231830 Rises=F Damp=F
 DIIS: error= 2.06D-03 at cycle   4 NSaved=   4.
 NSaved= 4 IEnMin= 4 EnMin= -3150.41792219119     IErMin= 4 ErrMin= 2.06D-03
 ErrMax= 2.06D-03  0.00D+00 EMaxC= 1.00D-01 BMatC= 3.23D-03 BMatP= 7.80D-02
 IDIUse=3 WtCom= 9.79D-01 WtEn= 2.06D-02
 Coeff-Com:  0.906D+00-0.119D+01 0.747D+00 0.537D+00
 Coeff-En:   0.000D+00 0.000D+00 0.000D+00 0.100D+01
 Coeff:      0.887D+00-0.117D+01 0.732D+00 0.546D+00
 Gap=     0.227 Goal=   None    Shift=    0.000
 RMSDP=2.46D-04 MaxDP=8.04D-03 DE=-7.53D-02 OVMax= 1.89D-02

 Cycle   5  Pass 0  IDiag  1:
 RMSU=  1.21D-04    CP:  9.71D-01  2.06D+00  1.44D+00  3.90D-01
 E= -3150.42065404716     Delta-E=       -0.002731855969 Rises=F Damp=F
 DIIS: error= 9.66D-04 at cycle   5 NSaved=   5.
 NSaved= 5 IEnMin= 5 EnMin= -3150.42065404716     IErMin= 5 ErrMin= 9.66D-04
 ErrMax= 9.66D-04  0.00D+00 EMaxC= 1.00D-01 BMatC= 4.61D-04 BMatP= 3.23D-03
 IDIUse=3 WtCom= 9.90D-01 WtEn= 9.66D-03
 Coeff-Com:  0.196D+00-0.258D+00 0.173D+00 0.297D+00 0.592D+00
 Coeff-En:   0.000D+00 0.000D+00 0.000D+00 0.990D-01 0.901D+00
 Coeff:      0.194D+00-0.256D+00 0.172D+00 0.295D+00 0.595D+00
 Gap=     0.225 Goal=   None    Shift=    0.000
 RMSDP=9.90D-05 MaxDP=3.49D-03 DE=-2.73D-03 OVMax= 1.05D-02

 Cycle   6  Pass 0  IDiag  1:
 RMSU=  4.59D-05    CP:  9.71D-01  2.06D+00  1.45D+00  5.45D-01  4.12D-01
 E= -3150.42105260713     Delta-E=       -0.000398559969 Rises=F Damp=F
 DIIS: error= 4.22D-04 at cycle   6 NSaved=   6.
 NSaved= 6 IEnMin= 6 EnMin= -3150.42105260713     IErMin= 6 ErrMin= 4.22D-04
 ErrMax= 4.22D-04  0.00D+00 EMaxC= 1.00D-01 BMatC= 7.03D-05 BMatP= 4.61D-04
 IDIUse=3 WtCom= 9.96D-01 WtEn= 4.22D-03
 Coeff-Com:  0.593D-01-0.782D-01 0.559D-01 0.142D+00 0.367D+00 0.454D+00
 Coeff-En:   0.000D+00 0.000D+00 0.000D+00 0.000D+00 0.119D+00 0.881D+00
 Coeff:      0.590D-01-0.779D-01 0.557D-01 0.142D+00 0.366D+00 0.456D+00
 Gap=     0.226 Goal=   None    Shift=    0.000
 RMSDP=3.29D-05 MaxDP=1.10D-03 DE=-3.99D-04 OVMax= 3.47D-03

 Cycle   7  Pass 0  IDiag  1:
 RMSU=  1.27D-05    CP:  9.71D-01  2.06D+00  1.44D+00  5.24D-01  5.69D-01
                    CP:  5.23D-01
 E= -3150.42112700977     Delta-E=       -0.000074402640 Rises=F Damp=F
 DIIS: error= 6.46D-05 at cycle   7 NSaved=   7.
 NSaved= 7 IEnMin= 7 EnMin= -3150.42112700977     IErMin= 7 ErrMin= 6.46D-05
 ErrMax= 6.46D-05  0.00D+00 EMaxC= 1.00D-01 BMatC= 2.35D-06 BMatP= 7.03D-05
 IDIUse=1 WtCom= 1.00D+00 WtEn= 0.00D+00
 Coeff-Com:  0.133D-01-0.175D-01 0.135D-01 0.465D-01 0.134D+00 0.224D+00
 Coeff-Com:  0.587D+00
 Coeff:      0.133D-01-0.175D-01 0.135D-01 0.465D-01 0.134D+00 0.224D+00
 Coeff:      0.587D+00
 Gap=     0.226 Goal=   None    Shift=    0.000
 RMSDP=6.61D-06 MaxDP=1.94D-04 DE=-7.44D-05 OVMax= 4.95D-04

 Initial convergence to 1.0D-05 achieved.  Increase integral accuracy.
 Cycle   8  Pass 1  IDiag  1:
 E= -3150.42113155938     Delta-E=       -0.000004549607 Rises=F Damp=F
 DIIS: error= 5.57D-05 at cycle   1 NSaved=   1.
 NSaved= 1 IEnMin= 1 EnMin= -3150.42113155938     IErMin= 1 ErrMin= 5.57D-05
 ErrMax= 5.57D-05  0.00D+00 EMaxC= 1.00D-01 BMatC= 5.88D-07 BMatP= 5.88D-07
 IDIUse=1 WtCom= 1.00D+00 WtEn= 0.00D+00
 Coeff-Com:  0.100D+01
 Coeff:      0.100D+01
 Gap=     0.226 Goal=   None    Shift=    0.000
 RMSDP=6.61D-06 MaxDP=1.94D-04 DE=-4.55D-06 OVMax= 3.56D-04

 Cycle   9  Pass 1  IDiag  1:
 RMSU=  2.18D-05    CP:  1.00D+00
 E= -3150.42113130099     Delta-E=        0.000000258391 Rises=F Damp=F
 DIIS: error= 3.45D-05 at cycle   2 NSaved=   2.
 NSaved= 2 IEnMin= 1 EnMin= -3150.42113155938     IErMin= 2 ErrMin= 3.45D-05
 ErrMax= 3.45D-05  0.00D+00 EMaxC= 1.00D-01 BMatC= 7.27D-07 BMatP= 5.88D-07
 IDIUse=1 WtCom= 1.00D+00 WtEn= 0.00D+00
 Coeff-Com:  0.532D+00 0.468D+00
 Coeff:      0.532D+00 0.468D+00
 Gap=     0.226 Goal=   None    Shift=    0.000
 RMSDP=4.07D-06 MaxDP=1.09D-04 DE= 2.58D-07 OVMax= 3.38D-04

 Cycle  10  Pass 1  IDiag  1:
 RMSU=  4.02D-06    CP:  1.00D+00  9.71D-01
 E= -3150.42113192620     Delta-E=       -0.000000625210 Rises=F Damp=F
 DIIS: error= 1.51D-05 at cycle   3 NSaved=   3.
 NSaved= 3 IEnMin= 3 EnMin= -3150.42113192620     IErMin= 3 ErrMin= 1.51D-05
 ErrMax= 1.51D-05  0.00D+00 EMaxC= 1.00D-01 BMatC= 9.40D-08 BMatP= 5.88D-07
 IDIUse=1 WtCom= 1.00D+00 WtEn= 0.00D+00
 Coeff-Com:  0.669D-01 0.265D+00 0.668D+00
 Coeff:      0.669D-01 0.265D+00 0.668D+00
 Gap=     0.226 Goal=   None    Shift=    0.000
 RMSDP=1.39D-06 MaxDP=5.86D-05 DE=-6.25D-07 OVMax= 1.39D-04

 Cycle  11  Pass 1  IDiag  1:
 RMSU=  8.42D-07    CP:  1.00D+00  9.83D-01  7.35D-01
 E= -3150.42113200771     Delta-E=       -0.000000081514 Rises=F Damp=F
 DIIS: error= 4.52D-06 at cycle   4 NSaved=   4.
 NSaved= 4 IEnMin= 4 EnMin= -3150.42113200771     IErMin= 4 ErrMin= 4.52D-06
 ErrMax= 4.52D-06  0.00D+00 EMaxC= 1.00D-01 BMatC= 1.98D-08 BMatP= 9.40D-08
 IDIUse=1 WtCom= 1.00D+00 WtEn= 0.00D+00
 Coeff-Com: -0.868D-03 0.133D+00 0.434D+00 0.434D+00
 Coeff:     -0.868D-03 0.133D+00 0.434D+00 0.434D+00
 Gap=     0.226 Goal=   None    Shift=    0.000
 RMSDP=4.96D-07 MaxDP=1.99D-05 DE=-8.15D-08 OVMax= 4.92D-05

 Cycle  12  Pass 1  IDiag  1:
 RMSU=  9.11D-08    CP:  1.00D+00  9.85D-01  7.59D-01  4.35D-01
 E= -3150.42113202759     Delta-E=       -0.000000019883 Rises=F Damp=F
 DIIS: error= 5.39D-07 at cycle   5 NSaved=   5.
 NSaved= 5 IEnMin= 5 EnMin= -3150.42113202759     IErMin= 5 ErrMin= 5.39D-07
 ErrMax= 5.39D-07  0.00D+00 EMaxC= 1.00D-01 BMatC= 1.96D-10 BMatP= 1.98D-08
 IDIUse=1 WtCom= 1.00D+00 WtEn= 0.00D+00
 Coeff-Com: -0.144D-02 0.695D-01 0.229D+00 0.239D+00 0.464D+00
 Coeff:     -0.144D-02 0.695D-01 0.229D+00 0.239D+00 0.464D+00
 Gap=     0.226 Goal=   None    Shift=    0.000
 RMSDP=4.27D-08 MaxDP=2.43D-06 DE=-1.99D-08 OVMax= 1.97D-06

 Cycle  13  Pass 1  IDiag  1:
 RMSU=  2.75D-08    CP:  1.00D+00  9.85D-01  7.58D-01  4.42D-01  6.53D-01
 E= -3150.42113202779     Delta-E=       -0.000000000200 Rises=F Damp=F
 DIIS: error= 7.58D-08 at cycle   6 NSaved=   6.
 NSaved= 6 IEnMin= 6 EnMin= -3150.42113202779     IErMin= 6 ErrMin= 7.58D-08
 ErrMax= 7.58D-08  0.00D+00 EMaxC= 1.00D-01 BMatC= 5.27D-12 BMatP= 1.96D-10
 IDIUse=1 WtCom= 1.00D+00 WtEn= 0.00D+00
 Coeff-Com: -0.591D-03 0.233D-01 0.772D-01 0.819D-01 0.211D+00 0.607D+00
 Coeff:     -0.591D-03 0.233D-01 0.772D-01 0.819D-01 0.211D+00 0.607D+00
 Gap=     0.226 Goal=   None    Shift=    0.000
 RMSDP=8.99D-09 MaxDP=3.65D-07 DE=-2.00D-10 OVMax= 4.60D-07

 SCF Done:  E(RB3LYP) =  -3150.42113203     A.U. after   13 cycles
            NFock= 13  Conv=0.90D-08     -V/T= 2.0067
 KE= 3.129599290869D+03 PE=-9.883620038623D+03 EE= 2.401536778706D+03
 Leave Link  502 at Tue Sep 17 09:49:31 2024, MaxMem=  1342177280 cpu:             134.2 elap:              17.8
 (Enter /groups/ReismanLab/Software/Gaussian16_RevC/Linux_Binary_AVX2-enabled-CPU/g16/l508.exe)
 QCSCF skips out because SCF is already converged.
 Leave Link  508 at Tue Sep 17 09:49:31 2024, MaxMem=  1342177280 cpu:               0.0 elap:               0.2
 (Enter /groups/ReismanLab/Software/Gaussian16_RevC/Linux_Binary_AVX2-enabled-CPU/g16/l601.exe)
 Copying SCF densities to generalized density rwf, IOpCl= 0 IROHF=0.

 **********************************************************************

            Population analysis using the SCF Density.

 **********************************************************************

 Orbital symmetries:
       Occupied  (A) (A) (A) (A) (A) (A) (A) (A) (A) (A) (A) (A)
                 (A) (A) (A) (A) (A) (A) (A) (A) (A) (A) (A) (A)
                 (A) (A) (A) (A) (A) (A) (A) (A) (A) (A) (A) (A)
                 (A) (A) (A) (A) (A) (A) (A) (A) (A) (A) (A) (A)
                 (A) (A) (A) (A) (A) (A) (A) (A) (A) (A) (A) (A)
                 (A) (A) (A) (A) (A) (A)
       Virtual   (A) (A) (A) (A) (A) (A) (A) (A) (A) (A) (A) (A)
                 (A) (A) (A) (A) (A) (A) (A) (A) (A) (A) (A) (A)
                 (A) (A) (A) (A) (A) (A) (A) (A) (A) (A) (A) (A)
                 (A) (A) (A) (A) (A) (A) (A) (A) (A) (A) (A) (A)
                 (A) (A) (A) (A) (A) (A) (A) (A) (A) (A) (A) (A)
                 (A) (A) (A) (A) (A) (A) (A) (A) (A) (A) (A) (A)
                 (A) (A) (A) (A) (A) (A) (A) (A) (A) (A) (A) (A)
                 (A) (A) (A) (A) (A) (A) (A) (A) (A) (A) (A) (A)
                 (A) (A) (A) (A) (A) (A) (A) (A) (A) (A) (A) (A)
                 (A) (A) (A) (A) (A) (A) (A) (A) (A) (A) (A) (A)
                 (A) (A) (A) (A) (A) (A) (A) (A) (A) (A) (A) (A)
                 (A) (A) (A) (A) (A) (A) (A) (A) (A) (A) (A) (A)
                 (A) (A) (A) (A) (A) (A) (A) (A) (A) (A) (A) (A)
                 (A) (A) (A) (A) (A) (A) (A) (A) (A) (A) (A) (A)
                 (A) (A) (A) (A) (A) (A) (A) (A) (A) (A) (A) (A)
                 (A) (A) (A) (A) (A) (A) (A) (A) (A) (A) (A) (A)
                 (A) (A) (A) (A) (A) (A) (A) (A) (A) (A) (A) (A)
                 (A) (A) (A) (A) (A) (A) (A) (A) (A) (A) (A) (A)
                 (A) (A) (A) (A) (A) (A) (A) (A) (A) (A) (A) (A)
                 (A) (A) (A) (A) (A) (A)
 The electronic state is 1-A.
 Alpha  occ. eigenvalues -- -482.90694 -61.86869 -56.39001 -56.38594 -56.38583
 Alpha  occ. eigenvalues --  -19.15973 -19.15183 -10.28974 -10.24362 -10.23782
 Alpha  occ. eigenvalues --  -10.22578 -10.20041 -10.19911 -10.19827 -10.19689
 Alpha  occ. eigenvalues --  -10.19026 -10.17400 -10.17390  -8.58015  -6.53403
 Alpha  occ. eigenvalues --   -6.52142  -6.52114  -2.64978  -2.64617  -2.64597
 Alpha  occ. eigenvalues --   -2.63590  -2.63590  -1.07579  -1.01427  -0.87823
 Alpha  occ. eigenvalues --   -0.80589  -0.78201  -0.75415  -0.75186  -0.72219
 Alpha  occ. eigenvalues --   -0.67685  -0.63235  -0.61633  -0.60367  -0.56689
 Alpha  occ. eigenvalues --   -0.52613  -0.51651  -0.49980  -0.48549  -0.46190
 Alpha  occ. eigenvalues --   -0.45967  -0.44877  -0.43051  -0.42718  -0.41510
 Alpha  occ. eigenvalues --   -0.39824  -0.39028  -0.38597  -0.37921  -0.37083
 Alpha  occ. eigenvalues --   -0.36471  -0.35554  -0.35076  -0.33821  -0.30947
 Alpha  occ. eigenvalues --   -0.30349  -0.28398  -0.27758  -0.26716  -0.25638
 Alpha  occ. eigenvalues --   -0.24004
 Alpha virt. eigenvalues --   -0.01428  -0.00843   0.01262   0.09393   0.09958
 Alpha virt. eigenvalues --    0.11791   0.12454   0.13189   0.13727   0.14718
 Alpha virt. eigenvalues --    0.15390   0.15936   0.16293   0.16683   0.16866
 Alpha virt. eigenvalues --    0.18022   0.18676   0.18947   0.19882   0.21094
 Alpha virt. eigenvalues --    0.22091   0.23254   0.24235   0.24360   0.25729
 Alpha virt. eigenvalues --    0.27583   0.27918   0.30502   0.31806   0.33907
 Alpha virt. eigenvalues --    0.35092   0.42407   0.45239   0.46510   0.46741
 Alpha virt. eigenvalues --    0.46775   0.48231   0.48688   0.49267   0.50046
 Alpha virt. eigenvalues --    0.50728   0.52567   0.53455   0.54255   0.54812
 Alpha virt. eigenvalues --    0.55409   0.55803   0.56814   0.57869   0.58054
 Alpha virt. eigenvalues --    0.59067   0.59749   0.60758   0.62062   0.62968
 Alpha virt. eigenvalues --    0.64952   0.65145   0.66559   0.67826   0.68116
 Alpha virt. eigenvalues --    0.73780   0.74092   0.75111   0.77591   0.78199
 Alpha virt. eigenvalues --    0.79142   0.80628   0.81444   0.81794   0.82361
 Alpha virt. eigenvalues --    0.83837   0.85055   0.85534   0.86785   0.86886
 Alpha virt. eigenvalues --    0.87445   0.88502   0.89059   0.90039   0.91153
 Alpha virt. eigenvalues --    0.92220   0.92862   0.95627   0.97813   0.99073
 Alpha virt. eigenvalues --    0.99715   1.02379   1.03281   1.07439   1.08653
 Alpha virt. eigenvalues --    1.10618   1.13517   1.15439   1.15644   1.17800
 Alpha virt. eigenvalues --    1.19310   1.20054   1.24392   1.24528   1.28079
 Alpha virt. eigenvalues --    1.29661   1.35040   1.35832   1.36928   1.39203
 Alpha virt. eigenvalues --    1.40226   1.41259   1.41758   1.43397   1.47318
 Alpha virt. eigenvalues --    1.49378   1.52217   1.53938   1.56961   1.57083
 Alpha virt. eigenvalues --    1.58905   1.63560   1.65492   1.67403   1.69980
 Alpha virt. eigenvalues --    1.71309   1.76024   1.77853   1.79959   1.82045
 Alpha virt. eigenvalues --    1.82917   1.85448   1.86889   1.88875   1.89515
 Alpha virt. eigenvalues --    1.92831   1.94949   1.95479   1.97391   1.97597
 Alpha virt. eigenvalues --    1.98290   1.99466   2.00288   2.02558   2.03863
 Alpha virt. eigenvalues --    2.04599   2.04877   2.05677   2.06137   2.07049
 Alpha virt. eigenvalues --    2.07321   2.08507   2.09041   2.11693   2.13270
 Alpha virt. eigenvalues --    2.13762   2.14642   2.17363   2.18808   2.23247
 Alpha virt. eigenvalues --    2.26445   2.28143   2.28329   2.29867   2.30930
 Alpha virt. eigenvalues --    2.34319   2.35618   2.37304   2.38568   2.39390
 Alpha virt. eigenvalues --    2.40605   2.44096   2.44981   2.46895   2.48697
 Alpha virt. eigenvalues --    2.49931   2.52193   2.53835   2.55424   2.57719
 Alpha virt. eigenvalues --    2.58649   2.62296   2.64302   2.64521   2.65567
 Alpha virt. eigenvalues --    2.67623   2.69000   2.70867   2.72565   2.74380
 Alpha virt. eigenvalues --    2.74505   2.77703   2.79207   2.79590   2.82043
 Alpha virt. eigenvalues --    2.82681   2.84476   2.85816   2.89215   2.90273
 Alpha virt. eigenvalues --    2.91892   2.95136   2.95784   2.99632   3.04189
 Alpha virt. eigenvalues --    3.05764   3.13735   3.20888   3.21928   3.22991
 Alpha virt. eigenvalues --    3.25464   3.28523   3.29615   3.32098   3.38747
 Alpha virt. eigenvalues --    3.39461   3.41053   3.43334   3.46111   3.47718
 Alpha virt. eigenvalues --    3.48216   3.54020   3.54259   3.83257   4.02804
 Alpha virt. eigenvalues --    4.11830   4.14930   4.16797   4.23046   4.34637
 Alpha virt. eigenvalues --    4.38231   4.39987   4.44256   4.58222   4.60987
 Alpha virt. eigenvalues --    4.65712   4.82301   8.61122  72.82766
          Condensed to atoms (all electrons):
               1          2          3          4          5          6
     1  C    5.014127   0.358490  -0.049641  -0.004484  -0.001826   0.000472
     2  C    0.358490   4.681301   0.250270  -0.022841   0.000267  -0.000086
     3  O   -0.049641   0.250270   8.285352   0.204327  -0.055266  -0.008928
     4  C   -0.004484  -0.022841   0.204327   4.648412   0.230639  -0.021493
     5  O   -0.001826   0.000267  -0.055266   0.230639   8.312488   0.217115
     6  C    0.000472  -0.000086  -0.008928  -0.021493   0.217115   4.724392
     7  C   -0.000454   0.000027   0.000059   0.004280  -0.043637   0.383996
     8  C   -0.000015   0.004446  -0.037135   0.320358  -0.061131  -0.012874
     9  C    0.000002   0.000192  -0.007228  -0.042383  -0.000426   0.001122
    10  C    0.000001  -0.000005   0.000363   0.005611  -0.000035   0.000022
    11  C    0.000000   0.000000   0.000002   0.000586   0.000006  -0.000000
    12  C   -0.000000   0.000003  -0.000079   0.004969   0.000297  -0.000219
    13  Br   0.000000  -0.000000   0.000000  -0.000157   0.000001   0.000002
    14  C    0.000003  -0.000117   0.004044  -0.052615   0.007643  -0.003419
    15  H    0.385857  -0.029282  -0.001924   0.001698   0.010160  -0.001525
    16  H    0.383159  -0.032116   0.001394  -0.000752  -0.000250  -0.000209
    17  H    0.354841  -0.025304   0.003129   0.000118   0.000261  -0.000007
    18  H   -0.055190   0.372908  -0.037366  -0.011829  -0.000899   0.000055
    19  H   -0.048496   0.398822  -0.038808   0.004149  -0.000195  -0.000018
    20  H   -0.000985  -0.011135  -0.045960   0.389503  -0.057586   0.007133
    21  H   -0.000001  -0.000007  -0.000405  -0.008229  -0.041563   0.375227
    22  H   -0.001099  -0.000432   0.015456  -0.007173  -0.041884   0.374659
    23  H    0.000007  -0.000000   0.000007  -0.000154   0.003055  -0.029752
    24  H    0.000239  -0.000039   0.000021  -0.000067   0.000584  -0.032796
    25  H   -0.000002   0.000001   0.000002   0.000063   0.001455  -0.031770
    26  H    0.000039  -0.000374   0.016895  -0.014028   0.000220   0.000058
    27  H   -0.000000  -0.000000   0.000002  -0.000195   0.000001  -0.000000
    28  H    0.000000  -0.000000   0.000000   0.000008   0.000000   0.000000
    29  H    0.000001  -0.000011   0.000182  -0.008237   0.005470   0.000129
               7          8          9         10         11         12
     1  C   -0.000454  -0.000015   0.000002   0.000001   0.000000  -0.000000
     2  C    0.000027   0.004446   0.000192  -0.000005   0.000000   0.000003
     3  O    0.000059  -0.037135  -0.007228   0.000363   0.000002  -0.000079
     4  C    0.004280   0.320358  -0.042383   0.005611   0.000586   0.004969
     5  O   -0.043637  -0.061131  -0.000426  -0.000035   0.000006   0.000297
     6  C    0.383996  -0.012874   0.001122   0.000022  -0.000000  -0.000219
     7  C    4.928023   0.000277   0.000032   0.000001  -0.000000  -0.000005
     8  C    0.000277   4.945343   0.539072  -0.018087  -0.039756  -0.014185
     9  C    0.000032   0.539072   4.878283   0.506422  -0.041292  -0.042228
    10  C    0.000001  -0.018087   0.506422   4.863755   0.517551  -0.020607
    11  C   -0.000000  -0.039756  -0.041292   0.517551   4.876212   0.528997
    12  C   -0.000005  -0.014185  -0.042228  -0.020607   0.528997   4.829349
    13  Br   0.000000   0.005448   0.000456   0.005654  -0.060959   0.253980
    14  C   -0.000024   0.472475  -0.056226  -0.049973  -0.043504   0.497054
    15  H   -0.000467   0.000254  -0.000012  -0.000000   0.000000  -0.000000
    16  H   -0.000035  -0.000045   0.000004   0.000000  -0.000000   0.000000
    17  H    0.000002   0.000006  -0.000000  -0.000000   0.000000   0.000000
    18  H   -0.000002  -0.000566   0.000135   0.000003  -0.000000  -0.000000
    19  H   -0.000001  -0.000181  -0.000058  -0.000003   0.000000  -0.000000
    20  H   -0.000290  -0.053656   0.006273  -0.000128   0.000009  -0.000215
    21  H   -0.039660   0.012557   0.000210   0.000041  -0.000002  -0.000250
    22  H   -0.038333  -0.002882  -0.000043  -0.000065   0.000003   0.000013
    23  H    0.371829   0.000026   0.000002   0.000000  -0.000000   0.000000
    24  H    0.386138   0.000029  -0.000001   0.000000   0.000000  -0.000000
    25  H    0.383594  -0.000092  -0.000001  -0.000000   0.000000   0.000002
    26  H    0.000003  -0.037509   0.368965  -0.045175   0.004821   0.000362
    27  H    0.000000   0.003508  -0.036358   0.366912  -0.039712   0.004223
    28  H    0.000000   0.000335   0.004787  -0.040140   0.372834  -0.043502
    29  H   -0.000035  -0.047652   0.006019   0.000000   0.005516  -0.044077
              13         14         15         16         17         18
     1  C    0.000000   0.000003   0.385857   0.383159   0.354841  -0.055190
     2  C   -0.000000  -0.000117  -0.029282  -0.032116  -0.025304   0.372908
     3  O    0.000000   0.004044  -0.001924   0.001394   0.003129  -0.037366
     4  C   -0.000157  -0.052615   0.001698  -0.000752   0.000118  -0.011829
     5  O    0.000001   0.007643   0.010160  -0.000250   0.000261  -0.000899
     6  C    0.000002  -0.003419  -0.001525  -0.000209  -0.000007   0.000055
     7  C    0.000000  -0.000024  -0.000467  -0.000035   0.000002  -0.000002
     8  C    0.005448   0.472475   0.000254  -0.000045   0.000006  -0.000566
     9  C    0.000456  -0.056226  -0.000012   0.000004  -0.000000   0.000135
    10  C    0.005654  -0.049973  -0.000000   0.000000  -0.000000   0.000003
    11  C   -0.060959  -0.043504   0.000000  -0.000000   0.000000  -0.000000
    12  C    0.253980   0.497054  -0.000000   0.000000   0.000000  -0.000000
    13  Br  34.997735  -0.059236  -0.000000  -0.000000  -0.000000  -0.000000
    14  C   -0.059236   5.001601   0.000005  -0.000000  -0.000000  -0.000015
    15  H   -0.000000   0.000005   0.553835  -0.030928  -0.025439  -0.005572
    16  H   -0.000000  -0.000000  -0.030928   0.593147  -0.028355   0.005900
    17  H   -0.000000  -0.000000  -0.025439  -0.028355   0.622474   0.000368
    18  H   -0.000000  -0.000015  -0.005572   0.005900   0.000368   0.665472
    19  H    0.000000   0.000005   0.004813  -0.005884  -0.001286  -0.038075
    20  H   -0.000001  -0.008766  -0.000649   0.000171   0.000016   0.016095
    21  H   -0.000009   0.000943   0.000143   0.000003   0.000001   0.000002
    22  H   -0.000000   0.000905  -0.000077   0.001795  -0.000016   0.000121
    23  H   -0.000000   0.000002   0.000022  -0.000004   0.000000   0.000000
    24  H   -0.000000  -0.000008   0.001814   0.000517   0.000004   0.000004
    25  H   -0.000000   0.000055   0.000023  -0.000001  -0.000001  -0.000000
    26  H    0.000009   0.006548  -0.000001   0.000004  -0.000001   0.000066
    27  H   -0.000164   0.001235  -0.000000  -0.000000  -0.000000  -0.000000
    28  H   -0.003521   0.005631   0.000000   0.000000  -0.000000   0.000000
    29  H   -0.003140   0.372628   0.000000   0.000000  -0.000000   0.000000
              19         20         21         22         23         24
     1  C   -0.048496  -0.000985  -0.000001  -0.001099   0.000007   0.000239
     2  C    0.398822  -0.011135  -0.000007  -0.000432  -0.000000  -0.000039
     3  O   -0.038808  -0.045960  -0.000405   0.015456   0.000007   0.000021
     4  C    0.004149   0.389503  -0.008229  -0.007173  -0.000154  -0.000067
     5  O   -0.000195  -0.057586  -0.041563  -0.041884   0.003055   0.000584
     6  C   -0.000018   0.007133   0.375227   0.374659  -0.029752  -0.032796
     7  C   -0.000001  -0.000290  -0.039660  -0.038333   0.371829   0.386138
     8  C   -0.000181  -0.053656   0.012557  -0.002882   0.000026   0.000029
     9  C   -0.000058   0.006273   0.000210  -0.000043   0.000002  -0.000001
    10  C   -0.000003  -0.000128   0.000041  -0.000065   0.000000   0.000000
    11  C    0.000000   0.000009  -0.000002   0.000003  -0.000000   0.000000
    12  C   -0.000000  -0.000215  -0.000250   0.000013   0.000000  -0.000000
    13  Br   0.000000  -0.000001  -0.000009  -0.000000  -0.000000  -0.000000
    14  C    0.000005  -0.008766   0.000943   0.000905   0.000002  -0.000008
    15  H    0.004813  -0.000649   0.000143  -0.000077   0.000022   0.001814
    16  H   -0.005884   0.000171   0.000003   0.001795  -0.000004   0.000517
    17  H   -0.001286   0.000016   0.000001  -0.000016   0.000000   0.000004
    18  H   -0.038075   0.016095   0.000002   0.000121   0.000000   0.000004
    19  H    0.621117   0.000093  -0.000001   0.000044   0.000000   0.000001
    20  H    0.000093   0.669586  -0.000054   0.000407   0.000005  -0.000004
    21  H   -0.000001  -0.000054   0.658330  -0.053336   0.000351   0.005586
    22  H    0.000044   0.000407  -0.053336   0.653638  -0.000286  -0.007369
    23  H    0.000000   0.000005   0.000351  -0.000286   0.606258  -0.028063
    24  H    0.000001  -0.000004   0.005586  -0.007369  -0.028063   0.590840
    25  H    0.000000  -0.000014  -0.007319   0.005903  -0.028268  -0.033032
    26  H   -0.000027   0.000530   0.000020   0.000202  -0.000000   0.000000
    27  H    0.000000   0.000003  -0.000008   0.000001  -0.000000  -0.000000
    28  H   -0.000000  -0.000000  -0.000000   0.000000   0.000000   0.000000
    29  H    0.000000   0.002519  -0.000408   0.000073  -0.000001  -0.000001
              25         26         27         28         29
     1  C   -0.000002   0.000039  -0.000000   0.000000   0.000001
     2  C    0.000001  -0.000374  -0.000000  -0.000000  -0.000011
     3  O    0.000002   0.016895   0.000002   0.000000   0.000182
     4  C    0.000063  -0.014028  -0.000195   0.000008  -0.008237
     5  O    0.001455   0.000220   0.000001   0.000000   0.005470
     6  C   -0.031770   0.000058  -0.000000   0.000000   0.000129
     7  C    0.383594   0.000003   0.000000   0.000000  -0.000035
     8  C   -0.000092  -0.037509   0.003508   0.000335  -0.047652
     9  C   -0.000001   0.368965  -0.036358   0.004787   0.006019
    10  C   -0.000000  -0.045175   0.366912  -0.040140   0.000000
    11  C    0.000000   0.004821  -0.039712   0.372834   0.005516
    12  C    0.000002   0.000362   0.004223  -0.043502  -0.044077
    13  Br  -0.000000   0.000009  -0.000164  -0.003521  -0.003140
    14  C    0.000055   0.006548   0.001235   0.005631   0.372628
    15  H    0.000023  -0.000001  -0.000000   0.000000   0.000000
    16  H   -0.000001   0.000004  -0.000000   0.000000   0.000000
    17  H   -0.000001  -0.000001  -0.000000  -0.000000  -0.000000
    18  H   -0.000000   0.000066  -0.000000   0.000000   0.000000
    19  H    0.000000  -0.000027   0.000000  -0.000000   0.000000
    20  H   -0.000014   0.000530   0.000003  -0.000000   0.002519
    21  H   -0.007319   0.000020  -0.000008  -0.000000  -0.000408
    22  H    0.005903   0.000202   0.000001   0.000000   0.000073
    23  H   -0.028268  -0.000000  -0.000000   0.000000  -0.000001
    24  H   -0.033032   0.000000  -0.000000   0.000000  -0.000001
    25  H    0.590270  -0.000000   0.000000  -0.000000   0.000045
    26  H   -0.000000   0.595725  -0.005349  -0.000158  -0.000159
    27  H    0.000000  -0.005349   0.617975  -0.006344   0.000020
    28  H   -0.000000  -0.000158  -0.006344   0.604837  -0.000155
    29  H    0.000045  -0.000159   0.000020  -0.000155   0.600076
 Mulliken charges:
               1
     1  C   -0.335046
     2  C    0.055022
     3  O   -0.498767
     4  C    0.379916
     5  O   -0.484966
     6  C    0.058715
     7  C   -0.335317
     8  C    0.021633
     9  C   -0.085720
    10  C   -0.092119
    11  C   -0.081311
    12  C    0.046118
    13  Br  -0.136098
    14  C   -0.096876
    15  H    0.137252
    16  H    0.112484
    17  H    0.099189
    18  H    0.088384
    19  H    0.103990
    20  H    0.087098
    21  H    0.097837
    22  H    0.099775
    23  H    0.104965
    24  H    0.115605
    25  H    0.119089
    26  H    0.108314
    27  H    0.094252
    28  H    0.105388
    29  H    0.111195
 Sum of Mulliken charges =  -0.00000
 Mulliken charges with hydrogens summed into heavy atoms:
               1
     1  C    0.013879
     2  C    0.247395
     3  O   -0.498767
     4  C    0.467014
     5  O   -0.484966
     6  C    0.256327
     7  C    0.004341
     8  C    0.021633
     9  C    0.022594
    10  C    0.002134
    11  C    0.024076
    12  C    0.046118
    13  Br  -0.136098
    14  C    0.014319
 Electronic spatial extent (au):  <R**2>=           5085.4217
 Charge=             -0.0000 electrons
 Dipole moment (field-independent basis, Debye):
    X=              2.0154    Y=             -0.9020    Z=              0.5279  Tot=              2.2702
 Quadrupole moment (field-independent basis, Debye-Ang):
   XX=            -92.9452   YY=            -94.3406   ZZ=            -92.6024
   XY=              0.2308   XZ=             -2.8640   YZ=             -0.7807
 Traceless Quadrupole moment (field-independent basis, Debye-Ang):
   XX=              0.3509   YY=             -1.0445   ZZ=              0.6936
   XY=              0.2308   XZ=             -2.8640   YZ=             -0.7807
 Octapole moment (field-independent basis, Debye-Ang**2):
  XXX=            -53.5053  YYY=             16.9152  ZZZ=            -17.4606  XYY=            -32.0209
  XXY=             -4.4067  XXZ=             -7.4780  XZZ=            -23.9516  YZZ=              3.1144
  YYZ=              4.7366  XYZ=             12.9371
 Hexadecapole moment (field-independent basis, Debye-Ang**3):
 XXXX=          -4251.6680 YYYY=          -1077.5129 ZZZZ=           -517.9374 XXXY=           -121.8462
 XXXZ=              5.9984 YYYX=            -76.7684 YYYZ=            -30.7008 ZZZX=             42.9241
 ZZZY=            -10.8631 XXYY=           -892.7756 XXZZ=           -797.0688 YYZZ=           -250.5791
 XXYZ=             -1.9408 YYXZ=             12.5597 ZZXY=            -20.0416
 N-N= 1.202062837020D+03 E-N=-9.883620020322D+03  KE= 3.129599290869D+03
 No NMR shielding tensors so no spin-rotation constants.
 Leave Link  601 at Tue Sep 17 09:49:31 2024, MaxMem=  1342177280 cpu:               0.5 elap:               0.1
 (Enter /groups/ReismanLab/Software/Gaussian16_RevC/Linux_Binary_AVX2-enabled-CPU/g16/l701.exe)
 ... and contract with generalized density number  0.
 Compute integral first derivatives.
 R6Disp: Adding Grimme-D3(BJ) dispersion energy 1st derivatives to the gradient.
 Leave Link  701 at Tue Sep 17 09:49:31 2024, MaxMem=  1342177280 cpu:               0.5 elap:               0.1
 (Enter /groups/ReismanLab/Software/Gaussian16_RevC/Linux_Binary_AVX2-enabled-CPU/g16/l702.exe)
 L702 exits ... SP integral derivatives will be done elsewhere.
 Leave Link  702 at Tue Sep 17 09:49:31 2024, MaxMem=  1342177280 cpu:               0.1 elap:               0.0
 (Enter /groups/ReismanLab/Software/Gaussian16_RevC/Linux_Binary_AVX2-enabled-CPU/g16/l703.exe)
 Integral derivatives from FoFJK, PRISM(SPDF).
 Compute integral first derivatives, UseDBF=F ICtDFT=           0.
 Calling FoFJK, ICntrl=      2127 FMM=F ISym2X=0 I1Cent= 0 IOpClX= 0 NMat=1 NMatS=1 NMatT=0.
 FoFJK:  IHMeth= 1 ICntrl=    2127 DoSepK=F KAlg= 0 I1Cent=           0 FoldK=F
 IRaf=         0 NMat=       1 IRICut=       1 DoRegI=T DoRafI=F ISym2E= 0 IDoP0=0 IntGTp=1.
 FoFCou: FMM=F IPFlag=           0 FMFlag=      100000 FMFlg1=         800
         NFxFlg=           0 DoJE=F BraDBF=F KetDBF=F FulRan=T
         wScrn=  0.000000 ICntrl=      2127 IOpCl=  0 I1Cent=           0 NGrid=           0
         NMat0=    1 NMatS0=      1 NMatT0=    0 NMatD0=    1 NMtDS0=    0 NMtDT0=    0
 Symmetry not used in FoFCou.
 Leave Link  703 at Tue Sep 17 09:49:37 2024, MaxMem=  1342177280 cpu:              47.2 elap:               6.0
 (Enter /groups/ReismanLab/Software/Gaussian16_RevC/Linux_Binary_AVX2-enabled-CPU/g16/l716.exe)
 Dipole        = 7.92913142D-01-3.54869272D-01 2.07691972D-01
 ***** Axes restored to original set *****
 -------------------------------------------------------------------
 Center     Atomic                   Forces (Hartrees/Bohr)
 Number     Number              X              Y              Z
 -------------------------------------------------------------------
      1        6          -0.004623444   -0.000901152    0.003304495
      2        6           0.004868764    0.000796153    0.000374592
      3        8          -0.006663804    0.002098490   -0.002796529
      4        6          -0.001282805   -0.005319524    0.008167711
      5        8           0.004947532   -0.006107419   -0.000594842
      6        6          -0.002741515    0.002999664   -0.005994879
      7        6          -0.003115951    0.002088070    0.007605976
      8        6           0.006892375    0.003282653    0.000090634
      9        6           0.003889171    0.004739892    0.000551354
     10        6          -0.002347570    0.004528394   -0.000131459
     11        6          -0.007323132   -0.000609741    0.000003153
     12        6          -0.001993497   -0.005845997    0.000174095
     13       35          -0.001937164   -0.003056276   -0.000064469
     14        6           0.003131364   -0.003969412   -0.000417660
     15        1           0.000720361   -0.002267575   -0.001633085
     16        1           0.000220917    0.002202381   -0.003874514
     17        1           0.005285506    0.001108916    0.001068427
     18        1           0.000176171    0.000991410    0.001483024
     19        1           0.001411603   -0.000483607    0.002173265
     20        1          -0.000216380    0.002497048   -0.002114226
     21        1           0.000701682    0.001324883   -0.000066681
     22        1          -0.001028042   -0.000258580   -0.000666708
     23        1          -0.000753458    0.001252153   -0.004841839
     24        1           0.004749554    0.000447538   -0.000550670
     25        1          -0.000240799   -0.004803995   -0.001481736
     26        1           0.002005495    0.003111834    0.000481919
     27        1          -0.002366306    0.003782831    0.000150896
     28        1          -0.003250146   -0.000455541    0.000125755
     29        1           0.000883520   -0.003173492   -0.000525996
 -------------------------------------------------------------------
 Cartesian Forces:  Max     0.008167711 RMS     0.003150716
 Leave Link  716 at Tue Sep 17 09:49:38 2024, MaxMem=  1342177280 cpu:               0.1 elap:               0.0
 (Enter /groups/ReismanLab/Software/Gaussian16_RevC/Linux_Binary_AVX2-enabled-CPU/g16/l103.exe)

 GradGradGradGradGradGradGradGradGradGradGradGradGradGradGradGradGradGrad
 Berny optimization.
 FormGI is forming the generalized inverse of G from B-inverse, IUseBI=4.
 Internal  Forces:  Max     0.010560161 RMS     0.002732036
 Search for a local minimum.
 Step number   1 out of a maximum of  149
 All quantities printed in internal units (Hartrees-Bohrs-Radians)
 RMS Force = .27320D-02 SwitMx=.10000D-02 MixMth= 1
 Mixed Optimization -- RFO/linear search
 Second derivative matrix not updated -- first step.
 ITU=  0
     Eigenvalues ---    0.00439   0.00514   0.00523   0.01408   0.01466
     Eigenvalues ---    0.01561   0.01609   0.01746   0.02254   0.02274
     Eigenvalues ---    0.02283   0.02291   0.02295   0.02300   0.02306
     Eigenvalues ---    0.02314   0.04722   0.05351   0.05718   0.05742
     Eigenvalues ---    0.05795   0.05809   0.05834   0.05860   0.06654
     Eigenvalues ---    0.07233   0.09521   0.11269   0.11947   0.13671
     Eigenvalues ---    0.14086   0.15999   0.16000   0.16000   0.16000
     Eigenvalues ---    0.16000   0.16000   0.16000   0.16000   0.16000
     Eigenvalues ---    0.16000   0.18001   0.19682   0.21176   0.21987
     Eigenvalues ---    0.22000   0.22106   0.23484   0.23500   0.24993
     Eigenvalues ---    0.25000   0.25000   0.25000   0.29918   0.30460
     Eigenvalues ---    0.30524   0.33031   0.33687   0.33705   0.33999
     Eigenvalues ---    0.34394   0.35115   0.35164   0.35180   0.35205
     Eigenvalues ---    0.35228   0.35234   0.36036   0.36062   0.36099
     Eigenvalues ---    0.36278   0.42246   0.42901   0.43556   0.43724
     Eigenvalues ---    0.44596   0.46305   0.47778   0.48067   0.48312
     Eigenvalues ---    0.48618
 RFO step:  Lambda=-3.02477663D-03 EMin= 4.39098833D-03
 Linear search not attempted -- first point.
 Iteration  1 RMS(Cart)=  0.07053717 RMS(Int)=  0.00100269
 Iteration  2 RMS(Cart)=  0.00198643 RMS(Int)=  0.00001644
 Iteration  3 RMS(Cart)=  0.00000178 RMS(Int)=  0.00001642
 Iteration  4 RMS(Cart)=  0.00000000 RMS(Int)=  0.00001642
 ITry= 1 IFail=0 DXMaxC= 2.90D-01 DCOld= 1.00D+10 DXMaxT= 3.00D-01 DXLimC= 3.00D+00 Rises=F
 Variable       Old X    -DE/DX   Delta X   Delta X   Delta X     New X
                                 (Linear)    (Quad)   (Total)
    R1        2.88128   0.00186   0.00000   0.00615   0.00615   2.88743
    R2        2.05383   0.00258   0.00000   0.00726   0.00726   2.06110
    R3        2.05488   0.00436   0.00000   0.01231   0.01231   2.06718
    R4        2.05409   0.00539   0.00000   0.01519   0.01519   2.06928
    R5        2.67792   0.00864   0.00000   0.02000   0.02000   2.69792
    R6        2.07861   0.00060   0.00000   0.00176   0.00176   2.08037
    R7        2.06671   0.00032   0.00000   0.00094   0.00094   2.06764
    R8        2.63789   0.00380   0.00000   0.00815   0.00815   2.64603
    R9        2.65747   0.00768   0.00000   0.01710   0.01710   2.67457
   R10        2.86930   0.00249   0.00000   0.00808   0.00808   2.87738
   R11        2.08996  -0.00309   0.00000  -0.00928  -0.00928   2.08068
   R12        2.68611   0.00714   0.00000   0.01678   0.01678   2.70289
   R13        2.87055   0.00020   0.00000   0.00064   0.00064   2.87119
   R14        2.07831  -0.00085   0.00000  -0.00251  -0.00251   2.07580
   R15        2.07332  -0.00048   0.00000  -0.00139  -0.00139   2.07193
   R16        2.05297   0.00492   0.00000   0.01386   0.01386   2.06683
   R17        2.05343   0.00465   0.00000   0.01311   0.01311   2.06654
   R18        2.05306   0.00482   0.00000   0.01355   0.01355   2.06661
   R19        2.62077   0.00870   0.00000   0.01805   0.01805   2.63882
   R20        2.62483   0.00951   0.00000   0.01972   0.01972   2.64454
   R21        2.61740   0.01053   0.00000   0.02189   0.02189   2.63930
   R22        2.03649   0.00371   0.00000   0.01013   0.01013   2.04662
   R23        2.61440   0.01056   0.00000   0.02183   0.02184   2.63624
   R24        2.03984   0.00446   0.00000   0.01227   0.01227   2.05212
   R25        2.61665   0.00911   0.00000   0.01877   0.01877   2.63542
   R26        2.03927   0.00326   0.00000   0.00895   0.00895   2.04822
   R27        3.60024   0.00361   0.00000   0.01975   0.01975   3.61999
   R28        2.61100   0.00868   0.00000   0.01752   0.01752   2.62852
   R29        2.04026   0.00320   0.00000   0.00882   0.00882   2.04908
    A1        1.92547   0.00159   0.00000   0.01105   0.01101   1.93648
    A2        1.92263   0.00079   0.00000   0.00370   0.00368   1.92631
    A3        1.90891   0.00079   0.00000   0.00470   0.00467   1.91358
    A4        1.89993  -0.00119   0.00000  -0.00702  -0.00705   1.89289
    A5        1.90519  -0.00092   0.00000  -0.00336  -0.00341   1.90178
    A6        1.90143  -0.00111   0.00000  -0.00944  -0.00943   1.89200
    A7        1.99293   0.00052   0.00000   0.00650   0.00645   1.99938
    A8        1.91728   0.00093   0.00000   0.00615   0.00609   1.92337
    A9        1.92429  -0.00056   0.00000  -0.00532  -0.00534   1.91895
   A10        1.90611  -0.00032   0.00000   0.00320   0.00314   1.90925
   A11        1.82055   0.00068   0.00000   0.00873   0.00873   1.82928
   A12        1.89889  -0.00138   0.00000  -0.02084  -0.02085   1.87804
   A13        2.02206   0.00238   0.00000   0.00940   0.00940   2.03146
   A14        1.97986   0.00092   0.00000   0.00418   0.00420   1.98405
   A15        1.90671  -0.00224   0.00000  -0.01085  -0.01085   1.89586
   A16        1.92113  -0.00001   0.00000  -0.00397  -0.00396   1.91717
   A17        1.94449   0.00123   0.00000   0.00645   0.00645   1.95094
   A18        1.80550  -0.00075   0.00000  -0.00239  -0.00241   1.80308
   A19        1.90305   0.00099   0.00000   0.00738   0.00736   1.91041
   A20        2.00038   0.00365   0.00000   0.01441   0.01441   2.01479
   A21        1.89054  -0.00282   0.00000  -0.01133  -0.01131   1.87923
   A22        1.91372   0.00109   0.00000   0.00640   0.00640   1.92012
   A23        1.90923   0.00133   0.00000   0.00866   0.00867   1.91790
   A24        1.92741   0.00085   0.00000   0.00324   0.00325   1.93066
   A25        1.93379   0.00062   0.00000   0.00204   0.00205   1.93584
   A26        1.88915  -0.00102   0.00000  -0.00869  -0.00871   1.88044
   A27        1.91579   0.00098   0.00000   0.00487   0.00486   1.92065
   A28        1.92402   0.00114   0.00000   0.00755   0.00751   1.93152
   A29        1.91683   0.00161   0.00000   0.01045   0.01041   1.92724
   A30        1.90585  -0.00123   0.00000  -0.00869  -0.00870   1.89715
   A31        1.90628  -0.00145   0.00000  -0.00999  -0.01001   1.89627
   A32        1.89482  -0.00111   0.00000  -0.00456  -0.00463   1.89019
   A33        2.13053   0.00115   0.00000   0.00476   0.00476   2.13529
   A34        2.06000  -0.00098   0.00000  -0.00364  -0.00364   2.05636
   A35        2.09241  -0.00017   0.00000  -0.00109  -0.00110   2.09132
   A36        2.09578  -0.00047   0.00000  -0.00183  -0.00183   2.09395
[...]
 Alpha virt. eigenvalues --    2.31992   2.34439   2.35727   2.36379   2.37344
 Alpha virt. eigenvalues --    2.37750   2.39952   2.40319   2.42025   2.42839
 Alpha virt. eigenvalues --    2.43529   2.44202   2.44991   2.45454   2.46558
 Alpha virt. eigenvalues --    2.47339   2.49981   2.50504   2.52328   2.52955
 Alpha virt. eigenvalues --    2.53728   2.54772   2.55614   2.57415   2.58730
 Alpha virt. eigenvalues --    2.59883   2.61408   2.61843   2.62088   2.62846
 Alpha virt. eigenvalues --    2.63717   2.64643   2.65258   2.66100   2.66930
 Alpha virt. eigenvalues --    2.67274   2.68517   2.68910   2.69652   2.70911
 Alpha virt. eigenvalues --    2.71462   2.72412   2.74047   2.74722   2.75586
 Alpha virt. eigenvalues --    2.77114   2.78125   2.78933   2.80218   2.81518
 Alpha virt. eigenvalues --    2.82921   2.84707   2.85012   2.85492   2.86724
 Alpha virt. eigenvalues --    2.88934   2.90155   2.92500   2.94131   2.95429
 Alpha virt. eigenvalues --    2.96166   2.97749   3.00158   3.01021   3.02243
 Alpha virt. eigenvalues --    3.03025   3.05344   3.06621   3.07739   3.08288
 Alpha virt. eigenvalues --    3.10006   3.11512   3.12089   3.12831   3.13170
 Alpha virt. eigenvalues --    3.14244   3.14780   3.15880   3.16378   3.18130
 Alpha virt. eigenvalues --    3.19544   3.20566   3.21356   3.21602   3.23003
 Alpha virt. eigenvalues --    3.24699   3.25506   3.25878   3.26289   3.27351
 Alpha virt. eigenvalues --    3.27579   3.28369   3.30324   3.31648   3.33309
 Alpha virt. eigenvalues --    3.33787   3.34663   3.36129   3.36295   3.37263
 Alpha virt. eigenvalues --    3.38221   3.38985   3.40926   3.41021   3.41337
 Alpha virt. eigenvalues --    3.42677   3.43398   3.44270   3.45971   3.47381
 Alpha virt. eigenvalues --    3.47876   3.49351   3.51125   3.52243   3.52280
 Alpha virt. eigenvalues --    3.52741   3.53206   3.55665   3.56709   3.57269
 Alpha virt. eigenvalues --    3.58682   3.60495   3.61841   3.63899   3.66510
 Alpha virt. eigenvalues --    3.68118   3.70206   3.71390   3.74480   3.75275
 Alpha virt. eigenvalues --    3.76034   3.76835   3.78842   3.81229   3.82193
 Alpha virt. eigenvalues --    3.85934   3.87209   3.89287   3.90843   3.92538
 Alpha virt. eigenvalues --    3.93572   3.93722   3.98057   3.98188   3.98717
 Alpha virt. eigenvalues --    4.00306   4.04050   4.06134   4.07121   4.08781
 Alpha virt. eigenvalues --    4.12294   4.13813   4.15212   4.17383   4.18369
 Alpha virt. eigenvalues --    4.18907   4.20526   4.21317   4.23030   4.24189
 Alpha virt. eigenvalues --    4.25716   4.26572   4.28166   4.31556   4.34077
 Alpha virt. eigenvalues --    4.34842   4.36601   4.38499   4.40932   4.41883
 Alpha virt. eigenvalues --    4.43957   4.44737   4.46478   4.49972   4.53103
 Alpha virt. eigenvalues --    4.53883   4.55473   4.58518   4.59523   4.62755
 Alpha virt. eigenvalues --    4.64648   4.68558   4.70132   4.75509   4.77998
 Alpha virt. eigenvalues --    4.82063   4.84407   4.90313   4.93867   5.01981
 Alpha virt. eigenvalues --    5.06594   5.10549   5.14738   5.24991   5.30258
 Alpha virt. eigenvalues --    5.33752   5.37130   5.40477   5.42875   5.46004
 Alpha virt. eigenvalues --    5.49191   5.66484   5.73786   5.84608   5.89071
 Alpha virt. eigenvalues --    5.92817   6.09093   6.13838   6.18885   6.20829
 Alpha virt. eigenvalues --    6.27439   6.67582   6.73645   6.78436   6.78784
 Alpha virt. eigenvalues --    6.92320   7.00409   7.21960   7.25462   7.33171
 Alpha virt. eigenvalues --    7.36337   7.85715  22.13651  22.41896  22.46259
 Alpha virt. eigenvalues --   22.55944  22.60116  22.68807  22.75766  22.84999
 Alpha virt. eigenvalues --   22.87400  22.96306  23.28915  44.39701  44.49192
          Condensed to atoms (all electrons):
               1          2          3          4          5          6
     1  C    5.179573   0.253930  -0.044648  -0.006439  -0.008361   0.008624
     2  C    0.253930   4.930805   0.222168  -0.044739   0.014264  -0.003701
     3  O   -0.044648   0.222168   8.137067   0.240275  -0.049346  -0.010300
     4  C   -0.006439  -0.044739   0.240275   4.759811   0.246767  -0.046750
     5  O   -0.008361   0.014264  -0.049346   0.246767   8.185703   0.160759
     6  C    0.008624  -0.003701  -0.010300  -0.046750   0.160759   5.043113
     7  C   -0.002529   0.001099   0.001242   0.000985  -0.030871   0.266432
     8  C   -0.001000   0.003619  -0.118845   0.375351  -0.122336   0.009103
     9  C    0.000029   0.000293   0.031236  -0.059219   0.006079   0.001354
    10  C    0.000050  -0.000020  -0.000644   0.006423  -0.000353   0.000255
    11  C   -0.000002   0.000013   0.000737  -0.000966   0.000189   0.000026
    12  C   -0.000004  -0.000036  -0.000581   0.002999   0.003768  -0.001399
    13  Br   0.000000  -0.000001   0.000007  -0.001540   0.000019   0.000005
    14  C    0.000306  -0.002051   0.014364  -0.086961   0.041815  -0.007534
    15  H    0.408842  -0.043057  -0.001202   0.005167   0.008855  -0.004102
    16  H    0.399858  -0.037001   0.002360  -0.000441  -0.000984  -0.001725
    17  H    0.396061  -0.033411   0.004723   0.000537   0.000725  -0.000205
    18  H   -0.081253   0.447819  -0.043179  -0.006149  -0.002810  -0.000184
    19  H   -0.038797   0.408773  -0.037822   0.007181  -0.000353  -0.000092
    20  H   -0.006461  -0.010057  -0.052318   0.445061  -0.059371   0.005916
    21  H   -0.000773   0.000508  -0.000244  -0.006444  -0.045691   0.416193
    22  H   -0.002083  -0.003441   0.011494  -0.000267  -0.043312   0.428193
    23  H    0.000063  -0.000058   0.000071   0.000155   0.005312  -0.047635
    24  H   -0.001522   0.000297   0.000015  -0.000126  -0.002573  -0.033989
    25  H    0.000186  -0.000091   0.000006  -0.000183   0.000774  -0.034549
    26  H    0.000247  -0.001067   0.022584  -0.011918   0.000632   0.000239
    27  H   -0.000000  -0.000002  -0.000113  -0.000183   0.000007   0.000007
    28  H   -0.000000   0.000000   0.000001   0.000193  -0.000001   0.000001
    29  H    0.000018  -0.000163   0.000656   0.001579   0.017281  -0.003382
               7          8          9         10         11         12
     1  C   -0.002529  -0.001000   0.000029   0.000050  -0.000002  -0.000004
     2  C    0.001099   0.003619   0.000293  -0.000020   0.000013  -0.000036
     3  O    0.001242  -0.118845   0.031236  -0.000644   0.000737  -0.000581
     4  C    0.000985   0.375351  -0.059219   0.006423  -0.000966   0.002999
     5  O   -0.030871  -0.122336   0.006079  -0.000353   0.000189   0.003768
     6  C    0.266432   0.009103   0.001354   0.000255   0.000026  -0.001399
     7  C    5.023883   0.000095   0.000455  -0.000040   0.000003  -0.000089
     8  C    0.000095   5.399397   0.342710  -0.001226  -0.103471   0.022590
     9  C    0.000455   0.342710   5.137484   0.429996   0.009723  -0.072188
    10  C   -0.000040  -0.001226   0.429996   5.017067   0.410506   0.011918
    11  C    0.000003  -0.103471   0.009723   0.410506   5.114596   0.410419
    12  C   -0.000089   0.022590  -0.072188   0.011918   0.410419   4.932874
    13  Br  -0.000028   0.021140  -0.001767   0.019743  -0.095036   0.369903
    14  C   -0.000746   0.239620  -0.029743  -0.095349   0.032306   0.322690
    15  H   -0.000565   0.001429  -0.000259  -0.000004   0.000001   0.000002
    16  H    0.000226  -0.000387   0.000113  -0.000006   0.000001  -0.000002
    17  H   -0.000011   0.000115  -0.000018   0.000000  -0.000000   0.000000
    18  H    0.000045  -0.003588   0.001387  -0.000087   0.000020  -0.000016
    19  H   -0.000018   0.002531  -0.001002  -0.000087  -0.000004   0.000005
    20  H   -0.000181  -0.046811   0.018715  -0.002255   0.000798  -0.001348
    21  H   -0.036259   0.022372   0.000058   0.000638   0.000167  -0.002767
    22  H   -0.044514  -0.011486  -0.000507  -0.000279   0.000045   0.000084
    23  H    0.418403  -0.000057  -0.000030   0.000000  -0.000001   0.000013
    24  H    0.412464   0.000106   0.000018  -0.000000   0.000001  -0.000008
    25  H    0.407562  -0.000625  -0.000040   0.000001  -0.000002   0.000026
    26  H    0.000021  -0.038690   0.411338  -0.032869   0.005088  -0.001061
    27  H   -0.000000   0.006181  -0.032025   0.412478  -0.033036   0.003220
    28  H    0.000000  -0.001503   0.003913  -0.033725   0.417495  -0.046648
    29  H   -0.000414  -0.046912   0.006280  -0.003590   0.011445  -0.038788
              13         14         15         16         17         18
     1  C    0.000000   0.000306   0.408842   0.399858   0.396061  -0.081253
     2  C   -0.000001  -0.002051  -0.043057  -0.037001  -0.033411   0.447819
     3  O    0.000007   0.014364  -0.001202   0.002360   0.004723  -0.043179
     4  C   -0.001540  -0.086961   0.005167  -0.000441   0.000537  -0.006149
     5  O    0.000019   0.041815   0.008855  -0.000984   0.000725  -0.002810
     6  C    0.000005  -0.007534  -0.004102  -0.001725  -0.000205  -0.000184
     7  C   -0.000028  -0.000746  -0.000565   0.000226  -0.000011   0.000045
     8  C    0.021140   0.239620   0.001429  -0.000387   0.000115  -0.003588
     9  C   -0.001767  -0.029743  -0.000259   0.000113  -0.000018   0.001387
    10  C    0.019743  -0.095349  -0.000004  -0.000006   0.000000  -0.000087
    11  C   -0.095036   0.032306   0.000001   0.000001  -0.000000   0.000020
    12  C    0.369903   0.322690   0.000002  -0.000002   0.000000  -0.000016
    13  Br  34.929307  -0.112416  -0.000000   0.000000  -0.000000  -0.000000
    14  C   -0.112416   5.535287   0.000071  -0.000010  -0.000010  -0.000439
    15  H   -0.000000   0.000071   0.511692  -0.029539  -0.019855  -0.004032
    16  H    0.000000  -0.000010  -0.029539   0.530309  -0.016759   0.008223
    17  H   -0.000000  -0.000010  -0.019855  -0.016759   0.518187   0.001256
    18  H   -0.000000  -0.000439  -0.004032   0.008223   0.001256   0.565323
    19  H    0.000000   0.000097   0.006250  -0.005918  -0.003587  -0.028122
    20  H    0.000016  -0.018035  -0.001115   0.000328   0.000118   0.011256
    21  H    0.000166  -0.016636   0.000564   0.000185   0.000023   0.000059
    22  H    0.000004   0.005160  -0.002392  -0.000101   0.000094   0.000331
    23  H    0.000000   0.000188   0.000144   0.000011   0.000006   0.000002
    24  H    0.000000  -0.000128   0.000939   0.000269   0.000058   0.000015
    25  H    0.000029   0.000257  -0.000177  -0.000026  -0.000004  -0.000006
    26  H    0.000045   0.007788  -0.000031   0.000019  -0.000014   0.000135
    27  H   -0.000309   0.000125   0.000000  -0.000000   0.000000  -0.000002
    28  H   -0.006507   0.014024   0.000000   0.000000   0.000000   0.000000
    29  H   -0.006008   0.415811   0.000019  -0.000000  -0.000001  -0.000013
              19         20         21         22         23         24
     1  C   -0.038797  -0.006461  -0.000773  -0.002083   0.000063  -0.001522
     2  C    0.408773  -0.010057   0.000508  -0.003441  -0.000058   0.000297
     3  O   -0.037822  -0.052318  -0.000244   0.011494   0.000071   0.000015
     4  C    0.007181   0.445061  -0.006444  -0.000267   0.000155  -0.000126
     5  O   -0.000353  -0.059371  -0.045691  -0.043312   0.005312  -0.002573
     6  C   -0.000092   0.005916   0.416193   0.428193  -0.047635  -0.033989
     7  C   -0.000018  -0.000181  -0.036259  -0.044514   0.418403   0.412464
     8  C    0.002531  -0.046811   0.022372  -0.011486  -0.000057   0.000106
     9  C   -0.001002   0.018715   0.000058  -0.000507  -0.000030   0.000018
    10  C   -0.000087  -0.002255   0.000638  -0.000279   0.000000  -0.000000
    11  C   -0.000004   0.000798   0.000167   0.000045  -0.000001   0.000001
    12  C    0.000005  -0.001348  -0.002767   0.000084   0.000013  -0.000008
    13  Br   0.000000   0.000016   0.000166   0.000004   0.000000   0.000000
    14  C    0.000097  -0.018035  -0.016636   0.005160   0.000188  -0.000128
    15  H    0.006250  -0.001115   0.000564  -0.002392   0.000144   0.000939
    16  H   -0.005918   0.000328   0.000185  -0.000101   0.000011   0.000269
    17  H   -0.003587   0.000118   0.000023   0.000094   0.000006   0.000058
    18  H   -0.028122   0.011256   0.000059   0.000331   0.000002   0.000015
    19  H    0.548196   0.000352  -0.000005  -0.000052   0.000001  -0.000003
    20  H    0.000352   0.567036   0.000146   0.000808   0.000021   0.000045
    21  H   -0.000005   0.000146   0.564710  -0.044425  -0.002603   0.007580
    22  H   -0.000052   0.000808  -0.044425   0.551230  -0.001158  -0.008332
    23  H    0.000001   0.000021  -0.002603  -0.001158   0.530224  -0.025412
    24  H   -0.000003   0.000045   0.007580  -0.008332  -0.025412   0.534548
    25  H    0.000000  -0.000070  -0.009551   0.008042  -0.023171  -0.029850
    26  H   -0.000697   0.001292  -0.000069   0.000126  -0.000002  -0.000000
    27  H    0.000003  -0.000007  -0.000010   0.000001  -0.000000  -0.000000
    28  H   -0.000000   0.000001   0.000008  -0.000001  -0.000000   0.000000
    29  H    0.000003  -0.000235  -0.002888   0.000868   0.000038  -0.000065
              25         26         27         28         29
     1  C    0.000186   0.000247  -0.000000  -0.000000   0.000018
     2  C   -0.000091  -0.001067  -0.000002   0.000000  -0.000163
     3  O    0.000006   0.022584  -0.000113   0.000001   0.000656
     4  C   -0.000183  -0.011918  -0.000183   0.000193   0.001579
     5  O    0.000774   0.000632   0.000007  -0.000001   0.017281
     6  C   -0.034549   0.000239   0.000007   0.000001  -0.003382
     7  C    0.407562   0.000021  -0.000000   0.000000  -0.000414
     8  C   -0.000625  -0.038690   0.006181  -0.001503  -0.046912
     9  C   -0.000040   0.411338  -0.032025   0.003913   0.006280
    10  C    0.000001  -0.032869   0.412478  -0.033725  -0.003590
    11  C   -0.000002   0.005088  -0.033036   0.417495   0.011445
    12  C    0.000026  -0.001061   0.003220  -0.046648  -0.038788
    13  Br   0.000029   0.000045  -0.000309  -0.006507  -0.006008
    14  C    0.000257   0.007788   0.000125   0.014024   0.415811
    15  H   -0.000177  -0.000031   0.000000   0.000000   0.000019
    16  H   -0.000026   0.000019  -0.000000   0.000000  -0.000000
    17  H   -0.000004  -0.000014   0.000000   0.000000  -0.000001
    18  H   -0.000006   0.000135  -0.000002   0.000000  -0.000013
    19  H    0.000000  -0.000697   0.000003  -0.000000   0.000003
    20  H   -0.000070   0.001292  -0.000007   0.000001  -0.000235
    21  H   -0.009551  -0.000069  -0.000010   0.000008  -0.002888
    22  H    0.008042   0.000126   0.000001  -0.000001   0.000868
    23  H   -0.023171  -0.000002  -0.000000  -0.000000   0.000038
    24  H   -0.029850  -0.000000  -0.000000   0.000000  -0.000065
    25  H    0.532579   0.000000   0.000000  -0.000000   0.001013
    26  H    0.000000   0.465065  -0.003127  -0.000154  -0.000139
    27  H    0.000000  -0.003127   0.483679  -0.002910   0.000054
    28  H   -0.000000  -0.000154  -0.002910   0.477298   0.000026
    29  H    0.001013  -0.000139   0.000054   0.000026   0.443847
 Mulliken charges:
               1
     1  C   -0.453915
     2  C   -0.104691
     3  O   -0.329763
     4  C    0.179841
     5  O   -0.326585
     6  C   -0.144671
     7  C   -0.416650
     8  C    0.050577
     9  C   -0.204384
    10  C   -0.138542
    11  C   -0.181059
    12  C    0.084426
    13  Br  -0.116771
    14  C   -0.259854
    15  H    0.162355
    16  H    0.150996
    17  H    0.151971
    18  H    0.134009
    19  H    0.143167
    20  H    0.146356
    21  H    0.154987
    22  H    0.155870
    23  H    0.145475
    24  H    0.145651
    25  H    0.147869
    26  H    0.175220
    27  H    0.165970
    28  H    0.178488
    29  H    0.203659
 Sum of Mulliken charges =  -0.00000
 Mulliken charges with hydrogens summed into heavy atoms:
               1
     1  C    0.011406
     2  C    0.172484
     3  O   -0.329763
     4  C    0.326198
     5  O   -0.326585
     6  C    0.166186
     7  C    0.022344
     8  C    0.050577
     9  C   -0.029164
    10  C    0.027429
    11  C   -0.002571
    12  C    0.084426
    13  Br  -0.116771
    14  C   -0.056195
 Electronic spatial extent (au):  <R**2>=           5065.0209
 Charge=              0.0000 electrons
 Dipole moment (field-independent basis, Debye):
    X=              2.4908    Y=             -1.2652    Z=              0.4416  Tot=              2.8284
 Quadrupole moment (field-independent basis, Debye-Ang):
   XX=            -92.9306   YY=            -92.9637   ZZ=            -96.7274
   XY=              0.7220   XZ=             -3.2922   YZ=              0.0524
 Traceless Quadrupole moment (field-independent basis, Debye-Ang):
   XX=              1.2766   YY=              1.2436   ZZ=             -2.5202
   XY=              0.7220   XZ=             -3.2922   YZ=              0.0524
 Octapole moment (field-independent basis, Debye-Ang**2):
  XXX=            -35.4165  YYY=             11.2687  ZZZ=            -14.4497  XYY=            -33.0397
  XXY=             -9.7201  XXZ=             -6.5203  XZZ=            -22.1584  YZZ=              7.1919
  YYZ=              9.9326  XYZ=             14.7401
 Hexadecapole moment (field-independent basis, Debye-Ang**3):
 XXXX=          -4220.3669 YYYY=          -1292.1800 ZZZZ=           -356.7681 XXXY=           -132.0752
 XXXZ=            -23.3141 YYYX=            -75.5855 YYYZ=            -42.0382 ZZZX=             28.9011
 ZZZY=              1.6986 XXYY=           -925.6766 XXZZ=           -788.2229 YYZZ=           -271.6358
 XXYZ=             -0.0490 YYXZ=              4.4869 ZZXY=            -24.6886
 N-N= 1.199021134971D+03 E-N=-9.898415087447D+03  KE= 3.146383266083D+03
 Calculating spin-rotation constants.
 Leave Link  601 at Tue Sep 17 11:51:45 2024, MaxMem=  1342177280 cpu:              10.8 elap:              11.0
 (Enter /groups/ReismanLab/Software/Gaussian16_RevC/Linux_Binary_AVX2-enabled-CPU/g16/l9999.exe)
 Unable to Open any file for archive entry.
 1\1\GINC-HPC-19-36\SP\RM062X\def2TZVP\C11H15Br1O2\MANTIND\17-Sep-2024\
 0\\#p M062X/def2tzvp geom=check guess=read scf(xqc,tight) integral(gri
 d=ultrafine) scrf(SMD, solvent=1,4-Dioxane) nmr=giao\\spe\\0,1\C,0,4.7
 377951006,1.9615247165,-0.1809945553\C,0,3.6881657631,2.2178480702,0.8
 937372016\O,0,2.3430817566,2.0744092174,0.4301279045\C,0,1.8621364004,
 0.7584883604,0.3675168542\O,0,2.3518880313,0.0312747715,-0.7428166785\
 C,0,2.0268437469,0.5889582977,-2.0234460082\C,0,2.7118057708,-0.260803
 3055,-3.0763066385\C,0,0.3409090502,0.796497511,0.4060588909\C,0,-0.36
 00974171,1.9377288451,0.7979940251\C,0,-1.7543790208,1.9158930691,0.85
 45964918\C,0,-2.461994335,0.7610728687,0.5254323387\C,0,-1.746677384,-
 0.3704824001,0.1380851804\Br,0,-2.7004936676,-1.9638936155,-0.32381394
 71\C,0,-0.3586255616,-0.3689597359,0.0747298845\H,0,4.7012437505,0.925
 3507041,-0.5217078103\H,0,4.5702151519,2.6169588968,-1.0408274838\H,0,
 5.7370998509,2.1687405708,0.2167592642\H,0,3.8487089583,1.551718336,1.
 7546237093\H,0,3.7551159795,3.2486806431,1.2548679386\H,0,2.2369521711
 ,0.185935647,1.2293948272\H,0,0.9388266566,0.5885338257,-2.1669401827\
 H,0,2.3685486366,1.629019221,-2.0677846307\H,0,2.4813838011,0.11704083
 3,-4.0771293729\H,0,3.7971984104,-0.2452457413,-2.9415048401\H,0,2.374
 3266132,-1.2992012105,-3.0120784221\H,0,0.1932463097,2.8337207114,1.04
 89388256\H,0,-2.2980447576,2.805987889,1.1559795827\H,0,-3.544407889,0
 .7349572931,0.5661913705\H,0,0.1822799886,-1.2532678308,-0.2402495686\
 \Version=ES64L-G16RevC.02\State=1-A\HF=-3152.8117147\RMSD=3.475e-09\Di
 pole=0.6875655,0.8554495,0.1836568\Quadrupole=2.3511734,-1.7707615,-0.
 580412,-0.6924998,0.5558169,1.9040001\PG=C01 [X(C11H15Br1O2)]\\@
 The archive entry for this job was punched.


 LIFE IS SO UNCERTAIN - EAT DESSERT FIRST.
 Job cpu time:       0 days  0 hours 30 minutes 47.5 seconds.
 Elapsed time:       0 days  0 hours 30 minutes 53.8 seconds.
 File lengths (MBytes):  RWF=    360 Int=      0 D2E=      0 Chk=     40 Scr=     16
 Normal termination of Gaussian 16 at Tue Sep 17 11:51:46 2024.
