 Entering Gaussian System, Link 0=g16
 Input=smiles_00078_conf_0.gjf
 Output=smiles_00078_conf_0.log
 Initial command:
 /groups/ReismanLab/Software/Gaussian16_RevC/Linux_Binary_AVX2-enabled-CPU/g16/l1.exe "/central/groups/ReismanLab/DM/dft_final/smiles_00078/Gau-1169080.inp" -scrdir="/central/groups/ReismanLab/DM/dft_final/smiles_00078/"
 Entering Link 1 = /groups/ReismanLab/Software/Gaussian16_RevC/Linux_Binary_AVX2-enabled-CPU/g16/l1.exe PID=   1169081.
  
 Copyright (c) 1988-2021, Gaussian, Inc.  All Rights Reserved.
  
 This is part of the Gaussian(R) 16 program.  It is based on
 the Gaussian(R) 09 system (copyright 2009, Gaussian, Inc.),
 the Gaussian(R) 03 system (copyright 2003, Gaussian, Inc.),
 the Gaussian(R) 98 system (copyright 1998, Gaussian, Inc.),
 the Gaussian(R) 94 system (copyright 1995, Gaussian, Inc.),
 the Gaussian 92(TM) system (copyright 1992, Gaussian, Inc.),
 the Gaussian 90(TM) system (copyright 1990, Gaussian, Inc.),
 the Gaussian 88(TM) system (copyright 1988, Gaussian, Inc.),
 the Gaussian 86(TM) system (copyright 1986, Carnegie Mellon
 University), and the Gaussian 82(TM) system (copyright 1983,
 Carnegie Mellon University). Gaussian is a federally registered
 trademark of Gaussian, Inc.
  
 This software contains proprietary and confidential information,
 including trade secrets, belonging to Gaussian, Inc.
  
 This software is provided under written license and may be
 used, copied, transmitted, or stored only in accord with that
 written license.
  
 The following legend is applicable only to US Government
 contracts under FAR:
  
                    RESTRICTED RIGHTS LEGEND
  
 Use, reproduction and disclosure by the US Government is
 subject to restrictions as set forth in subparagraphs (a)
 and (c) of the Commercial Computer Software - Restricted
 Rights clause in FAR 52.227-19.
  
 Gaussian, Inc.
 340 Quinnipiac St., Bldg. 40, Wallingford CT 06492
  
  
 ---------------------------------------------------------------
 Warning -- This program may not be used in any manner that
 competes with the business of Gaussian, Inc. or will provide
 assistance to any competitor of Gaussian, Inc.  The licensee
 of this program is prohibited from giving any competitor of
 Gaussian, Inc. access to this program.  By using this program,
 the user acknowledges that Gaussian, Inc. is engaged in the
 business of creating and licensing software in the field of
 computational chemistry and represents and warrants to the
 licensee that it is not a competitor of Gaussian, Inc. and that
 it will not use this program in any manner prohibited above.
 ---------------------------------------------------------------
  

 Cite this work as:
 Gaussian 16, Revision C.02,
 M. J. Frisch, G. W. Trucks, H. B. Schlegel, G. E. Scuseria, 
 M. A. Robb, J. R. Cheeseman, G. Scalmani, V. Barone, 
 G. A. Petersson, H. Nakatsuji, X. Li, M. Caricato, A. V. Marenich, 
 J. Bloino, B. G. Janesko, R. Gomperts, B. Mennucci, H. P. Hratchian, 
 J. V. Ortiz, A. F. Izmaylov, J. L. Sonnenberg, D. Williams-Young, 
 F. Ding, F. Lipparini, F. Egidi, J. Goings, B. Peng, A. Petrone, 
 T. Henderson, D. Ranasinghe, V. G. Zakrzewski, J. Gao, N. Rega, 
 G. Zheng, W. Liang, M. Hada, M. Ehara, K. Toyota, R. Fukuda, 
 J. Hasegawa, M. Ishida, T. Nakajima, Y. Honda, O. Kitao, H. Nakai, 
 T. Vreven, K. Throssell, J. A. Montgomery, Jr., J. E. Peralta, 
 F. Ogliaro, M. J. Bearpark, J. J. Heyd, E. N. Brothers, K. N. Kudin, 
 V. N. Staroverov, T. A. Keith, R. Kobayashi, J. Normand, 
 K. Raghavachari, A. P. Rendell, J. C. Burant, S. S. Iyengar, 
 J. Tomasi, M. Cossi, J. M. Millam, M. Klene, C. Adamo, R. Cammi, 
 J. W. Ochterski, R. L. Martin, K. Morokuma, O. Farkas, 
 J. B. Foresman, and D. J. Fox, Gaussian, Inc., Wallingford CT, 2019.
 
 ******************************************
 Gaussian 16:  ES64L-G16RevC.02  7-Dec-2021
                17-Sep-2024 
 ******************************************
 %nprocshared=8
 Will use up to    8 processors via shared memory.
 %Mem=10GB
 %Chk=smiles_00078_conf_0.chk
 ----------------------------------------------------------------------
 #p B3LYP/6-31G(d,p) EmpiricalDispersion=GD3BJ opt freq scf(xqc,tight) 
 integral(grid=ultrafine)
 ----------------------------------------------------------------------
 1/18=20,19=15,26=4,38=1/1,3;
 2/9=110,12=2,17=6,18=5,40=1/2;
 3/5=1,6=6,7=101,11=2,25=1,30=1,71=1,74=-5,75=-5,124=41/1,2,3;
 4//1;
 5/5=2,8=3,13=1,32=2,38=5/2,8;
 6/7=2,8=2,9=2,10=2,28=1/1;
 7//1,2,3,16;
 1/18=20,19=15,26=4/3(2);
 2/9=110/2;
 99//99;
 2/9=110/2;
 3/5=1,6=6,7=101,11=2,25=1,30=1,71=1,74=-5,75=-5,124=41/1,2,3;
 4/5=5,16=3,69=1/1;
 5/5=2,8=3,13=1,32=2,38=5/2,8;
 7//1,2,3,16;
 1/18=20,19=15,26=4/3(-5);
 2/9=110/2;
 6/7=2,8=2,9=2,10=2,19=2,28=1/1;
 99/9=1/99;
 Leave Link    1 at Tue Sep 17 09:54:57 2024, MaxMem=  1342177280 cpu:               0.1 elap:               0.5
 (Enter /groups/ReismanLab/Software/Gaussian16_RevC/Linux_Binary_AVX2-enabled-CPU/g16/l101.exe)
 ----------------------------------
 opt-freq conformers_unique/conf_aa
 ----------------------------------
 Symbolic Z-matrix:
 Charge =  0 Multiplicity = 1
 O                     1.70035   2.26516   0.32358 
 C                     2.12607   1.15264   0.15889 
 C                     3.53155   0.69158   0.09611 
 C                     4.71074   1.40074   0.19534 
 C                     5.90127   0.68749   0.09534 
 C                     5.90162  -0.68592  -0.09678 
 C                     4.71146  -1.39992  -0.19568 
 C                     3.5319   -0.69147  -0.09561 
 C                     2.12661  -1.15328  -0.15793 
 O                     1.70134  -2.26602  -0.32229 
 N                     1.34821  -0.00049   0.00042 
 C                    -0.06454  -0.00056   0.00009 
 C                    -0.758     1.02027  -0.6417 
 C                    -2.13985   1.02452  -0.63652 
 C                    -2.81947  -0.00012  -0.0003 
 Br                   -4.72206   0.00029  -0.00011 
 C                    -2.14032  -1.02502   0.63601 
 C                    -0.75846  -1.02128   0.64156 
 H                     4.70165   2.46906   0.34422 
 H                     6.84151   1.213     0.16846 
 H                     6.84214  -1.21083  -0.17073 
 H                     4.7028   -2.46825  -0.34457 
 H                    -0.22142   1.81386  -1.13548 
 H                    -2.68338   1.8159   -1.1288 
 H                    -2.68432  -1.81621   1.1281 
 H                    -0.22235  -1.81509   1.13551 
 
 ITRead=  0  0  0  0  0  0  0  0  0  0  0  0  0  0  0  0  0  0  0  0
 ITRead=  0  0  0  0  0  0
 MicOpt= -1 -1 -1 -1 -1 -1 -1 -1 -1 -1 -1 -1 -1 -1 -1 -1 -1 -1 -1 -1
 MicOpt= -1 -1 -1 -1 -1 -1
 NAtoms=     26 NQM=       26 NQMF=       0 NMMI=      0 NMMIF=      0
                NMic=       0 NMicF=      0.
                    Isotopes and Nuclear Properties:
 (Nuclear quadrupole moments (NQMom) in fm**2, nuclear magnetic moments (NMagM)
  in nuclear magnetons)

  Atom         1           2           3           4           5           6           7           8           9          10
 IAtWgt=          16          12          12          12          12          12          12          12          12          16
 AtmWgt=  15.9949146  12.0000000  12.0000000  12.0000000  12.0000000  12.0000000  12.0000000  12.0000000  12.0000000  15.9949146
 NucSpn=           0           0           0           0           0           0           0           0           0           0
 AtZEff=  -0.0000000  -0.0000000  -0.0000000  -0.0000000  -0.0000000  -0.0000000  -0.0000000  -0.0000000  -0.0000000  -0.0000000
 NQMom=    0.0000000   0.0000000   0.0000000   0.0000000   0.0000000   0.0000000   0.0000000   0.0000000   0.0000000   0.0000000
 NMagM=    0.0000000   0.0000000   0.0000000   0.0000000   0.0000000   0.0000000   0.0000000   0.0000000   0.0000000   0.0000000
 AtZNuc=   8.0000000   6.0000000   6.0000000   6.0000000   6.0000000   6.0000000   6.0000000   6.0000000   6.0000000   8.0000000

  Atom        11          12          13          14          15          16          17          18          19          20
 IAtWgt=          14          12          12          12          12          79          12          12           1           1
 AtmWgt=  14.0030740  12.0000000  12.0000000  12.0000000  12.0000000  78.9183361  12.0000000  12.0000000   1.0078250   1.0078250
 NucSpn=           2           0           0           0           0           3           0           0           1           1
 AtZEff=  -0.0000000  -0.0000000  -0.0000000  -0.0000000  -0.0000000  -0.0000000  -0.0000000  -0.0000000  -0.0000000  -0.0000000
 NQMom=    2.0440000   0.0000000   0.0000000   0.0000000   0.0000000  31.3000000   0.0000000   0.0000000   0.0000000   0.0000000
 NMagM=    0.4037610   0.0000000   0.0000000   0.0000000   0.0000000   2.1063990   0.0000000   0.0000000   2.7928460   2.7928460
 AtZNuc=   7.0000000   6.0000000   6.0000000   6.0000000   6.0000000  35.0000000   6.0000000   6.0000000   1.0000000   1.0000000

  Atom        21          22          23          24          25          26
 IAtWgt=           1           1           1           1           1           1
 AtmWgt=   1.0078250   1.0078250   1.0078250   1.0078250   1.0078250   1.0078250
 NucSpn=           1           1           1           1           1           1
 AtZEff=  -0.0000000  -0.0000000  -0.0000000  -0.0000000  -0.0000000  -0.0000000
 NQMom=    0.0000000   0.0000000   0.0000000   0.0000000   0.0000000   0.0000000
 NMagM=    2.7928460   2.7928460   2.7928460   2.7928460   2.7928460   2.7928460
 AtZNuc=   1.0000000   1.0000000   1.0000000   1.0000000   1.0000000   1.0000000
 Leave Link  101 at Tue Sep 17 09:54:57 2024, MaxMem=  1342177280 cpu:               0.2 elap:               0.3
 (Enter /groups/ReismanLab/Software/Gaussian16_RevC/Linux_Binary_AVX2-enabled-CPU/g16/l103.exe)

 GradGradGradGradGradGradGradGradGradGradGradGradGradGradGradGradGradGrad
 Berny optimization.
 Initialization pass.
                           ----------------------------
                           !    Initial Parameters    !
                           ! (Angstroms and Degrees)  !
 --------------------------                            --------------------------
 ! Name  Definition              Value          Derivative Info.                !
 --------------------------------------------------------------------------------
 ! R1    R(1,2)                  1.2025         estimate D2E/DX2                !
 ! R2    R(2,3)                  1.4805         estimate D2E/DX2                !
 ! R3    R(2,11)                 1.4            estimate D2E/DX2                !
 ! R4    R(3,4)                  1.3796         estimate D2E/DX2                !
 ! R5    R(3,8)                  1.3963         estimate D2E/DX2                !
 ! R6    R(4,5)                  1.3914         estimate D2E/DX2                !
 ! R7    R(4,19)                 1.0787         estimate D2E/DX2                !
 ! R8    R(5,6)                  1.3868         estimate D2E/DX2                !
 ! R9    R(5,20)                 1.0796         estimate D2E/DX2                !
 ! R10   R(6,7)                  1.3914         estimate D2E/DX2                !
 ! R11   R(6,21)                 1.0796         estimate D2E/DX2                !
 ! R12   R(7,8)                  1.3796         estimate D2E/DX2                !
 ! R13   R(7,22)                 1.0787         estimate D2E/DX2                !
 ! R14   R(8,9)                  1.4805         estimate D2E/DX2                !
 ! R15   R(9,10)                 1.2025         estimate D2E/DX2                !
 ! R16   R(9,11)                 1.4            estimate D2E/DX2                !
 ! R17   R(11,12)                1.4128         estimate D2E/DX2                !
 ! R18   R(12,13)                1.391          estimate D2E/DX2                !
 ! R19   R(12,18)                1.391          estimate D2E/DX2                !
 ! R20   R(13,14)                1.3819         estimate D2E/DX2                !
 ! R21   R(13,23)                1.0777         estimate D2E/DX2                !
 ! R22   R(14,15)                1.3844         estimate D2E/DX2                !
 ! R23   R(14,24)                1.0789         estimate D2E/DX2                !
 ! R24   R(15,16)                1.9026         estimate D2E/DX2                !
 ! R25   R(15,17)                1.3844         estimate D2E/DX2                !
 ! R26   R(17,18)                1.3819         estimate D2E/DX2                !
 ! R27   R(17,25)                1.0789         estimate D2E/DX2                !
 ! R28   R(18,26)                1.0777         estimate D2E/DX2                !
 ! A1    A(1,2,3)              129.0503         estimate D2E/DX2                !
 ! A2    A(1,2,11)             125.5095         estimate D2E/DX2                !
 ! A3    A(3,2,11)             105.4359         estimate D2E/DX2                !
 ! A4    A(2,3,4)              130.4134         estimate D2E/DX2                !
 ! A5    A(2,3,8)              108.3323         estimate D2E/DX2                !
 ! A6    A(4,3,8)              121.2543         estimate D2E/DX2                !
 ! A7    A(3,4,5)              117.5589         estimate D2E/DX2                !
 ! A8    A(3,4,19)             120.7852         estimate D2E/DX2                !
 ! A9    A(5,4,19)             121.6559         estimate D2E/DX2                !
 ! A10   A(4,5,6)              121.1875         estimate D2E/DX2                !
 ! A11   A(4,5,20)             119.3914         estimate D2E/DX2                !
 ! A12   A(6,5,20)             119.4211         estimate D2E/DX2                !
 ! A13   A(5,6,7)              121.1861         estimate D2E/DX2                !
 ! A14   A(5,6,21)             119.421          estimate D2E/DX2                !
 ! A15   A(7,6,21)             119.3929         estimate D2E/DX2                !
 ! A16   A(6,7,8)              117.5595         estimate D2E/DX2                !
 ! A17   A(6,7,22)             121.6606         estimate D2E/DX2                !
 ! A18   A(8,7,22)             120.7799         estimate D2E/DX2                !
 ! A19   A(3,8,7)              121.2537         estimate D2E/DX2                !
 ! A20   A(3,8,9)              108.3317         estimate D2E/DX2                !
 ! A21   A(7,8,9)              130.4146         estimate D2E/DX2                !
 ! A22   A(8,9,10)             129.055          estimate D2E/DX2                !
 ! A23   A(8,9,11)             105.4347         estimate D2E/DX2                !
 ! A24   A(10,9,11)            125.5059         estimate D2E/DX2                !
 ! A25   A(2,11,9)             112.4654         estimate D2E/DX2                !
 ! A26   A(2,11,12)            123.7587         estimate D2E/DX2                !
 ! A27   A(9,11,12)            123.7759         estimate D2E/DX2                !
 ! A28   A(11,12,13)           119.9077         estimate D2E/DX2                !
 ! A29   A(11,12,18)           119.9203         estimate D2E/DX2                !
 ! A30   A(13,12,18)           120.1719         estimate D2E/DX2                !
 ! A31   A(12,13,14)           119.9378         estimate D2E/DX2                !
 ! A32   A(12,13,23)           120.2365         estimate D2E/DX2                !
 ! A33   A(14,13,23)           119.8232         estimate D2E/DX2                !
 ! A34   A(13,14,15)           119.3639         estimate D2E/DX2                !
 ! A35   A(13,14,24)           120.2863         estimate D2E/DX2                !
 ! A36   A(15,14,24)           120.3488         estimate D2E/DX2                !
 ! A37   A(14,15,16)           119.3931         estimate D2E/DX2                !
 ! A38   A(14,15,17)           121.2208         estimate D2E/DX2                !
 ! A39   A(16,15,17)           119.386          estimate D2E/DX2                !
 ! A40   A(15,17,18)           119.3675         estimate D2E/DX2                !
 ! A41   A(15,17,25)           120.3429         estimate D2E/DX2                !
 ! A42   A(18,17,25)           120.2886         estimate D2E/DX2                !
 ! A43   A(12,18,17)           119.9335         estimate D2E/DX2                !
 ! A44   A(12,18,26)           120.2445         estimate D2E/DX2                !
 ! A45   A(17,18,26)           119.8195         estimate D2E/DX2                !
 ! D1    D(1,2,3,4)             -0.6593         estimate D2E/DX2                !
 ! D2    D(1,2,3,8)            179.3425         estimate D2E/DX2                !
 ! D3    D(11,2,3,4)          -179.9173         estimate D2E/DX2                !
 ! D4    D(11,2,3,8)             0.0846         estimate D2E/DX2                !
 ! D5    D(1,2,11,9)          -179.3118         estimate D2E/DX2                !
 ! D6    D(1,2,11,12)            0.6996         estimate D2E/DX2                !
 ! D7    D(3,2,11,9)            -0.0198         estimate D2E/DX2                !
 ! D8    D(3,2,11,12)          179.9917         estimate D2E/DX2                !
 ! D9    D(2,3,4,5)           -179.9033         estimate D2E/DX2                !
 ! D10   D(2,3,4,19)             0.0505         estimate D2E/DX2                !
 ! D11   D(8,3,4,5)              0.0947         estimate D2E/DX2                !
 ! D12   D(8,3,4,19)          -179.9515         estimate D2E/DX2                !
 ! D13   D(2,3,8,7)            179.8644         estimate D2E/DX2                !
 ! D14   D(2,3,8,9)             -0.1147         estimate D2E/DX2                !
 ! D15   D(4,3,8,7)             -0.134          estimate D2E/DX2                !
 ! D16   D(4,3,8,9)            179.8869         estimate D2E/DX2                !
 ! D17   D(3,4,5,6)             -0.0115         estimate D2E/DX2                !
 ! D18   D(3,4,5,20)           179.9755         estimate D2E/DX2                !
 ! D19   D(19,4,5,6)          -179.9648         estimate D2E/DX2                !
 ! D20   D(19,4,5,20)            0.0221         estimate D2E/DX2                !
 ! D21   D(4,5,6,7)             -0.0362         estimate D2E/DX2                !
 ! D22   D(4,5,6,21)           179.9794         estimate D2E/DX2                !
 ! D23   D(20,5,6,7)           179.9768         estimate D2E/DX2                !
 ! D24   D(20,5,6,21)           -0.0076         estimate D2E/DX2                !
 ! D25   D(5,6,7,8)              0.0005         estimate D2E/DX2                !
 ! D26   D(5,6,7,22)          -179.9662         estimate D2E/DX2                !
 ! D27   D(21,6,7,8)           179.9848         estimate D2E/DX2                !
 ! D28   D(21,6,7,22)            0.0182         estimate D2E/DX2                !
 ! D29   D(6,7,8,3)              0.0828         estimate D2E/DX2                !
 ! D30   D(6,7,8,9)           -179.9433         estimate D2E/DX2                !
 ! D31   D(22,7,8,3)          -179.9503         estimate D2E/DX2                !
 ! D32   D(22,7,8,9)             0.0236         estimate D2E/DX2                !
 ! D33   D(3,8,9,10)           179.3543         estimate D2E/DX2                !
 ! D34   D(3,8,9,11)             0.101          estimate D2E/DX2                !
 ! D35   D(7,8,9,10)            -0.6222         estimate D2E/DX2                !
 ! D36   D(7,8,9,11)          -179.8755         estimate D2E/DX2                !
 ! D37   D(8,9,11,2)            -0.048          estimate D2E/DX2                !
 ! D38   D(8,9,11,12)          179.9406         estimate D2E/DX2                !
 ! D39   D(10,9,11,2)         -179.3356         estimate D2E/DX2                !
 ! D40   D(10,9,11,12)           0.6529         estimate D2E/DX2                !
 ! D41   D(2,11,12,13)          39.9669         estimate D2E/DX2                !
 ! D42   D(2,11,12,18)        -140.0293         estimate D2E/DX2                !
 ! D43   D(9,11,12,13)        -140.0204         estimate D2E/DX2                !
 ! D44   D(9,11,12,18)          39.9835         estimate D2E/DX2                !
 ! D45   D(11,12,13,14)       -179.6677         estimate D2E/DX2                !
 ! D46   D(11,12,13,23)         -0.254          estimate D2E/DX2                !
 ! D47   D(18,12,13,14)          0.3285         estimate D2E/DX2                !
 ! D48   D(18,12,13,23)        179.7421         estimate D2E/DX2                !
 ! D49   D(11,12,18,17)       -179.6946         estimate D2E/DX2                !
 ! D50   D(11,12,18,26)         -0.2704         estimate D2E/DX2                !
 ! D51   D(13,12,18,17)          0.3092         estimate D2E/DX2                !
 ! D52   D(13,12,18,26)        179.7334         estimate D2E/DX2                !
 ! D53   D(12,13,14,15)         -0.6338         estimate D2E/DX2                !
 ! D54   D(12,13,14,24)        179.7279         estimate D2E/DX2                !
 ! D55   D(23,13,14,15)        179.9501         estimate D2E/DX2                !
 ! D56   D(23,13,14,24)          0.3118         estimate D2E/DX2                !
 ! D57   D(13,14,15,16)       -179.6972         estimate D2E/DX2                !
 ! D58   D(13,14,15,17)          0.3126         estimate D2E/DX2                !
 ! D59   D(24,14,15,16)         -0.0591         estimate D2E/DX2                !
 ! D60   D(24,14,15,17)        179.9507         estimate D2E/DX2                !
 ! D61   D(14,15,17,18)          0.3212         estimate D2E/DX2                !
 ! D62   D(14,15,17,25)        179.9573         estimate D2E/DX2                !
 ! D63   D(16,15,17,18)       -179.669          estimate D2E/DX2                !
 ! D64   D(16,15,17,25)         -0.0329         estimate D2E/DX2                !
 ! D65   D(15,17,18,12)         -0.6284         estimate D2E/DX2                !
 ! D66   D(15,17,18,26)        179.945          estimate D2E/DX2                !
 ! D67   D(25,17,18,12)        179.7353         estimate D2E/DX2                !
 ! D68   D(25,17,18,26)          0.3086         estimate D2E/DX2                !
 --------------------------------------------------------------------------------
 Trust Radius=3.00D-01 FncErr=1.00D-07 GrdErr=1.00D-06 EigMax=2.50D+02 EigMin=1.00D-04
 Number of steps in this run=    151 maximum allowed number of steps=    156.
 GradGradGradGradGradGradGradGradGradGradGradGradGradGradGradGradGradGrad

 Leave Link  103 at Tue Sep 17 09:54:57 2024, MaxMem=  1342177280 cpu:               0.1 elap:               0.0
 (Enter /groups/ReismanLab/Software/Gaussian16_RevC/Linux_Binary_AVX2-enabled-CPU/g16/l202.exe)
                          Input orientation:                          
 ---------------------------------------------------------------------
 Center     Atomic      Atomic             Coordinates (Angstroms)
 Number     Number       Type             X           Y           Z
 ---------------------------------------------------------------------
      1          8           0        1.700351    2.265157    0.323579
      2          6           0        2.126069    1.152642    0.158885
      3          6           0        3.531553    0.691580    0.096111
      4          6           0        4.710743    1.400741    0.195340
      5          6           0        5.901266    0.687486    0.095340
      6          6           0        5.901624   -0.685923   -0.096784
      7          6           0        4.711460   -1.399921   -0.195680
      8          6           0        3.531896   -0.691466   -0.095610
      9          6           0        2.126613   -1.153283   -0.157927
     10          8           0        1.701343   -2.266018   -0.322287
     11          7           0        1.348211   -0.000488    0.000415
     12          6           0       -0.064542   -0.000558    0.000094
     13          6           0       -0.758005    1.020267   -0.641698
     14          6           0       -2.139847    1.024516   -0.636524
     15          6           0       -2.819469   -0.000123   -0.000297
     16         35           0       -4.722062    0.000290   -0.000112
     17          6           0       -2.140320   -1.025018    0.636011
     18          6           0       -0.758458   -1.021277    0.641556
     19          1           0        4.701646    2.469064    0.344218
     20          1           0        6.841515    1.213003    0.168460
     21          1           0        6.842144   -1.210831   -0.170731
     22          1           0        4.702804   -2.468252   -0.344572
     23          1           0       -0.221416    1.813865   -1.135479
     24          1           0       -2.683384    1.815902   -1.128800
     25          1           0       -2.684320   -1.816211    1.128101
     26          1           0       -0.222354   -1.815090    1.135509
 ---------------------------------------------------------------------
                    Distance matrix (angstroms):
                    1          2          3          4          5
     1  O    0.000000
     2  C    1.202517   0.000000
     3  C    2.425115   1.480508   0.000000
     4  C    3.134664   2.596810   1.379581   0.000000
     5  C    4.493197   3.804277   2.369717   1.391430   0.000000
     6  C    5.151337   4.207198   2.748084   2.420269   1.386782
     7  C    4.771709   3.650417   2.419029   2.827827   2.420248
     8  C    3.503126   2.332778   1.396272   2.419021   2.748069
     9  C    3.478402   2.327587   2.332791   3.650420   4.207205
    10  O    4.576974   3.478384   3.503157   4.771745   5.151403
    11  N    2.315509   1.399959   2.292400   3.648022   4.605717
    12  C    2.890148   2.480697   3.663355   4.980472   6.006108
    13  C    2.919765   2.996053   4.364940   5.545502   6.708193
    14  C    4.148266   4.341328   5.728209   6.911160   8.081381
    15  C    5.066080   5.080605   6.389306   7.661905   8.748324
    16  Br   6.817756   6.946228   8.283073   9.538201  10.645959
    17  C    5.066915   4.813723   5.950492   7.281179   8.239667
    18  C    4.116734   3.644090   4.651407   5.998120   6.897111
    19  H    3.008284   2.898433   2.142457   1.078685   2.162186
    20  H    5.250014   4.715842   3.351562   2.139195   1.079622
    21  H    6.226144   5.285454   3.827583   3.390750   2.135334
    22  H    5.645025   4.472573   3.398613   3.906491   3.404191
    23  H    2.454731   2.761028   4.106228   5.125226   6.345934
    24  H    4.639867   5.022836   6.433502   7.523219   8.744601
    25  H    6.044019   5.735269   6.781674   8.118238   9.002632
    26  H    4.583061   3.908494   4.632015   5.963299   6.696534
                    6          7          8          9         10
     6  C    0.000000
     7  C    1.391425   0.000000
     8  C    2.369735   1.379599   0.000000
     9  C    3.804323   2.596861   1.480533   0.000000
    10  O    4.493319   3.134798   2.425184   1.202517   0.000000
    11  N    4.605741   3.648056   2.292412   1.399972   2.315484
    12  C    6.006184   4.980636   3.663452   2.480908   2.890430
    13  C    6.896280   5.997607   4.650966   3.644088   4.117048
    14  C    8.239065   7.280979   5.950282   4.813995   5.067652
    15  C    8.748548   7.662408   6.389591   5.081177   5.067119
    16  Br  10.646264   9.538877   8.283445   6.946941   6.819097
    17  C    8.082379   6.912247   5.728924   4.342063   4.149312
    18  C    6.709270   5.546561   4.365699   2.996704   2.920444
    19  H    3.404170   3.906486   3.398634   4.472621   5.645091
    20  H    2.135339   3.390738   3.827573   5.285465   6.226218
    21  H    1.079617   2.139204   3.351586   4.715900   5.250164
    22  H    2.162236   1.078691   2.142423   2.898403   3.008349
    23  H    6.694733   5.961955   4.630913   3.908045   4.582982
    24  H    9.001475   8.117632   6.781156   5.735393   6.044697
    25  H    8.746218   7.524843   6.434583   5.023786   4.641120
    26  H    6.347966   5.127080   4.107625   2.761995   2.455426
                   11         12         13         14         15
    11  N    0.000000
    12  C    1.412752   0.000000
    13  C    2.427013   1.390997   0.000000
    14  C    3.690917   2.400615   1.381859   0.000000
    15  C    4.167680   2.754927   2.387934   1.384397   0.000000
    16  Br   6.070273   4.657520   4.143155   2.849893   1.902593
    17  C    3.691002   2.400576   2.779664   2.412454   1.384392
    18  C    2.427164   1.390993   2.411358   2.779747   2.387991
    19  H    4.178806   5.379034   5.734007   7.060780   7.923557
    20  H    5.628249   7.013893   7.645011   9.019334   9.738314
    21  H    5.628279   7.014004   7.934852   9.267681   9.738667
    22  H    4.178777   5.379209   6.486793   7.688078   7.924315
    23  H    2.654403   2.146221   1.077749   2.133637   3.365868
    24  H    4.563787   3.381163   2.139483   1.078916   2.142425
    25  H    4.563971   3.381159   3.858561   3.388227   2.142364
    26  H    2.654787   2.146299   3.388900   3.857492   3.365883
                   16         17         18         19         20
    16  Br   0.000000
    17  C    2.849789   0.000000
    18  C    4.143126   1.381879   0.000000
    19  H    9.747804   7.688060   6.487190   0.000000
    20  H   11.628216   9.268264   7.935705   2.487492   0.000000
    21  H   11.628706   9.020534   7.646234   4.288185   2.447452
    22  H    9.748869   7.062069   5.735117   4.985130   4.288231
    23  H    4.983365   3.857412   3.388849   5.182213   7.207377
    24  H    2.954081   3.388260   3.858638   7.558774   9.631722
    25  H    2.953800   1.078923   2.139531   8.574996  10.041842
    26  H    4.983233   2.133614   1.077746   6.574641   7.746146
                   21         22         23         24         25
    21  H    0.000000
    22  H    2.487590   0.000000
    23  H    7.744250   6.573431   0.000000
    24  H   10.040652   8.574658   2.461978   0.000000
    25  H    9.633638   7.560657   4.936309   4.276196   0.000000
    26  H    7.209614   5.184057   4.280970   4.936382   2.461977
                   26
    26  H    0.000000
 Stoichiometry    C14H8BrNO2
 Framework group  C1[X(C14H8BrNO2)]
 Deg. of freedom    72
 Full point group                 C1      NOp   1
 Largest Abelian subgroup         C1      NOp   1
 Largest concise Abelian subgroup C1      NOp   1
                         Standard orientation:                         
 ---------------------------------------------------------------------
 Center     Atomic      Atomic             Coordinates (Angstroms)
 Number     Number       Type             X           Y           Z
 ---------------------------------------------------------------------
      1          8           0        1.488244   -2.258986   -0.364129
      2          6           0        1.913952   -1.149597   -0.179530
      3          6           0        3.319432   -0.689721   -0.108513
      4          6           0        4.498628   -1.396979   -0.220439
      5          6           0        5.689145   -0.685619   -0.107681
      6          6           0        5.689492    0.684128    0.109020
      7          6           0        4.499321    1.396228    0.220699
      8          6           0        3.319763    0.689668    0.107958
      9          6           0        1.914477    1.150281    0.178548
     10          8           0        1.489197    2.259889    0.362821
     11          7           0        1.136084    0.000501   -0.000420
     12          6           0       -0.276668    0.000552   -0.000090
     13          6           0       -0.970118   -1.031615    0.623313
     14          6           0       -2.351961   -1.035783    0.618071
     15          6           0       -3.031596    0.000085    0.000309
     16         35           0       -4.934189   -0.000343    0.000127
     17          6           0       -2.352460    1.036223   -0.617537
     18          6           0       -0.970598    1.032595   -0.623156
     19          1           0        4.489541   -2.462463   -0.388435
     20          1           0        6.629399   -1.209733   -0.190211
     21          1           0        6.630008    1.207634    0.192355
     22          1           0        4.490657    2.461719    0.388710
     23          1           0       -0.433519   -1.833927    1.102792
     24          1           0       -2.895487   -1.835868    1.096091
     25          1           0       -2.896470    1.836101   -1.095369
     26          1           0       -0.434504    1.835136   -1.102810
 ---------------------------------------------------------------------
 Rotational constants (GHZ):           1.3474732           0.1245671           0.1156097
 Leave Link  202 at Tue Sep 17 09:54:58 2024, MaxMem=  1342177280 cpu:               0.1 elap:               0.0
 (Enter /groups/ReismanLab/Software/Gaussian16_RevC/Linux_Binary_AVX2-enabled-CPU/g16/l301.exe)
 Standard basis: 6-31G(d,p) (6D, 7F)
 Ernie: Thresh=  0.10000D-02 Tol=  0.10000D-05 Strict=F.
 There are   325 symmetry adapted cartesian basis functions of A   symmetry.
 There are   325 symmetry adapted basis functions of A   symmetry.
   325 basis functions,   615 primitive gaussians,   325 cartesian basis functions
    75 alpha electrons       75 beta electrons
       nuclear repulsion energy      1488.7585923066 Hartrees.
 IExCor=  402 DFT=T Ex+Corr=B3LYP ExCW=0 ScaHFX=  0.200000
 ScaDFX=  0.800000  0.720000  1.000000  0.810000 ScalE2=  1.000000  1.000000
 IRadAn=      5 IRanWt=     -1 IRanGd=            0 ICorTp=0 IEmpDi=141
 NAtoms=   26 NActive=   26 NUniq=   26 SFac= 1.00D+00 NAtFMM=   60 NAOKFM=F Big=F
 Integral buffers will be    131072 words long.
 Raffenetti 2 integral format.
 Two-electron integral symmetry is turned on.
 R6Disp:  Grimme-D3(BJ) Dispersion energy=       -0.0642419098 Hartrees.
 Nuclear repulsion after empirical dispersion term =     1488.6943503968 Hartrees.
 Leave Link  301 at Tue Sep 17 09:54:58 2024, MaxMem=  1342177280 cpu:               0.1 elap:               0.1
 (Enter /groups/ReismanLab/Software/Gaussian16_RevC/Linux_Binary_AVX2-enabled-CPU/g16/l302.exe)
 NPDir=0 NMtPBC=     1 NCelOv=     1 NCel=       1 NClECP=     1 NCelD=      1
         NCelK=      1 NCelE2=     1 NClLst=     1 CellRange=     0.0.
 One-electron integrals computed using PRISM.
 One-electron integral symmetry used in STVInt
 NBasis=   325 RedAO= T EigKep=  3.48D-04  NBF=   325
 NBsUse=   325 1.00D-06 EigRej= -1.00D+00 NBFU=   325
 Precomputing XC quadrature grid using
 IXCGrd= 4 IRadAn=           5 IRanWt=          -1 IRanGd=           0 AccXCQ= 0.00D+00.
 Generated NRdTot=       0 NPtTot=           0 NUsed=           0 NTot=          32
 NSgBfM=   318   318   318   318   318 MxSgAt=    26 MxSgA2=    26.
 Leave Link  302 at Tue Sep 17 09:54:58 2024, MaxMem=  1342177280 cpu:               1.6 elap:               0.3
 (Enter /groups/ReismanLab/Software/Gaussian16_RevC/Linux_Binary_AVX2-enabled-CPU/g16/l303.exe)
 DipDrv:  MaxL=1.
 Leave Link  303 at Tue Sep 17 09:54:58 2024, MaxMem=  1342177280 cpu:               0.1 elap:               0.0
 (Enter /groups/ReismanLab/Software/Gaussian16_RevC/Linux_Binary_AVX2-enabled-CPU/g16/l401.exe)
 ExpMin= 1.43D-01 ExpMax= 5.74D+05 ExpMxC= 5.74D+03 IAcc=3 IRadAn=         5 AccDes= 0.00D+00
 Harris functional with IExCor=  402 and IRadAn=       5 diagonalized for initial guess.
 HarFok:  IExCor=  402 AccDes= 0.00D+00 IRadAn=         5 IDoV= 1 UseB2=F ITyADJ=14
 ICtDFT=  3500011 ScaDFX=  1.000000  1.000000  1.000000  1.000000
 FoFCou: FMM=F IPFlag=           0 FMFlag=      100000 FMFlg1=           0
         NFxFlg=           0 DoJE=T BraDBF=F KetDBF=T FulRan=T
         wScrn=  0.000000 ICntrl=       500 IOpCl=  0 I1Cent=   200000004 NGrid=           0
         NMat0=    1 NMatS0=      1 NMatT0=    0 NMatD0=    1 NMtDS0=    0 NMtDT0=    0
 Petite list used in FoFCou.
 Harris En= -3315.42420229830    
 JPrj=0 DoOrth=F DoCkMO=F.
 Leave Link  401 at Tue Sep 17 09:54:59 2024, MaxMem=  1342177280 cpu:               8.2 elap:               1.1
 (Enter /groups/ReismanLab/Software/Gaussian16_RevC/Linux_Binary_AVX2-enabled-CPU/g16/l502.exe)
 Integral symmetry usage will be decided dynamically.
 Closed shell SCF:
 Using DIIS extrapolation, IDIIS=  1040.
 NGot=  1342177280 LenX=  1341959533 LenY=  1341853467
 Requested convergence on RMS density matrix=1.00D-08 within  32 cycles.
 Requested convergence on MAX density matrix=1.00D-06.
 Requested convergence on             energy=1.00D-06.
 No special actions if energy rises.
 Fock matrices will be formed incrementally for  20 cycles.
 Integral accuracy reduced to 1.0D-05 until final iterations.

 Cycle   1  Pass 0  IDiag  1:
 FoFJK:  IHMeth= 1 ICntrl=       0 DoSepK=F KAlg= 0 I1Cent=           0 FoldK=F
 IRaf= 750000000 NMat=       1 IRICut=       1 DoRegI=T DoRafI=F ISym2E= 0 IDoP0=0 IntGTp=1.
 FoFCou: FMM=F IPFlag=           0 FMFlag=      100000 FMFlg1=           0
         NFxFlg=           0 DoJE=F BraDBF=F KetDBF=F FulRan=T
         wScrn=  0.000000 ICntrl=         0 IOpCl=  0 I1Cent=           0 NGrid=           0
         NMat0=    1 NMatS0=      1 NMatT0=    0 NMatD0=    1 NMtDS0=    0 NMtDT0=    0
 Symmetry not used in FoFCou.
 E= -3314.92864970769    
 DIIS: error= 2.15D-01 at cycle   1 NSaved=   1.
 NSaved= 1 IEnMin= 1 EnMin= -3314.92864970769     IErMin= 1 ErrMin= 2.15D-01
 ErrMax= 2.15D-01  0.00D+00 EMaxC= 1.00D-01 BMatC= 7.80D-01 BMatP= 7.80D-01
 IDIUse=3 WtCom= 0.00D+00 WtEn= 1.00D+00
 Coeff-Com:  0.100D+01
 Coeff-En:   0.100D+01
 Coeff:      0.100D+01
 Gap=     0.155 Goal=   None    Shift=    0.000
 GapD=    0.155 DampG=1.000 DampE=0.250 DampFc=0.2500 IDamp=-1.
 Damping current iteration by 2.50D-01
 RMSDP=5.93D-03 MaxDP=2.99D-01              OVMax= 2.93D-01

 Cycle   2  Pass 0  IDiag  1:
 RMSU=  1.46D-03    CP:  9.92D-01
 E= -3315.06083996901     Delta-E=       -0.132190261318 Rises=F Damp=T
 DIIS: error= 1.59D-01 at cycle   2 NSaved=   2.
 NSaved= 2 IEnMin= 2 EnMin= -3315.06083996901     IErMin= 2 ErrMin= 1.59D-01
 ErrMax= 1.59D-01  0.00D+00 EMaxC= 1.00D-01 BMatC= 2.79D-01 BMatP= 7.80D-01
 IDIUse=3 WtCom= 0.00D+00 WtEn= 1.00D+00
 Coeff-Com: -0.728D+00 0.173D+01
 Coeff-En:   0.000D+00 0.100D+01
 Coeff:      0.000D+00 0.100D+01
 Gap=     0.150 Goal=   None    Shift=    0.000
 RMSDP=2.34D-03 MaxDP=1.11D-01 DE=-1.32D-01 OVMax= 2.16D-01

 Cycle   3  Pass 0  IDiag  1:
 RMSU=  1.55D-03    CP:  9.66D-01  2.07D+00
 E= -3315.25988099239     Delta-E=       -0.199041023385 Rises=F Damp=F
 DIIS: error= 1.41D-02 at cycle   3 NSaved=   3.
 NSaved= 3 IEnMin= 3 EnMin= -3315.25988099239     IErMin= 3 ErrMin= 1.41D-02
 ErrMax= 1.41D-02  0.00D+00 EMaxC= 1.00D-01 BMatC= 6.50D-02 BMatP= 2.79D-01
 IDIUse=3 WtCom= 8.59D-01 WtEn= 1.41D-01
 Coeff-Com:  0.323D+00-0.210D+00 0.888D+00
 Coeff-En:   0.620D-01 0.000D+00 0.938D+00
 Coeff:      0.286D+00-0.181D+00 0.895D+00
 Gap=     0.153 Goal=   None    Shift=    0.000
 RMSDP=1.32D-03 MaxDP=4.18D-02 DE=-1.99D-01 OVMax= 7.12D-02

 Cycle   4  Pass 0  IDiag  1:
 RMSU=  1.06D-03    CP:  9.67D-01  1.59D+00  7.82D-01
 E= -3315.29813668983     Delta-E=       -0.038255697435 Rises=F Damp=F
 DIIS: error= 7.33D-03 at cycle   4 NSaved=   4.
 NSaved= 4 IEnMin= 4 EnMin= -3315.29813668983     IErMin= 4 ErrMin= 7.33D-03
 ErrMax= 7.33D-03  0.00D+00 EMaxC= 1.00D-01 BMatC= 2.24D-02 BMatP= 6.50D-02
 IDIUse=3 WtCom= 9.27D-01 WtEn= 7.33D-02
 Coeff-Com:  0.248D+00-0.303D+00 0.513D+00 0.542D+00
 Coeff-En:   0.000D+00 0.000D+00 0.243D+00 0.757D+00
 Coeff:      0.230D+00-0.281D+00 0.494D+00 0.557D+00
 Gap=     0.150 Goal=   None    Shift=    0.000
 RMSDP=6.40D-04 MaxDP=2.24D-02 DE=-3.83D-02 OVMax= 3.49D-02

 Cycle   5  Pass 0  IDiag  1:
 RMSU=  1.98D-04    CP:  9.67D-01  1.61D+00  9.18D-01  4.63D-01
 E= -3315.32112879421     Delta-E=       -0.022992104381 Rises=F Damp=F
 DIIS: error= 1.01D-03 at cycle   5 NSaved=   5.
 NSaved= 5 IEnMin= 5 EnMin= -3315.32112879421     IErMin= 5 ErrMin= 1.01D-03
 ErrMax= 1.01D-03  0.00D+00 EMaxC= 1.00D-01 BMatC= 6.66D-04 BMatP= 2.24D-02
 IDIUse=3 WtCom= 9.90D-01 WtEn= 1.01D-02
 Coeff-Com:  0.899D-01-0.113D+00 0.196D+00 0.262D+00 0.565D+00
 Coeff-En:   0.000D+00 0.000D+00 0.000D+00 0.000D+00 0.100D+01
 Coeff:      0.890D-01-0.112D+00 0.194D+00 0.259D+00 0.570D+00
 Gap=     0.146 Goal=   None    Shift=    0.000
 RMSDP=1.16D-04 MaxDP=4.90D-03 DE=-2.30D-02 OVMax= 6.55D-03

 Cycle   6  Pass 0  IDiag  1:
 RMSU=  5.07D-05    CP:  9.67D-01  1.62D+00  9.17D-01  5.16D-01  5.57D-01
 E= -3315.32175535215     Delta-E=       -0.000626557940 Rises=F Damp=F
 DIIS: error= 2.10D-04 at cycle   6 NSaved=   6.
 NSaved= 6 IEnMin= 6 EnMin= -3315.32175535215     IErMin= 6 ErrMin= 2.10D-04
 ErrMax= 2.10D-04  0.00D+00 EMaxC= 1.00D-01 BMatC= 2.84D-05 BMatP= 6.66D-04
 IDIUse=3 WtCom= 9.98D-01 WtEn= 2.10D-03
 Coeff-Com:  0.285D-01-0.365D-01 0.592D-01 0.848D-01 0.250D+00 0.614D+00
 Coeff-En:   0.000D+00 0.000D+00 0.000D+00 0.000D+00 0.000D+00 0.100D+01
 Coeff:      0.284D-01-0.365D-01 0.590D-01 0.846D-01 0.250D+00 0.615D+00
 Gap=     0.145 Goal=   None    Shift=    0.000
 RMSDP=2.47D-05 MaxDP=1.07D-03 DE=-6.27D-04 OVMax= 1.60D-03

 Cycle   7  Pass 0  IDiag  1:
 RMSU=  1.43D-05    CP:  9.67D-01  1.62D+00  9.18D-01  5.18D-01  6.04D-01
                    CP:  6.53D-01
 E= -3315.32177901788     Delta-E=       -0.000023665736 Rises=F Damp=F
 DIIS: error= 9.77D-05 at cycle   7 NSaved=   7.
 NSaved= 7 IEnMin= 7 EnMin= -3315.32177901788     IErMin= 7 ErrMin= 9.77D-05
 ErrMax= 9.77D-05  0.00D+00 EMaxC= 1.00D-01 BMatC= 4.05D-06 BMatP= 2.84D-05
 IDIUse=1 WtCom= 1.00D+00 WtEn= 0.00D+00
 Coeff-Com:  0.898D-02-0.118D-01 0.168D-01 0.249D-01 0.880D-01 0.333D+00
 Coeff-Com:  0.541D+00
 Coeff:      0.898D-02-0.118D-01 0.168D-01 0.249D-01 0.880D-01 0.333D+00
 Coeff:      0.541D+00
 Gap=     0.145 Goal=   None    Shift=    0.000
 RMSDP=7.46D-06 MaxDP=4.62D-04 DE=-2.37D-05 OVMax= 5.59D-04

 Initial convergence to 1.0D-05 achieved.  Increase integral accuracy.
 Cycle   8  Pass 1  IDiag  1:
 E= -3315.32180722092     Delta-E=       -0.000028203041 Rises=F Damp=F
 DIIS: error= 5.98D-05 at cycle   1 NSaved=   1.
 NSaved= 1 IEnMin= 1 EnMin= -3315.32180722092     IErMin= 1 ErrMin= 5.98D-05
 ErrMax= 5.98D-05  0.00D+00 EMaxC= 1.00D-01 BMatC= 8.68D-07 BMatP= 8.68D-07
 IDIUse=1 WtCom= 1.00D+00 WtEn= 0.00D+00
 Coeff-Com:  0.100D+01
 Coeff:      0.100D+01
 Gap=     0.145 Goal=   None    Shift=    0.000
 RMSDP=7.46D-06 MaxDP=4.62D-04 DE=-2.82D-05 OVMax= 3.07D-04

 Cycle   9  Pass 1  IDiag  1:
 RMSU=  3.55D-05    CP:  1.00D+00
 E= -3315.32180710791     Delta-E=        0.000000113014 Rises=F Damp=F
 DIIS: error= 5.83D-05 at cycle   2 NSaved=   2.
 NSaved= 2 IEnMin= 1 EnMin= -3315.32180722092     IErMin= 2 ErrMin= 5.83D-05
 ErrMax= 5.83D-05  0.00D+00 EMaxC= 1.00D-01 BMatC= 9.26D-07 BMatP= 8.68D-07
 IDIUse=1 WtCom= 1.00D+00 WtEn= 0.00D+00
 Coeff-Com:  0.510D+00 0.490D+00
 Coeff:      0.510D+00 0.490D+00
 Gap=     0.145 Goal=   None    Shift=    0.000
 RMSDP=4.06D-06 MaxDP=2.32D-04 DE= 1.13D-07 OVMax= 3.34D-04

 Cycle  10  Pass 1  IDiag  1:
 RMSU=  4.02D-06    CP:  1.00D+00  9.85D-01
 E= -3315.32180782278     Delta-E=       -0.000000714873 Rises=F Damp=F
 DIIS: error= 3.01D-05 at cycle   3 NSaved=   3.
 NSaved= 3 IEnMin= 3 EnMin= -3315.32180782278     IErMin= 3 ErrMin= 3.01D-05
 ErrMax= 3.01D-05  0.00D+00 EMaxC= 1.00D-01 BMatC= 2.00D-07 BMatP= 8.68D-07
 IDIUse=1 WtCom= 1.00D+00 WtEn= 0.00D+00
 Coeff-Com:  0.482D-01 0.314D+00 0.638D+00
 Coeff:      0.482D-01 0.314D+00 0.638D+00
 Gap=     0.145 Goal=   None    Shift=    0.000
 RMSDP=1.64D-06 MaxDP=7.05D-05 DE=-7.15D-07 OVMax= 1.38D-04

 Cycle  11  Pass 1  IDiag  1:
 RMSU=  8.93D-07    CP:  1.00D+00  9.96D-01  6.73D-01
 E= -3315.32180799605     Delta-E=       -0.000000173263 Rises=F Damp=F
 DIIS: error= 6.41D-06 at cycle   4 NSaved=   4.
 NSaved= 4 IEnMin= 4 EnMin= -3315.32180799605     IErMin= 4 ErrMin= 6.41D-06
 ErrMax= 6.41D-06  0.00D+00 EMaxC= 1.00D-01 BMatC= 2.22D-08 BMatP= 2.00D-07
 IDIUse=1 WtCom= 1.00D+00 WtEn= 0.00D+00
 Coeff-Com:  0.966D-03 0.169D+00 0.399D+00 0.431D+00
 Coeff:      0.966D-03 0.169D+00 0.399D+00 0.431D+00
 Gap=     0.145 Goal=   None    Shift=    0.000
 RMSDP=5.06D-07 MaxDP=2.23D-05 DE=-1.73D-07 OVMax= 3.74D-05

 Cycle  12  Pass 1  IDiag  1:
 RMSU=  1.99D-07    CP:  1.00D+00  9.97D-01  6.97D-01  4.92D-01
 E= -3315.32180801379     Delta-E=       -0.000000017741 Rises=F Damp=F
 DIIS: error= 2.04D-06 at cycle   5 NSaved=   5.
 NSaved= 5 IEnMin= 5 EnMin= -3315.32180801379     IErMin= 5 ErrMin= 2.04D-06
 ErrMax= 2.04D-06  0.00D+00 EMaxC= 1.00D-01 BMatC= 8.60D-10 BMatP= 2.22D-08
 IDIUse=1 WtCom= 1.00D+00 WtEn= 0.00D+00
 Coeff-Com: -0.146D-02 0.875D-01 0.210D+00 0.259D+00 0.445D+00
 Coeff:     -0.146D-02 0.875D-01 0.210D+00 0.259D+00 0.445D+00
 Gap=     0.145 Goal=   None    Shift=    0.000
 RMSDP=1.22D-07 MaxDP=3.83D-06 DE=-1.77D-08 OVMax= 8.57D-06

 Cycle  13  Pass 1  IDiag  1:
 RMSU=  5.92D-08    CP:  1.00D+00  9.97D-01  6.96D-01  4.81D-01  4.68D-01
 E= -3315.32180801454     Delta-E=       -0.000000000757 Rises=F Damp=F
 DIIS: error= 5.05D-07 at cycle   6 NSaved=   6.
 NSaved= 6 IEnMin= 6 EnMin= -3315.32180801454     IErMin= 6 ErrMin= 5.05D-07
 ErrMax= 5.05D-07  0.00D+00 EMaxC= 1.00D-01 BMatC= 7.75D-11 BMatP= 8.60D-10
 IDIUse=1 WtCom= 1.00D+00 WtEn= 0.00D+00
 Coeff-Com: -0.104D-02 0.472D-01 0.114D+00 0.142D+00 0.291D+00 0.407D+00
 Coeff:     -0.104D-02 0.472D-01 0.114D+00 0.142D+00 0.291D+00 0.407D+00
 Gap=     0.145 Goal=   None    Shift=    0.000
 RMSDP=3.31D-08 MaxDP=1.63D-06 DE=-7.57D-10 OVMax= 2.76D-06

 Cycle  14  Pass 1  IDiag  1:
 RMSU=  2.06D-08    CP:  1.00D+00  9.97D-01  6.96D-01  4.86D-01  5.20D-01
                    CP:  6.08D-01
 E= -3315.32180801465     Delta-E=       -0.000000000104 Rises=F Damp=F
 DIIS: error= 1.43D-07 at cycle   7 NSaved=   7.
 NSaved= 7 IEnMin= 7 EnMin= -3315.32180801465     IErMin= 7 ErrMin= 1.43D-07
 ErrMax= 1.43D-07  0.00D+00 EMaxC= 1.00D-01 BMatC= 4.68D-12 BMatP= 7.75D-11
 IDIUse=1 WtCom= 1.00D+00 WtEn= 0.00D+00
 Coeff-Com: -0.447D-03 0.176D-01 0.421D-01 0.534D-01 0.122D+00 0.242D+00
 Coeff-Com:  0.523D+00
 Coeff:     -0.447D-03 0.176D-01 0.421D-01 0.534D-01 0.122D+00 0.242D+00
 Coeff:      0.523D+00
 Gap=     0.145 Goal=   None    Shift=    0.000
 RMSDP=8.06D-09 MaxDP=4.74D-07 DE=-1.04D-10 OVMax= 6.69D-07

 SCF Done:  E(RB3LYP) =  -3315.32180801     A.U. after   14 cycles
            NFock= 14  Conv=0.81D-08     -V/T= 2.0067
 KE= 3.293189589757D+03 PE=-1.084005946019D+04 EE= 2.742853712024D+03
 Leave Link  502 at Tue Sep 17 09:55:21 2024, MaxMem=  1342177280 cpu:             157.6 elap:              21.4
 (Enter /groups/ReismanLab/Software/Gaussian16_RevC/Linux_Binary_AVX2-enabled-CPU/g16/l508.exe)
 QCSCF skips out because SCF is already converged.
 Leave Link  508 at Tue Sep 17 09:55:21 2024, MaxMem=  1342177280 cpu:               0.0 elap:               0.0
 (Enter /groups/ReismanLab/Software/Gaussian16_RevC/Linux_Binary_AVX2-enabled-CPU/g16/l601.exe)
 Copying SCF densities to generalized density rwf, IOpCl= 0 IROHF=0.

 **********************************************************************

            Population analysis using the SCF Density.

 **********************************************************************

 Orbital symmetries:
       Occupied  (A) (A) (A) (A) (A) (A) (A) (A) (A) (A) (A) (A)
                 (A) (A) (A) (A) (A) (A) (A) (A) (A) (A) (A) (A)
                 (A) (A) (A) (A) (A) (A) (A) (A) (A) (A) (A) (A)
                 (A) (A) (A) (A) (A) (A) (A) (A) (A) (A) (A) (A)
                 (A) (A) (A) (A) (A) (A) (A) (A) (A) (A) (A) (A)
                 (A) (A) (A) (A) (A) (A) (A) (A) (A) (A) (A) (A)
                 (A) (A) (A)
       Virtual   (A) (A) (A) (A) (A) (A) (A) (A) (A) (A) (A) (A)
                 (A) (A) (A) (A) (A) (A) (A) (A) (A) (A) (A) (A)
                 (A) (A) (A) (A) (A) (A) (A) (A) (A) (A) (A) (A)
                 (A) (A) (A) (A) (A) (A) (A) (A) (A) (A) (A) (A)
                 (A) (A) (A) (A) (A) (A) (A) (A) (A) (A) (A) (A)
                 (A) (A) (A) (A) (A) (A) (A) (A) (A) (A) (A) (A)
                 (A) (A) (A) (A) (A) (A) (A) (A) (A) (A) (A) (A)
                 (A) (A) (A) (A) (A) (A) (A) (A) (A) (A) (A) (A)
                 (A) (A) (A) (A) (A) (A) (A) (A) (A) (A) (A) (A)
                 (A) (A) (A) (A) (A) (A) (A) (A) (A) (A) (A) (A)
                 (A) (A) (A) (A) (A) (A) (A) (A) (A) (A) (A) (A)
                 (A) (A) (A) (A) (A) (A) (A) (A) (A) (A) (A) (A)
                 (A) (A) (A) (A) (A) (A) (A) (A) (A) (A) (A) (A)
                 (A) (A) (A) (A) (A) (A) (A) (A) (A) (A) (A) (A)
                 (A) (A) (A) (A) (A) (A) (A) (A) (A) (A) (A) (A)
                 (A) (A) (A) (A) (A) (A) (A) (A) (A) (A) (A) (A)
                 (A) (A) (A) (A) (A) (A) (A) (A) (A) (A) (A) (A)
                 (A) (A) (A) (A) (A) (A) (A) (A) (A) (A) (A) (A)
                 (A) (A) (A) (A) (A) (A) (A) (A) (A) (A) (A) (A)
                 (A) (A) (A) (A) (A) (A) (A) (A) (A) (A) (A) (A)
                 (A) (A) (A) (A) (A) (A) (A) (A) (A) (A)
 The electronic state is 1-A.
 Alpha  occ. eigenvalues -- -482.90901 -61.87074 -56.39208 -56.38798 -56.38788
 Alpha  occ. eigenvalues --  -19.15536 -19.15535 -14.39876 -10.31890 -10.31888
 Alpha  occ. eigenvalues --  -10.24580 -10.24298 -10.22369 -10.22346 -10.22307
 Alpha  occ. eigenvalues --  -10.22274 -10.22178 -10.22121 -10.20342 -10.20341
 Alpha  occ. eigenvalues --  -10.20221 -10.20221  -8.58220  -6.53613  -6.52346
 Alpha  occ. eigenvalues --   -6.52317  -2.65187  -2.64825  -2.64803  -2.63792
 Alpha  occ. eigenvalues --   -2.63792  -1.08795  -1.06774  -0.98110  -0.89941
 Alpha  occ. eigenvalues --   -0.87780  -0.82215  -0.78731  -0.78520  -0.76678
 Alpha  occ. eigenvalues --   -0.73055  -0.68458  -0.66744  -0.64056  -0.61168
 Alpha  occ. eigenvalues --   -0.61088  -0.58075  -0.54033  -0.52773  -0.49625
 Alpha  occ. eigenvalues --   -0.49551  -0.48151  -0.47007  -0.46771  -0.46250
 Alpha  occ. eigenvalues --   -0.45246  -0.44674  -0.43894  -0.43499  -0.40929
 Alpha  occ. eigenvalues --   -0.40041  -0.39380  -0.38662  -0.38252  -0.36932
 Alpha  occ. eigenvalues --   -0.36903  -0.32963  -0.29832  -0.29453  -0.28546
 Alpha  occ. eigenvalues --   -0.28542  -0.28235  -0.27500  -0.26529  -0.23301
 Alpha virt. eigenvalues --   -0.08814  -0.05041  -0.01210  -0.01156   0.01094
 Alpha virt. eigenvalues --    0.02508   0.07647   0.08326   0.11436   0.12713
 Alpha virt. eigenvalues --    0.14129   0.14797   0.15198   0.16165   0.16210
 Alpha virt. eigenvalues --    0.16976   0.19069   0.20041   0.21807   0.21989
 Alpha virt. eigenvalues --    0.23851   0.24571   0.25960   0.28131   0.29451
 Alpha virt. eigenvalues --    0.29776   0.30481   0.32139   0.33630   0.33664
 Alpha virt. eigenvalues --    0.36545   0.38129   0.40779   0.44202   0.44370
 Alpha virt. eigenvalues --    0.46563   0.46605   0.47560   0.48382   0.48511
 Alpha virt. eigenvalues --    0.48968   0.49015   0.50627   0.51057   0.51257
 Alpha virt. eigenvalues --    0.53245   0.53850   0.54554   0.55149   0.55360
 Alpha virt. eigenvalues --    0.55540   0.56108   0.57233   0.58077   0.58419
 Alpha virt. eigenvalues --    0.58746   0.59455   0.59461   0.60256   0.61576
 Alpha virt. eigenvalues --    0.62829   0.64278   0.64920   0.67666   0.67940
 Alpha virt. eigenvalues --    0.68598   0.68761   0.71364   0.72402   0.73525
 Alpha virt. eigenvalues --    0.74980   0.75721   0.76845   0.78772   0.79407
 Alpha virt. eigenvalues --    0.79433   0.80025   0.81266   0.82668   0.83909
 Alpha virt. eigenvalues --    0.84842   0.85192   0.86303   0.86998   0.88415
 Alpha virt. eigenvalues --    0.90629   0.91831   0.92183   0.96006   0.96642
 Alpha virt. eigenvalues --    0.97294   0.98806   0.99612   1.01373   1.02111
 Alpha virt. eigenvalues --    1.03999   1.04084   1.07196   1.09063   1.09632
 Alpha virt. eigenvalues --    1.11441   1.12234   1.13524   1.17716   1.18123
 Alpha virt. eigenvalues --    1.22282   1.22300   1.22324   1.23423   1.25751
 Alpha virt. eigenvalues --    1.27921   1.29840   1.30864   1.33438   1.34433
 Alpha virt. eigenvalues --    1.35030   1.37388   1.38265   1.38523   1.39578
 Alpha virt. eigenvalues --    1.39617   1.39850   1.39957   1.41101   1.44582
 Alpha virt. eigenvalues --    1.48287   1.52199   1.54044   1.54187   1.57893
 Alpha virt. eigenvalues --    1.63401   1.65644   1.71497   1.72584   1.72855
 Alpha virt. eigenvalues --    1.74577   1.74688   1.75342   1.77711   1.78072
 Alpha virt. eigenvalues --    1.79805   1.81264   1.83453   1.84182   1.85036
 Alpha virt. eigenvalues --    1.87247   1.87622   1.89163   1.90557   1.92425
 Alpha virt. eigenvalues --    1.93167   1.93390   1.96402   1.96908   1.96987
 Alpha virt. eigenvalues --    1.98180   1.99343   2.00407   2.03114   2.03502
 Alpha virt. eigenvalues --    2.05197   2.07110   2.09479   2.10671   2.10757
 Alpha virt. eigenvalues --    2.14031   2.14036   2.14668   2.21930   2.23902
 Alpha virt. eigenvalues --    2.25832   2.27219   2.28126   2.30732   2.31413
 Alpha virt. eigenvalues --    2.33387   2.36230   2.36904   2.39486   2.39913
 Alpha virt. eigenvalues --    2.40485   2.41844   2.42005   2.43517   2.44912
 Alpha virt. eigenvalues --    2.46309   2.47582   2.48421   2.49803   2.51259
 Alpha virt. eigenvalues --    2.51982   2.52789   2.54478   2.55835   2.55971
 Alpha virt. eigenvalues --    2.59866   2.60716   2.61193   2.65851   2.65976
 Alpha virt. eigenvalues --    2.69254   2.69807   2.70795   2.73469   2.75417
 Alpha virt. eigenvalues --    2.76028   2.76673   2.81458   2.84520   2.85046
 Alpha virt. eigenvalues --    2.88468   2.92031   2.97330   2.97995   3.06742
 Alpha virt. eigenvalues --    3.07275   3.07762   3.16680   3.19797   3.21909
 Alpha virt. eigenvalues --    3.22766   3.24228   3.25962   3.31894   3.35390
 Alpha virt. eigenvalues --    3.37825   3.43082   3.48079   3.52975   3.81563
 Alpha virt. eigenvalues --    3.86471   4.02216   4.08425   4.10436   4.11217
 Alpha virt. eigenvalues --    4.14806   4.16923   4.17180   4.20098   4.30905
 Alpha virt. eigenvalues --    4.39512   4.40771   4.42728   4.46890   4.65726
 Alpha virt. eigenvalues --    4.75695   4.87403   4.95492   8.60899  72.82168
          Condensed to atoms (all electrons):
               1          2          3          4          5          6
     1  O    8.018312   0.604860  -0.079877   0.003364   0.000217  -0.000001
     2  C    0.604860   4.539001   0.245453  -0.075810   0.007804  -0.000437
     3  C   -0.079877   0.245453   5.080334   0.502920  -0.012927  -0.040862
     4  C    0.003364  -0.075810   0.502920   4.991165   0.480332  -0.025769
     5  C    0.000217   0.007804  -0.012927   0.480332   4.840518   0.535444
     6  C   -0.000001  -0.000437  -0.040862  -0.025769   0.535444   4.840506
     7  C   -0.000076   0.012933  -0.054243  -0.060523  -0.025768   0.480347
     8  C    0.003484  -0.002781   0.453460  -0.054254  -0.040860  -0.012934
     9  C   -0.000001  -0.089093  -0.002784   0.012931  -0.000437   0.007802
    10  O   -0.000021  -0.000000   0.003484  -0.000076  -0.000001   0.000217
    11  N   -0.096450   0.196703  -0.102238   0.008322  -0.000156  -0.000156
    12  C    0.004079  -0.013926   0.007009  -0.000098   0.000002   0.000002
    13  C   -0.003495  -0.001713   0.000823   0.000003  -0.000000   0.000000
    14  C   -0.000120  -0.000030  -0.000015  -0.000000   0.000000   0.000000
    15  C    0.000006   0.000012   0.000000  -0.000000   0.000000   0.000000
    16  Br   0.000000   0.000000   0.000000  -0.000000  -0.000000  -0.000000
    17  C   -0.000010  -0.000056   0.000005  -0.000000   0.000000   0.000000
    18  C    0.000026   0.002756  -0.000615   0.000001   0.000000  -0.000000
    19  H    0.004441  -0.005098  -0.034264   0.367100  -0.041654   0.004018
    20  H    0.000001  -0.000158   0.002554  -0.037240   0.372623  -0.038048
    21  H   -0.000000   0.000012   0.001189   0.004256  -0.038047   0.372624
    22  H    0.000001  -0.000213   0.005193   0.000563   0.004017  -0.041652
    23  H    0.008113   0.003589  -0.000156  -0.000004   0.000000  -0.000000
    24  H   -0.000004  -0.000004   0.000000   0.000000  -0.000000   0.000000
    25  H   -0.000000   0.000000  -0.000000   0.000000   0.000000  -0.000000
    26  H    0.000005  -0.000097   0.000025   0.000001  -0.000000   0.000000
               7          8          9         10         11         12
     1  O   -0.000076   0.003484  -0.000001  -0.000021  -0.096450   0.004079
     2  C    0.012933  -0.002781  -0.089093  -0.000000   0.196703  -0.013926
     3  C   -0.054243   0.453460  -0.002784   0.003484  -0.102238   0.007009
     4  C   -0.060523  -0.054254   0.012931  -0.000076   0.008322  -0.000098
     5  C   -0.025768  -0.040860  -0.000437  -0.000001  -0.000156   0.000002
     6  C    0.480347  -0.012934   0.007802   0.000217  -0.000156   0.000002
     7  C    4.991140   0.502929  -0.075806   0.003361   0.008320  -0.000097
     8  C    0.502929   5.080278   0.245489  -0.079857  -0.102243   0.007007
     9  C   -0.075806   0.245489   4.538945   0.604886   0.196710  -0.013938
    10  O    0.003361  -0.079857   0.604886   8.018249  -0.096453   0.004073
    11  N    0.008320  -0.102243   0.196710  -0.096453   7.590019   0.167117
    12  C   -0.000097   0.007007  -0.013938   0.004073   0.167117   4.614686
    13  C    0.000001  -0.000615   0.002759   0.000026  -0.053982   0.534677
    14  C   -0.000000   0.000005  -0.000056  -0.000010   0.005438  -0.015180
    15  C   -0.000000   0.000000   0.000012   0.000006   0.000392  -0.035412
    16  Br  -0.000000   0.000000   0.000000   0.000000   0.000002   0.000272
    17  C   -0.000000  -0.000015  -0.000030  -0.000117   0.005434  -0.015175
    18  C    0.000003   0.000823  -0.001711  -0.003472  -0.054000   0.534703
    19  H    0.000563   0.005192  -0.000213   0.000001   0.000295  -0.000002
    20  H    0.004256   0.001189   0.000012  -0.000000   0.000001  -0.000000
    21  H   -0.037241   0.002554  -0.000158   0.000001   0.000001  -0.000000
    22  H    0.367094  -0.034263  -0.005097   0.004440   0.000295  -0.000002
    23  H    0.000001   0.000025  -0.000097   0.000005  -0.011375  -0.033824
    24  H    0.000000  -0.000000   0.000000  -0.000000  -0.000126   0.003826
    25  H    0.000000   0.000000  -0.000004  -0.000004  -0.000126   0.003825
    26  H   -0.000004  -0.000154   0.003586   0.008112  -0.011368  -0.033814
              13         14         15         16         17         18
     1  O   -0.003495  -0.000120   0.000006   0.000000  -0.000010   0.000026
     2  C   -0.001713  -0.000030   0.000012   0.000000  -0.000056   0.002756
     3  C    0.000823  -0.000015   0.000000   0.000000   0.000005  -0.000615
     4  C    0.000003  -0.000000  -0.000000  -0.000000  -0.000000   0.000001
     5  C   -0.000000   0.000000   0.000000  -0.000000   0.000000   0.000000
     6  C    0.000000   0.000000   0.000000  -0.000000   0.000000  -0.000000
     7  C    0.000001  -0.000000  -0.000000  -0.000000  -0.000000   0.000003
     8  C   -0.000615   0.000005   0.000000   0.000000  -0.000015   0.000823
     9  C    0.002759  -0.000056   0.000012   0.000000  -0.000030  -0.001711
    10  O    0.000026  -0.000010   0.000006   0.000000  -0.000117  -0.003472
    11  N   -0.053982   0.005438   0.000392   0.000002   0.005434  -0.054000
    12  C    0.534677  -0.015180  -0.035412   0.000272  -0.015175   0.534703
    13  C    4.884657   0.498871  -0.032998   0.005850  -0.046384  -0.055329
    14  C    0.498871   4.888565   0.527047  -0.060932  -0.031100  -0.046378
    15  C   -0.032998   0.527047   4.800762   0.259080   0.527063  -0.033003
    16  Br   0.005850  -0.060932   0.259080  34.988904  -0.060940   0.005850
    17  C   -0.046384  -0.031100   0.527063  -0.060940   4.888596   0.498840
    18  C   -0.055329  -0.046378  -0.033003   0.005850   0.498840   4.884664
    19  H    0.000000  -0.000000  -0.000000  -0.000000   0.000000  -0.000000
    20  H   -0.000000  -0.000000  -0.000000  -0.000000  -0.000000   0.000000
    21  H    0.000000  -0.000000  -0.000000  -0.000000  -0.000000  -0.000000
    22  H   -0.000000   0.000000  -0.000000  -0.000000  -0.000000   0.000000
    23  H    0.363498  -0.034588   0.004421  -0.000141   0.000399   0.005636
    24  H   -0.034701   0.370563  -0.042795  -0.003529   0.005284   0.000550
    25  H    0.000550   0.005286  -0.042798  -0.003531   0.370564  -0.034700
    26  H    0.005635   0.000399   0.004421  -0.000141  -0.034602   0.363509
              19         20         21         22         23         24
     1  O    0.004441   0.000001  -0.000000   0.000001   0.008113  -0.000004
     2  C   -0.005098  -0.000158   0.000012  -0.000213   0.003589  -0.000004
     3  C   -0.034264   0.002554   0.001189   0.005193  -0.000156   0.000000
     4  C    0.367100  -0.037240   0.004256   0.000563  -0.000004   0.000000
     5  C   -0.041654   0.372623  -0.038047   0.004017   0.000000  -0.000000
     6  C    0.004018  -0.038048   0.372624  -0.041652  -0.000000   0.000000
     7  C    0.000563   0.004256  -0.037241   0.367094   0.000001   0.000000
     8  C    0.005192   0.001189   0.002554  -0.034263   0.000025  -0.000000
     9  C   -0.000213   0.000012  -0.000158  -0.005097  -0.000097   0.000000
    10  O    0.000001  -0.000000   0.000001   0.004440   0.000005  -0.000000
    11  N    0.000295   0.000001   0.000001   0.000295  -0.011375  -0.000126
    12  C   -0.000002  -0.000000  -0.000000  -0.000002  -0.033824   0.003826
    13  C    0.000000  -0.000000   0.000000  -0.000000   0.363498  -0.034701
    14  C   -0.000000  -0.000000  -0.000000   0.000000  -0.034588   0.370563
    15  C   -0.000000  -0.000000  -0.000000  -0.000000   0.004421  -0.042795
    16  Br  -0.000000  -0.000000  -0.000000  -0.000000  -0.000141  -0.003529
    17  C    0.000000  -0.000000  -0.000000  -0.000000   0.000399   0.005284
    18  C   -0.000000   0.000000  -0.000000   0.000000   0.005636   0.000550
    19  H    0.582731  -0.004624  -0.000164   0.000020  -0.000001   0.000000
    20  H   -0.004624   0.600453  -0.006096  -0.000164  -0.000000   0.000000
    21  H   -0.000164  -0.006096   0.600447  -0.004623   0.000000   0.000000
    22  H    0.000020  -0.000164  -0.004623   0.582733  -0.000000   0.000000
    23  H   -0.000001  -0.000000   0.000000  -0.000000   0.582316  -0.006163
    24  H    0.000000   0.000000   0.000000   0.000000  -0.006163   0.594881
    25  H    0.000000   0.000000   0.000000   0.000000   0.000015  -0.000173
    26  H   -0.000000   0.000000  -0.000000  -0.000001  -0.000168   0.000015
              25         26
     1  O   -0.000000   0.000005
     2  C    0.000000  -0.000097
     3  C   -0.000000   0.000025
     4  C    0.000000   0.000001
     5  C    0.000000  -0.000000
     6  C   -0.000000   0.000000
     7  C    0.000000  -0.000004
     8  C    0.000000  -0.000154
     9  C   -0.000004   0.003586
    10  O   -0.000004   0.008112
    11  N   -0.000126  -0.011368
    12  C    0.003825  -0.033814
    13  C    0.000550   0.005635
    14  C    0.005286   0.000399
    15  C   -0.042798   0.004421
    16  Br  -0.003531  -0.000141
    17  C    0.370564  -0.034602
    18  C   -0.034700   0.363509
    19  H    0.000000  -0.000000
    20  H    0.000000   0.000000
    21  H    0.000000  -0.000000
    22  H    0.000000  -0.000001
    23  H    0.000015  -0.000168
    24  H   -0.000173   0.000015
    25  H    0.594885  -0.006163
    26  H   -0.006163   0.582290
 Mulliken charges:
               1
     1  O   -0.466853
     2  C    0.576295
     3  C    0.025535
     4  C   -0.117184
     5  C   -0.081108
     6  C   -0.081102
     7  C   -0.117188
     8  C    0.025543
     9  C    0.576294
    10  O   -0.466848
    11  N   -0.650377
    12  C    0.280190
    13  C   -0.068131
    14  C   -0.107766
    15  C    0.063785
    16  Br  -0.130743
    17  C   -0.107758
    18  C   -0.068153
    19  H    0.121660
    20  H    0.105241
    21  H    0.105244
    22  H    0.121660
    23  H    0.118500
    24  H    0.112376
    25  H    0.112375
    26  H    0.118514
 Sum of Mulliken charges =  -0.00000
 Mulliken charges with hydrogens summed into heavy atoms:
               1
     1  O   -0.466853
     2  C    0.576295
     3  C    0.025535
     4  C    0.004476
     5  C    0.024133
     6  C    0.024142
     7  C    0.004471
     8  C    0.025543
     9  C    0.576294
    10  O   -0.466848
    11  N   -0.650377
    12  C    0.280190
    13  C    0.050369
    14  C    0.004610
    15  C    0.063785
    16  Br  -0.130743
    17  C    0.004618
    18  C    0.050361
 Electronic spatial extent (au):  <R**2>=           8048.3859
 Charge=             -0.0000 electrons
 Dipole moment (field-independent basis, Debye):
    X=              4.6412    Y=             -0.0009    Z=              0.0016  Tot=              4.6412
 Quadrupole moment (field-independent basis, Debye-Ang):
   XX=            -90.4648   YY=           -116.7482   ZZ=           -113.0962
   XY=             -0.0081   XZ=              0.0065   YZ=             -5.1897
 Traceless Quadrupole moment (field-independent basis, Debye-Ang):
   XX=             16.3049   YY=             -9.9785   ZZ=             -6.3264
   XY=             -0.0081   XZ=              0.0065   YZ=             -5.1897
 Octapole moment (field-independent basis, Debye-Ang**2):
  XXX=             49.9603  YYY=             -0.0324  ZZZ=             -0.0042  XYY=            -48.1072
  XXY=             -0.0236  XXZ=              0.0307  XZZ=            -55.6142  YZZ=              0.0019
  YYZ=              0.0063  XYZ=              8.8479
 Hexadecapole moment (field-independent basis, Debye-Ang**3):
 XXXX=          -7255.7258 YYYY=           -990.0668 ZZZZ=           -199.6379 XXXY=             -0.0431
 XXXZ=              0.2814 YYYX=             -0.0296 YYYZ=            -20.3627 ZZZX=             -0.0356
 ZZZY=              1.7181 XXYY=          -1435.0134 XXZZ=          -1484.3721 YYZZ=           -184.4870
 XXYZ=              9.7220 YYXZ=              0.0108 ZZXY=              0.0405
 N-N= 1.488694350397D+03 E-N=-1.084005945587D+04  KE= 3.293189589757D+03
 No NMR shielding tensors so no spin-rotation constants.
 Leave Link  601 at Tue Sep 17 09:55:21 2024, MaxMem=  1342177280 cpu:               0.8 elap:               0.4
 (Enter /groups/ReismanLab/Software/Gaussian16_RevC/Linux_Binary_AVX2-enabled-CPU/g16/l701.exe)
 ... and contract with generalized density number  0.
 Compute integral first derivatives.
 R6Disp: Adding Grimme-D3(BJ) dispersion energy 1st derivatives to the gradient.
 Leave Link  701 at Tue Sep 17 09:55:21 2024, MaxMem=  1342177280 cpu:               0.7 elap:               0.1
 (Enter /groups/ReismanLab/Software/Gaussian16_RevC/Linux_Binary_AVX2-enabled-CPU/g16/l702.exe)
 L702 exits ... SP integral derivatives will be done elsewhere.
 Leave Link  702 at Tue Sep 17 09:55:21 2024, MaxMem=  1342177280 cpu:               0.1 elap:               0.0
 (Enter /groups/ReismanLab/Software/Gaussian16_RevC/Linux_Binary_AVX2-enabled-CPU/g16/l703.exe)
 Integral derivatives from FoFJK, PRISM(SPDF).
 Compute integral first derivatives, UseDBF=F ICtDFT=           0.
 Calling FoFJK, ICntrl=      2127 FMM=F ISym2X=0 I1Cent= 0 IOpClX= 0 NMat=1 NMatS=1 NMatT=0.
 FoFJK:  IHMeth= 1 ICntrl=    2127 DoSepK=F KAlg= 0 I1Cent=           0 FoldK=F
 IRaf=         0 NMat=       1 IRICut=       1 DoRegI=T DoRafI=F ISym2E= 0 IDoP0=0 IntGTp=1.
 FoFCou: FMM=F IPFlag=           0 FMFlag=      100000 FMFlg1=         800
         NFxFlg=           0 DoJE=F BraDBF=F KetDBF=F FulRan=T
         wScrn=  0.000000 ICntrl=      2127 IOpCl=  0 I1Cent=           0 NGrid=           0
         NMat0=    1 NMatS0=      1 NMatT0=    0 NMatD0=    1 NMtDS0=    0 NMtDT0=    0
 Symmetry not used in FoFCou.
 Leave Link  703 at Tue Sep 17 09:55:28 2024, MaxMem=  1342177280 cpu:              50.3 elap:               6.4
 (Enter /groups/ReismanLab/Software/Gaussian16_RevC/Linux_Binary_AVX2-enabled-CPU/g16/l716.exe)
 Dipole        = 1.82598737D+00-3.53478440D-04 6.24440525D-04
 ***** Axes restored to original set *****
 -------------------------------------------------------------------
 Center     Atomic                   Forces (Hartrees/Bohr)
 Number     Number              X              Y              Z
 -------------------------------------------------------------------
      1        8          -0.004319654    0.018613819    0.001968265
      2        6           0.008425619   -0.005907999    0.000988542
      3        6           0.001636135   -0.004610928   -0.001016730
      4        6          -0.002867898    0.004717077    0.000629941
      5        6           0.004351620    0.005443247    0.000856154
      6        6           0.004350476   -0.005438627   -0.000846763
      7        6          -0.002893087   -0.004721764   -0.000636727
      8        6           0.001638666    0.004602353    0.001014651
      9        6           0.008396001    0.005917244   -0.000988470
     10        8          -0.004308575   -0.018613334   -0.001965060
     11        7          -0.011832124    0.000005616    0.000001127
     12        6           0.000571767   -0.000012255    0.000003203
     13        6           0.003822525    0.003088614   -0.002572701
     14        6          -0.003962356    0.003444270   -0.002071204
     15        6          -0.006323215    0.000003483    0.000008579
     16       35          -0.003236697    0.000002997   -0.000008528
     17        6          -0.003958572   -0.003453865    0.002065345
     18        6           0.003808872   -0.003085613    0.002574584
     19        1          -0.000181108    0.004299830    0.000576473
     20        1           0.003652597    0.001914878    0.000255636
     21        1           0.003654976   -0.001915141   -0.000259978
     22        1          -0.000169310   -0.004296535   -0.000575532
     23        1           0.001680787    0.001916105   -0.001003436
     24        1          -0.001821562    0.002218616   -0.001381821
     25        1          -0.001812939   -0.002217054    0.001383374
     26        1           0.001697055   -0.001915035    0.001001076
 -------------------------------------------------------------------
 Cartesian Forces:  Max     0.018613819 RMS     0.004507356
 Leave Link  716 at Tue Sep 17 09:55:28 2024, MaxMem=  1342177280 cpu:               0.1 elap:               0.0
 (Enter /groups/ReismanLab/Software/Gaussian16_RevC/Linux_Binary_AVX2-enabled-CPU/g16/l103.exe)

 GradGradGradGradGradGradGradGradGradGradGradGradGradGradGradGradGradGrad
 Berny optimization.
 FormGI is forming the generalized inverse of G from B-inverse, IUseBI=4.
 GSVD:  received Info=                   1 from GESDD.
 Internal  Forces:  Max     0.019019485 RMS     0.004189737
 Search for a local minimum.
 Step number   1 out of a maximum of  151
 All quantities printed in internal units (Hartrees-Bohrs-Radians)
 RMS Force = .41897D-02 SwitMx=.10000D-02 MixMth= 1
 Mixed Optimization -- RFO/linear search
 Second derivative matrix not updated -- first step.
 ITU=  0
     Eigenvalues ---    0.01288   0.01332   0.01453   0.01523   0.01654
     Eigenvalues ---    0.01764   0.01852   0.01940   0.02005   0.02221
     Eigenvalues ---    0.02222   0.02237   0.02239   0.02261   0.02272
     Eigenvalues ---    0.02280   0.02291   0.02295   0.02296   0.02303
     Eigenvalues ---    0.02304   0.02313   0.02315   0.15999   0.15999
     Eigenvalues ---    0.16000   0.16000   0.16000   0.16000   0.16000
     Eigenvalues ---    0.16000   0.18125   0.22000   0.22000   0.22610
     Eigenvalues ---    0.22986   0.24000   0.24524   0.24996   0.24996
     Eigenvalues ---    0.25000   0.25000   0.25000   0.25000   0.25000
     Eigenvalues ---    0.32805   0.34163   0.36040   0.36041   0.36125
     Eigenvalues ---    0.36126   0.36153   0.36154   0.36268   0.36268
     Eigenvalues ---    0.39306   0.43365   0.43485   0.43571   0.43666
     Eigenvalues ---    0.44122   0.44655   0.46536   0.47440   0.47464
     Eigenvalues ---    0.47787   0.48324   0.48409   0.48762   0.48918
     Eigenvalues ---    1.03568   1.03568
 RFO step:  Lambda=-4.82715441D-03 EMin= 1.28804077D-02
 Linear search not attempted -- first point.
 Iteration  1 RMS(Cart)=  0.02638194 RMS(Int)=  0.00009833
 Iteration  2 RMS(Cart)=  0.00009659 RMS(Int)=  0.00005830
 Iteration  3 RMS(Cart)=  0.00000002 RMS(Int)=  0.00005830
 ITry= 1 IFail=0 DXMaxC= 1.01D-01 DCOld= 1.00D+10 DXMaxT= 3.00D-01 DXLimC= 3.00D+00 Rises=F
 Variable       Old X    -DE/DX   Delta X   Delta X   Delta X     New X
                                 (Linear)    (Quad)   (Total)
    R1        2.27243   0.01902   0.00000   0.01828   0.01828   2.29071
    R2        2.79775   0.00696   0.00000   0.01898   0.01896   2.81671
    R3        2.64554   0.01490   0.00000   0.03413   0.03419   2.67973
    R4        2.60703   0.00682   0.00000   0.01315   0.01315   2.62018
    R5        2.63857   0.00249   0.00000   0.00199   0.00190   2.64048
    R6        2.62942   0.00898   0.00000   0.01949   0.01950   2.64892
    R7        2.03842   0.00434   0.00000   0.01185   0.01185   2.05026
    R8        2.62064   0.01156   0.00000   0.02505   0.02506   2.64570
    R9        2.04019   0.00413   0.00000   0.01131   0.01131   2.05150
   R10        2.62941   0.00898   0.00000   0.01949   0.01950   2.64891
   R11        2.04018   0.00413   0.00000   0.01132   0.01132   2.05150
   R12        2.60706   0.00681   0.00000   0.01312   0.01312   2.62018
   R13        2.03843   0.00434   0.00000   0.01184   0.01184   2.05027
   R14        2.79780   0.00694   0.00000   0.01893   0.01891   2.81671
   R15        2.27243   0.01902   0.00000   0.01828   0.01828   2.29070
   R16        2.64556   0.01488   0.00000   0.03409   0.03414   2.67971
   R17        2.66972   0.00953   0.00000   0.02164   0.02164   2.69136
   R18        2.62860   0.00794   0.00000   0.01662   0.01663   2.64523
   R19        2.62860   0.00793   0.00000   0.01660   0.01660   2.64520
   R20        2.61133   0.01056   0.00000   0.02145   0.02145   2.63279
   R21        2.03665   0.00271   0.00000   0.00737   0.00737   2.04402
   R22        2.61613   0.00803   0.00000   0.01650   0.01650   2.63263
   R23        2.03886   0.00318   0.00000   0.00867   0.00867   2.04753
   R24        3.59538   0.00324   0.00000   0.01739   0.01739   3.61277
   R25        2.61612   0.00804   0.00000   0.01651   0.01651   2.63263
   R26        2.61137   0.01055   0.00000   0.02143   0.02143   2.63280
   R27        2.03887   0.00317   0.00000   0.00866   0.00866   2.04753
   R28        2.03664   0.00271   0.00000   0.00738   0.00738   2.04403
    A1        2.25235  -0.00352   0.00000  -0.01434  -0.01445   2.23790
    A2        2.19055   0.00235   0.00000   0.00870   0.00859   2.19915
    A3        1.84020   0.00118   0.00000   0.00591   0.00588   1.84609
    A4        2.27614  -0.00306   0.00000  -0.00708  -0.00703   2.26911
    A5        1.89075   0.00174   0.00000   0.00308   0.00303   1.89378
    A6        2.11629   0.00131   0.00000   0.00400   0.00400   2.12029
    A7        2.05179  -0.00011   0.00000  -0.00140  -0.00141   2.05038
    A8        2.10810  -0.00009   0.00000  -0.00020  -0.00019   2.10791
    A9        2.12330   0.00020   0.00000   0.00159   0.00160   2.12489
   A10        2.11512  -0.00121   0.00000  -0.00262  -0.00261   2.11251
   A11        2.08377   0.00072   0.00000   0.00201   0.00200   2.08577
   A12        2.08429   0.00049   0.00000   0.00061   0.00061   2.08490
   A13        2.11510  -0.00121   0.00000  -0.00260  -0.00259   2.11251
   A14        2.08429   0.00049   0.00000   0.00061   0.00061   2.08490
   A15        2.08380   0.00072   0.00000   0.00199   0.00198   2.08578
   A16        2.05180  -0.00011   0.00000  -0.00141  -0.00142   2.05038
   A17        2.12338   0.00019   0.00000   0.00154   0.00154   2.12492
   A18        2.10801  -0.00008   0.00000  -0.00013  -0.00012   2.10788
   A19        2.11628   0.00132   0.00000   0.00402   0.00402   2.12030
   A20        1.89075   0.00175   0.00000   0.00308   0.00303   1.89377
   A21        2.27616  -0.00306   0.00000  -0.00710  -0.00705   2.26911
   A22        2.25243  -0.00353   0.00000  -0.01436  -0.01447   2.23796
   A23        1.84018   0.00120   0.00000   0.00595   0.00592   1.84610
   A24        2.19049   0.00234   0.00000   0.00870   0.00858   2.19908
   A25        1.96289  -0.00587   0.00000  -0.01800  -0.01787   1.94502
   A26        2.16000   0.00298   0.00000   0.00919   0.00913   2.16913
   A27        2.16030   0.00289   0.00000   0.00880   0.00874   2.16904
   A28        2.09278   0.00066   0.00000   0.00275   0.00275   2.09554
   A29        2.09300   0.00058   0.00000   0.00246   0.00246   2.09546
   A30        2.09740  -0.00124   0.00000  -0.00521  -0.00521   2.09219
   A31        2.09331   0.00071   0.00000   0.00283   0.00283   2.09614
   A32        2.09852  -0.00074   0.00000  -0.00380  -0.00380   2.09472
   A33        2.09131   0.00004   0.00000   0.00094   0.00094   2.09225
   A34        2.08329   0.00044   0.00000   0.00186   0.00186   2.08515
   A35        2.09939   0.00004   0.00000   0.00066   0.00066   2.10005
   A36        2.10048  -0.00048   0.00000  -0.00252  -0.00252   2.09797
   A37        2.08380   0.00052   0.00000   0.00206   0.00206   2.08586
   A38        2.11570  -0.00107   0.00000  -0.00421  -0.00421   2.11150
   A39        2.08368   0.00055   0.00000   0.00215   0.00215   2.08583
   A40        2.08336   0.00043   0.00000   0.00182   0.00182   2.08517
   A41        2.10038  -0.00047   0.00000  -0.00244  -0.00244   2.09794
   A42        2.09943   0.00004   0.00000   0.00063   0.00063   2.10006
   A43        2.09323   0.00072   0.00000   0.00289   0.00289   2.09613
   A44        2.09866  -0.00077   0.00000  -0.00393  -0.00394   2.09473
   A45        2.09125   0.00005   0.00000   0.00101   0.00101   2.09226
    D1       -0.01151   0.00038   0.00000   0.01970   0.01950   0.00799
    D2        3.13012   0.00032   0.00000   0.01665   0.01645  -3.13662
    D3       -3.14015  -0.00010   0.00000  -0.00351  -0.00351   3.13953
    D4        0.00148  -0.00016   0.00000  -0.00656  -0.00655  -0.00508
    D5       -3.12958  -0.00035   0.00000  -0.01970  -0.01991   3.13369
    D6        0.01221  -0.00035   0.00000  -0.01985  -0.02006  -0.00785
    D7       -0.00035   0.00006   0.00000   0.00223   0.00221   0.00186
    D8        3.14145   0.00005   0.00000   0.00207   0.00205  -3.13969
    D9       -3.13990  -0.00014   0.00000  -0.00560  -0.00555   3.13773
   D10        0.00088  -0.00008   0.00000  -0.00364  -0.00362  -0.00274
   D11        0.00165  -0.00007   0.00000  -0.00221  -0.00216  -0.00051
   D12       -3.14075  -0.00002   0.00000  -0.00025  -0.00023  -3.14098
   D13        3.13923   0.00015   0.00000   0.00573   0.00568  -3.13828
   D14       -0.00200   0.00020   0.00000   0.00827   0.00825   0.00625
   D15       -0.00234   0.00009   0.00000   0.00301   0.00294   0.00061
   D16        3.13962   0.00014   0.00000   0.00556   0.00551  -3.13806
   D17       -0.00020   0.00002   0.00000   0.00057   0.00056   0.00036
   D18        3.14116   0.00002   0.00000   0.00073   0.00071  -3.14131
   D19       -3.14098  -0.00003   0.00000  -0.00141  -0.00139   3.14082
   D20        0.00039  -0.00003   0.00000  -0.00125  -0.00124  -0.00085
   D21       -0.00063   0.00001   0.00000   0.00036   0.00033  -0.00030
   D22        3.14123   0.00001   0.00000   0.00013   0.00011   3.14135
   D23        3.14119   0.00001   0.00000   0.00020   0.00019   3.14137
   D24       -0.00013   0.00000   0.00000  -0.00004  -0.00003  -0.00017
   D25        0.00001   0.00001   0.00000   0.00036   0.00035   0.00036
   D26       -3.14100  -0.00003   0.00000  -0.00137  -0.00134   3.14084
   D27        3.14133   0.00002   0.00000   0.00059   0.00057  -3.14129
   D28        0.00032  -0.00003   0.00000  -0.00113  -0.00112  -0.00081
   D29        0.00144  -0.00006   0.00000  -0.00200  -0.00195  -0.00051
   D30       -3.14060  -0.00013   0.00000  -0.00517  -0.00513   3.13745
   D31       -3.14072  -0.00002   0.00000  -0.00030  -0.00028  -3.14100
   D32        0.00041  -0.00008   0.00000  -0.00347  -0.00345  -0.00304
   D33        3.13032   0.00033   0.00000   0.01686   0.01665  -3.13622
   D34        0.00176  -0.00016   0.00000  -0.00682  -0.00681  -0.00505
[...]
 Alpha virt. eigenvalues --    1.45240   1.46091   1.46535   1.47746   1.49242
 Alpha virt. eigenvalues --    1.50497   1.51062   1.51929   1.52454   1.54680
 Alpha virt. eigenvalues --    1.54790   1.55045   1.56999   1.57172   1.57836
 Alpha virt. eigenvalues --    1.57879   1.58347   1.59080   1.60193   1.60856
 Alpha virt. eigenvalues --    1.61926   1.62992   1.63574   1.64645   1.65648
 Alpha virt. eigenvalues --    1.66118   1.66257   1.66928   1.67639   1.68490
 Alpha virt. eigenvalues --    1.70173   1.71882   1.72007   1.72836   1.73373
 Alpha virt. eigenvalues --    1.73868   1.74365   1.74725   1.75308   1.75492
 Alpha virt. eigenvalues --    1.77205   1.80140   1.80594   1.82390   1.82907
 Alpha virt. eigenvalues --    1.85344   1.85922   1.86093   1.87256   1.87417
 Alpha virt. eigenvalues --    1.88876   1.91203   1.91876   1.92495   1.92984
 Alpha virt. eigenvalues --    1.94463   1.95437   1.96323   1.97451   1.99452
 Alpha virt. eigenvalues --    2.01488   2.01514   2.03796   2.06666   2.07321
 Alpha virt. eigenvalues --    2.08317   2.09336   2.10953   2.11529   2.13100
 Alpha virt. eigenvalues --    2.13938   2.14444   2.16221   2.17545   2.19253
 Alpha virt. eigenvalues --    2.19478   2.21200   2.22481   2.23214   2.24036
 Alpha virt. eigenvalues --    2.25389   2.26120   2.28672   2.29390   2.30508
 Alpha virt. eigenvalues --    2.34113   2.35577   2.36024   2.39486   2.39833
 Alpha virt. eigenvalues --    2.40460   2.41654   2.44421   2.45319   2.46254
 Alpha virt. eigenvalues --    2.46483   2.48330   2.49056   2.49379   2.51996
 Alpha virt. eigenvalues --    2.52727   2.56975   2.59065   2.59482   2.60530
 Alpha virt. eigenvalues --    2.60971   2.61379   2.61691   2.63370   2.64171
 Alpha virt. eigenvalues --    2.65738   2.66166   2.66311   2.67401   2.67817
 Alpha virt. eigenvalues --    2.68992   2.69897   2.71272   2.71578   2.71992
 Alpha virt. eigenvalues --    2.73149   2.74465   2.74724   2.75411   2.76236
 Alpha virt. eigenvalues --    2.76499   2.77836   2.77935   2.78269   2.79325
 Alpha virt. eigenvalues --    2.80203   2.81619   2.83356   2.84259   2.84260
 Alpha virt. eigenvalues --    2.86149   2.86746   2.87900   2.89341   2.89623
 Alpha virt. eigenvalues --    2.90098   2.90157   2.90980   2.91086   2.91714
 Alpha virt. eigenvalues --    2.94045   2.94612   2.96034   2.97149   2.97848
 Alpha virt. eigenvalues --    3.00274   3.01933   3.02542   3.03265   3.03763
 Alpha virt. eigenvalues --    3.04935   3.05460   3.07701   3.08078   3.10652
 Alpha virt. eigenvalues --    3.11265   3.11456   3.12604   3.13589   3.13871
 Alpha virt. eigenvalues --    3.14365   3.14454   3.15594   3.15911   3.16446
 Alpha virt. eigenvalues --    3.18177   3.18262   3.19518   3.20004   3.20954
 Alpha virt. eigenvalues --    3.21907   3.22160   3.23022   3.23975   3.25536
 Alpha virt. eigenvalues --    3.25605   3.28960   3.29009   3.29293   3.30856
 Alpha virt. eigenvalues --    3.31354   3.31993   3.32000   3.32365   3.33865
 Alpha virt. eigenvalues --    3.34653   3.35932   3.36180   3.37208   3.37389
 Alpha virt. eigenvalues --    3.37878   3.38085   3.38160   3.39424   3.41381
 Alpha virt. eigenvalues --    3.43624   3.43687   3.44692   3.45261   3.45785
 Alpha virt. eigenvalues --    3.46584   3.46945   3.47712   3.49224   3.49904
 Alpha virt. eigenvalues --    3.50185   3.51359   3.52835   3.53288   3.54636
 Alpha virt. eigenvalues --    3.55341   3.55633   3.56205   3.57406   3.58060
 Alpha virt. eigenvalues --    3.61308   3.62124   3.62924   3.64502   3.66838
 Alpha virt. eigenvalues --    3.69937   3.73265   3.75937   3.76029   3.77089
 Alpha virt. eigenvalues --    3.78141   3.80515   3.82487   3.86272   3.87020
 Alpha virt. eigenvalues --    3.89199   3.91358   3.92111   3.94605   3.96469
 Alpha virt. eigenvalues --    3.98311   3.99522   4.00455   4.01527   4.03510
 Alpha virt. eigenvalues --    4.03583   4.05191   4.05797   4.07206   4.08971
 Alpha virt. eigenvalues --    4.11497   4.13336   4.14296   4.14566   4.14968
 Alpha virt. eigenvalues --    4.15308   4.15464   4.17275   4.17781   4.18592
 Alpha virt. eigenvalues --    4.19711   4.19993   4.20592   4.22592   4.22806
 Alpha virt. eigenvalues --    4.25637   4.26815   4.28272   4.29282   4.29868
 Alpha virt. eigenvalues --    4.32358   4.34292   4.38591   4.43612   4.44255
 Alpha virt. eigenvalues --    4.44564   4.48000   4.51382   4.54160   4.57048
 Alpha virt. eigenvalues --    4.57345   4.60992   4.61934   4.62805   4.62814
 Alpha virt. eigenvalues --    4.66510   4.69009   4.71016   4.72795   4.73549
 Alpha virt. eigenvalues --    4.76766   4.78039   4.79095   4.80315   4.85094
 Alpha virt. eigenvalues --    4.89347   4.89393   4.95380   4.97023   4.99295
 Alpha virt. eigenvalues --    5.05112   5.07799   5.07872   5.09901   5.14383
 Alpha virt. eigenvalues --    5.15051   5.17485   5.19783   5.20280   5.23807
 Alpha virt. eigenvalues --    5.24933   5.25325   5.28253   5.31410   5.32547
 Alpha virt. eigenvalues --    5.35439   5.41383   5.42470   5.49084   5.49307
 Alpha virt. eigenvalues --    5.59366   5.62547   5.62912   5.71676   5.74577
 Alpha virt. eigenvalues --    5.81697   5.85126   5.97373   6.08251   6.13421
 Alpha virt. eigenvalues --    6.15961   6.33270   6.37342   6.39147   6.45480
 Alpha virt. eigenvalues --    6.54765   6.56613   6.71588   6.79851   6.81092
 Alpha virt. eigenvalues --    6.90798   7.06816   7.08222   7.10807   7.18845
 Alpha virt. eigenvalues --    7.86163  22.19382  22.32118  22.66598  22.73164
 Alpha virt. eigenvalues --   22.74148  22.76121  22.81900  22.84819  22.91648
 Alpha virt. eigenvalues --   22.99817  23.28041  23.39792  23.62504  23.72756
 Alpha virt. eigenvalues --   33.19010  44.09727  44.16563
          Condensed to atoms (all electrons):
               1          2          3          4          5          6
     1  O    7.817265   0.704796  -0.141391   0.029226   0.001489   0.000056
     2  C    0.704796   4.706722   0.141197  -0.076279   0.008546  -0.002828
     3  C   -0.141391   0.141197   5.378406   0.422530  -0.066038  -0.044280
     4  C    0.029226  -0.076279   0.422530   5.147456   0.483628  -0.029386
     5  C    0.001489   0.008546  -0.066038   0.483628   4.916568   0.501629
     6  C    0.000056  -0.002828  -0.044280  -0.029386   0.501629   4.916568
     7  C    0.000413   0.019282  -0.102669  -0.067030  -0.029385   0.483630
     8  C    0.004409   0.038190   0.453257  -0.102672  -0.044281  -0.066041
     9  C   -0.002688  -0.101114   0.038183   0.019280  -0.002828   0.008545
    10  O   -0.000134  -0.002688   0.004408   0.000413   0.000056   0.001489
    11  N   -0.101390   0.413022  -0.147890   0.018863  -0.000210  -0.000209
    12  C   -0.002680  -0.078023   0.016314  -0.000986   0.000003   0.000003
    13  C    0.002174  -0.014018   0.006793   0.000049  -0.000000  -0.000001
    14  C   -0.002754   0.002818  -0.000852   0.000012   0.000000  -0.000000
    15  C    0.000228  -0.000742   0.000094   0.000000   0.000000   0.000000
    16  Br   0.000001  -0.000005   0.000000  -0.000000  -0.000000  -0.000000
    17  C   -0.000057   0.000875  -0.000044  -0.000007  -0.000000   0.000000
    18  C    0.000424   0.003820  -0.003212   0.000081  -0.000001  -0.000000
    19  H    0.005919  -0.004539  -0.030057   0.407442  -0.029118   0.003650
    20  H   -0.000024  -0.000161   0.004432  -0.034328   0.415816  -0.032527
    21  H   -0.000001   0.000040   0.000954   0.003665  -0.032527   0.415816
    22  H    0.000009   0.000240   0.008332  -0.001195   0.003650  -0.029118
    23  H    0.007895  -0.000043  -0.000359   0.000001   0.000002   0.000000
    24  H   -0.000088   0.000056  -0.000007   0.000000   0.000000  -0.000000
    25  H   -0.000001   0.000016  -0.000000   0.000000  -0.000000   0.000000
    26  H    0.000017  -0.000245   0.000127   0.000022   0.000000   0.000002
               7          8          9         10         11         12
     1  O    0.000413   0.004409  -0.002688  -0.000134  -0.101390  -0.002680
     2  C    0.019282   0.038190  -0.101114  -0.002688   0.413022  -0.078023
     3  C   -0.102669   0.453257   0.038183   0.004408  -0.147890   0.016314
     4  C   -0.067030  -0.102672   0.019280   0.000413   0.018863  -0.000986
     5  C   -0.029385  -0.044281  -0.002828   0.000056  -0.000210   0.000003
     6  C    0.483630  -0.066041   0.008545   0.001489  -0.000209   0.000003
     7  C    5.147452   0.422529  -0.076275   0.029227   0.018862  -0.000988
     8  C    0.422529   5.378407   0.141204  -0.141399  -0.147909   0.016316
     9  C   -0.076275   0.141204   4.706686   0.704810   0.413045  -0.078021
    10  O    0.029227  -0.141399   0.704810   7.817251  -0.101394  -0.002670
    11  N    0.018862  -0.147909   0.413045  -0.101394   6.600530   0.230523
    12  C   -0.000988   0.016316  -0.078021  -0.002670   0.230523   5.037811
    13  C    0.000081  -0.003211   0.003822   0.000425  -0.038187   0.379081
    14  C   -0.000007  -0.000044   0.000875  -0.000058   0.007185   0.024181
    15  C    0.000000   0.000094  -0.000742   0.000228  -0.001388  -0.101610
    16  Br  -0.000000   0.000000  -0.000005   0.000001  -0.000054  -0.009567
    17  C    0.000012  -0.000852   0.002817  -0.002756   0.007187   0.024183
    18  C    0.000049   0.006794  -0.014014   0.002173  -0.038192   0.379078
    19  H   -0.001195   0.008332   0.000240   0.000009   0.000551  -0.000081
    20  H    0.003665   0.000954   0.000040  -0.000001   0.000001   0.000000
    21  H   -0.034328   0.004433  -0.000161  -0.000024   0.000001   0.000000
    22  H    0.407442  -0.030056  -0.004539   0.005919   0.000551  -0.000081
    23  H    0.000022   0.000127  -0.000244   0.000017  -0.000587  -0.030670
    24  H    0.000000  -0.000000   0.000016  -0.000001   0.000022   0.010261
    25  H    0.000000  -0.000007   0.000056  -0.000088   0.000022   0.010261
    26  H    0.000001  -0.000357  -0.000042   0.007894  -0.000588  -0.030671
              13         14         15         16         17         18
     1  O    0.002174  -0.002754   0.000228   0.000001  -0.000057   0.000424
     2  C   -0.014018   0.002818  -0.000742  -0.000005   0.000875   0.003820
     3  C    0.006793  -0.000852   0.000094   0.000000  -0.000044  -0.003212
     4  C    0.000049   0.000012   0.000000  -0.000000  -0.000007   0.000081
     5  C   -0.000000   0.000000   0.000000  -0.000000  -0.000000  -0.000001
     6  C   -0.000001  -0.000000   0.000000  -0.000000   0.000000  -0.000000
     7  C    0.000081  -0.000007   0.000000  -0.000000   0.000012   0.000049
     8  C   -0.003211  -0.000044   0.000094   0.000000  -0.000852   0.006794
     9  C    0.003822   0.000875  -0.000742  -0.000005   0.002817  -0.014014
    10  O    0.000425  -0.000058   0.000228   0.000001  -0.002756   0.002173
    11  N   -0.038187   0.007185  -0.001388  -0.000054   0.007187  -0.038192
    12  C    0.379081   0.024181  -0.101610  -0.009567   0.024183   0.379078
    13  C    5.153932   0.338043   0.060757   0.028666  -0.124945   0.057809
    14  C    0.338043   5.170120   0.368003  -0.109871   0.055076  -0.124949
    15  C    0.060757   0.368003   4.936111   0.376173   0.368001   0.060761
    16  Br   0.028666  -0.109871   0.376173  34.923060  -0.109872   0.028666
    17  C   -0.124945   0.055076   0.368001  -0.109872   5.170127   0.338031
    18  C    0.057809  -0.124949   0.060761   0.028666   0.338031   5.153954
    19  H    0.000006   0.000001  -0.000000  -0.000000   0.000000  -0.000003
    20  H   -0.000000   0.000000  -0.000000  -0.000000   0.000000   0.000000
    21  H    0.000000   0.000000  -0.000000  -0.000000   0.000000  -0.000000
    22  H   -0.000003   0.000000  -0.000000  -0.000000   0.000001   0.000006
    23  H    0.393162  -0.008916   0.002405  -0.000136  -0.000242   0.003205
    24  H   -0.039643   0.425264  -0.049665  -0.007646   0.013694  -0.005099
    25  H   -0.005099   0.013693  -0.049665  -0.007646   0.425263  -0.039643
    26  H    0.003205  -0.000241   0.002405  -0.000136  -0.008915   0.393161
              19         20         21         22         23         24
     1  O    0.005919  -0.000024  -0.000001   0.000009   0.007895  -0.000088
     2  C   -0.004539  -0.000161   0.000040   0.000240  -0.000043   0.000056
     3  C   -0.030057   0.004432   0.000954   0.008332  -0.000359  -0.000007
     4  C    0.407442  -0.034328   0.003665  -0.001195   0.000001   0.000000
     5  C   -0.029118   0.415816  -0.032527   0.003650   0.000002   0.000000
     6  C    0.003650  -0.032527   0.415816  -0.029118   0.000000  -0.000000
     7  C   -0.001195   0.003665  -0.034328   0.407442   0.000022   0.000000
     8  C    0.008332   0.000954   0.004433  -0.030056   0.000127  -0.000000
     9  C    0.000240   0.000040  -0.000161  -0.004539  -0.000244   0.000016
    10  O    0.000009  -0.000001  -0.000024   0.005919   0.000017  -0.000001
    11  N    0.000551   0.000001   0.000001   0.000551  -0.000587   0.000022
    12  C   -0.000081   0.000000   0.000000  -0.000081  -0.030670   0.010261
    13  C    0.000006  -0.000000   0.000000  -0.000003   0.393162  -0.039643
    14  C    0.000001   0.000000   0.000000   0.000000  -0.008916   0.425264
    15  C   -0.000000  -0.000000  -0.000000  -0.000000   0.002405  -0.049665
    16  Br  -0.000000  -0.000000  -0.000000  -0.000000  -0.000136  -0.007646
    17  C    0.000000   0.000000   0.000000   0.000001  -0.000242   0.013694
    18  C   -0.000003   0.000000  -0.000000   0.000006   0.003205  -0.005099
    19  H    0.459450  -0.002675  -0.000172   0.000038  -0.000006   0.000000
    20  H   -0.002675   0.473466  -0.003677  -0.000172  -0.000000   0.000000
    21  H   -0.000172  -0.003677   0.473466  -0.002676   0.000000   0.000000
    22  H    0.000038  -0.000172  -0.002676   0.459450  -0.000000   0.000000
    23  H   -0.000006  -0.000000   0.000000  -0.000000   0.446307  -0.003375
    24  H    0.000000   0.000000   0.000000   0.000000  -0.003375   0.472970
    25  H    0.000000   0.000000   0.000000   0.000000   0.000020   0.000051
    26  H   -0.000000   0.000000  -0.000000  -0.000006  -0.000263   0.000020
              25         26
     1  O   -0.000001   0.000017
     2  C    0.000016  -0.000245
     3  C   -0.000000   0.000127
     4  C    0.000000   0.000022
     5  C   -0.000000   0.000000
     6  C    0.000000   0.000002
     7  C    0.000000   0.000001
     8  C   -0.000007  -0.000357
     9  C    0.000056  -0.000042
    10  O   -0.000088   0.007894
    11  N    0.000022  -0.000588
    12  C    0.010261  -0.030671
    13  C   -0.005099   0.003205
    14  C    0.013693  -0.000241
    15  C   -0.049665   0.002405
    16  Br  -0.007646  -0.000136
    17  C    0.425263  -0.008915
    18  C   -0.039643   0.393161
    19  H    0.000000  -0.000000
    20  H    0.000000   0.000000
    21  H    0.000000  -0.000000
    22  H    0.000000  -0.000006
    23  H    0.000020  -0.000263
    24  H    0.000051   0.000020
    25  H    0.472971  -0.003375
    26  H   -0.003375   0.446307
 Mulliken charges:
               1
     1  O   -0.323114
     2  C    0.241065
     3  C    0.061770
     4  C   -0.220787
     5  C   -0.126998
     6  C   -0.126998
     7  C   -0.220790
     8  C    0.061782
     9  C    0.241054
    10  O   -0.323108
    11  N   -0.132367
    12  C    0.208032
    13  C   -0.202897
    14  C   -0.157579
    15  C    0.028550
    16  Br  -0.111630
    17  C   -0.157578
    18  C   -0.202900
    19  H    0.182206
    20  H    0.175191
    21  H    0.175191
    22  H    0.182207
    23  H    0.191679
    24  H    0.183169
    25  H    0.183169
    26  H    0.191679
 Sum of Mulliken charges =  -0.00000
 Mulliken charges with hydrogens summed into heavy atoms:
               1
     1  O   -0.323114
     2  C    0.241065
     3  C    0.061770
     4  C   -0.038580
     5  C    0.048193
     6  C    0.048193
     7  C   -0.038583
     8  C    0.061782
     9  C    0.241054
    10  O   -0.323108
    11  N   -0.132367
    12  C    0.208032
    13  C   -0.011218
    14  C    0.025590
    15  C    0.028550
    16  Br  -0.111630
    17  C    0.025591
    18  C   -0.011221
 Electronic spatial extent (au):  <R**2>=           8172.6320
 Charge=              0.0000 electrons
 Dipole moment (field-independent basis, Debye):
    X=              5.5964    Y=             -0.0000    Z=             -0.0001  Tot=              5.5964
 Quadrupole moment (field-independent basis, Debye-Ang):
   XX=            -87.8689   YY=           -118.7655   ZZ=           -116.7551
   XY=             -0.0004   XZ=              0.0007   YZ=             -5.6739
 Traceless Quadrupole moment (field-independent basis, Debye-Ang):
   XX=             19.9276   YY=            -10.9690   ZZ=             -8.9586
   XY=             -0.0004   XZ=              0.0007   YZ=             -5.6739
 Octapole moment (field-independent basis, Debye-Ang**2):
  XXX=            104.2702  YYY=             -0.0016  ZZZ=              0.0005  XYY=            -48.5889
  XXY=             -0.0011  XXZ=              0.0060  XZZ=            -58.7491  YZZ=              0.0006
  YYZ=              0.0010  XYZ=             10.9971
 Hexadecapole moment (field-independent basis, Debye-Ang**3):
 XXXX=          -7282.9523 YYYY=          -1046.0276 ZZZZ=           -208.0641 XXXY=             -0.0073
 XXXZ=              0.0368 YYYX=             -0.0018 YYYZ=            -25.7341 ZZZX=             -0.0105
 ZZZY=              0.3759 XXYY=          -1461.6808 XXZZ=          -1555.3048 YYZZ=           -196.0596
 XXYZ=             12.2967 YYXZ=              0.0008 ZZXY=              0.0023
 N-N= 1.478407327900D+03 E-N=-1.084053370335D+04  KE= 3.310516205944D+03
 Calculating spin-rotation constants.
 Leave Link  601 at Tue Sep 17 12:36:27 2024, MaxMem=  1342177280 cpu:              10.1 elap:              10.4
 (Enter /groups/ReismanLab/Software/Gaussian16_RevC/Linux_Binary_AVX2-enabled-CPU/g16/l9999.exe)
 Unable to Open any file for archive entry.
 1\1\GINC-HPC-35-20\SP\RM062X\def2TZVP\C14H8Br1N1O2\MANTIND\17-Sep-2024
 \0\\#p M062X/def2tzvp geom=check guess=read scf(xqc,tight) integral(gr
 id=ultrafine) scrf(SMD, solvent=1,4-Dioxane) nmr=giao\\spe\\0,1\O,0,1.
 7336763068,2.2980337321,0.2674872361\C,0,2.1411324196,1.1637440449,0.1
 369583856\C,0,3.5508116788,0.6920842379,0.082433233\C,0,4.7312228053,1
 .4139207795,0.1697988425\C,0,5.9302155051,0.6957348089,0.0836677275\C,
 0,5.9303605529,-0.6948095076,-0.0842231416\C,0,4.7315177599,-1.4132644
 774,-0.1701993707\C,0,3.5509559494,-0.6916943251,-0.0826683387\C,0,2.1
 413751271,-1.1636734891,-0.1369811297\O,0,1.7341598069,-2.2980356189,-
 0.2676298003\N,0,1.3393071988,-0.0000460442,-0.0000217497\C,0,-0.08242
 80582,-0.0001847952,-0.0000341385\C,0,-0.7811050877,1.0441897885,-0.61
 53080004\C,0,-2.1731087846,1.0477924182,-0.6089460246\C,0,-2.857733799
 9,-0.0004410684,-0.0000470822\Br,0,-4.767144412,-0.0006172644,-0.00005
 97536\C,0,-2.1729215415,-1.0485452446,0.6088644128\C,0,-0.7809189399,-
 1.0446847509,0.6152408293\H,0,4.716067989,2.4905354322,0.2990239076\H,
 0,6.8765155848,1.2232151214,0.1471727794\H,0,6.876770553,-1.2220775707
 ,-0.1478525972\H,0,4.7165894776,-2.4898820166,-0.2994266468\H,0,-0.240
 6145039,1.8565733046,-1.0812291832\H,0,-2.7198450147,1.8564032596,-1.0
 788048182\H,0,-2.7195123272,-1.8572533936,1.0787248911\H,0,-0.24028421
 46,-1.8569622725,1.0811781552\\Version=ES64L-G16RevC.02\State=1-A\HF=-
 3317.736778\RMSD=3.200e-09\Dipole=2.201797,0.0002318,-0.0000043\Quadru
 pole=14.8157009,-8.4178737,-6.3978272,0.0025357,-0.0004072,-4.1633087\
 PG=C01 [X(C14H8Br1N1O2)]\\@
 The archive entry for this job was punched.


 THERE IS MORE TO LIFE THAN INCREASING ITS SPEED.

                                       -- GANDHI
 Job cpu time:       0 days  0 hours 41 minutes 57.4 seconds.
 Elapsed time:       0 days  0 hours 42 minutes  7.4 seconds.
 File lengths (MBytes):  RWF=    440 Int=      0 D2E=      0 Chk=     48 Scr=     16
 Normal termination of Gaussian 16 at Tue Sep 17 12:36:28 2024.
