 Entering Gaussian System, Link 0=g16
 Input=smiles_00105_conf_0.gjf
 Output=smiles_00105_conf_0.log
 Initial command:
 /groups/ReismanLab/Software/Gaussian16_RevC/Linux_Binary_AVX2-enabled-CPU/g16/l1.exe "/central/groups/ReismanLab/DM/dft_final/smiles_00105/Gau-3834594.inp" -scrdir="/central/groups/ReismanLab/DM/dft_final/smiles_00105/"
 Entering Link 1 = /groups/ReismanLab/Software/Gaussian16_RevC/Linux_Binary_AVX2-enabled-CPU/g16/l1.exe PID=   3834598.
  
 Copyright (c) 1988-2021, Gaussian, Inc.  All Rights Reserved.
  
 This is part of the Gaussian(R) 16 program.  It is based on
 the Gaussian(R) 09 system (copyright 2009, Gaussian, Inc.),
 the Gaussian(R) 03 system (copyright 2003, Gaussian, Inc.),
 the Gaussian(R) 98 system (copyright 1998, Gaussian, Inc.),
 the Gaussian(R) 94 system (copyright 1995, Gaussian, Inc.),
 the Gaussian 92(TM) system (copyright 1992, Gaussian, Inc.),
 the Gaussian 90(TM) system (copyright 1990, Gaussian, Inc.),
 the Gaussian 88(TM) system (copyright 1988, Gaussian, Inc.),
 the Gaussian 86(TM) system (copyright 1986, Carnegie Mellon
 University), and the Gaussian 82(TM) system (copyright 1983,
 Carnegie Mellon University). Gaussian is a federally registered
 trademark of Gaussian, Inc.
  
 This software contains proprietary and confidential information,
 including trade secrets, belonging to Gaussian, Inc.
  
 This software is provided under written license and may be
 used, copied, transmitted, or stored only in accord with that
 written license.
  
 The following legend is applicable only to US Government
 contracts under FAR:
  
                    RESTRICTED RIGHTS LEGEND
  
 Use, reproduction and disclosure by the US Government is
 subject to restrictions as set forth in subparagraphs (a)
 and (c) of the Commercial Computer Software - Restricted
 Rights clause in FAR 52.227-19.
  
 Gaussian, Inc.
 340 Quinnipiac St., Bldg. 40, Wallingford CT 06492
  
  
 ---------------------------------------------------------------
 Warning -- This program may not be used in any manner that
 competes with the business of Gaussian, Inc. or will provide
 assistance to any competitor of Gaussian, Inc.  The licensee
 of this program is prohibited from giving any competitor of
 Gaussian, Inc. access to this program.  By using this program,
 the user acknowledges that Gaussian, Inc. is engaged in the
 business of creating and licensing software in the field of
 computational chemistry and represents and warrants to the
 licensee that it is not a competitor of Gaussian, Inc. and that
 it will not use this program in any manner prohibited above.
 ---------------------------------------------------------------
  

 Cite this work as:
 Gaussian 16, Revision C.02,
 M. J. Frisch, G. W. Trucks, H. B. Schlegel, G. E. Scuseria, 
 M. A. Robb, J. R. Cheeseman, G. Scalmani, V. Barone, 
 G. A. Petersson, H. Nakatsuji, X. Li, M. Caricato, A. V. Marenich, 
 J. Bloino, B. G. Janesko, R. Gomperts, B. Mennucci, H. P. Hratchian, 
 J. V. Ortiz, A. F. Izmaylov, J. L. Sonnenberg, D. Williams-Young, 
 F. Ding, F. Lipparini, F. Egidi, J. Goings, B. Peng, A. Petrone, 
 T. Henderson, D. Ranasinghe, V. G. Zakrzewski, J. Gao, N. Rega, 
 G. Zheng, W. Liang, M. Hada, M. Ehara, K. Toyota, R. Fukuda, 
 J. Hasegawa, M. Ishida, T. Nakajima, Y. Honda, O. Kitao, H. Nakai, 
 T. Vreven, K. Throssell, J. A. Montgomery, Jr., J. E. Peralta, 
 F. Ogliaro, M. J. Bearpark, J. J. Heyd, E. N. Brothers, K. N. Kudin, 
 V. N. Staroverov, T. A. Keith, R. Kobayashi, J. Normand, 
 K. Raghavachari, A. P. Rendell, J. C. Burant, S. S. Iyengar, 
 J. Tomasi, M. Cossi, J. M. Millam, M. Klene, C. Adamo, R. Cammi, 
 J. W. Ochterski, R. L. Martin, K. Morokuma, O. Farkas, 
 J. B. Foresman, and D. J. Fox, Gaussian, Inc., Wallingford CT, 2019.
 
 ******************************************
 Gaussian 16:  ES64L-G16RevC.02  7-Dec-2021
                17-Sep-2024 
 ******************************************
 %nprocshared=8
 Will use up to    8 processors via shared memory.
 %Mem=10GB
 %Chk=smiles_00105_conf_0.chk
 ----------------------------------------------------------------------
 #p B3LYP/6-31G(d,p) EmpiricalDispersion=GD3BJ opt freq scf(xqc,tight) 
 integral(grid=ultrafine)
 ----------------------------------------------------------------------
 1/18=20,19=15,26=4,38=1/1,3;
 2/9=110,12=2,17=6,18=5,40=1/2;
 3/5=1,6=6,7=101,11=2,25=1,30=1,71=1,74=-5,75=-5,124=41/1,2,3;
 4//1;
 5/5=2,8=3,13=1,32=2,38=5/2,8;
 6/7=2,8=2,9=2,10=2,28=1/1;
 7//1,2,3,16;
 1/18=20,19=15,26=4/3(2);
 2/9=110/2;
 99//99;
 2/9=110/2;
 3/5=1,6=6,7=101,11=2,25=1,30=1,71=1,74=-5,75=-5,124=41/1,2,3;
 4/5=5,16=3,69=1/1;
 5/5=2,8=3,13=1,32=2,38=5/2,8;
 7//1,2,3,16;
 1/18=20,19=15,26=4/3(-5);
 2/9=110/2;
 6/7=2,8=2,9=2,10=2,19=2,28=1/1;
 99/9=1/99;
 Leave Link    1 at Tue Sep 17 09:47:08 2024, MaxMem=  1342177280 cpu:               0.1 elap:               0.5
 (Enter /groups/ReismanLab/Software/Gaussian16_RevC/Linux_Binary_AVX2-enabled-CPU/g16/l101.exe)
 ----------------------------------
 opt-freq conformers_unique/conf_aa
 ----------------------------------
 Symbolic Z-matrix:
 Charge =  0 Multiplicity = 1
 C                    -4.23754   0.14455  -1.349 
 C                    -3.63804   0.73856  -0.07281 
 C                    -4.35455   0.19906   1.16686 
 C                    -2.15661   0.46233   0.00455 
 C                    -1.24873   1.50795   0.03809 
 C                     0.1216    1.29215   0.10343 
 C                     1.08522   2.45446   0.09984 
 C                     0.54327   3.6925    0.81301 
 C                     1.45697   2.79035  -1.34818 
 C                     0.56008  -0.0291    0.12346 
 Br                    2.45032  -0.37268   0.14203 
 C                    -0.31564  -1.11276   0.11088 
 C                     0.17908  -2.53938   0.11595 
 C                    -0.76512  -3.50509   0.83105 
 C                     0.41372  -2.99177  -1.32907 
 C                    -1.67345  -0.8365    0.04533 
 H                    -5.28941   0.40991  -1.42862 
 H                    -4.1579   -0.93965  -1.34687 
 H                    -3.71699   0.5251   -2.22523 
 H                    -3.78097   1.82455  -0.10303 
 H                    -4.2682   -0.88315   1.2239 
 H                    -5.41062   0.45741   1.13277 
 H                    -3.92255   0.62547   2.06968 
 H                    -1.61908   2.52054   0.00698 
 H                     1.9964    2.15088   0.62519 
 H                     0.14021   3.42987   1.78882 
 H                     1.34892   4.40931   0.95567 
 H                    -0.2349    4.18008   0.23062 
 H                     0.56805   3.07027  -1.91053 
 H                     1.91807   1.93477  -1.83643 
 H                     2.16068   3.61904  -1.37235 
 H                     1.13709  -2.57217   0.64457 
 H                    -0.26113  -4.45681   0.98411 
 H                    -1.66073  -3.69588   0.24437 
 H                    -1.05709  -3.11103   1.80224 
 H                    -0.5148   -2.94342  -1.89506 
 H                     0.7807   -4.01525  -1.34708 
 H                     1.14815  -2.35577  -1.81798 
 H                    -2.36943  -1.65847   0.02015 
 
 ITRead=  0  0  0  0  0  0  0  0  0  0  0  0  0  0  0  0  0  0  0  0
 ITRead=  0  0  0  0  0  0  0  0  0  0  0  0  0  0  0  0  0  0  0
 MicOpt= -1 -1 -1 -1 -1 -1 -1 -1 -1 -1 -1 -1 -1 -1 -1 -1 -1 -1 -1 -1
 MicOpt= -1 -1 -1 -1 -1 -1 -1 -1 -1 -1 -1 -1 -1 -1 -1 -1 -1 -1 -1
 NAtoms=     39 NQM=       39 NQMF=       0 NMMI=      0 NMMIF=      0
                NMic=       0 NMicF=      0.
                    Isotopes and Nuclear Properties:
 (Nuclear quadrupole moments (NQMom) in fm**2, nuclear magnetic moments (NMagM)
  in nuclear magnetons)

  Atom         1           2           3           4           5           6           7           8           9          10
 IAtWgt=          12          12          12          12          12          12          12          12          12          12
 AtmWgt=  12.0000000  12.0000000  12.0000000  12.0000000  12.0000000  12.0000000  12.0000000  12.0000000  12.0000000  12.0000000
 NucSpn=           0           0           0           0           0           0           0           0           0           0
 AtZEff=  -0.0000000  -0.0000000  -0.0000000  -0.0000000  -0.0000000  -0.0000000  -0.0000000  -0.0000000  -0.0000000  -0.0000000
 NQMom=    0.0000000   0.0000000   0.0000000   0.0000000   0.0000000   0.0000000   0.0000000   0.0000000   0.0000000   0.0000000
 NMagM=    0.0000000   0.0000000   0.0000000   0.0000000   0.0000000   0.0000000   0.0000000   0.0000000   0.0000000   0.0000000
 AtZNuc=   6.0000000   6.0000000   6.0000000   6.0000000   6.0000000   6.0000000   6.0000000   6.0000000   6.0000000   6.0000000

  Atom        11          12          13          14          15          16          17          18          19          20
 IAtWgt=          79          12          12          12          12          12           1           1           1           1
 AtmWgt=  78.9183361  12.0000000  12.0000000  12.0000000  12.0000000  12.0000000   1.0078250   1.0078250   1.0078250   1.0078250
 NucSpn=           3           0           0           0           0           0           1           1           1           1
 AtZEff=  -0.0000000  -0.0000000  -0.0000000  -0.0000000  -0.0000000  -0.0000000  -0.0000000  -0.0000000  -0.0000000  -0.0000000
 NQMom=   31.3000000   0.0000000   0.0000000   0.0000000   0.0000000   0.0000000   0.0000000   0.0000000   0.0000000   0.0000000
 NMagM=    2.1063990   0.0000000   0.0000000   0.0000000   0.0000000   0.0000000   2.7928460   2.7928460   2.7928460   2.7928460
 AtZNuc=  35.0000000   6.0000000   6.0000000   6.0000000   6.0000000   6.0000000   1.0000000   1.0000000   1.0000000   1.0000000

  Atom        21          22          23          24          25          26          27          28          29          30
 IAtWgt=           1           1           1           1           1           1           1           1           1           1
 AtmWgt=   1.0078250   1.0078250   1.0078250   1.0078250   1.0078250   1.0078250   1.0078250   1.0078250   1.0078250   1.0078250
 NucSpn=           1           1           1           1           1           1           1           1           1           1
 AtZEff=  -0.0000000  -0.0000000  -0.0000000  -0.0000000  -0.0000000  -0.0000000  -0.0000000  -0.0000000  -0.0000000  -0.0000000
 NQMom=    0.0000000   0.0000000   0.0000000   0.0000000   0.0000000   0.0000000   0.0000000   0.0000000   0.0000000   0.0000000
 NMagM=    2.7928460   2.7928460   2.7928460   2.7928460   2.7928460   2.7928460   2.7928460   2.7928460   2.7928460   2.7928460
 AtZNuc=   1.0000000   1.0000000   1.0000000   1.0000000   1.0000000   1.0000000   1.0000000   1.0000000   1.0000000   1.0000000

  Atom        31          32          33          34          35          36          37          38          39
 IAtWgt=           1           1           1           1           1           1           1           1           1
 AtmWgt=   1.0078250   1.0078250   1.0078250   1.0078250   1.0078250   1.0078250   1.0078250   1.0078250   1.0078250
 NucSpn=           1           1           1           1           1           1           1           1           1
 AtZEff=  -0.0000000  -0.0000000  -0.0000000  -0.0000000  -0.0000000  -0.0000000  -0.0000000  -0.0000000  -0.0000000
 NQMom=    0.0000000   0.0000000   0.0000000   0.0000000   0.0000000   0.0000000   0.0000000   0.0000000   0.0000000
 NMagM=    2.7928460   2.7928460   2.7928460   2.7928460   2.7928460   2.7928460   2.7928460   2.7928460   2.7928460
 AtZNuc=   1.0000000   1.0000000   1.0000000   1.0000000   1.0000000   1.0000000   1.0000000   1.0000000   1.0000000
 Leave Link  101 at Tue Sep 17 09:47:08 2024, MaxMem=  1342177280 cpu:               0.2 elap:               0.3
 (Enter /groups/ReismanLab/Software/Gaussian16_RevC/Linux_Binary_AVX2-enabled-CPU/g16/l103.exe)

 GradGradGradGradGradGradGradGradGradGradGradGradGradGradGradGradGradGrad
 Berny optimization.
 Initialization pass.
                           ----------------------------
                           !    Initial Parameters    !
                           ! (Angstroms and Degrees)  !
 --------------------------                            --------------------------
 ! Name  Definition              Value          Derivative Info.                !
 --------------------------------------------------------------------------------
 ! R1    R(1,2)                  1.53           estimate D2E/DX2                !
 ! R2    R(1,17)                 1.0877         estimate D2E/DX2                !
 ! R3    R(1,18)                 1.0871         estimate D2E/DX2                !
 ! R4    R(1,19)                 1.0879         estimate D2E/DX2                !
 ! R5    R(2,3)                  1.5301         estimate D2E/DX2                !
 ! R6    R(2,4)                  1.5089         estimate D2E/DX2                !
 ! R7    R(2,20)                 1.0958         estimate D2E/DX2                !
 ! R8    R(3,21)                 1.0871         estimate D2E/DX2                !
 ! R9    R(3,22)                 1.0877         estimate D2E/DX2                !
 ! R10   R(3,23)                 1.0879         estimate D2E/DX2                !
 ! R11   R(4,5)                  1.3852         estimate D2E/DX2                !
 ! R12   R(4,16)                 1.3864         estimate D2E/DX2                !
 ! R13   R(5,6)                  1.3888         estimate D2E/DX2                !
 ! R14   R(5,24)                 1.0786         estimate D2E/DX2                !
 ! R15   R(6,7)                  1.5098         estimate D2E/DX2                !
 ! R16   R(6,10)                 1.3923         estimate D2E/DX2                !
 ! R17   R(7,8)                  1.5281         estimate D2E/DX2                !
 ! R18   R(7,9)                  1.5323         estimate D2E/DX2                !
 ! R19   R(7,25)                 1.0947         estimate D2E/DX2                !
 ! R20   R(8,26)                 1.088          estimate D2E/DX2                !
 ! R21   R(8,27)                 1.0878         estimate D2E/DX2                !
 ! R22   R(8,28)                 1.0874         estimate D2E/DX2                !
 ! R23   R(9,29)                 1.0885         estimate D2E/DX2                !
 ! R24   R(9,30)                 1.0877         estimate D2E/DX2                !
 ! R25   R(9,31)                 1.0874         estimate D2E/DX2                !
 ! R26   R(10,11)                1.9213         estimate D2E/DX2                !
 ! R27   R(10,12)                1.3933         estimate D2E/DX2                !
 ! R28   R(12,13)                1.51           estimate D2E/DX2                !
 ! R29   R(12,16)                1.3872         estimate D2E/DX2                !
 ! R30   R(13,14)                1.5282         estimate D2E/DX2                !
 ! R31   R(13,15)                1.5323         estimate D2E/DX2                !
 ! R32   R(13,32)                1.0947         estimate D2E/DX2                !
 ! R33   R(14,33)                1.0878         estimate D2E/DX2                !
 ! R34   R(14,34)                1.0875         estimate D2E/DX2                !
 ! R35   R(14,35)                1.088          estimate D2E/DX2                !
 ! R36   R(15,36)                1.0885         estimate D2E/DX2                !
 ! R37   R(15,37)                1.0874         estimate D2E/DX2                !
 ! R38   R(15,38)                1.0876         estimate D2E/DX2                !
 ! R39   R(16,39)                1.0773         estimate D2E/DX2                !
 ! A1    A(2,1,17)             110.1966         estimate D2E/DX2                !
 ! A2    A(2,1,18)             110.9074         estimate D2E/DX2                !
 ! A3    A(2,1,19)             110.3967         estimate D2E/DX2                !
 ! A4    A(17,1,18)            108.3178         estimate D2E/DX2                !
 ! A5    A(17,1,19)            108.5668         estimate D2E/DX2                !
 ! A6    A(18,1,19)            108.3842         estimate D2E/DX2                !
 ! A7    A(1,2,3)              110.8185         estimate D2E/DX2                !
 ! A8    A(1,2,4)              110.8777         estimate D2E/DX2                !
 ! A9    A(1,2,20)             108.0988         estimate D2E/DX2                !
 ! A10   A(3,2,4)              110.7111         estimate D2E/DX2                !
 ! A11   A(3,2,20)             108.1018         estimate D2E/DX2                !
 ! A12   A(4,2,20)             108.1137         estimate D2E/DX2                !
 ! A13   A(2,3,21)             110.8734         estimate D2E/DX2                !
 ! A14   A(2,3,22)             110.2129         estimate D2E/DX2                !
 ! A15   A(2,3,23)             110.3774         estimate D2E/DX2                !
 ! A16   A(21,3,22)            108.3721         estimate D2E/DX2                !
 ! A17   A(21,3,23)            108.366          estimate D2E/DX2                !
 ! A18   A(22,3,23)            108.5693         estimate D2E/DX2                !
 ! A19   A(2,4,5)              120.433          estimate D2E/DX2                !
 ! A20   A(2,4,16)             121.0075         estimate D2E/DX2                !
 ! A21   A(5,4,16)             118.5594         estimate D2E/DX2                !
 ! A22   A(4,5,6)              122.0443         estimate D2E/DX2                !
 ! A23   A(4,5,24)             118.8754         estimate D2E/DX2                !
 ! A24   A(6,5,24)             119.0794         estimate D2E/DX2                !
 ! A25   A(5,6,7)              120.6664         estimate D2E/DX2                !
 ! A26   A(5,6,10)             117.3165         estimate D2E/DX2                !
 ! A27   A(7,6,10)             121.9783         estimate D2E/DX2                !
 ! A28   A(6,7,8)              113.3434         estimate D2E/DX2                !
 ! A29   A(6,7,9)              109.0173         estimate D2E/DX2                !
 ! A30   A(6,7,25)             108.4579         estimate D2E/DX2                !
 ! A31   A(8,7,9)              110.4562         estimate D2E/DX2                !
 ! A32   A(8,7,25)             107.212          estimate D2E/DX2                !
 ! A33   A(9,7,25)             108.202          estimate D2E/DX2                !
 ! A34   A(7,8,26)             110.7578         estimate D2E/DX2                !
 ! A35   A(7,8,27)             109.4156         estimate D2E/DX2                !
 ! A36   A(7,8,28)             111.5385         estimate D2E/DX2                !
 ! A37   A(26,8,27)            108.4106         estimate D2E/DX2                !
 ! A38   A(26,8,28)            108.8744         estimate D2E/DX2                !
 ! A39   A(27,8,28)            107.7455         estimate D2E/DX2                !
 ! A40   A(7,9,29)             110.2715         estimate D2E/DX2                !
 ! A41   A(7,9,30)             110.7709         estimate D2E/DX2                !
 ! A42   A(7,9,31)             110.1854         estimate D2E/DX2                !
 ! A43   A(29,9,30)            108.4569         estimate D2E/DX2                !
 ! A44   A(29,9,31)            108.7258         estimate D2E/DX2                !
 ! A45   A(30,9,31)            108.3691         estimate D2E/DX2                !
 ! A46   A(6,10,11)            118.6656         estimate D2E/DX2                !
 ! A47   A(6,10,12)            122.6843         estimate D2E/DX2                !
 ! A48   A(11,10,12)           118.6433         estimate D2E/DX2                !
 ! A49   A(10,12,13)           121.9289         estimate D2E/DX2                !
 ! A50   A(10,12,16)           117.4349         estimate D2E/DX2                !
 ! A51   A(13,12,16)           120.5981         estimate D2E/DX2                !
 ! A52   A(12,13,14)           113.3398         estimate D2E/DX2                !
 ! A53   A(12,13,15)           109.0233         estimate D2E/DX2                !
 ! A54   A(12,13,32)           108.4609         estimate D2E/DX2                !
 ! A55   A(14,13,15)           110.4464         estimate D2E/DX2                !
 ! A56   A(14,13,32)           107.2063         estimate D2E/DX2                !
 ! A57   A(15,13,32)           108.2129         estimate D2E/DX2                !
 ! A58   A(13,14,33)           109.4189         estimate D2E/DX2                !
 ! A59   A(13,14,34)           111.5456         estimate D2E/DX2                !
 ! A60   A(13,14,35)           110.7699         estimate D2E/DX2                !
 ! A61   A(33,14,34)           107.6969         estimate D2E/DX2                !
 ! A62   A(33,14,35)           108.3986         estimate D2E/DX2                !
 ! A63   A(34,14,35)           108.9102         estimate D2E/DX2                !
 ! A64   A(13,15,36)           110.2812         estimate D2E/DX2                !
 ! A65   A(13,15,37)           110.1931         estimate D2E/DX2                !
 ! A66   A(13,15,38)           110.7745         estimate D2E/DX2                !
 ! A67   A(36,15,37)           108.7273         estimate D2E/DX2                !
 ! A68   A(36,15,38)           108.4392         estimate D2E/DX2                !
 ! A69   A(37,15,38)           108.3636         estimate D2E/DX2                !
 ! A70   A(4,16,12)            121.9437         estimate D2E/DX2                !
 ! A71   A(4,16,39)            119.2722         estimate D2E/DX2                !
 ! A72   A(12,16,39)           118.7833         estimate D2E/DX2                !
 ! D1    D(17,1,2,3)            60.6318         estimate D2E/DX2                !
 ! D2    D(17,1,2,4)          -176.003          estimate D2E/DX2                !
 ! D3    D(17,1,2,20)          -57.6613         estimate D2E/DX2                !
 ! D4    D(18,1,2,3)           -59.3026         estimate D2E/DX2                !
 ! D5    D(18,1,2,4)            64.0626         estimate D2E/DX2                !
 ! D6    D(18,1,2,20)         -177.5957         estimate D2E/DX2                !
 ! D7    D(19,1,2,3)          -179.4511         estimate D2E/DX2                !
 ! D8    D(19,1,2,4)           -56.0859         estimate D2E/DX2                !
 ! D9    D(19,1,2,20)           62.2558         estimate D2E/DX2                !
 ! D10   D(1,2,3,21)            59.8832         estimate D2E/DX2                !
 ! D11   D(1,2,3,22)           -60.1076         estimate D2E/DX2                !
 ! D12   D(1,2,3,23)           179.9741         estimate D2E/DX2                !
 ! D13   D(4,2,3,21)           -63.5779         estimate D2E/DX2                !
 ! D14   D(4,2,3,22)           176.4313         estimate D2E/DX2                !
 ! D15   D(4,2,3,23)            56.513          estimate D2E/DX2                !
 ! D16   D(20,2,3,21)          178.1745         estimate D2E/DX2                !
 ! D17   D(20,2,3,22)           58.1837         estimate D2E/DX2                !
 ! D18   D(20,2,3,23)          -61.7346         estimate D2E/DX2                !
 ! D19   D(1,2,4,5)            118.9187         estimate D2E/DX2                !
 ! D20   D(1,2,4,16)           -61.1651         estimate D2E/DX2                !
 ! D21   D(3,2,4,5)           -117.6543         estimate D2E/DX2                !
 ! D22   D(3,2,4,16)            62.2619         estimate D2E/DX2                !
 ! D23   D(20,2,4,5)             0.5861         estimate D2E/DX2                !
 ! D24   D(20,2,4,16)         -179.4978         estimate D2E/DX2                !
 ! D25   D(2,4,5,6)           -179.7195         estimate D2E/DX2                !
 ! D26   D(2,4,5,24)            -0.0605         estimate D2E/DX2                !
 ! D27   D(16,4,5,6)             0.3623         estimate D2E/DX2                !
 ! D28   D(16,4,5,24)         -179.9787         estimate D2E/DX2                !
 ! D29   D(2,4,16,12)          179.7254         estimate D2E/DX2                !
 ! D30   D(2,4,16,39)            0.0651         estimate D2E/DX2                !
 ! D31   D(5,4,16,12)           -0.3569         estimate D2E/DX2                !
 ! D32   D(5,4,16,39)          179.9828         estimate D2E/DX2                !
 ! D33   D(4,5,6,7)            178.2918         estimate D2E/DX2                !
 ! D34   D(4,5,6,10)             0.5154         estimate D2E/DX2                !
 ! D35   D(24,5,6,7)            -1.3665         estimate D2E/DX2                !
 ! D36   D(24,5,6,10)         -179.1429         estimate D2E/DX2                !
 ! D37   D(5,6,7,8)             33.8359         estimate D2E/DX2                !
 ! D38   D(5,6,7,9)            -89.6251         estimate D2E/DX2                !
 ! D39   D(5,6,7,25)           152.7707         estimate D2E/DX2                !
 ! D40   D(10,6,7,8)          -148.4932         estimate D2E/DX2                !
 ! D41   D(10,6,7,9)            88.0458         estimate D2E/DX2                !
 ! D42   D(10,6,7,25)          -29.5584         estimate D2E/DX2                !
 ! D43   D(5,6,10,11)          177.5712         estimate D2E/DX2                !
 ! D44   D(5,6,10,12)           -1.4652         estimate D2E/DX2                !
 ! D45   D(7,6,10,11)           -0.174          estimate D2E/DX2                !
 ! D46   D(7,6,10,12)         -179.2103         estimate D2E/DX2                !
 ! D47   D(6,7,8,26)            48.8593         estimate D2E/DX2                !
 ! D48   D(6,7,8,27)           168.312          estimate D2E/DX2                !
 ! D49   D(6,7,8,28)           -72.5747         estimate D2E/DX2                !
 ! D50   D(9,7,8,26)           171.5274         estimate D2E/DX2                !
 ! D51   D(9,7,8,27)           -69.02           estimate D2E/DX2                !
 ! D52   D(9,7,8,28)            50.0934         estimate D2E/DX2                !
 ! D53   D(25,7,8,26)          -70.79           estimate D2E/DX2                !
 ! D54   D(25,7,8,27)           48.6627         estimate D2E/DX2                !
 ! D55   D(25,7,8,28)          167.776          estimate D2E/DX2                !
 ! D56   D(6,7,9,29)            60.632          estimate D2E/DX2                !
 ! D57   D(6,7,9,30)           -59.437          estimate D2E/DX2                !
 ! D58   D(6,7,9,31)          -179.3402         estimate D2E/DX2                !
 ! D59   D(8,7,9,29)           -64.5299         estimate D2E/DX2                !
 ! D60   D(8,7,9,30)           175.4011         estimate D2E/DX2                !
 ! D61   D(8,7,9,31)            55.4978         estimate D2E/DX2                !
 ! D62   D(25,7,9,29)          178.3978         estimate D2E/DX2                !
 ! D63   D(25,7,9,30)           58.3288         estimate D2E/DX2                !
 ! D64   D(25,7,9,31)          -61.5745         estimate D2E/DX2                !
 ! D65   D(6,10,12,13)         179.2376         estimate D2E/DX2                !
 ! D66   D(6,10,12,16)           1.4715         estimate D2E/DX2                !
 ! D67   D(11,10,12,13)          0.201          estimate D2E/DX2                !
 ! D68   D(11,10,12,16)       -177.5651         estimate D2E/DX2                !
 ! D69   D(10,12,13,14)        148.7275         estimate D2E/DX2                !
 ! D70   D(10,12,13,15)        -87.8223         estimate D2E/DX2                !
 ! D71   D(10,12,13,32)         29.8            estimate D2E/DX2                !
 ! D72   D(16,12,13,14)        -33.576          estimate D2E/DX2                !
 ! D73   D(16,12,13,15)         89.8743         estimate D2E/DX2                !
 ! D74   D(16,12,13,32)       -152.5034         estimate D2E/DX2                !
 ! D75   D(10,12,16,4)          -0.5257         estimate D2E/DX2                !
 ! D76   D(10,12,16,39)        179.1363         estimate D2E/DX2                !
 ! D77   D(13,12,16,4)        -178.3231         estimate D2E/DX2                !
 ! D78   D(13,12,16,39)          1.3389         estimate D2E/DX2                !
 ! D79   D(12,13,14,33)       -168.0587         estimate D2E/DX2                !
 ! D80   D(12,13,14,34)         72.8817         estimate D2E/DX2                !
 ! D81   D(12,13,14,35)        -48.6113         estimate D2E/DX2                !
 ! D82   D(15,13,14,33)         69.2754         estimate D2E/DX2                !
 ! D83   D(15,13,14,34)        -49.7841         estimate D2E/DX2                !
 ! D84   D(15,13,14,35)       -171.2771         estimate D2E/DX2                !
 ! D85   D(32,13,14,33)        -48.4116         estimate D2E/DX2                !
 ! D86   D(32,13,14,34)       -167.4712         estimate D2E/DX2                !
 ! D87   D(32,13,14,35)         71.0358         estimate D2E/DX2                !
 ! D88   D(12,13,15,36)        -60.5366         estimate D2E/DX2                !
 ! D89   D(12,13,15,37)        179.4227         estimate D2E/DX2                !
 ! D90   D(12,13,15,38)         59.5189         estimate D2E/DX2                !
 ! D91   D(14,13,15,36)         64.6182         estimate D2E/DX2                !
 ! D92   D(14,13,15,37)        -55.4225         estimate D2E/DX2                !
 ! D93   D(14,13,15,38)       -175.3262         estimate D2E/DX2                !
 ! D94   D(32,13,15,36)       -178.3155         estimate D2E/DX2                !
 ! D95   D(32,13,15,37)         61.6438         estimate D2E/DX2                !
 ! D96   D(32,13,15,38)        -58.2599         estimate D2E/DX2                !
 --------------------------------------------------------------------------------
 Trust Radius=3.00D-01 FncErr=1.00D-07 GrdErr=1.00D-06 EigMax=2.50D+02 EigMin=1.00D-04
 Number of steps in this run=    217 maximum allowed number of steps=    234.
 GradGradGradGradGradGradGradGradGradGradGradGradGradGradGradGradGradGrad

 Leave Link  103 at Tue Sep 17 09:47:08 2024, MaxMem=  1342177280 cpu:               0.1 elap:               0.0
 (Enter /groups/ReismanLab/Software/Gaussian16_RevC/Linux_Binary_AVX2-enabled-CPU/g16/l202.exe)
                          Input orientation:                          
 ---------------------------------------------------------------------
 Center     Atomic      Atomic             Coordinates (Angstroms)
 Number     Number       Type             X           Y           Z
 ---------------------------------------------------------------------
      1          6           0       -4.237539    0.144546   -1.349002
      2          6           0       -3.638038    0.738560   -0.072806
      3          6           0       -4.354549    0.199062    1.166860
      4          6           0       -2.156609    0.462333    0.004554
      5          6           0       -1.248735    1.507949    0.038092
      6          6           0        0.121599    1.292155    0.103426
      7          6           0        1.085222    2.454461    0.099838
      8          6           0        0.543266    3.692500    0.813006
      9          6           0        1.456974    2.790354   -1.348185
     10          6           0        0.560082   -0.029099    0.123461
     11         35           0        2.450322   -0.372677    0.142029
     12          6           0       -0.315639   -1.112759    0.110878
     13          6           0        0.179077   -2.539378    0.115953
     14          6           0       -0.765117   -3.505088    0.831049
     15          6           0        0.413722   -2.991771   -1.329068
     16          6           0       -1.673455   -0.836500    0.045326
     17          1           0       -5.289411    0.409911   -1.428620
     18          1           0       -4.157900   -0.939651   -1.346870
     19          1           0       -3.716991    0.525100   -2.225232
     20          1           0       -3.780975    1.824551   -0.103031
     21          1           0       -4.268198   -0.883148    1.223903
     22          1           0       -5.410617    0.457405    1.132772
     23          1           0       -3.922546    0.625466    2.069683
     24          1           0       -1.619084    2.520539    0.006981
     25          1           0        1.996399    2.150880    0.625188
     26          1           0        0.140214    3.429874    1.788824
     27          1           0        1.348916    4.409306    0.955668
     28          1           0       -0.234901    4.180077    0.230623
     29          1           0        0.568048    3.070268   -1.910526
     30          1           0        1.918073    1.934772   -1.836430
     31          1           0        2.160678    3.619036   -1.372349
     32          1           0        1.137088   -2.572170    0.644575
     33          1           0       -0.261127   -4.456812    0.984109
     34          1           0       -1.660733   -3.695877    0.244371
     35          1           0       -1.057085   -3.111027    1.802242
     36          1           0       -0.514803   -2.943423   -1.895063
     37          1           0        0.780704   -4.015255   -1.347082
     38          1           0        1.148147   -2.355767   -1.817982
     39          1           0       -2.369430   -1.658468    0.020150
 ---------------------------------------------------------------------
                    Distance matrix (angstroms):
                    1          2          3          4          5
     1  C    0.000000
     2  C    1.530009   0.000000
     3  C    2.519172   1.530104   0.000000
     4  C    2.502672   1.508946   2.500242   0.000000
     5  C    3.565929   2.512574   3.554348   1.385162   0.000000
     6  C    4.735888   3.804261   4.728811   2.426647   1.388758
     7  C    5.980521   5.028251   5.984687   3.806195   2.519335
     8  C    6.333904   5.195549   6.026435   4.286829   2.929850
     9  C    6.279155   5.638759   6.842080   4.506392   3.299574
    10  C    5.021500   4.272240   5.029348   2.763341   2.375210
    11  Br   6.871548   6.192668   6.905320   4.684011   4.150973
    12  C    4.369595   3.807815   4.375931   2.425158   2.782818
    13  C    5.371781   5.034965   5.399743   3.805010   4.292501
    14  C    5.489095   5.203766   5.168900   4.284831   5.098354
    15  C    5.609911   5.648922   6.256795   4.507325   4.988022
    16  C    3.079144   2.520785   3.085206   1.386386   2.382620
    17  H    1.087746   2.161775   2.766756   3.445458   4.436665
    18  H    1.087119   2.170227   2.766619   2.792323   4.046246
    19  H    1.087920   2.164425   3.466853   2.722255   3.490117
    20  H    2.140867   1.095775   2.140988   2.122681   2.555854
    21  H    2.770728   2.169906   1.087147   2.784949   4.029970
    22  H    2.762823   2.162059   1.087741   3.444047   4.429811
    23  H    3.466685   2.164253   1.087904   2.722114   3.472090
    24  H    3.786864   2.694066   3.770590   2.127241   1.078641
    25  H    6.839940   5.850532   6.666149   4.525910   3.359901
    26  H    6.309045   4.998403   5.570268   4.155156   2.947547
    27  H    7.396497   6.277090   7.092269   5.363947   4.000951
    28  H    5.899308   4.849479   5.804870   4.191144   2.864471
    29  H    5.654098   5.148324   6.476581   4.229967   3.088471
    30  H    6.429157   5.950771   7.167862   4.707477   3.704684
    31  H    7.280783   6.603868   7.784086   5.522645   4.250897
    32  H    6.343619   5.854690   6.173378   4.523967   4.765223
    33  H    6.513659   6.285896   6.202151   5.361937   6.119534
    34  H    4.891585   4.865651   4.824747   4.194533   5.224184
    35  H    5.535735   4.999644   4.715259   4.148437   4.948120
    36  H    4.867494   5.160642   5.830459   4.231223   4.908204
    37  H    6.518182   6.614213   7.102901   5.522999   6.045090
    38  H    5.956267   5.960543   6.761369   4.710068   4.911045
    39  H    2.935177   2.713623   2.950604   2.131509   3.358940
                    6          7          8          9         10
     6  C    0.000000
     7  C    1.509814   0.000000
     8  C    2.538299   1.528092   0.000000
     9  C    2.476894   1.532251   2.513856   0.000000
    10  C    1.392257   2.538582   3.784977   3.304462   0.000000
    11  Br   2.862884   3.139743   4.540125   3.634865   1.921301
    12  C    2.444349   3.832440   4.931654   4.528280   1.393329
    13  C    3.831984   5.075410   6.281307   5.672986   2.539040
    14  C    4.932468   6.282885   7.315563   7.022774   3.786732
    15  C    4.526521   5.670460   7.020308   5.875518   3.302830
    16  C    2.785096   4.294611   5.100492   4.989541   2.376276
    17  H    5.692499   6.866754   7.058356   7.154487   6.067804
    18  H    5.039685   6.411184   6.944267   6.740901   5.024971
    19  H    4.554755   5.673591   6.116624   5.715812   4.910890
    20  H    3.944129   4.910989   4.798688   5.469853   4.725684
    21  H    5.025707   6.407985   6.652487   7.272404   5.025203
    22  H    5.688740   6.873944   6.783568   7.665611   6.074919
    23  H    4.545960   5.683595   5.561421   6.731107   4.930537
    24  H    2.132653   2.706707   2.588228   3.372152   3.356037
    25  H    2.127092   1.094713   2.126844   2.143387   2.658391
    26  H    2.722270   2.167289   1.087954   3.461743   3.861892
    27  H    3.456770   2.150209   1.087767   2.817874   4.584132
    28  H    2.912622   2.176598   1.087403   2.699334   4.284931
    29  H    2.723418   2.165238   2.793817   1.088471   3.707188
    30  H    2.720904   2.170911   3.463988   1.087666   3.089029
    31  H    3.427846   2.163371   2.719778   1.087426   4.255378
    32  H    4.032005   5.056328   6.295005   5.729755   2.659269
    33  H    5.828611   7.096498   8.190703   7.804671   4.584730
    34  H    5.298776   6.737048   7.731046   7.370721   4.288578
    35  H    4.864491   6.201799   7.058872   7.146466   3.864171
    36  H    4.726425   5.973012   7.244903   6.087954   3.704471
    37  H    5.541389   6.636530   8.008235   6.839127   4.254481
    38  H    4.248876   5.178831   6.623406   5.176742   3.086812
    39  H    3.862426   5.371886   6.143718   6.025424   3.353738
                   11         12         13         14         15
    11  Br   0.000000
    12  C    2.863431   0.000000
    13  C    3.139081   1.509970   0.000000
    14  C    4.541564   2.538487   1.528222   0.000000
    15  C    3.629259   2.477114   1.532254   2.513814   0.000000
    16  C    4.150906   1.387184   2.517271   2.926398   3.300069
    17  H    7.936173   5.424664   6.402215   6.395511   6.641315
    18  H    6.797564   4.113145   4.848540   4.778680   5.011111
    19  H    6.666759   4.439503   5.481926   5.856350   5.498570
    20  H    6.611878   4.547758   5.896935   6.194591   6.503506
    21  H    6.824189   4.112696   4.873285   4.393231   5.734486
    22  H    7.966490   5.428488   6.423340   6.113351   7.202804
    23  H    6.732428   4.457367   5.536841   5.344628   6.590836
    24  H    4.994898   3.861427   5.371035   6.141379   6.025187
    25  H    2.609181   4.032540   5.055739   6.297486   5.724582
    26  H    4.744252   4.864033   6.199353   7.059083   7.143778
    27  H    4.974179   5.829032   7.096327   8.192820   7.801957
    28  H    5.286382   5.294806   6.733171   7.726797   7.368089
    29  H    4.428296   4.729133   5.977127   7.247681   6.091816
    30  H    3.085759   4.250756   5.182078   6.626239   5.176033
    31  H    4.279136   5.542743   6.638362   8.010517   6.837872
    32  H    2.610538   2.127235   1.094670   2.126850   2.143499
    33  H    4.974055   3.456616   2.150356   1.087756   2.820028
    34  H    5.287240   2.915406   2.176897   1.087530   2.697191
    35  H    4.749397   2.720942   2.167590   1.088000   3.461588
    36  H    4.421589   2.723013   2.165388   2.794605   1.088506
    37  H    4.274746   3.428133   2.163478   2.719208   1.087437
    38  H    3.077328   2.721808   2.170925   3.463941   1.087620
    39  H    4.989802   2.126990   2.698160   2.577088   3.368088
                   16         17         18         19         20
    16  C    0.000000
    17  H    4.098926   0.000000
    18  H    2.849793   1.763042   0.000000
    19  H    3.344462   1.766455   1.763920   0.000000
    20  H    3.397770   2.456374   3.054508   2.489257   0.000000
    21  H    2.850249   3.122620   2.573759   3.766102   3.054469
    22  H    4.101598   2.564698   3.109613   3.761534   2.460088
    23  H    3.360622   3.762034   3.765344   4.301002   2.485666
    24  H    3.357698   4.470682   4.500157   3.655921   2.273823
    25  H    4.767442   7.767376   7.163504   6.588693   5.832224
    26  H    4.952890   6.996638   6.884701   6.279202   4.640248
    27  H    6.122248   8.108476   8.014864   7.132222   5.841026
    28  H    5.222050   6.520376   6.640031   5.613824   4.270183
    29  H    4.910450   6.451322   6.223483   4.993844   4.871637
    30  H    4.911214   7.378302   6.739394   5.821709   5.957849
    31  H    6.046666   8.112057   7.791451   6.696778   6.335186
    32  H    3.357202   7.381790   5.887943   6.433580   6.639082
    33  H    3.997831   7.402019   5.743582   6.860198   7.281946
    34  H    2.866325   5.729196   4.045327   5.305071   5.923786
    35  H    2.939411   6.383419   4.924107   6.042934   5.950594
    36  H    3.089775   5.853144   4.193778   4.732196   6.050854
    37  H    4.250433   7.512325   5.818002   6.450987   7.513981
    38  H    3.706957   7.017317   5.511939   5.668758   6.686730
    39  H    1.077334   3.860494   2.363063   3.409638   3.760194
                   21         22         23         24         25
    21  H    0.000000
    22  H    1.763663   0.000000
    23  H    1.763728   1.766465   0.000000
    24  H    4.481495   4.460902   3.626566   0.000000
    25  H    6.986341   7.615076   6.280714   3.686536   0.000000
    26  H    6.193173   6.330695   4.944654   2.664017   2.536788
    27  H    7.722305   7.831997   6.583828   3.643690   2.372538
    28  H    6.549071   6.438958   5.442070   2.172566   3.041714
    29  H    6.988807   7.199524   6.479549   2.960166   3.052099
    30  H    7.454950   8.044158   7.147366   4.031472   2.472327
    31  H    8.266840   8.578813   7.603595   4.170833   2.484476
    32  H    5.692586   7.231120   6.152700   5.825693   4.800624
    33  H    5.374495   7.119612   6.357202   7.175114   6.991913
    34  H    3.958510   5.665742   5.207837   6.221087   6.906823
    35  H    3.950843   5.668785   4.716330   5.937452   6.196522
    36  H    5.297232   6.685986   6.330000   5.890000   6.213673
    37  H    6.473907   8.030368   7.438490   7.092889   6.587031
    38  H    6.384236   7.722582   7.050789   5.896306   5.196006
    39  H    2.378122   3.868289   3.439347   4.245857   5.825605
                   26         27         28         29         30
    26  H    0.000000
    27  H    1.764765   0.000000
    28  H    1.769606   1.756905   0.000000
    29  H    3.741330   3.258504   2.541835   0.000000
    30  H    4.305645   3.773999   3.734890   1.765619   0.000000
    31  H    3.756470   2.589043   2.936509   1.768404   1.763795
    32  H    6.190928   6.991613   6.902648   6.220085   5.203639
    33  H    7.937787   9.011165   8.669734   8.106996   7.318245
    34  H    7.510331   8.675132   8.003988   7.442564   6.988691
    35  H    6.649593   7.941091   7.503743   7.391489   6.895766
    36  H    7.390466   8.103255   7.439163   6.110424   5.451524
    37  H    8.103954   8.752071   8.407381   7.111070   6.077490
    38  H    6.891924   7.314346   6.987622   5.457741   4.359112
    39  H    5.942874   7.177686   6.220058   5.892134   5.894146
                   31         32         33         34         35
    31  H    0.000000
    32  H    6.591415   0.000000
    33  H    8.754277   2.371111   0.000000
    34  H    8.409811   3.041494   1.756455   0.000000
    35  H    8.107143   2.538692   1.764661   1.770142   0.000000
    36  H    7.106145   3.052267   3.262565   2.540969   3.740618
    37  H    7.758051   2.485196   2.591301   2.931781   3.756772
    38  H    6.076354   2.472071   3.775203   3.733498   4.305750
    39  H    7.093165   3.677013   3.633853   2.168769   2.647267
                   36         37         38         39
    36  H    0.000000
    37  H    1.768458   0.000000
    38  H    1.765413   1.763706   0.000000
    39  H    2.959526   4.164986   4.029678   0.000000
 Stoichiometry    C15H23Br
 Framework group  C1[X(C15H23Br)]
 Deg. of freedom   111
 Full point group                 C1      NOp   1
 Largest Abelian subgroup         C1      NOp   1
 Largest concise Abelian subgroup C1      NOp   1
                         Standard orientation:                         
 ---------------------------------------------------------------------
 Center     Atomic      Atomic             Coordinates (Angstroms)
 Number     Number       Type             X           Y           Z
 ---------------------------------------------------------------------
      1          6           0       -4.037032   -0.393380    1.365742
      2          6           0       -3.409164   -0.949029    0.085912
      3          6           0       -4.170245   -0.462148   -1.148965
      4          6           0       -1.950340   -0.573996   -0.004099
      5          6           0       -0.974478   -1.556271   -0.042909
      6          6           0        0.377667   -1.248974   -0.119864
      7          6           0        1.417296   -2.343829   -0.121767
      8          6           0        0.954163   -3.617353   -0.827960
      9          6           0        1.822382   -2.650214    1.323857
     10          6           0        0.726098    0.098721   -0.146174
     11         35           0        2.588734    0.568598   -0.180868
     12          6           0       -0.220411    1.121061   -0.128658
     13          6           0        0.177155    2.577704   -0.140682
     14          6           0       -0.835559    3.475874   -0.850020
     15          6           0        0.392395    3.048588    1.301449
     16          6           0       -1.555997    0.754279   -0.051463
     17          1           0       -5.067998   -0.728680    1.454482
     18          1           0       -4.030530    0.693708    1.360747
     19          1           0       -3.485065   -0.735798    2.238470
     20          1           0       -3.478472   -2.042093    0.119520
     21          1           0       -4.157352    0.623268   -1.208920
     22          1           0       -5.206233   -0.790842   -1.105733
     23          1           0       -3.717776   -0.860866   -2.054411
     24          1           0       -1.275608   -2.591392   -0.006710
     25          1           0        2.301752   -1.981014   -0.655154
     26          1           0        0.526558   -3.384953   -1.800990
     27          1           0        1.805042   -4.278720   -0.975727
     28          1           0        0.215246   -4.154653   -0.238252
     29          1           0        0.958830   -2.987823    1.894004
     30          1           0        2.228773   -1.764299    1.806576
     31          1           0        2.580410   -3.429628    1.343969
     32          1           0        1.126529    2.673485   -0.677170
     33          1           0       -0.397977    4.458940   -1.009130
     34          1           0       -1.737256    3.607514   -0.256443
     35          1           0       -1.108121    3.060559   -1.817990
     36          1           0       -0.526213    2.939367    1.875101
     37          1           0        0.689826    4.094479    1.314379
     38          1           0        1.171832    2.464684    1.785651
     39          1           0       -2.305468    1.527642   -0.022288
 ---------------------------------------------------------------------
 Rotational constants (GHZ):           0.4713917           0.3255801           0.2161132
 Leave Link  202 at Tue Sep 17 09:47:09 2024, MaxMem=  1342177280 cpu:               0.1 elap:               0.0
 (Enter /groups/ReismanLab/Software/Gaussian16_RevC/Linux_Binary_AVX2-enabled-CPU/g16/l301.exe)
 Standard basis: 6-31G(d,p) (6D, 7F)
 Ernie: Thresh=  0.10000D-02 Tol=  0.10000D-05 Strict=F.
 There are   370 symmetry adapted cartesian basis functions of A   symmetry.
 There are   370 symmetry adapted basis functions of A   symmetry.
   370 basis functions,   664 primitive gaussians,   370 cartesian basis functions
    74 alpha electrons       74 beta electrons
       nuclear repulsion energy      1534.1764973388 Hartrees.
 IExCor=  402 DFT=T Ex+Corr=B3LYP ExCW=0 ScaHFX=  0.200000
 ScaDFX=  0.800000  0.720000  1.000000  0.810000 ScalE2=  1.000000  1.000000
 IRadAn=      5 IRanWt=     -1 IRanGd=            0 ICorTp=0 IEmpDi=141
 NAtoms=   39 NActive=   39 NUniq=   39 SFac= 1.00D+00 NAtFMM=   60 NAOKFM=F Big=F
 Integral buffers will be    131072 words long.
 Raffenetti 2 integral format.
 Two-electron integral symmetry is turned on.
 R6Disp:  Grimme-D3(BJ) Dispersion energy=       -0.0818861761 Hartrees.
 Nuclear repulsion after empirical dispersion term =     1534.0946111627 Hartrees.
 Leave Link  301 at Tue Sep 17 09:47:09 2024, MaxMem=  1342177280 cpu:               0.1 elap:               0.1
 (Enter /groups/ReismanLab/Software/Gaussian16_RevC/Linux_Binary_AVX2-enabled-CPU/g16/l302.exe)
 NPDir=0 NMtPBC=     1 NCelOv=     1 NCel=       1 NClECP=     1 NCelD=      1
         NCelK=      1 NCelE2=     1 NClLst=     1 CellRange=     0.0.
 One-electron integrals computed using PRISM.
 One-electron integral symmetry used in STVInt
 NBasis=   370 RedAO= T EigKep=  3.03D-04  NBF=   370
 NBsUse=   370 1.00D-06 EigRej= -1.00D+00 NBFU=   370
 Precomputing XC quadrature grid using
 IXCGrd= 4 IRadAn=           5 IRanWt=          -1 IRanGd=           0 AccXCQ= 0.00D+00.
 Generated NRdTot=       0 NPtTot=           0 NUsed=           0 NTot=          32
 NSgBfM=   369   369   369   369   369 MxSgAt=    39 MxSgA2=    39.
 Leave Link  302 at Tue Sep 17 09:47:09 2024, MaxMem=  1342177280 cpu:               2.6 elap:               0.4
 (Enter /groups/ReismanLab/Software/Gaussian16_RevC/Linux_Binary_AVX2-enabled-CPU/g16/l303.exe)
 DipDrv:  MaxL=1.
 Leave Link  303 at Tue Sep 17 09:47:09 2024, MaxMem=  1342177280 cpu:               0.1 elap:               0.1
 (Enter /groups/ReismanLab/Software/Gaussian16_RevC/Linux_Binary_AVX2-enabled-CPU/g16/l401.exe)
 ExpMin= 1.43D-01 ExpMax= 5.74D+05 ExpMxC= 5.74D+03 IAcc=3 IRadAn=         5 AccDes= 0.00D+00
 Harris functional with IExCor=  402 and IRadAn=       5 diagonalized for initial guess.
 HarFok:  IExCor=  402 AccDes= 0.00D+00 IRadAn=         5 IDoV= 1 UseB2=F ITyADJ=14
 ICtDFT=  3500011 ScaDFX=  1.000000  1.000000  1.000000  1.000000
 FoFCou: FMM=F IPFlag=           0 FMFlag=      100000 FMFlg1=           0
         NFxFlg=           0 DoJE=T BraDBF=F KetDBF=T FulRan=T
         wScrn=  0.000000 ICntrl=       500 IOpCl=  0 I1Cent=   200000004 NGrid=           0
         NMat0=    1 NMatS0=      1 NMatT0=    0 NMatD0=    1 NMtDS0=    0 NMtDT0=    0
 Petite list used in FoFCou.
 Harris En= -3157.52324070608    
 JPrj=0 DoOrth=F DoCkMO=F.
 Leave Link  401 at Tue Sep 17 09:47:11 2024, MaxMem=  1342177280 cpu:              14.3 elap:               2.0
 (Enter /groups/ReismanLab/Software/Gaussian16_RevC/Linux_Binary_AVX2-enabled-CPU/g16/l502.exe)
 Integral symmetry usage will be decided dynamically.
 Closed shell SCF:
 Using DIIS extrapolation, IDIIS=  1040.
 NGot=  1342177280 LenX=  1341895517 LenY=  1341758176
 Requested convergence on RMS density matrix=1.00D-08 within  32 cycles.
 Requested convergence on MAX density matrix=1.00D-06.
 Requested convergence on             energy=1.00D-06.
 No special actions if energy rises.
 Fock matrices will be formed incrementally for  20 cycles.
 Integral accuracy reduced to 1.0D-05 until final iterations.

 Cycle   1  Pass 0  IDiag  1:
 FoFJK:  IHMeth= 1 ICntrl=       0 DoSepK=F KAlg= 0 I1Cent=           0 FoldK=F
 IRaf= 800000000 NMat=       1 IRICut=       1 DoRegI=T DoRafI=F ISym2E= 0 IDoP0=0 IntGTp=1.
 FoFCou: FMM=F IPFlag=           0 FMFlag=      100000 FMFlg1=           0
         NFxFlg=           0 DoJE=F BraDBF=F KetDBF=F FulRan=T
         wScrn=  0.000000 ICntrl=         0 IOpCl=  0 I1Cent=           0 NGrid=           0
         NMat0=    1 NMatS0=      1 NMatT0=    0 NMatD0=    1 NMtDS0=    0 NMtDT0=    0
 Symmetry not used in FoFCou.
 E= -3156.75491746142    
 DIIS: error= 1.39D-01 at cycle   1 NSaved=   1.
 NSaved= 1 IEnMin= 1 EnMin= -3156.75491746142     IErMin= 1 ErrMin= 1.39D-01
 ErrMax= 1.39D-01  0.00D+00 EMaxC= 1.00D-01 BMatC= 8.51D-01 BMatP= 8.51D-01
 IDIUse=3 WtCom= 0.00D+00 WtEn= 1.00D+00
 Coeff-Com:  0.100D+01
 Coeff-En:   0.100D+01
 Coeff:      0.100D+01
 Gap=     0.298 Goal=   None    Shift=    0.000
 GapD=    0.298 DampG=1.000 DampE=0.250 DampFc=0.2500 IDamp=-1.
 Damping current iteration by 2.50D-01
 RMSDP=4.54D-03 MaxDP=1.40D-01              OVMax= 1.71D-01

 Cycle   2  Pass 0  IDiag  1:
 RMSU=  1.11D-03    CP:  9.91D-01
 E= -3156.95329959238     Delta-E=       -0.198382130960 Rises=F Damp=T
 DIIS: error= 1.02D-01 at cycle   2 NSaved=   2.
 NSaved= 2 IEnMin= 2 EnMin= -3156.95329959238     IErMin= 2 ErrMin= 1.02D-01
 ErrMax= 1.02D-01  0.00D+00 EMaxC= 1.00D-01 BMatC= 3.18D-01 BMatP= 8.51D-01
 IDIUse=3 WtCom= 0.00D+00 WtEn= 1.00D+00
 Coeff-Com: -0.118D+01 0.218D+01
 Coeff-En:   0.000D+00 0.100D+01
 Coeff:      0.000D+00 0.100D+01
 Gap=     0.227 Goal=   None    Shift=    0.000
 RMSDP=2.22D-03 MaxDP=1.12D-01 DE=-1.98D-01 OVMax= 7.06D-02

 Cycle   3  Pass 0  IDiag  1:
 RMSU=  7.87D-04    CP:  9.64D-01  2.76D+00
 E= -3157.16715718880     Delta-E=       -0.213857596418 Rises=F Damp=F
 DIIS: error= 1.20D-02 at cycle   3 NSaved=   3.
 NSaved= 3 IEnMin= 3 EnMin= -3157.16715718880     IErMin= 3 ErrMin= 1.20D-02
 ErrMax= 1.20D-02  0.00D+00 EMaxC= 1.00D-01 BMatC= 1.22D-01 BMatP= 3.18D-01
 IDIUse=3 WtCom= 8.80D-01 WtEn= 1.20D-01
 EnCoef did   100 forward-backward iterations
 Coeff-Com:  0.199D+01-0.258D+01 0.159D+01
 Coeff-En:   0.152D+00 0.219D-02 0.846D+00
 Coeff:      0.177D+01-0.227D+01 0.150D+01
 Gap=     0.240 Goal=   None    Shift=    0.000
 RMSDP=1.14D-03 MaxDP=3.58D-02 DE=-2.14D-01 OVMax= 4.84D-02

 Cycle   4  Pass 0  IDiag  1:
 RMSU=  3.77D-04    CP:  9.67D-01  1.81D+00  1.26D+00
 E= -3157.29207423953     Delta-E=       -0.124917050733 Rises=F Damp=F
 DIIS: error= 2.80D-03 at cycle   4 NSaved=   4.
 NSaved= 4 IEnMin= 4 EnMin= -3157.29207423953     IErMin= 4 ErrMin= 2.80D-03
 ErrMax= 2.80D-03  0.00D+00 EMaxC= 1.00D-01 BMatC= 5.29D-03 BMatP= 1.22D-01
 IDIUse=3 WtCom= 9.72D-01 WtEn= 2.80D-02
 Coeff-Com:  0.901D+00-0.118D+01 0.750D+00 0.528D+00
 Coeff-En:   0.000D+00 0.000D+00 0.000D+00 0.100D+01
 Coeff:      0.876D+00-0.115D+01 0.729D+00 0.541D+00
 Gap=     0.226 Goal=   None    Shift=    0.000
 RMSDP=3.15D-04 MaxDP=2.03D-02 DE=-1.25D-01 OVMax= 4.03D-02

 Cycle   5  Pass 0  IDiag  1:
 RMSU=  1.53D-04    CP:  9.66D-01  1.86D+00  1.36D+00  3.19D-01
 E= -3157.29623978709     Delta-E=       -0.004165547554 Rises=F Damp=F
 DIIS: error= 1.83D-03 at cycle   5 NSaved=   5.
 NSaved= 5 IEnMin= 5 EnMin= -3157.29623978709     IErMin= 5 ErrMin= 1.83D-03
 ErrMax= 1.83D-03  0.00D+00 EMaxC= 1.00D-01 BMatC= 1.34D-03 BMatP= 5.29D-03
 IDIUse=3 WtCom= 9.82D-01 WtEn= 1.83D-02
 Coeff-Com:  0.177D+00-0.232D+00 0.170D+00 0.345D+00 0.539D+00
 Coeff-En:   0.000D+00 0.000D+00 0.000D+00 0.221D+00 0.779D+00
 Coeff:      0.174D+00-0.228D+00 0.167D+00 0.343D+00 0.544D+00
 Gap=     0.225 Goal=   None    Shift=    0.000
 RMSDP=1.35D-04 MaxDP=7.59D-03 DE=-4.17D-03 OVMax= 1.48D-02

 Cycle   6  Pass 0  IDiag  1:
 RMSU=  6.52D-05    CP:  9.66D-01  1.86D+00  1.35D+00  5.24D-01  4.17D-01
 E= -3157.29754755920     Delta-E=       -0.001307772115 Rises=F Damp=F
 DIIS: error= 5.02D-04 at cycle   6 NSaved=   6.
 NSaved= 6 IEnMin= 6 EnMin= -3157.29754755920     IErMin= 6 ErrMin= 5.02D-04
 ErrMax= 5.02D-04  0.00D+00 EMaxC= 1.00D-01 BMatC= 1.38D-04 BMatP= 1.34D-03
 IDIUse=3 WtCom= 9.95D-01 WtEn= 5.02D-03
 Coeff-Com:  0.370D-01-0.482D-01 0.443D-01 0.162D+00 0.329D+00 0.476D+00
 Coeff-En:   0.000D+00 0.000D+00 0.000D+00 0.000D+00 0.526D-01 0.947D+00
 Coeff:      0.368D-01-0.480D-01 0.441D-01 0.161D+00 0.327D+00 0.478D+00
 Gap=     0.226 Goal=   None    Shift=    0.000
 RMSDP=4.10D-05 MaxDP=2.06D-03 DE=-1.31D-03 OVMax= 3.73D-03

 Cycle   7  Pass 0  IDiag  1:
 RMSU=  1.44D-05    CP:  9.66D-01  1.87D+00  1.34D+00  5.05D-01  5.35D-01
                    CP:  5.42D-01
 E= -3157.29769116944     Delta-E=       -0.000143610236 Rises=F Damp=F
 DIIS: error= 5.59D-05 at cycle   7 NSaved=   7.
 NSaved= 7 IEnMin= 7 EnMin= -3157.29769116944     IErMin= 7 ErrMin= 5.59D-05
 ErrMax= 5.59D-05  0.00D+00 EMaxC= 1.00D-01 BMatC= 2.55D-06 BMatP= 1.38D-04
 IDIUse=1 WtCom= 1.00D+00 WtEn= 0.00D+00
 Coeff-Com:  0.703D-02-0.896D-02 0.110D-01 0.544D-01 0.119D+00 0.213D+00
 Coeff-Com:  0.605D+00
 Coeff:      0.703D-02-0.896D-02 0.110D-01 0.544D-01 0.119D+00 0.213D+00
 Coeff:      0.605D+00
 Gap=     0.226 Goal=   None    Shift=    0.000
 RMSDP=7.43D-06 MaxDP=2.76D-04 DE=-1.44D-04 OVMax= 6.88D-04

 Initial convergence to 1.0D-05 achieved.  Increase integral accuracy.
 Cycle   8  Pass 1  IDiag  1:
 E= -3157.29765172128     Delta-E=        0.000039448162 Rises=F Damp=F
 DIIS: error= 9.86D-05 at cycle   1 NSaved=   1.
 NSaved= 1 IEnMin= 1 EnMin= -3157.29765172128     IErMin= 1 ErrMin= 9.86D-05
 ErrMax= 9.86D-05  0.00D+00 EMaxC= 1.00D-01 BMatC= 9.13D-07 BMatP= 9.13D-07
 IDIUse=1 WtCom= 1.00D+00 WtEn= 0.00D+00
 Coeff-Com:  0.100D+01
 Coeff:      0.100D+01
 Gap=     0.226 Goal=   None    Shift=    0.000
 RMSDP=7.43D-06 MaxDP=2.76D-04 DE= 3.94D-05 OVMax= 4.56D-04

 Cycle   9  Pass 1  IDiag  1:
 RMSU=  2.29D-05    CP:  1.00D+00
 E= -3157.29765181067     Delta-E=       -0.000000089394 Rises=F Damp=F
 DIIS: error= 2.98D-05 at cycle   2 NSaved=   2.
 NSaved= 2 IEnMin= 2 EnMin= -3157.29765181067     IErMin= 2 ErrMin= 2.98D-05
 ErrMax= 2.98D-05  0.00D+00 EMaxC= 1.00D-01 BMatC= 4.69D-07 BMatP= 9.13D-07
 IDIUse=1 WtCom= 1.00D+00 WtEn= 0.00D+00
 Coeff-Com:  0.385D+00 0.615D+00
 Coeff:      0.385D+00 0.615D+00
 Gap=     0.226 Goal=   None    Shift=    0.000
 RMSDP=3.91D-06 MaxDP=2.33D-04 DE=-8.94D-08 OVMax= 5.34D-04

 Cycle  10  Pass 1  IDiag  1:
 RMSU=  3.88D-06    CP:  1.00D+00  9.79D-01
 E= -3157.29765199808     Delta-E=       -0.000000187412 Rises=F Damp=F
 DIIS: error= 2.70D-05 at cycle   3 NSaved=   3.
 NSaved= 3 IEnMin= 3 EnMin= -3157.29765199808     IErMin= 3 ErrMin= 2.70D-05
 ErrMax= 2.70D-05  0.00D+00 EMaxC= 1.00D-01 BMatC= 2.88D-07 BMatP= 4.69D-07
 IDIUse=1 WtCom= 1.00D+00 WtEn= 0.00D+00
 Coeff-Com:  0.307D-01 0.434D+00 0.536D+00
 Coeff:      0.307D-01 0.434D+00 0.536D+00
 Gap=     0.226 Goal=   None    Shift=    0.000
 RMSDP=1.96D-06 MaxDP=9.88D-05 DE=-1.87D-07 OVMax= 2.56D-04

 Cycle  11  Pass 1  IDiag  1:
 RMSU=  7.48D-07    CP:  1.00D+00  9.98D-01  5.47D-01
 E= -3157.29765230054     Delta-E=       -0.000000302453 Rises=F Damp=F
 DIIS: error= 4.79D-06 at cycle   4 NSaved=   4.
 NSaved= 4 IEnMin= 4 EnMin= -3157.29765230054     IErMin= 4 ErrMin= 4.79D-06
 ErrMax= 4.79D-06  0.00D+00 EMaxC= 1.00D-01 BMatC= 1.73D-08 BMatP= 2.88D-07
 IDIUse=1 WtCom= 1.00D+00 WtEn= 0.00D+00
 Coeff-Com: -0.137D-02 0.234D+00 0.327D+00 0.440D+00
 Coeff:     -0.137D-02 0.234D+00 0.327D+00 0.440D+00
 Gap=     0.226 Goal=   None    Shift=    0.000
 RMSDP=3.97D-07 MaxDP=2.19D-05 DE=-3.02D-07 OVMax= 4.49D-05

 Cycle  12  Pass 1  IDiag  1:
 RMSU=  1.19D-07    CP:  1.00D+00  9.97D-01  5.77D-01  5.20D-01
 E= -3157.29765231777     Delta-E=       -0.000000017239 Rises=F Damp=F
 DIIS: error= 5.78D-07 at cycle   5 NSaved=   5.
 NSaved= 5 IEnMin= 5 EnMin= -3157.29765231777     IErMin= 5 ErrMin= 5.78D-07
 ErrMax= 5.78D-07  0.00D+00 EMaxC= 1.00D-01 BMatC= 2.17D-10 BMatP= 1.73D-08
 IDIUse=1 WtCom= 1.00D+00 WtEn= 0.00D+00
 Coeff-Com: -0.132D-02 0.113D+00 0.160D+00 0.229D+00 0.500D+00
 Coeff:     -0.132D-02 0.113D+00 0.160D+00 0.229D+00 0.500D+00
 Gap=     0.226 Goal=   None    Shift=    0.000
 RMSDP=6.44D-08 MaxDP=3.57D-06 DE=-1.72D-08 OVMax= 7.21D-06

 Cycle  13  Pass 1  IDiag  1:
 RMSU=  3.88D-08    CP:  1.00D+00  9.97D-01  5.75D-01  4.98D-01  6.07D-01
 E= -3157.29765231798     Delta-E=       -0.000000000207 Rises=F Damp=F
 DIIS: error= 1.70D-07 at cycle   6 NSaved=   6.
 NSaved= 6 IEnMin= 6 EnMin= -3157.29765231798     IErMin= 6 ErrMin= 1.70D-07
 ErrMax= 1.70D-07  0.00D+00 EMaxC= 1.00D-01 BMatC= 1.91D-11 BMatP= 2.17D-10
 IDIUse=1 WtCom= 1.00D+00 WtEn= 0.00D+00
 Coeff-Com: -0.704D-03 0.544D-01 0.769D-01 0.111D+00 0.299D+00 0.459D+00
 Coeff:     -0.704D-03 0.544D-01 0.769D-01 0.111D+00 0.299D+00 0.459D+00
 Gap=     0.226 Goal=   None    Shift=    0.000
 RMSDP=1.63D-08 MaxDP=8.07D-07 DE=-2.07D-10 OVMax= 1.98D-06

 Cycle  14  Pass 1  IDiag  1:
 RMSU=  1.27D-08    CP:  1.00D+00  9.97D-01  5.75D-01  5.00D-01  6.50D-01
                    CP:  7.76D-01
 E= -3157.29765231803     Delta-E=       -0.000000000046 Rises=F Damp=F
 DIIS: error= 6.03D-08 at cycle   7 NSaved=   7.
 NSaved= 7 IEnMin= 7 EnMin= -3157.29765231803     IErMin= 7 ErrMin= 6.03D-08
 ErrMax= 6.03D-08  0.00D+00 EMaxC= 1.00D-01 BMatC= 1.72D-12 BMatP= 1.91D-11
 IDIUse=1 WtCom= 1.00D+00 WtEn= 0.00D+00
 Coeff-Com: -0.141D-03 0.888D-02 0.126D-01 0.178D-01 0.780D-01 0.253D+00
 Coeff-Com:  0.630D+00
 Coeff:     -0.141D-03 0.888D-02 0.126D-01 0.178D-01 0.780D-01 0.253D+00
 Coeff:      0.630D+00
 Gap=     0.226 Goal=   None    Shift=    0.000
 RMSDP=5.44D-09 MaxDP=3.02D-07 DE=-4.64D-11 OVMax= 5.45D-07

 SCF Done:  E(RB3LYP) =  -3157.29765232     A.U. after   14 cycles
            NFock= 14  Conv=0.54D-08     -V/T= 2.0068
 KE= 3.136126920887D+03 PE=-1.055566544995D+04 EE= 2.728146265582D+03
 Leave Link  502 at Tue Sep 17 09:47:46 2024, MaxMem=  1342177280 cpu:             271.6 elap:              35.1
 (Enter /groups/ReismanLab/Software/Gaussian16_RevC/Linux_Binary_AVX2-enabled-CPU/g16/l508.exe)
 QCSCF skips out because SCF is already converged.
 Leave Link  508 at Tue Sep 17 09:47:46 2024, MaxMem=  1342177280 cpu:               0.0 elap:               0.0
 (Enter /groups/ReismanLab/Software/Gaussian16_RevC/Linux_Binary_AVX2-enabled-CPU/g16/l601.exe)
 Copying SCF densities to generalized density rwf, IOpCl= 0 IROHF=0.

 **********************************************************************

            Population analysis using the SCF Density.

 **********************************************************************

 Orbital symmetries:
       Occupied  (A) (A) (A) (A) (A) (A) (A) (A) (A) (A) (A) (A)
                 (A) (A) (A) (A) (A) (A) (A) (A) (A) (A) (A) (A)
                 (A) (A) (A) (A) (A) (A) (A) (A) (A) (A) (A) (A)
                 (A) (A) (A) (A) (A) (A) (A) (A) (A) (A) (A) (A)
                 (A) (A) (A) (A) (A) (A) (A) (A) (A) (A) (A) (A)
                 (A) (A) (A) (A) (A) (A) (A) (A) (A) (A) (A) (A)
                 (A) (A)
       Virtual   (A) (A) (A) (A) (A) (A) (A) (A) (A) (A) (A) (A)
                 (A) (A) (A) (A) (A) (A) (A) (A) (A) (A) (A) (A)
                 (A) (A) (A) (A) (A) (A) (A) (A) (A) (A) (A) (A)
                 (A) (A) (A) (A) (A) (A) (A) (A) (A) (A) (A) (A)
                 (A) (A) (A) (A) (A) (A) (A) (A) (A) (A) (A) (A)
                 (A) (A) (A) (A) (A) (A) (A) (A) (A) (A) (A) (A)
                 (A) (A) (A) (A) (A) (A) (A) (A) (A) (A) (A) (A)
                 (A) (A) (A) (A) (A) (A) (A) (A) (A) (A) (A) (A)
                 (A) (A) (A) (A) (A) (A) (A) (A) (A) (A) (A) (A)
                 (A) (A) (A) (A) (A) (A) (A) (A) (A) (A) (A) (A)
                 (A) (A) (A) (A) (A) (A) (A) (A) (A) (A) (A) (A)
                 (A) (A) (A) (A) (A) (A) (A) (A) (A) (A) (A) (A)
                 (A) (A) (A) (A) (A) (A) (A) (A) (A) (A) (A) (A)
                 (A) (A) (A) (A) (A) (A) (A) (A) (A) (A) (A) (A)
                 (A) (A) (A) (A) (A) (A) (A) (A) (A) (A) (A) (A)
                 (A) (A) (A) (A) (A) (A) (A) (A) (A) (A) (A) (A)
                 (A) (A) (A) (A) (A) (A) (A) (A) (A) (A) (A) (A)
                 (A) (A) (A) (A) (A) (A) (A) (A) (A) (A) (A) (A)
                 (A) (A) (A) (A) (A) (A) (A) (A) (A) (A) (A) (A)
                 (A) (A) (A) (A) (A) (A) (A) (A) (A) (A) (A) (A)
                 (A) (A) (A) (A) (A) (A) (A) (A) (A) (A) (A) (A)
                 (A) (A) (A) (A) (A) (A) (A) (A) (A) (A) (A) (A)
                 (A) (A) (A) (A) (A) (A) (A) (A) (A) (A) (A) (A)
                 (A) (A) (A) (A) (A) (A) (A) (A) (A) (A) (A) (A)
                 (A) (A) (A) (A) (A) (A) (A) (A)
 The electronic state is 1-A.
 Alpha  occ. eigenvalues -- -482.90662 -61.86747 -56.38756 -56.38378 -56.38362
 Alpha  occ. eigenvalues --  -10.23058 -10.19600 -10.19550 -10.19160 -10.18828
 Alpha  occ. eigenvalues --  -10.18812 -10.18768 -10.18016 -10.18013 -10.17337
 Alpha  occ. eigenvalues --  -10.17315 -10.17173 -10.17136 -10.16899 -10.16887
 Alpha  occ. eigenvalues --   -8.57699  -6.53006  -6.51806  -6.51765  -2.64582
 Alpha  occ. eigenvalues --   -2.64243  -2.64212  -2.63255  -2.63254  -0.87968
 Alpha  occ. eigenvalues --   -0.82281  -0.81759  -0.78226  -0.77453  -0.72619
 Alpha  occ. eigenvalues --   -0.70653  -0.68594  -0.68394  -0.68266  -0.63380
 Alpha  occ. eigenvalues --   -0.60822  -0.59723  -0.55198  -0.53925  -0.49690
 Alpha  occ. eigenvalues --   -0.48702  -0.45556  -0.45173  -0.43963  -0.43511
 Alpha  occ. eigenvalues --   -0.43361  -0.42738  -0.41911  -0.40921  -0.39924
 Alpha  occ. eigenvalues --   -0.39102  -0.38863  -0.38455  -0.37332  -0.37049
 Alpha  occ. eigenvalues --   -0.36650  -0.35740  -0.34459  -0.34259  -0.33981
 Alpha  occ. eigenvalues --   -0.33894  -0.32910  -0.32705  -0.31656  -0.31083
 Alpha  occ. eigenvalues --   -0.29623  -0.27310  -0.23945  -0.22665
 Alpha virt. eigenvalues --   -0.00109   0.00154   0.01919   0.08610   0.09934
 Alpha virt. eigenvalues --    0.10170   0.11912   0.12379   0.13809   0.14569
 Alpha virt. eigenvalues --    0.14960   0.15177   0.15305   0.15894   0.16280
 Alpha virt. eigenvalues --    0.16373   0.16973   0.18000   0.18811   0.19051
 Alpha virt. eigenvalues --    0.19334   0.19524   0.19737   0.19862   0.20127
 Alpha virt. eigenvalues --    0.20692   0.21274   0.22374   0.22574   0.24477
 Alpha virt. eigenvalues --    0.26086   0.26546   0.27607   0.28029   0.29382
 Alpha virt. eigenvalues --    0.29687   0.31698   0.33647   0.34789   0.37876
 Alpha virt. eigenvalues --    0.39539   0.42421   0.44405   0.45635   0.45680
 Alpha virt. eigenvalues --    0.46778   0.48444   0.49717   0.50328   0.50710
 Alpha virt. eigenvalues --    0.51063   0.51357   0.52133   0.53150   0.53733
 Alpha virt. eigenvalues --    0.54096   0.55352   0.56938   0.57748   0.58578
 Alpha virt. eigenvalues --    0.59443   0.60155   0.60502   0.63135   0.63458
 Alpha virt. eigenvalues --    0.64027   0.64768   0.65292   0.67075   0.67729
 Alpha virt. eigenvalues --    0.68501   0.70482   0.70875   0.71171   0.72718
 Alpha virt. eigenvalues --    0.74643   0.75263   0.77541   0.77730   0.79029
 Alpha virt. eigenvalues --    0.80216   0.81070   0.81922   0.83030   0.83538
 Alpha virt. eigenvalues --    0.83911   0.84631   0.85097   0.85923   0.86335
 Alpha virt. eigenvalues --    0.87067   0.87913   0.88105   0.88479   0.88786
 Alpha virt. eigenvalues --    0.89648   0.89953   0.90277   0.90521   0.91679
 Alpha virt. eigenvalues --    0.92905   0.93384   0.93671   0.94400   0.94999
 Alpha virt. eigenvalues --    0.95700   0.96411   0.98114   0.98450   0.98844
 Alpha virt. eigenvalues --    1.00035   1.00082   1.01221   1.01377   1.06955
 Alpha virt. eigenvalues --    1.08566   1.12395   1.14890   1.16743   1.19516
 Alpha virt. eigenvalues --    1.22303   1.22892   1.25457   1.27311   1.28559
 Alpha virt. eigenvalues --    1.29048   1.29801   1.36231   1.39863   1.41312
 Alpha virt. eigenvalues --    1.44298   1.45895   1.47016   1.49151   1.50141
 Alpha virt. eigenvalues --    1.54185   1.54703   1.55786   1.56625   1.56804
 Alpha virt. eigenvalues --    1.57881   1.59694   1.60508   1.61899   1.64339
 Alpha virt. eigenvalues --    1.66992   1.70260   1.75400   1.76979   1.78285
 Alpha virt. eigenvalues --    1.79269   1.80966   1.82466   1.83282   1.84056
 Alpha virt. eigenvalues --    1.84327   1.85270   1.86099   1.87188   1.88061
 Alpha virt. eigenvalues --    1.88157   1.88499   1.90218   1.91290   1.93014
 Alpha virt. eigenvalues --    1.94079   1.94628   1.98344   1.99729   2.02102
 Alpha virt. eigenvalues --    2.04605   2.04909   2.05308   2.05479   2.06193
 Alpha virt. eigenvalues --    2.06649   2.07295   2.08883   2.09453   2.10467
 Alpha virt. eigenvalues --    2.11261   2.11600   2.12011   2.12072   2.12709
 Alpha virt. eigenvalues --    2.13043   2.13440   2.13571   2.14401   2.14719
 Alpha virt. eigenvalues --    2.15448   2.16912   2.18127   2.18968   2.19757
 Alpha virt. eigenvalues --    2.21840   2.22984   2.25264   2.30030   2.30525
 Alpha virt. eigenvalues --    2.31530   2.33057   2.33933   2.34533   2.36197
 Alpha virt. eigenvalues --    2.36961   2.38730   2.39607   2.41334   2.42283
 Alpha virt. eigenvalues --    2.44783   2.45823   2.48726   2.51185   2.53386
 Alpha virt. eigenvalues --    2.54659   2.55660   2.56397   2.60362   2.61600
 Alpha virt. eigenvalues --    2.62750   2.64250   2.67097   2.67442   2.68413
 Alpha virt. eigenvalues --    2.69836   2.70899   2.72010   2.72338   2.72500
 Alpha virt. eigenvalues --    2.73345   2.74220   2.75493   2.76406   2.76883
 Alpha virt. eigenvalues --    2.78731   2.79124   2.81861   2.86193   2.89933
 Alpha virt. eigenvalues --    2.90689   2.90897   2.91163   2.91312   2.91555
 Alpha virt. eigenvalues --    2.91715   2.92750   2.93462   2.93977   2.98510
 Alpha virt. eigenvalues --    2.99363   3.01762   3.03061   3.09512   3.21004
 Alpha virt. eigenvalues --    3.21136   3.21332   3.24299   3.24985   3.25179
 Alpha virt. eigenvalues --    3.26481   3.28681   3.34825   3.35850   3.36098
 Alpha virt. eigenvalues --    3.43360   3.43607   3.44098   3.44244   3.48274
 Alpha virt. eigenvalues --    3.48902   3.49392   3.49937   3.50045   3.51066
 Alpha virt. eigenvalues --    3.54861   3.55833   3.56365   3.72920   4.13623
 Alpha virt. eigenvalues --    4.20362   4.22663   4.37171   4.37782   4.38685
 Alpha virt. eigenvalues --    4.47496   4.49907   4.51248   4.54221   4.56264
 Alpha virt. eigenvalues --    4.64645   4.70861   4.71651   4.86471   8.70647
 Alpha virt. eigenvalues --   74.54549
          Condensed to atoms (all electrons):
               1          2          3          4          5          6
     1  C    4.954441   0.366399  -0.056644  -0.045834  -0.000346  -0.000295
     2  C    0.366399   4.955441   0.365517   0.361697  -0.039182   0.007002
     3  C   -0.056644   0.365517   4.954415  -0.044863  -0.001165  -0.000335
     4  C   -0.045834   0.361697  -0.044863   4.746481   0.523731  -0.012929
     5  C   -0.000346  -0.039182  -0.001165   0.523731   5.043660   0.484563
     6  C   -0.000295   0.007002  -0.000335  -0.012929   0.484563   4.866783
     7  C    0.000001  -0.000205   0.000004   0.006310  -0.059638   0.368601
     8  C    0.000000  -0.000001  -0.000001   0.000248  -0.009101  -0.038105
     9  C    0.000000   0.000001  -0.000000  -0.000259  -0.005568  -0.043086
    10  C    0.000021   0.001262   0.000013  -0.043754  -0.042064   0.473920
    11  Br  -0.000000   0.000006  -0.000000  -0.000122   0.006542  -0.079746
    12  C    0.000199   0.004991   0.000158  -0.008026  -0.056249  -0.015207
    13  C    0.000000  -0.000194   0.000004   0.005984   0.000640   0.007180
    14  C    0.000000  -0.000001  -0.000009   0.000274   0.000015  -0.000192
    15  C   -0.000002   0.000002   0.000000  -0.000263   0.000044  -0.000245
    16  C   -0.006088  -0.060540  -0.005862   0.497394  -0.039294  -0.057998
    17  H    0.373657  -0.029852  -0.003517   0.005111  -0.000041   0.000004
    18  H    0.384039  -0.032995  -0.006467  -0.008912   0.000029   0.000020
    19  H    0.379466  -0.032234   0.005640  -0.000927   0.001228  -0.000047
    20  H   -0.043597   0.381784  -0.043306  -0.043829  -0.008449   0.000395
    21  H   -0.006478  -0.032922   0.384323  -0.009117   0.000027   0.000019
    22  H   -0.003584  -0.029934   0.373369   0.005019  -0.000042   0.000004
    23  H    0.005655  -0.032035   0.379388  -0.000990   0.001391  -0.000040
    24  H    0.000247  -0.012045   0.000270  -0.041585   0.364057  -0.049906
    25  H   -0.000000   0.000002   0.000000  -0.000161   0.005278  -0.036547
    26  H    0.000000   0.000005  -0.000001  -0.000269   0.000982  -0.001640
    27  H    0.000000  -0.000000  -0.000000  -0.000005   0.000320   0.004416
    28  H   -0.000000  -0.000004   0.000000   0.000262   0.001413  -0.009275
    29  H   -0.000001   0.000002   0.000000  -0.000045   0.004483  -0.008797
    30  H   -0.000000   0.000000   0.000000   0.000024  -0.000230  -0.004121
    31  H   -0.000000  -0.000000   0.000000   0.000005   0.000061   0.005154
    32  H    0.000000   0.000002  -0.000000  -0.000146  -0.000022   0.000116
    33  H   -0.000000  -0.000000   0.000000  -0.000006  -0.000000   0.000003
    34  H   -0.000001  -0.000003  -0.000003   0.000279  -0.000004   0.000005
    35  H    0.000000  -0.000005   0.000007  -0.000255  -0.000009  -0.000015
    36  H    0.000002  -0.000001   0.000000  -0.000028  -0.000022   0.000020
    37  H    0.000000  -0.000000  -0.000000   0.000005  -0.000000   0.000005
    38  H    0.000000   0.000000  -0.000000   0.000025  -0.000012  -0.000134
    39  H    0.000584  -0.008205   0.000568  -0.048183   0.006206   0.000677
               7          8          9         10         11         12
     1  C    0.000001   0.000000   0.000000   0.000021  -0.000000   0.000199
     2  C   -0.000205  -0.000001   0.000001   0.001262   0.000006   0.004991
     3  C    0.000004  -0.000001  -0.000000   0.000013  -0.000000   0.000158
     4  C    0.006310   0.000248  -0.000259  -0.043754  -0.000122  -0.008026
     5  C   -0.059638  -0.009101  -0.005568  -0.042064   0.006542  -0.056249
     6  C    0.368601  -0.038105  -0.043086   0.473920  -0.079746  -0.015207
     7  C    4.974187   0.357223   0.363563  -0.055678  -0.021490   0.007103
     8  C    0.357223   4.960332  -0.052968   0.004767   0.000896  -0.000191
     9  C    0.363563  -0.052968   4.957709  -0.004871  -0.003713  -0.000243
    10  C   -0.055678   0.004767  -0.004871   5.088394   0.274379   0.467429
    11  Br  -0.021490   0.000896  -0.003713   0.274379  35.026880  -0.078805
    12  C    0.007103  -0.000191  -0.000243   0.467429  -0.078805   4.849669
    13  C   -0.000151   0.000001   0.000000  -0.054620  -0.021344   0.369396
    14  C    0.000001  -0.000000  -0.000000   0.004851   0.000892  -0.038206
    15  C    0.000000  -0.000000   0.000001  -0.004795  -0.003886  -0.043347
    16  C    0.000579   0.000010   0.000043  -0.041393   0.006709   0.503165
    17  H   -0.000000  -0.000000   0.000000  -0.000000   0.000000   0.000000
    18  H    0.000000  -0.000000  -0.000000  -0.000008  -0.000000  -0.000041
    19  H    0.000001  -0.000000  -0.000000  -0.000018  -0.000000  -0.000077
    20  H   -0.000007  -0.000008  -0.000001  -0.000013  -0.000000  -0.000186
    21  H    0.000000   0.000000  -0.000000  -0.000006  -0.000000  -0.000032
    22  H   -0.000000   0.000000  -0.000000  -0.000000   0.000000   0.000003
    23  H    0.000000  -0.000000   0.000000  -0.000015  -0.000000  -0.000068
    24  H   -0.012743   0.004030   0.000442   0.005672  -0.000160   0.000610
    25  H    0.387737  -0.044021  -0.043495  -0.014359   0.012248   0.000137
    26  H   -0.033448   0.380706   0.005551   0.000366   0.000048  -0.000014
    27  H   -0.029043   0.378624  -0.002561  -0.000084   0.000000   0.000003
    28  H   -0.027939   0.378883  -0.008031  -0.000319  -0.000032   0.000006
    29  H   -0.031976  -0.007292   0.381042  -0.000389   0.000091   0.000021
    30  H   -0.031401   0.005596   0.381709   0.001719   0.006380  -0.000136
    31  H   -0.032236  -0.003734   0.374483   0.000127  -0.000042   0.000005
    32  H    0.000008  -0.000000   0.000000  -0.014599   0.012187  -0.036332
    33  H   -0.000000   0.000000  -0.000000  -0.000080   0.000000   0.004436
    34  H    0.000000   0.000000  -0.000000  -0.000333  -0.000032  -0.009418
    35  H    0.000000  -0.000000  -0.000000   0.000338   0.000049  -0.001778
    36  H    0.000000  -0.000000  -0.000000  -0.000446   0.000098  -0.008862
    37  H   -0.000000   0.000000   0.000000   0.000130  -0.000037   0.005159
    38  H    0.000003  -0.000000  -0.000001   0.001744   0.006473  -0.004152
    39  H    0.000014  -0.000000   0.000000   0.005787  -0.000164  -0.044498
              13         14         15         16         17         18
     1  C    0.000000   0.000000  -0.000002  -0.006088   0.373657   0.384039
     2  C   -0.000194  -0.000001   0.000002  -0.060540  -0.029852  -0.032995
     3  C    0.000004  -0.000009   0.000000  -0.005862  -0.003517  -0.006467
     4  C    0.005984   0.000274  -0.000263   0.497394   0.005111  -0.008912
     5  C    0.000640   0.000015   0.000044  -0.039294  -0.000041   0.000029
     6  C    0.007180  -0.000192  -0.000245  -0.057998   0.000004   0.000020
     7  C   -0.000151   0.000001   0.000000   0.000579  -0.000000   0.000000
     8  C    0.000001  -0.000000  -0.000000   0.000010  -0.000000  -0.000000
     9  C    0.000000  -0.000000   0.000001   0.000043   0.000000  -0.000000
    10  C   -0.054620   0.004851  -0.004795  -0.041393  -0.000000  -0.000008
    11  Br  -0.021344   0.000892  -0.003886   0.006709   0.000000  -0.000000
    12  C    0.369396  -0.038206  -0.043347   0.503165   0.000000  -0.000041
    13  C    4.973665   0.357051   0.363740  -0.061735  -0.000000   0.000007
    14  C    0.357051   4.961066  -0.052790  -0.009070  -0.000000  -0.000014
    15  C    0.363740  -0.052790   4.957780  -0.005497  -0.000000  -0.000002
    16  C   -0.061735  -0.009070  -0.005497   5.046215   0.000122   0.003158
    17  H   -0.000000  -0.000000  -0.000000   0.000122   0.617215  -0.030927
    18  H    0.000007  -0.000014  -0.000002   0.003158  -0.030927   0.608015
    19  H    0.000001  -0.000000   0.000000   0.000102  -0.029797  -0.031087
    20  H    0.000002  -0.000000  -0.000000   0.005847  -0.004719   0.005920
    21  H   -0.000003   0.000004   0.000000   0.003447  -0.000319   0.004895
    22  H   -0.000000   0.000000   0.000000   0.000171   0.003344  -0.000319
    23  H    0.000000   0.000000  -0.000000  -0.000046  -0.000078   0.000007
    24  H    0.000013  -0.000000   0.000000   0.006839  -0.000025   0.000003
    25  H    0.000008  -0.000000   0.000000  -0.000018   0.000000  -0.000000
    26  H    0.000000  -0.000000  -0.000000  -0.000010   0.000000   0.000000
    27  H   -0.000000   0.000000  -0.000000  -0.000000   0.000000  -0.000000
    28  H    0.000000   0.000000  -0.000000  -0.000003   0.000000   0.000000
    29  H    0.000000  -0.000000  -0.000000  -0.000021   0.000000  -0.000000
    30  H    0.000003  -0.000000  -0.000001  -0.000012   0.000000   0.000000
    31  H   -0.000000   0.000000   0.000000  -0.000000  -0.000000  -0.000000
    32  H    0.387655  -0.044138  -0.043469   0.005461   0.000000  -0.000000
    33  H   -0.029115   0.378672  -0.002501   0.000303  -0.000000   0.000000
    34  H   -0.027876   0.378410  -0.008088   0.001552   0.000000   0.000024
    35  H   -0.033417   0.380731   0.005543   0.001088  -0.000000  -0.000002
    36  H   -0.031888  -0.007376   0.380817   0.004665   0.000000   0.000027
    37  H   -0.032271  -0.003745   0.374541   0.000049  -0.000000   0.000000
    38  H   -0.031408   0.005603   0.381728  -0.000249   0.000000  -0.000000
    39  H   -0.012963   0.004555   0.000407   0.364712  -0.000153   0.002239
              19         20         21         22         23         24
     1  C    0.379466  -0.043597  -0.006478  -0.003584   0.005655   0.000247
     2  C   -0.032234   0.381784  -0.032922  -0.029934  -0.032035  -0.012045
     3  C    0.005640  -0.043306   0.384323   0.373369   0.379388   0.000270
     4  C   -0.000927  -0.043829  -0.009117   0.005019  -0.000990  -0.041585
     5  C    0.001228  -0.008449   0.000027  -0.000042   0.001391   0.364057
     6  C   -0.000047   0.000395   0.000019   0.000004  -0.000040  -0.049906
[...]
    38  H    0.000096  -0.000003  -0.000053   0.001168   0.000815  -0.018646
    39  H    0.000015  -0.000004  -0.000006  -0.001391  -0.000097  -0.022334
              13         14         15         16         17         18
     1  C   -0.000157   0.000008  -0.000024  -0.020039   0.416120   0.400339
     2  C   -0.000034   0.000230  -0.000040  -0.082653  -0.055932   0.002171
     3  C    0.000096  -0.000165   0.000016  -0.022883  -0.001050  -0.013079
     4  C    0.025572   0.002721  -0.001955   0.319982   0.017717  -0.038596
     5  C   -0.006523  -0.001102  -0.000014   0.043950  -0.000414   0.002246
     6  C    0.019472   0.002080   0.006050  -0.232263   0.000061   0.000076
     7  C   -0.001471   0.000003   0.000247  -0.005654   0.000002  -0.000010
     8  C   -0.000008  -0.000003  -0.000005  -0.000434  -0.000000   0.000002
     9  C    0.000228  -0.000005  -0.000081   0.000065   0.000000  -0.000000
    10  C   -0.152699   0.021338   0.030548   0.093268   0.000001   0.000122
    11  Br  -0.007959   0.004668  -0.021954   0.032760   0.000000   0.000000
    12  C    0.182832  -0.057857  -0.021711   0.143444  -0.000208   0.002383
    13  C    5.458436   0.221003   0.212432  -0.055458   0.000007  -0.000100
    14  C    0.221003   5.182032  -0.050012  -0.016654  -0.000002   0.000205
    15  C    0.212432  -0.050012   5.161119  -0.035344  -0.000000  -0.000013
    16  C   -0.055458  -0.016654  -0.035344   5.688738   0.001124   0.004905
    17  H    0.000007  -0.000002  -0.000000   0.001124   0.523445  -0.027354
    18  H   -0.000100   0.000205  -0.000013   0.004905  -0.027354   0.534534
    19  H    0.000044  -0.000015   0.000002  -0.004740  -0.021125  -0.024802
    20  H   -0.000022   0.000007  -0.000003   0.014198  -0.004913   0.007965
    21  H   -0.000026   0.000082  -0.000008   0.002954  -0.000036   0.004851
    22  H   -0.000010   0.000010   0.000000   0.001874   0.000696  -0.000043
    23  H   -0.000000   0.000018  -0.000000  -0.003146  -0.000232  -0.000175
    24  H    0.000036  -0.000002  -0.000006   0.015403   0.000024  -0.000143
    25  H   -0.000327   0.000011   0.000026   0.000189  -0.000000   0.000000
    26  H    0.000007  -0.000000   0.000000  -0.000100   0.000000  -0.000000
    27  H    0.000002  -0.000000  -0.000000  -0.000014  -0.000000   0.000000
    28  H   -0.000008   0.000000   0.000000   0.000256  -0.000000   0.000000
    29  H   -0.000019   0.000000   0.000000  -0.000157   0.000000   0.000000
    30  H    0.000086  -0.000002  -0.000049  -0.000204   0.000000   0.000000
    31  H   -0.000005   0.000000   0.000002   0.000013  -0.000000  -0.000000
    32  H    0.496380  -0.052989  -0.068299   0.016633   0.000000   0.000001
    33  H   -0.052891   0.419155  -0.003373  -0.000363  -0.000000  -0.000001
    34  H    0.013984   0.391105  -0.015261   0.018202   0.000001   0.000184
    35  H   -0.078351   0.439514   0.010198  -0.012662   0.000000  -0.000000
    36  H   -0.006828  -0.014313   0.392648  -0.001823   0.000001   0.000028
    37  H   -0.056128  -0.005369   0.418891   0.002209  -0.000000  -0.000000
    38  H   -0.033158   0.009719   0.418508  -0.000280   0.000000   0.000000
    39  H    0.000689  -0.008540  -0.001490   0.370093   0.000129  -0.001929
              19         20         21         22         23         24
     1  C    0.413965  -0.052698  -0.013018  -0.001026   0.011195   0.000564
     2  C   -0.052002   0.495181   0.002103  -0.054998  -0.052032  -0.013916
     3  C    0.011174  -0.052306   0.400115   0.415895   0.414060   0.000652
     4  C    0.012081  -0.124505  -0.035542   0.016207   0.009304   0.020248
     5  C   -0.000903   0.016035   0.001804  -0.000469  -0.000272   0.362424
     6  C   -0.000118   0.002919   0.000113   0.000038  -0.000179  -0.039530
     7  C    0.000042  -0.000051  -0.000005  -0.000001  -0.000015   0.001200
     8  C   -0.000012   0.000253   0.000002   0.000001   0.000011  -0.008423
     9  C   -0.000002  -0.000031  -0.000000  -0.000000   0.000001  -0.001117
    10  C   -0.000261   0.000501   0.000024   0.000025  -0.000117   0.000842
    11  Br  -0.000000  -0.000002  -0.000000   0.000000  -0.000000  -0.000150
    12  C   -0.000014  -0.000709   0.002130  -0.000177   0.000175  -0.001529
    13  C    0.000044  -0.000022  -0.000026  -0.000010  -0.000000   0.000036
    14  C   -0.000015   0.000007   0.000082   0.000010   0.000018  -0.000002
    15  C    0.000002  -0.000003  -0.000008   0.000000  -0.000000  -0.000006
    16  C   -0.004740   0.014198   0.002954   0.001874  -0.003146   0.015403
    17  H   -0.021125  -0.004913  -0.000036   0.000696  -0.000232   0.000024
    18  H   -0.024802   0.007965   0.004851  -0.000043  -0.000175  -0.000143
    19  H    0.513829  -0.004674  -0.000185  -0.000239  -0.000367   0.000318
    20  H   -0.004674   0.570359   0.007951  -0.004985  -0.004625   0.001745
    21  H   -0.000185   0.007951   0.533983  -0.027555  -0.024619  -0.000150
    22  H   -0.000239  -0.004985  -0.027555   0.524019  -0.021136   0.000024
    23  H   -0.000367  -0.004625  -0.024619  -0.021136   0.513973   0.000340
    24  H    0.000318   0.001745  -0.000150   0.000024   0.000340   0.482321
    25  H    0.000000   0.000007   0.000000   0.000000  -0.000001   0.000015
    26  H   -0.000000  -0.000034  -0.000000  -0.000000   0.000012  -0.001666
    27  H   -0.000000  -0.000002   0.000000  -0.000000   0.000000   0.000713
    28  H    0.000002   0.000197   0.000001  -0.000000  -0.000004  -0.002943
    29  H    0.000009   0.000008   0.000000   0.000000  -0.000000   0.000046
    30  H    0.000001   0.000001   0.000000  -0.000000  -0.000000  -0.000058
    31  H    0.000000  -0.000000   0.000000   0.000000  -0.000000   0.000044
    32  H   -0.000000  -0.000001   0.000001   0.000000   0.000000  -0.000002
    33  H   -0.000000   0.000000  -0.000001   0.000000  -0.000000   0.000000
    34  H   -0.000002   0.000000   0.000099  -0.000002  -0.000004  -0.000001
    35  H    0.000000  -0.000000   0.000045  -0.000001   0.000001   0.000001
    36  H    0.000010  -0.000000   0.000002  -0.000000  -0.000000  -0.000000
    37  H   -0.000000   0.000000   0.000000  -0.000000   0.000000   0.000000
    38  H    0.000000   0.000000  -0.000000  -0.000000  -0.000000  -0.000001
    39  H    0.000426  -0.000073  -0.001663   0.000091   0.000329  -0.000280
              25         26         27         28         29         30
     1  C   -0.000001   0.000003   0.000000  -0.000019  -0.000007  -0.000003
     2  C   -0.000003   0.000076   0.000007  -0.000156  -0.000007   0.000008
     3  C   -0.000002   0.000008  -0.000000  -0.000003   0.000000   0.000000
     4  C    0.000504  -0.002373  -0.000155   0.004574   0.000413   0.000408
     5  C    0.014613  -0.012804   0.000125   0.016076  -0.001560  -0.000243
     6  C   -0.069539   0.023167   0.019120  -0.050698  -0.012668  -0.019205
     7  C    0.497876  -0.079175  -0.052852   0.015343  -0.007747  -0.032604
     8  C   -0.052829   0.439672   0.418708   0.391238  -0.014268   0.009695
     9  C   -0.068397   0.010251  -0.003493  -0.015433   0.393041   0.418498
    10  C   -0.034779   0.004936  -0.000905  -0.004274  -0.000926   0.001251
    11  Br  -0.000812   0.000055   0.000016  -0.000146   0.000682   0.000809
    12  C   -0.003291  -0.000125   0.000060  -0.000291  -0.000162   0.003204
    13  C   -0.000327   0.000007   0.000002  -0.000008  -0.000019   0.000086
    14  C    0.000011  -0.000000  -0.000000   0.000000   0.000000  -0.000002
    15  C    0.000026   0.000000  -0.000000   0.000000   0.000000  -0.000049
    16  C    0.000189  -0.000100  -0.000014   0.000256  -0.000157  -0.000204
    17  H   -0.000000   0.000000  -0.000000  -0.000000   0.000000   0.000000
    18  H    0.000000  -0.000000   0.000000   0.000000   0.000000   0.000000
    19  H    0.000000  -0.000000  -0.000000   0.000002   0.000009   0.000001
    20  H    0.000007  -0.000034  -0.000002   0.000197   0.000008   0.000001
    21  H    0.000000  -0.000000   0.000000   0.000001   0.000000   0.000000
    22  H    0.000000  -0.000000  -0.000000  -0.000000   0.000000  -0.000000
    23  H   -0.000001   0.000012   0.000000  -0.000004  -0.000000  -0.000000
    24  H    0.000015  -0.001666   0.000713  -0.002943   0.000046  -0.000058
    25  H    0.567586  -0.004512  -0.007031   0.008856   0.008336  -0.005134
    26  H   -0.004512   0.497606  -0.017320  -0.029315  -0.000164  -0.000335
    27  H   -0.007031  -0.017320   0.505976  -0.026654   0.000209  -0.000023
    28  H    0.008856  -0.029315  -0.026654   0.539851   0.004965  -0.000058
    29  H    0.008336  -0.000164   0.000209   0.004965   0.530495  -0.023082
    30  H   -0.005134  -0.000335  -0.000023  -0.000058  -0.023082   0.511060
    31  H   -0.003355  -0.000071   0.000845  -0.000027  -0.026554  -0.021594
    32  H    0.000017  -0.000001   0.000000  -0.000000  -0.000001   0.000012
    33  H    0.000000  -0.000000  -0.000000   0.000000   0.000000   0.000000
    34  H   -0.000000  -0.000000   0.000000  -0.000000  -0.000000   0.000000
    35  H   -0.000001   0.000000  -0.000000  -0.000000   0.000000  -0.000000
    36  H   -0.000001   0.000000   0.000000  -0.000000   0.000000   0.000006
    37  H   -0.000001  -0.000000   0.000000  -0.000000  -0.000000  -0.000000
    38  H    0.000011  -0.000000   0.000000   0.000000   0.000006   0.000024
    39  H   -0.000002   0.000002   0.000000  -0.000001  -0.000001  -0.000001
              31         32         33         34         35         36
     1  C   -0.000000   0.000001   0.000001  -0.000015   0.000002   0.000002
     2  C   -0.000002  -0.000000   0.000002  -0.000019  -0.000003  -0.000034
     3  C    0.000000  -0.000009   0.000000   0.000042   0.000048   0.000006
     4  C    0.000055   0.000547  -0.000149   0.004384  -0.001956   0.000515
     5  C    0.001881   0.000152  -0.000015   0.000278  -0.000086  -0.000137
     6  C    0.017432  -0.003532   0.000068  -0.000332  -0.000099  -0.000165
     7  C   -0.055224  -0.000318   0.000002  -0.000009   0.000007  -0.000019
     8  C   -0.005267   0.000011  -0.000000   0.000000  -0.000000   0.000000
     9  C    0.418366   0.000027  -0.000000   0.000000  -0.000000  -0.000001
    10  C   -0.002391  -0.035775  -0.000751  -0.004168   0.004412  -0.001103
    11  Br   0.001087  -0.000946   0.000014  -0.000146   0.000063   0.000688
    12  C   -0.000216  -0.068815   0.019133  -0.052263   0.022831  -0.012886
    13  C   -0.000005   0.496380  -0.052891   0.013984  -0.078351  -0.006828
    14  C    0.000000  -0.052989   0.419155   0.391105   0.439514  -0.014313
    15  C    0.000002  -0.068299  -0.003373  -0.015261   0.010198   0.392648
    16  C    0.000013   0.016633  -0.000363   0.018202  -0.012662  -0.001823
    17  H   -0.000000   0.000000  -0.000000   0.000001   0.000000   0.000001
    18  H   -0.000000   0.000001  -0.000001   0.000184  -0.000000   0.000028
    19  H    0.000000  -0.000000  -0.000000  -0.000002   0.000000   0.000010
    20  H   -0.000000  -0.000001   0.000000   0.000000  -0.000000  -0.000000
    21  H    0.000000   0.000001  -0.000001   0.000099   0.000045   0.000002
    22  H    0.000000   0.000000   0.000000  -0.000002  -0.000001  -0.000000
    23  H   -0.000000   0.000000  -0.000000  -0.000004   0.000001  -0.000000
    24  H    0.000044  -0.000002   0.000000  -0.000001   0.000001  -0.000000
    25  H   -0.003355   0.000017   0.000000  -0.000000  -0.000001  -0.000001
    26  H   -0.000071  -0.000001  -0.000000  -0.000000   0.000000   0.000000
    27  H    0.000845   0.000000  -0.000000   0.000000  -0.000000   0.000000
    28  H   -0.000027  -0.000000   0.000000  -0.000000  -0.000000  -0.000000
    29  H   -0.026554  -0.000001   0.000000  -0.000000   0.000000   0.000000
    30  H   -0.021594   0.000012   0.000000   0.000000  -0.000000   0.000006
    31  H    0.523962  -0.000001   0.000000  -0.000000  -0.000000  -0.000000
    32  H   -0.000001   0.568180  -0.007099   0.008944  -0.004602   0.008298
    33  H    0.000000  -0.007099   0.504571  -0.026663  -0.016882   0.000235
    34  H   -0.000000   0.008944  -0.026663   0.540986  -0.029567   0.004953
    35  H   -0.000000  -0.004602  -0.016882  -0.029567   0.497039  -0.000170
    36  H   -0.000000   0.008298   0.000235   0.004953  -0.000170   0.530526
    37  H   -0.000000  -0.003291   0.000810  -0.000016  -0.000059  -0.026577
    38  H   -0.000000  -0.005077  -0.000028  -0.000064  -0.000334  -0.022994
    39  H    0.000000   0.000048   0.000787  -0.002433  -0.002420  -0.000101
              37         38         39
     1  C    0.000001  -0.000000  -0.005395
     2  C    0.000000   0.000004   0.009095
     3  C   -0.000000   0.000000  -0.005144
     4  C    0.000041   0.000373  -0.006845
     5  C    0.000024  -0.000261   0.007950
     6  C   -0.000255   0.003314  -0.000497
     7  C   -0.000005   0.000096   0.000015
     8  C    0.000000  -0.000003  -0.000004
     9  C    0.000003  -0.000053  -0.000006
    10  C   -0.002361   0.001168  -0.001391
    11  Br   0.001132   0.000815  -0.000097
    12  C    0.017638  -0.018646  -0.022334
    13  C   -0.056128  -0.033158   0.000689
    14  C   -0.005369   0.009719  -0.008540
    15  C    0.418891   0.418508  -0.001490
    16  C    0.002209  -0.000280   0.370093
    17  H   -0.000000   0.000000   0.000129
    18  H   -0.000000   0.000000  -0.001929
    19  H   -0.000000   0.000000   0.000426
    20  H    0.000000   0.000000  -0.000073
    21  H    0.000000  -0.000000  -0.001663
    22  H   -0.000000  -0.000000   0.000091
    23  H    0.000000  -0.000000   0.000329
    24  H    0.000000  -0.000001  -0.000280
    25  H   -0.000001   0.000011  -0.000002
    26  H   -0.000000  -0.000000   0.000002
    27  H    0.000000   0.000000   0.000000
    28  H   -0.000000   0.000000  -0.000001
    29  H   -0.000000   0.000006  -0.000001
    30  H   -0.000000   0.000024  -0.000001
    31  H   -0.000000  -0.000000   0.000000
    32  H   -0.003291  -0.005077   0.000048
    33  H    0.000810  -0.000028   0.000787
    34  H   -0.000016  -0.000064  -0.002433
    35  H   -0.000059  -0.000334  -0.002420
    36  H   -0.026577  -0.022994  -0.000101
    37  H    0.523805  -0.021690   0.000063
    38  H   -0.021690   0.511255  -0.000049
    39  H    0.000063  -0.000049   0.460857
 Mulliken charges:
               1
     1  C   -0.437988
     2  C   -0.221431
     3  C   -0.438202
     4  C    0.087834
     5  C   -0.194169
     6  C    0.163425
     7  C   -0.180306
     8  C   -0.484895
     9  C   -0.431421
    10  C   -0.127773
    11  Br  -0.138680
    12  C    0.152446
    13  C   -0.179124
    14  C   -0.486879
    15  C   -0.431046
    16  C   -0.275387
    17  H    0.151940
    18  H    0.146233
    19  H    0.157556
    20  H    0.132309
    21  H    0.146549
    22  H    0.151761
    23  H    0.157503
    24  H    0.182959
    25  H    0.151971
    26  H    0.172202
    27  H    0.162668
    28  H    0.148672
    29  H    0.149111
    30  H    0.157533
    31  H    0.151017
    32  H    0.151504
    33  H    0.163438
    34  H    0.147804
    35  H    0.173032
    36  H    0.149233
    37  H    0.151135
    38  H    0.157342
    39  H    0.210120
 Sum of Mulliken charges =  -0.00000
 Mulliken charges with hydrogens summed into heavy atoms:
               1
     1  C    0.017742
     2  C   -0.089122
     3  C    0.017611
     4  C    0.087834
     5  C   -0.011210
     6  C    0.163425
     7  C   -0.028335
     8  C   -0.001353
     9  C    0.026240
    10  C   -0.127773
    11  Br  -0.138680
    12  C    0.152446
    13  C   -0.027620
    14  C   -0.002605
    15  C    0.026665
    16  C   -0.065267
 Electronic spatial extent (au):  <R**2>=           5321.7649
 Charge=             -0.0000 electrons
 Dipole moment (field-independent basis, Debye):
    X=             -1.8892    Y=             -0.4735    Z=              0.1148  Tot=              1.9510
 Quadrupole moment (field-independent basis, Debye-Ang):
   XX=           -110.9775   YY=           -106.1710   ZZ=           -117.0651
   XY=             -0.6540   XZ=             -0.2519   YZ=             -0.1244
 Traceless Quadrupole moment (field-independent basis, Debye-Ang):
   XX=              0.4270   YY=              5.2336   ZZ=             -5.6606
   XY=             -0.6540   XZ=             -0.2519   YZ=             -0.1244
 Octapole moment (field-independent basis, Debye-Ang**2):
  XXX=             63.8647  YYY=             18.3027  ZZZ=             -9.3126  XYY=             30.0018
  XXY=             -3.6162  XXZ=             -1.0427  XZZ=             29.1806  YZZ=              5.0652
  YYZ=             -4.1406  XYZ=              0.8121
 Hexadecapole moment (field-independent basis, Debye-Ang**3):
 XXXX=          -3489.3167 YYYY=          -2820.2155 ZZZZ=           -572.0383 XXXY=             66.5704
 XXXZ=            -28.8871 YYYX=             45.1876 YYYZ=            -10.4825 ZZZX=            -22.0123
 ZZZY=             -4.6546 XXYY=          -1049.5992 XXZZ=           -711.6023 YYZZ=           -583.9472
 XXYZ=              0.6382 YYXZ=            -14.9991 ZZXY=             17.1382
 N-N= 1.526477344067D+03 E-N=-1.056121620987D+04  KE= 3.152845135404D+03
 Calculating spin-rotation constants.
 Leave Link  601 at Tue Sep 17 13:04:53 2024, MaxMem=  1342177280 cpu:              19.3 elap:              19.3
 (Enter /groups/ReismanLab/Software/Gaussian16_RevC/Linux_Binary_AVX2-enabled-CPU/g16/l9999.exe)
 Unable to Open any file for archive entry.
 1\1\GINC-HPC-34-15\SP\RM062X\def2TZVP\C15H23Br1\MANTIND\17-Sep-2024\0\
 \#p M062X/def2tzvp geom=check guess=read scf(xqc,tight) integral(grid=
 ultrafine) scrf(SMD, solvent=1,4-Dioxane) nmr=giao\\spe\\0,1\C,0,-4.32
 95902753,0.1712232004,-1.2688788282\C,0,-3.6908713022,0.7394569517,0.0
 089766852\C,0,-4.3993045712,0.2070550693,1.2654613\C,0,-2.1972863727,0
 .4670907876,0.054648528\C,0,-1.2824509486,1.518530096,0.0771172524\C,0
 ,0.101021976,1.3078760539,0.1198841332\C,0,1.0757617754,2.4759833896,0
 .0990898042\C,0,0.4951226951,3.780577164,0.6557104472\C,0,1.6158639917
 ,2.6834523746,-1.3287767199\C,0,0.5368436365,-0.0241063683,0.137256934
 3\Br,0,2.4371071001,-0.3668304989,0.1738180206\C,0,-0.3378024568,-1.12
 23778173,0.1234160958\C,0,0.1699160257,-2.5566934181,0.107088772\C,0,-
 0.8291726778,-3.5757858348,0.6658656253\C,0,0.6045319703,-2.9434154502
 ,-1.3194714606\C,0,-1.7056992992,-0.8401648006,0.0801969655\H,0,-5.393
 9673131,0.4240738346,-1.3157943426\H,0,-4.2448006741,-0.9202091783,-1.
 2992649775\H,0,-3.8414273955,0.5685154886,-2.1635926814\H,0,-3.8203849
 466,1.829089473,-0.0101238679\H,0,-4.314893099,-0.8828023107,1.3321274
 66\H,0,-5.4648851593,0.458543094,1.2459717105\H,0,-3.9617826231,0.6314
 271413,2.1738184108\H,0,-1.6586283762,2.5358145608,0.063220162\H,0,1.9
 224884951,2.1941488851,0.7343369655\H,0,0.0581430299,3.6374217026,1.64
 85096708\H,0,1.2875053489,4.5306518418,0.7370543348\H,0,-0.2769275206,
 4.1975300767,0.0004272171\H,0,0.8020548282,2.9576935247,-2.0085163266\
 H,0,2.084433291,1.7703902619,-1.7027880912\H,0,2.3618634712,3.48485209
 12,-1.346389495\H,0,1.0612845365,-2.5855947603,0.7431172509\H,0,-0.347
 5686845,-4.5544247649,0.7517503701\H,0,-1.6969071327,-3.7007720958,0.0
 094428012\H,0,-1.1909317182,-3.2856537448,1.6568706054\H,0,-0.25387436
 57,-2.9192632765,-1.9992752971\H,0,1.025100208,-3.9543365927,-1.334073
 0813\H,0,1.3615001757,-2.2515929075,-1.6955907153\H,0,-2.4063350648,-1
 .6671406011,0.0686735737\\Version=ES64L-G16RevC.02\State=1-A\HF=-3159.
 6044197\RMSD=1.743e-09\Dipole=-0.7528411,0.1476215,-0.0254962\Quadrupo
 le=0.2834791,3.932594,-4.2160731,0.2957516,0.0816655,-0.0402652\PG=C01
  [X(C15H23Br1)]\\@
 The archive entry for this job was punched.


 THERE'S SMALL CHOICE IN A BOWL OF ROTTEN APPLES.
                     SHAKESPEARE
 Job cpu time:       0 days  0 hours 49 minutes 46.3 seconds.
 Elapsed time:       0 days  0 hours 49 minutes 53.6 seconds.
 File lengths (MBytes):  RWF=    480 Int=      0 D2E=      0 Chk=     48 Scr=     16
 Normal termination of Gaussian 16 at Tue Sep 17 13:04:53 2024.
