 Entering Gaussian System, Link 0=g16
 Input=smiles_00007_conf_1.gjf
 Output=smiles_00007_conf_1.log
 Initial command:
 /groups/ReismanLab/Software/Gaussian16_RevC/Linux_Binary_AVX2-enabled-CPU/g16/l1.exe "/central/groups/ReismanLab/DM/dft_final/smiles_00007/Gau-198181.inp" -scrdir="/central/groups/ReismanLab/DM/dft_final/smiles_00007/"
 Entering Link 1 = /groups/ReismanLab/Software/Gaussian16_RevC/Linux_Binary_AVX2-enabled-CPU/g16/l1.exe PID=    198190.
  
 Copyright (c) 1988-2021, Gaussian, Inc.  All Rights Reserved.
  
 This is part of the Gaussian(R) 16 program.  It is based on
 the Gaussian(R) 09 system (copyright 2009, Gaussian, Inc.),
 the Gaussian(R) 03 system (copyright 2003, Gaussian, Inc.),
 the Gaussian(R) 98 system (copyright 1998, Gaussian, Inc.),
 the Gaussian(R) 94 system (copyright 1995, Gaussian, Inc.),
 the Gaussian 92(TM) system (copyright 1992, Gaussian, Inc.),
 the Gaussian 90(TM) system (copyright 1990, Gaussian, Inc.),
 the Gaussian 88(TM) system (copyright 1988, Gaussian, Inc.),
 the Gaussian 86(TM) system (copyright 1986, Carnegie Mellon
 University), and the Gaussian 82(TM) system (copyright 1983,
 Carnegie Mellon University). Gaussian is a federally registered
 trademark of Gaussian, Inc.
  
 This software contains proprietary and confidential information,
 including trade secrets, belonging to Gaussian, Inc.
  
 This software is provided under written license and may be
 used, copied, transmitted, or stored only in accord with that
 written license.
  
 The following legend is applicable only to US Government
 contracts under FAR:
  
                    RESTRICTED RIGHTS LEGEND
  
 Use, reproduction and disclosure by the US Government is
 subject to restrictions as set forth in subparagraphs (a)
 and (c) of the Commercial Computer Software - Restricted
 Rights clause in FAR 52.227-19.
  
 Gaussian, Inc.
 340 Quinnipiac St., Bldg. 40, Wallingford CT 06492
  
  
 ---------------------------------------------------------------
 Warning -- This program may not be used in any manner that
 competes with the business of Gaussian, Inc. or will provide
 assistance to any competitor of Gaussian, Inc.  The licensee
 of this program is prohibited from giving any competitor of
 Gaussian, Inc. access to this program.  By using this program,
 the user acknowledges that Gaussian, Inc. is engaged in the
 business of creating and licensing software in the field of
 computational chemistry and represents and warrants to the
 licensee that it is not a competitor of Gaussian, Inc. and that
 it will not use this program in any manner prohibited above.
 ---------------------------------------------------------------
  

 Cite this work as:
 Gaussian 16, Revision C.02,
 M. J. Frisch, G. W. Trucks, H. B. Schlegel, G. E. Scuseria, 
 M. A. Robb, J. R. Cheeseman, G. Scalmani, V. Barone, 
 G. A. Petersson, H. Nakatsuji, X. Li, M. Caricato, A. V. Marenich, 
 J. Bloino, B. G. Janesko, R. Gomperts, B. Mennucci, H. P. Hratchian, 
 J. V. Ortiz, A. F. Izmaylov, J. L. Sonnenberg, D. Williams-Young, 
 F. Ding, F. Lipparini, F. Egidi, J. Goings, B. Peng, A. Petrone, 
 T. Henderson, D. Ranasinghe, V. G. Zakrzewski, J. Gao, N. Rega, 
 G. Zheng, W. Liang, M. Hada, M. Ehara, K. Toyota, R. Fukuda, 
 J. Hasegawa, M. Ishida, T. Nakajima, Y. Honda, O. Kitao, H. Nakai, 
 T. Vreven, K. Throssell, J. A. Montgomery, Jr., J. E. Peralta, 
 F. Ogliaro, M. J. Bearpark, J. J. Heyd, E. N. Brothers, K. N. Kudin, 
 V. N. Staroverov, T. A. Keith, R. Kobayashi, J. Normand, 
 K. Raghavachari, A. P. Rendell, J. C. Burant, S. S. Iyengar, 
 J. Tomasi, M. Cossi, J. M. Millam, M. Klene, C. Adamo, R. Cammi, 
 J. W. Ochterski, R. L. Martin, K. Morokuma, O. Farkas, 
 J. B. Foresman, and D. J. Fox, Gaussian, Inc., Wallingford CT, 2019.
 
 ******************************************
 Gaussian 16:  ES64L-G16RevC.02  7-Dec-2021
                17-Sep-2024 
 ******************************************
 %nprocshared=8
 Will use up to    8 processors via shared memory.
 %Mem=10GB
 %Chk=smiles_00007_conf_1.chk
 ----------------------------------------------------------------------
 #p B3LYP/6-31G(d,p) EmpiricalDispersion=GD3BJ opt freq scf(xqc,tight) 
 integral(grid=ultrafine)
 ----------------------------------------------------------------------
 1/18=20,19=15,26=4,38=1/1,3;
 2/9=110,12=2,17=6,18=5,40=1/2;
 3/5=1,6=6,7=101,11=2,25=1,30=1,71=1,74=-5,75=-5,124=41/1,2,3;
 4//1;
 5/5=2,8=3,13=1,32=2,38=5/2,8;
 6/7=2,8=2,9=2,10=2,28=1/1;
 7//1,2,3,16;
 1/18=20,19=15,26=4/3(2);
 2/9=110/2;
 99//99;
 2/9=110/2;
 3/5=1,6=6,7=101,11=2,25=1,30=1,71=1,74=-5,75=-5,124=41/1,2,3;
 4/5=5,16=3,69=1/1;
 5/5=2,8=3,13=1,32=2,38=5/2,8;
 7//1,2,3,16;
 1/18=20,19=15,26=4/3(-5);
 2/9=110/2;
 6/7=2,8=2,9=2,10=2,19=2,28=1/1;
 99/9=1/99;
 Leave Link    1 at Tue Sep 17 09:51:24 2024, MaxMem=  1342177280 cpu:               0.1 elap:               0.8
 (Enter /groups/ReismanLab/Software/Gaussian16_RevC/Linux_Binary_AVX2-enabled-CPU/g16/l101.exe)
 ----------------------------------
 opt-freq conformers_unique/conf_ab
 ----------------------------------
 Symbolic Z-matrix:
 Charge =  0 Multiplicity = 1
 N                    -1.80684   3.05707   0.66463 
 C                    -1.28028   2.05785   0.47323 
 C                    -0.56484   0.86359   0.21505 
 C                     0.82839   0.92918   0.24009 
 C                     1.56972  -0.1962   -0.06238 
 Br                    3.46889  -0.10468  -0.02896 
 C                     0.94612  -1.39211  -0.39241 
 C                    -0.43237  -1.45954  -0.40944 
 C                    -1.20989  -0.34298  -0.1053 
 N                    -2.59832  -0.44037  -0.11678 
 C                    -3.35354  -1.20318  -0.97822 
 C                    -4.64723  -1.0394   -0.59093 
 N                    -4.70913  -0.22227   0.49678 
 C                    -3.48922   0.12673   0.7548 
 H                     1.31268   1.86171   0.4874 
 H                     1.53686  -2.26381  -0.62634 
 H                    -0.91879  -2.39318  -0.64604 
 H                    -2.91803  -1.74382  -1.79263 
 H                    -5.53648  -1.45638  -1.0178 
 H                    -3.19065   0.75439   1.56946 
 
 ITRead=  0  0  0  0  0  0  0  0  0  0  0  0  0  0  0  0  0  0  0  0
 MicOpt= -1 -1 -1 -1 -1 -1 -1 -1 -1 -1 -1 -1 -1 -1 -1 -1 -1 -1 -1 -1
 NAtoms=     20 NQM=       20 NQMF=       0 NMMI=      0 NMMIF=      0
                NMic=       0 NMicF=      0.
                    Isotopes and Nuclear Properties:
 (Nuclear quadrupole moments (NQMom) in fm**2, nuclear magnetic moments (NMagM)
  in nuclear magnetons)

  Atom         1           2           3           4           5           6           7           8           9          10
 IAtWgt=          14          12          12          12          12          79          12          12          12          14
 AtmWgt=  14.0030740  12.0000000  12.0000000  12.0000000  12.0000000  78.9183361  12.0000000  12.0000000  12.0000000  14.0030740
 NucSpn=           2           0           0           0           0           3           0           0           0           2
 AtZEff=  -0.0000000  -0.0000000  -0.0000000  -0.0000000  -0.0000000  -0.0000000  -0.0000000  -0.0000000  -0.0000000  -0.0000000
 NQMom=    2.0440000   0.0000000   0.0000000   0.0000000   0.0000000  31.3000000   0.0000000   0.0000000   0.0000000   2.0440000
 NMagM=    0.4037610   0.0000000   0.0000000   0.0000000   0.0000000   2.1063990   0.0000000   0.0000000   0.0000000   0.4037610
 AtZNuc=   7.0000000   6.0000000   6.0000000   6.0000000   6.0000000  35.0000000   6.0000000   6.0000000   6.0000000   7.0000000

  Atom        11          12          13          14          15          16          17          18          19          20
 IAtWgt=          12          12          14          12           1           1           1           1           1           1
 AtmWgt=  12.0000000  12.0000000  14.0030740  12.0000000   1.0078250   1.0078250   1.0078250   1.0078250   1.0078250   1.0078250
 NucSpn=           0           0           2           0           1           1           1           1           1           1
 AtZEff=  -0.0000000  -0.0000000  -0.0000000  -0.0000000  -0.0000000  -0.0000000  -0.0000000  -0.0000000  -0.0000000  -0.0000000
 NQMom=    0.0000000   0.0000000   2.0440000   0.0000000   0.0000000   0.0000000   0.0000000   0.0000000   0.0000000   0.0000000
 NMagM=    0.0000000   0.0000000   0.4037610   0.0000000   2.7928460   2.7928460   2.7928460   2.7928460   2.7928460   2.7928460
 AtZNuc=   6.0000000   6.0000000   7.0000000   6.0000000   1.0000000   1.0000000   1.0000000   1.0000000   1.0000000   1.0000000
 Leave Link  101 at Tue Sep 17 09:51:24 2024, MaxMem=  1342177280 cpu:               0.4 elap:               0.4
 (Enter /groups/ReismanLab/Software/Gaussian16_RevC/Linux_Binary_AVX2-enabled-CPU/g16/l103.exe)

 GradGradGradGradGradGradGradGradGradGradGradGradGradGradGradGradGradGrad
 Berny optimization.
 Initialization pass.
                           ----------------------------
                           !    Initial Parameters    !
                           ! (Angstroms and Degrees)  !
 --------------------------                            --------------------------
 ! Name  Definition              Value          Derivative Info.                !
 --------------------------------------------------------------------------------
 ! R1    R(1,2)                  1.1456         estimate D2E/DX2                !
 ! R2    R(2,3)                  1.4159         estimate D2E/DX2                !
 ! R3    R(3,4)                  1.395          estimate D2E/DX2                !
 ! R4    R(3,9)                  1.4052         estimate D2E/DX2                !
 ! R5    R(4,5)                  1.3811         estimate D2E/DX2                !
 ! R6    R(4,15)                 1.0795         estimate D2E/DX2                !
 ! R7    R(5,6)                  1.9017         estimate D2E/DX2                !
 ! R8    R(5,7)                  1.3885         estimate D2E/DX2                !
 ! R9    R(7,8)                  1.3802         estimate D2E/DX2                !
 ! R10   R(7,16)                 1.0787         estimate D2E/DX2                !
 ! R11   R(8,9)                  1.3942         estimate D2E/DX2                !
 ! R12   R(8,17)                 1.079          estimate D2E/DX2                !
 ! R13   R(9,10)                 1.3919         estimate D2E/DX2                !
 ! R14   R(10,11)                1.3763         estimate D2E/DX2                !
 ! R15   R(10,14)                1.3693         estimate D2E/DX2                !
 ! R16   R(11,12)                1.3603         estimate D2E/DX2                !
 ! R17   R(11,18)                1.0702         estimate D2E/DX2                !
 ! R18   R(12,13)                1.3619         estimate D2E/DX2                !
 ! R19   R(12,19)                1.0709         estimate D2E/DX2                !
 ! R20   R(13,14)                1.2948         estimate D2E/DX2                !
 ! R21   R(14,20)                1.0709         estimate D2E/DX2                !
 ! A1    A(2,3,4)              117.4979         estimate D2E/DX2                !
 ! A2    A(2,3,9)              122.267          estimate D2E/DX2                !
 ! A3    A(4,3,9)              120.1946         estimate D2E/DX2                !
 ! A4    A(3,4,5)              119.5923         estimate D2E/DX2                !
 ! A5    A(3,4,15)             119.5239         estimate D2E/DX2                !
 ! A6    A(5,4,15)             120.8817         estimate D2E/DX2                !
 ! A7    A(4,5,6)              119.5368         estimate D2E/DX2                !
 ! A8    A(4,5,7)              120.8494         estimate D2E/DX2                !
 ! A9    A(6,5,7)              119.6138         estimate D2E/DX2                !
 ! A10   A(5,7,8)              119.5743         estimate D2E/DX2                !
 ! A11   A(5,7,16)             120.1062         estimate D2E/DX2                !
 ! A12   A(8,7,16)             120.3178         estimate D2E/DX2                !
 ! A13   A(7,8,9)              121.0087         estimate D2E/DX2                !
 ! A14   A(7,8,17)             119.6837         estimate D2E/DX2                !
 ! A15   A(9,8,17)             119.3004         estimate D2E/DX2                !
 ! A16   A(3,9,8)              118.7766         estimate D2E/DX2                !
 ! A17   A(3,9,10)             121.3237         estimate D2E/DX2                !
 ! A18   A(8,9,10)             119.8989         estimate D2E/DX2                !
 ! A19   A(9,10,11)            126.249          estimate D2E/DX2                !
 ! A20   A(9,10,14)            127.9362         estimate D2E/DX2                !
 ! A21   A(11,10,14)           105.7189         estimate D2E/DX2                !
 ! A22   A(10,11,12)           106.0768         estimate D2E/DX2                !
 ! A23   A(10,11,18)           122.2092         estimate D2E/DX2                !
 ! A24   A(12,11,18)           131.645          estimate D2E/DX2                !
 ! A25   A(11,12,13)           110.0506         estimate D2E/DX2                !
 ! A26   A(11,12,19)           129.0015         estimate D2E/DX2                !
 ! A27   A(13,12,19)           120.9473         estimate D2E/DX2                !
 ! A28   A(12,13,14)           106.1445         estimate D2E/DX2                !
 ! A29   A(10,14,13)           111.9948         estimate D2E/DX2                !
 ! A30   A(10,14,20)           123.0633         estimate D2E/DX2                !
 ! A31   A(13,14,20)           124.9077         estimate D2E/DX2                !
 ! A32   L(1,2,3,12,-1)        182.8618         estimate D2E/DX2                !
 ! A33   L(1,2,3,12,-2)        178.4875         estimate D2E/DX2                !
 ! D1    D(2,3,4,5)           -177.2181         estimate D2E/DX2                !
 ! D2    D(2,3,4,15)             2.2528         estimate D2E/DX2                !
 ! D3    D(9,3,4,5)              0.5177         estimate D2E/DX2                !
 ! D4    D(9,3,4,15)           179.9886         estimate D2E/DX2                !
 ! D5    D(2,3,9,8)            176.9254         estimate D2E/DX2                !
 ! D6    D(2,3,9,10)            -3.3949         estimate D2E/DX2                !
 ! D7    D(4,3,9,8)             -0.6992         estimate D2E/DX2                !
 ! D8    D(4,3,9,10)           178.9805         estimate D2E/DX2                !
 ! D9    D(3,4,5,6)            179.957          estimate D2E/DX2                !
 ! D10   D(3,4,5,7)              0.0614         estimate D2E/DX2                !
 ! D11   D(15,4,5,6)             0.4935         estimate D2E/DX2                !
 ! D12   D(15,4,5,7)          -179.4022         estimate D2E/DX2                !
 ! D13   D(4,5,7,8)             -0.4495         estimate D2E/DX2                !
 ! D14   D(4,5,7,16)          -179.9848         estimate D2E/DX2                !
 ! D15   D(6,5,7,8)            179.6549         estimate D2E/DX2                !
 ! D16   D(6,5,7,16)             0.1196         estimate D2E/DX2                !
 ! D17   D(5,7,8,9)              0.2576         estimate D2E/DX2                !
 ! D18   D(5,7,8,17)          -178.7597         estimate D2E/DX2                !
 ! D19   D(16,7,8,9)           179.7919         estimate D2E/DX2                !
 ! D20   D(16,7,8,17)            0.7746         estimate D2E/DX2                !
 ! D21   D(7,8,9,3)              0.3113         estimate D2E/DX2                !
 ! D22   D(7,8,9,10)          -179.373          estimate D2E/DX2                !
 ! D23   D(17,8,9,3)           179.3324         estimate D2E/DX2                !
 ! D24   D(17,8,9,10)           -0.352          estimate D2E/DX2                !
 ! D25   D(3,9,10,11)          144.8195         estimate D2E/DX2                !
 ! D26   D(3,9,10,14)          -39.2597         estimate D2E/DX2                !
 ! D27   D(8,9,10,11)          -35.5044         estimate D2E/DX2                !
 ! D28   D(8,9,10,14)          140.4165         estimate D2E/DX2                !
 ! D29   D(9,10,11,12)         177.4449         estimate D2E/DX2                !
 ! D30   D(9,10,11,18)          -5.2494         estimate D2E/DX2                !
 ! D31   D(14,10,11,12)          0.7862         estimate D2E/DX2                !
 ! D32   D(14,10,11,18)        178.0919         estimate D2E/DX2                !
 ! D33   D(9,10,14,13)        -176.6724         estimate D2E/DX2                !
 ! D34   D(9,10,14,20)           1.2927         estimate D2E/DX2                !
 ! D35   D(11,10,14,13)         -0.089          estimate D2E/DX2                !
 ! D36   D(11,10,14,20)        177.8761         estimate D2E/DX2                !
 ! D37   D(10,11,12,13)         -1.2133         estimate D2E/DX2                !
 ! D38   D(10,11,12,19)        179.0567         estimate D2E/DX2                !
 ! D39   D(18,11,12,13)       -178.1624         estimate D2E/DX2                !
 ! D40   D(18,11,12,19)          2.1076         estimate D2E/DX2                !
 ! D41   D(11,12,13,14)          1.1609         estimate D2E/DX2                !
 ! D42   D(19,12,13,14)       -179.0838         estimate D2E/DX2                !
 ! D43   D(12,13,14,10)         -0.6467         estimate D2E/DX2                !
 ! D44   D(12,13,14,20)       -178.5671         estimate D2E/DX2                !
 --------------------------------------------------------------------------------
 Trust Radius=3.00D-01 FncErr=1.00D-07 GrdErr=1.00D-06 EigMax=2.50D+02 EigMin=1.00D-04
 Number of steps in this run=    108 maximum allowed number of steps=    120.
 GradGradGradGradGradGradGradGradGradGradGradGradGradGradGradGradGradGrad

 Leave Link  103 at Tue Sep 17 09:51:24 2024, MaxMem=  1342177280 cpu:               0.1 elap:               0.0
 (Enter /groups/ReismanLab/Software/Gaussian16_RevC/Linux_Binary_AVX2-enabled-CPU/g16/l202.exe)
                          Input orientation:                          
 ---------------------------------------------------------------------
 Center     Atomic      Atomic             Coordinates (Angstroms)
 Number     Number       Type             X           Y           Z
 ---------------------------------------------------------------------
      1          7           0       -1.806845    3.057070    0.664629
      2          6           0       -1.280278    2.057848    0.473226
      3          6           0       -0.564841    0.863589    0.215051
      4          6           0        0.828390    0.929184    0.240090
      5          6           0        1.569718   -0.196204   -0.062382
      6         35           0        3.468888   -0.104684   -0.028963
      7          6           0        0.946115   -1.392107   -0.392410
      8          6           0       -0.432366   -1.459535   -0.409444
      9          6           0       -1.209891   -0.342983   -0.105295
     10          7           0       -2.598319   -0.440372   -0.116780
     11          6           0       -3.353535   -1.203177   -0.978217
     12          6           0       -4.647234   -1.039403   -0.590934
     13          7           0       -4.709129   -0.222266    0.496782
     14          6           0       -3.489222    0.126731    0.754798
     15          1           0        1.312676    1.861713    0.487404
     16          1           0        1.536856   -2.263814   -0.626343
     17          1           0       -0.918794   -2.393175   -0.646044
     18          1           0       -2.918030   -1.743817   -1.792631
     19          1           0       -5.536484   -1.456377   -1.017805
     20          1           0       -3.190645    0.754391    1.569459
 ---------------------------------------------------------------------
                    Distance matrix (angstroms):
                    1          2          3          4          5
     1  N    0.000000
     2  C    1.145579   0.000000
     3  C    2.560479   1.415895   0.000000
     4  C    3.413590   2.403064   1.394999   0.000000
     5  C    4.744840   3.672888   2.399265   1.381142   0.000000
     6  Br   6.189597   5.242453   4.155486   2.848421   1.901667
     7  C    5.337724   4.196230   2.782115   2.408798   1.388519
     8  C    4.841750   3.724252   2.409243   2.778017   2.392655
     9  C    3.536877   2.470553   1.405179   2.427404   2.783813
    10  N    3.670031   2.885558   2.438331   3.707475   4.175537
    11  C    4.820881   4.127877   3.670453   4.849715   5.107952
    12  C    5.140558   4.696998   4.575689   5.877788   6.296098
    13  N    4.382405   4.117827   4.293435   5.661788   6.303750
    14  C    3.380149   2.947529   3.063706   4.421609   5.134680
    15  H    3.345399   2.600399   2.143710   1.079494   2.145543
    16  H    6.415508   5.274662   3.860793   3.383469   2.143396
    17  H    5.675532   4.603808   3.387223   3.856936   3.370466
    18  H    5.506484   4.719004   4.045596   5.031158   5.052598
    19  H    6.091961   5.717363   5.623114   6.912656   7.280040
    20  H    2.834776   2.559342   2.956552   4.236794   5.121288
                    6          7          8          9         10
     6  Br   0.000000
     7  C    2.855509   0.000000
     8  C    4.147308   1.380234   0.000000
     9  C    4.685465   2.414842   1.394181   0.000000
    10  N    6.077120   3.680324   2.411576   1.391886   0.000000
    11  C    6.975186   4.343485   2.987048   2.469238   1.376335
    12  C    8.189075   5.607974   4.239642   3.540645   2.186713
    13  N    8.195742   5.843028   4.543433   3.552708   2.208970
    14  C    7.005935   4.826507   3.635391   2.481076   1.369292
    15  H    2.963546   3.390543   3.857485   3.402252   4.578265
    16  H    2.958285   1.078690   2.138164   3.392006   4.547996
    17  H    4.986956   2.131749   1.079016   2.140195   2.629518
    18  H    6.825686   4.125038   2.858767   2.779779   2.147012
    19  H    9.159781   6.513013   5.140246   4.559794   3.236808
    20  H    6.902343   5.056597   4.052855   2.816455   2.149817
                   11         12         13         14         15
    11  C    0.000000
    12  C    1.360319   0.000000
    13  N    2.230570   1.361862   0.000000
    14  C    2.188700   2.124113   1.294815   0.000000
    15  H    5.771925   6.715639   6.372220   5.112717   0.000000
    16  H    5.016443   6.304238   6.666458   5.734432   4.279096
    17  H    2.730275   3.966989   4.515034   3.862562   4.936419
    18  H    1.070152   2.220455   3.280939   3.211635   6.008100
    19  H    2.197940   1.070911   2.121678   3.136819   7.757986
    20  H    3.217027   3.163328   2.100069   1.070877   4.762027
                   16         17         18         19         20
    16  H    0.000000
    17  H    2.459134   0.000000
    18  H    4.634289   2.394425   0.000000
    19  H    7.130031   4.726400   2.745774   0.000000
    20  H    6.023320   4.469556   4.197501   4.133327   0.000000
 Stoichiometry    C10H6BrN3
 Framework group  C1[X(C10H6BrN3)]
 Deg. of freedom    54
 Full point group                 C1      NOp   1
 Largest Abelian subgroup         C1      NOp   1
 Largest concise Abelian subgroup C1      NOp   1
                         Standard orientation:                         
 ---------------------------------------------------------------------
 Center     Atomic      Atomic             Coordinates (Angstroms)
 Number     Number       Type             X           Y           Z
 ---------------------------------------------------------------------
      1          7           0       -1.599730    3.142368   -0.340480
      2          6           0       -1.082226    2.129458   -0.204271
      3          6           0       -0.377521    0.908881   -0.068838
      4          6           0        1.016184    0.967724   -0.056739
      5          6           0        1.747606   -0.201638    0.015140
      6         35           0        3.647445   -0.119654    0.030294
      7          6           0        1.113583   -1.435536    0.074262
      8          6           0       -0.265419   -1.493719    0.070433
      9          6           0       -1.033129   -0.331922    0.002693
     10          7           0       -2.422388   -0.416714    0.013497
     11          6           0       -3.181911   -1.405753   -0.568932
     12          6           0       -4.475329   -1.117912   -0.261220
     13          7           0       -4.533151    0.000548    0.513617
     14          6           0       -3.310835    0.403119    0.656536
     15          1           0        1.508630    1.926738   -0.112375
     16          1           0        1.696649   -2.341327    0.130384
     17          1           0       -0.760057   -2.450398    0.136573
     18          1           0       -2.748784   -2.178782   -1.168976
     19          1           0       -5.367064   -1.640834   -0.540884
     20          1           0       -3.009074    1.252866    1.234158
 ---------------------------------------------------------------------
 Rotational constants (GHZ):           1.4244504           0.2399203           0.2085886
 Leave Link  202 at Tue Sep 17 09:51:24 2024, MaxMem=  1342177280 cpu:               0.1 elap:               0.0
 (Enter /groups/ReismanLab/Software/Gaussian16_RevC/Linux_Binary_AVX2-enabled-CPU/g16/l301.exe)
 Standard basis: 6-31G(d,p) (6D, 7F)
 Ernie: Thresh=  0.10000D-02 Tol=  0.10000D-05 Strict=F.
 There are   255 symmetry adapted cartesian basis functions of A   symmetry.
 There are   255 symmetry adapted basis functions of A   symmetry.
   255 basis functions,   489 primitive gaussians,   255 cartesian basis functions
    61 alpha electrons       61 beta electrons
       nuclear repulsion energy      1048.8958194561 Hartrees.
 IExCor=  402 DFT=T Ex+Corr=B3LYP ExCW=0 ScaHFX=  0.200000
 ScaDFX=  0.800000  0.720000  1.000000  0.810000 ScalE2=  1.000000  1.000000
 IRadAn=      5 IRanWt=     -1 IRanGd=            0 ICorTp=0 IEmpDi=141
 NAtoms=   20 NActive=   20 NUniq=   20 SFac= 1.00D+00 NAtFMM=   60 NAOKFM=F Big=F
 Integral buffers will be    131072 words long.
 Raffenetti 2 integral format.
 Two-electron integral symmetry is turned on.
 R6Disp:  Grimme-D3(BJ) Dispersion energy=       -0.0477366819 Hartrees.
 Nuclear repulsion after empirical dispersion term =     1048.8480827741 Hartrees.
 Leave Link  301 at Tue Sep 17 09:51:24 2024, MaxMem=  1342177280 cpu:               0.1 elap:               0.1
 (Enter /groups/ReismanLab/Software/Gaussian16_RevC/Linux_Binary_AVX2-enabled-CPU/g16/l302.exe)
 NPDir=0 NMtPBC=     1 NCelOv=     1 NCel=       1 NClECP=     1 NCelD=      1
         NCelK=      1 NCelE2=     1 NClLst=     1 CellRange=     0.0.
 One-electron integrals computed using PRISM.
 One-electron integral symmetry used in STVInt
 NBasis=   255 RedAO= T EigKep=  3.25D-04  NBF=   255
 NBsUse=   255 1.00D-06 EigRej= -1.00D+00 NBFU=   255
 Precomputing XC quadrature grid using
 IXCGrd= 4 IRadAn=           5 IRanWt=          -1 IRanGd=           0 AccXCQ= 0.00D+00.
 Generated NRdTot=       0 NPtTot=           0 NUsed=           0 NTot=          32
 NSgBfM=   252   252   252   252   252 MxSgAt=    20 MxSgA2=    20.
 Leave Link  302 at Tue Sep 17 09:51:25 2024, MaxMem=  1342177280 cpu:               1.2 elap:               0.2
 (Enter /groups/ReismanLab/Software/Gaussian16_RevC/Linux_Binary_AVX2-enabled-CPU/g16/l303.exe)
 DipDrv:  MaxL=1.
 Leave Link  303 at Tue Sep 17 09:51:25 2024, MaxMem=  1342177280 cpu:               0.1 elap:               0.1
 (Enter /groups/ReismanLab/Software/Gaussian16_RevC/Linux_Binary_AVX2-enabled-CPU/g16/l401.exe)
 ExpMin= 1.43D-01 ExpMax= 5.74D+05 ExpMxC= 5.74D+03 IAcc=3 IRadAn=         5 AccDes= 0.00D+00
 Harris functional with IExCor=  402 and IRadAn=       5 diagonalized for initial guess.
 HarFok:  IExCor=  402 AccDes= 0.00D+00 IRadAn=         5 IDoV= 1 UseB2=F ITyADJ=14
 ICtDFT=  3500011 ScaDFX=  1.000000  1.000000  1.000000  1.000000
 FoFCou: FMM=F IPFlag=           0 FMFlag=      100000 FMFlg1=           0
         NFxFlg=           0 DoJE=T BraDBF=F KetDBF=T FulRan=T
         wScrn=  0.000000 ICntrl=       500 IOpCl=  0 I1Cent=   200000004 NGrid=           0
         NMat0=    1 NMatS0=      1 NMatT0=    0 NMatD0=    1 NMtDS0=    0 NMtDT0=    0
 Petite list used in FoFCou.
 Harris En= -3120.72404339852    
 JPrj=0 DoOrth=F DoCkMO=F.
 Leave Link  401 at Tue Sep 17 09:51:26 2024, MaxMem=  1342177280 cpu:               6.0 elap:               0.8
 (Enter /groups/ReismanLab/Software/Gaussian16_RevC/Linux_Binary_AVX2-enabled-CPU/g16/l502.exe)
 Integral symmetry usage will be decided dynamically.
 Closed shell SCF:
 Using DIIS extrapolation, IDIIS=  1040.
 NGot=  1342177280 LenX=  1342042117 LenY=  1341976651
 Requested convergence on RMS density matrix=1.00D-08 within  32 cycles.
 Requested convergence on MAX density matrix=1.00D-06.
 Requested convergence on             energy=1.00D-06.
 No special actions if energy rises.
 Fock matrices will be formed incrementally for  20 cycles.
 Integral accuracy reduced to 1.0D-05 until final iterations.

 Cycle   1  Pass 0  IDiag  1:
 FoFJK:  IHMeth= 1 ICntrl=       0 DoSepK=F KAlg= 0 I1Cent=           0 FoldK=F
 IRaf= 840000000 NMat=       1 IRICut=       1 DoRegI=T DoRafI=F ISym2E= 0 IDoP0=0 IntGTp=1.
 FoFCou: FMM=F IPFlag=           0 FMFlag=      100000 FMFlg1=           0
         NFxFlg=           0 DoJE=F BraDBF=F KetDBF=F FulRan=T
         wScrn=  0.000000 ICntrl=         0 IOpCl=  0 I1Cent=           0 NGrid=           0
         NMat0=    1 NMatS0=      1 NMatT0=    0 NMatD0=    1 NMtDS0=    0 NMtDT0=    0
 Symmetry not used in FoFCou.
 E= -3120.41520070704    
 DIIS: error= 2.06D-01 at cycle   1 NSaved=   1.
 NSaved= 1 IEnMin= 1 EnMin= -3120.41520070704     IErMin= 1 ErrMin= 2.06D-01
 ErrMax= 2.06D-01  0.00D+00 EMaxC= 1.00D-01 BMatC= 5.98D-01 BMatP= 5.98D-01
 IDIUse=3 WtCom= 0.00D+00 WtEn= 1.00D+00
 Coeff-Com:  0.100D+01
 Coeff-En:   0.100D+01
 Coeff:      0.100D+01
 Gap=     0.178 Goal=   None    Shift=    0.000
 GapD=    0.178 DampG=1.000 DampE=0.250 DampFc=0.2500 IDamp=-1.
 Damping current iteration by 2.50D-01
 RMSDP=5.71D-03 MaxDP=2.45D-01              OVMax= 2.43D-01

 Cycle   2  Pass 0  IDiag  1:
 RMSU=  1.39D-03    CP:  9.91D-01
 E= -3120.49785778379     Delta-E=       -0.082657076751 Rises=F Damp=T
 DIIS: error= 1.52D-01 at cycle   2 NSaved=   2.
 NSaved= 2 IEnMin= 2 EnMin= -3120.49785778379     IErMin= 2 ErrMin= 1.52D-01
 ErrMax= 1.52D-01  0.00D+00 EMaxC= 1.00D-01 BMatC= 2.53D-01 BMatP= 5.98D-01
 IDIUse=3 WtCom= 0.00D+00 WtEn= 1.00D+00
 Coeff-Com: -0.104D+01 0.204D+01
 Coeff-En:   0.000D+00 0.100D+01
 Coeff:      0.000D+00 0.100D+01
 Gap=     0.178 Goal=   None    Shift=    0.000
 RMSDP=2.56D-03 MaxDP=1.09D-01 DE=-8.27D-02 OVMax= 1.23D-01

 Cycle   3  Pass 0  IDiag  1:
 RMSU=  1.44D-03    CP:  9.66D-01  2.36D+00
 E= -3120.62264620058     Delta-E=       -0.124788416797 Rises=F Damp=F
 DIIS: error= 9.29D-03 at cycle   3 NSaved=   3.
 NSaved= 3 IEnMin= 3 EnMin= -3120.62264620058     IErMin= 3 ErrMin= 9.29D-03
 ErrMax= 9.29D-03  0.00D+00 EMaxC= 1.00D-01 BMatC= 3.79D-02 BMatP= 2.53D-01
 IDIUse=3 WtCom= 9.07D-01 WtEn= 9.29D-02
 Coeff-Com:  0.444D+00-0.425D+00 0.981D+00
 Coeff-En:   0.319D-01 0.000D+00 0.968D+00
 Coeff:      0.406D+00-0.386D+00 0.980D+00
 Gap=     0.168 Goal=   None    Shift=    0.000
 RMSDP=1.35D-03 MaxDP=3.88D-02 DE=-1.25D-01 OVMax= 5.94D-02

 Cycle   4  Pass 0  IDiag  1:
 RMSU=  1.00D-03    CP:  9.68D-01  1.74D+00  8.25D-01
 E= -3120.64270451334     Delta-E=       -0.020058312760 Rises=F Damp=F
 DIIS: error= 8.31D-03 at cycle   4 NSaved=   4.
 NSaved= 4 IEnMin= 4 EnMin= -3120.64270451334     IErMin= 4 ErrMin= 8.31D-03
 ErrMax= 8.31D-03  0.00D+00 EMaxC= 1.00D-01 BMatC= 1.61D-02 BMatP= 3.79D-02
 IDIUse=3 WtCom= 9.17D-01 WtEn= 8.31D-02
 Coeff-Com:  0.335D+00-0.419D+00 0.572D+00 0.512D+00
 Coeff-En:   0.000D+00 0.000D+00 0.276D+00 0.724D+00
 Coeff:      0.307D+00-0.385D+00 0.548D+00 0.530D+00
 Gap=     0.172 Goal=   None    Shift=    0.000
 RMSDP=7.08D-04 MaxDP=2.06D-02 DE=-2.01D-02 OVMax= 3.74D-02

 Cycle   5  Pass 0  IDiag  1:
 RMSU=  2.83D-04    CP:  9.68D-01  1.75D+00  9.87D-01  3.97D-01
 E= -3120.65801821351     Delta-E=       -0.015313700163 Rises=F Damp=F
 DIIS: error= 3.87D-03 at cycle   5 NSaved=   5.
 NSaved= 5 IEnMin= 5 EnMin= -3120.65801821351     IErMin= 5 ErrMin= 3.87D-03
 ErrMax= 3.87D-03  0.00D+00 EMaxC= 1.00D-01 BMatC= 2.18D-03 BMatP= 1.61D-02
 IDIUse=3 WtCom= 9.61D-01 WtEn= 3.87D-02
 Coeff-Com:  0.160D+00-0.203D+00 0.300D+00 0.345D+00 0.397D+00
 Coeff-En:   0.000D+00 0.000D+00 0.000D+00 0.470D-01 0.953D+00
 Coeff:      0.154D+00-0.195D+00 0.289D+00 0.334D+00 0.419D+00
 Gap=     0.165 Goal=   None    Shift=    0.000
 RMSDP=2.33D-04 MaxDP=1.52D-02 DE=-1.53D-02 OVMax= 1.56D-02

 Cycle   6  Pass 0  IDiag  1:
 RMSU=  9.62D-05    CP:  9.68D-01  1.80D+00  9.70D-01  4.60D-01  3.33D-01
 E= -3120.65984344210     Delta-E=       -0.001825228594 Rises=F Damp=F
 DIIS: error= 9.82D-04 at cycle   6 NSaved=   6.
 NSaved= 6 IEnMin= 6 EnMin= -3120.65984344210     IErMin= 6 ErrMin= 9.82D-04
 ErrMax= 9.82D-04  0.00D+00 EMaxC= 1.00D-01 BMatC= 1.79D-04 BMatP= 2.18D-03
 IDIUse=3 WtCom= 9.90D-01 WtEn= 9.82D-03
 Coeff-Com:  0.518D-01-0.659D-01 0.107D+00 0.145D+00 0.272D+00 0.491D+00
 Coeff-En:   0.000D+00 0.000D+00 0.000D+00 0.000D+00 0.533D-01 0.947D+00
 Coeff:      0.512D-01-0.653D-01 0.105D+00 0.143D+00 0.269D+00 0.496D+00
 Gap=     0.165 Goal=   None    Shift=    0.000
 RMSDP=6.53D-05 MaxDP=2.35D-03 DE=-1.83D-03 OVMax= 3.66D-03

 Cycle   7  Pass 0  IDiag  1:
 RMSU=  2.55D-05    CP:  9.68D-01  1.80D+00  9.71D-01  4.77D-01  4.32D-01
                    CP:  4.77D-01
 E= -3120.66000705215     Delta-E=       -0.000163610051 Rises=F Damp=F
 DIIS: error= 2.43D-04 at cycle   7 NSaved=   7.
 NSaved= 7 IEnMin= 7 EnMin= -3120.66000705215     IErMin= 7 ErrMin= 2.43D-04
 ErrMax= 2.43D-04  0.00D+00 EMaxC= 1.00D-01 BMatC= 9.81D-06 BMatP= 1.79D-04
 IDIUse=3 WtCom= 9.98D-01 WtEn= 2.43D-03
 Coeff-Com:  0.154D-01-0.198D-01 0.347D-01 0.532D-01 0.115D+00 0.279D+00
 Coeff-Com:  0.523D+00
 Coeff-En:   0.000D+00 0.000D+00 0.000D+00 0.000D+00 0.000D+00 0.000D+00
 Coeff-En:   0.100D+01
 Coeff:      0.153D-01-0.197D-01 0.346D-01 0.530D-01 0.114D+00 0.278D+00
 Coeff:      0.524D+00
 Gap=     0.165 Goal=   None    Shift=    0.000
 RMSDP=1.55D-05 MaxDP=5.13D-04 DE=-1.64D-04 OVMax= 1.18D-03

 Cycle   8  Pass 0  IDiag  1:
 RMSU=  8.44D-06    CP:  9.68D-01  1.80D+00  9.71D-01  4.78D-01  4.38D-01
                    CP:  5.32D-01  5.42D-01
 E= -3120.66001596349     Delta-E=       -0.000008911337 Rises=F Damp=F
 DIIS: error= 4.57D-05 at cycle   8 NSaved=   8.
 NSaved= 8 IEnMin= 8 EnMin= -3120.66001596349     IErMin= 8 ErrMin= 4.57D-05
 ErrMax= 4.57D-05  0.00D+00 EMaxC= 1.00D-01 BMatC= 8.92D-07 BMatP= 9.81D-06
 IDIUse=1 WtCom= 1.00D+00 WtEn= 0.00D+00
 Coeff-Com:  0.349D-02-0.458D-02 0.911D-02 0.160D-01 0.371D-01 0.111D+00
 Coeff-Com:  0.292D+00 0.536D+00
 Coeff:      0.349D-02-0.458D-02 0.911D-02 0.160D-01 0.371D-01 0.111D+00
 Coeff:      0.292D+00 0.536D+00
 Gap=     0.165 Goal=   None    Shift=    0.000
 RMSDP=4.77D-06 MaxDP=1.58D-04 DE=-8.91D-06 OVMax= 4.54D-04

 Initial convergence to 1.0D-05 achieved.  Increase integral accuracy.
 Cycle   9  Pass 1  IDiag  1:
 E= -3120.66003567464     Delta-E=       -0.000019711146 Rises=F Damp=F
 DIIS: error= 5.34D-05 at cycle   1 NSaved=   1.
 NSaved= 1 IEnMin= 1 EnMin= -3120.66003567464     IErMin= 1 ErrMin= 5.34D-05
 ErrMax= 5.34D-05  0.00D+00 EMaxC= 1.00D-01 BMatC= 3.48D-07 BMatP= 3.48D-07
 IDIUse=1 WtCom= 1.00D+00 WtEn= 0.00D+00
 Coeff-Com:  0.100D+01
 Coeff:      0.100D+01
 Gap=     0.165 Goal=   None    Shift=    0.000
 RMSDP=4.77D-06 MaxDP=1.58D-04 DE=-1.97D-05 OVMax= 2.86D-04

 Cycle  10  Pass 1  IDiag  1:
 RMSU=  3.44D-05    CP:  1.00D+00
 E= -3120.66003565064     Delta-E=        0.000000023999 Rises=F Damp=F
 DIIS: error= 3.03D-05 at cycle   2 NSaved=   2.
 NSaved= 2 IEnMin= 1 EnMin= -3120.66003567464     IErMin= 2 ErrMin= 3.03D-05
 ErrMax= 3.03D-05  0.00D+00 EMaxC= 1.00D-01 BMatC= 2.91D-07 BMatP= 3.48D-07
 IDIUse=1 WtCom= 1.00D+00 WtEn= 0.00D+00
 Coeff-Com:  0.470D+00 0.530D+00
 Coeff:      0.470D+00 0.530D+00
 Gap=     0.165 Goal=   None    Shift=    0.000
 RMSDP=3.66D-06 MaxDP=1.32D-04 DE= 2.40D-08 OVMax= 2.92D-04

 Cycle  11  Pass 1  IDiag  1:
 RMSU=  3.66D-06    CP:  1.00D+00  9.99D-01
 E= -3120.66003584972     Delta-E=       -0.000000199085 Rises=F Damp=F
 DIIS: error= 2.05D-05 at cycle   3 NSaved=   3.
 NSaved= 3 IEnMin= 3 EnMin= -3120.66003584972     IErMin= 3 ErrMin= 2.05D-05
 ErrMax= 2.05D-05  0.00D+00 EMaxC= 1.00D-01 BMatC= 1.08D-07 BMatP= 2.91D-07
 IDIUse=1 WtCom= 1.00D+00 WtEn= 0.00D+00
 Coeff-Com:  0.320D-01 0.373D+00 0.595D+00
 Coeff:      0.320D-01 0.373D+00 0.595D+00
 Gap=     0.165 Goal=   None    Shift=    0.000
 RMSDP=1.59D-06 MaxDP=4.66D-05 DE=-1.99D-07 OVMax= 1.15D-04

 Cycle  12  Pass 1  IDiag  1:
 RMSU=  6.44D-07    CP:  1.00D+00  1.01D+00  6.13D-01
 E= -3120.66003595646     Delta-E=       -0.000000106743 Rises=F Damp=F
 DIIS: error= 1.10D-05 at cycle   4 NSaved=   4.
 NSaved= 4 IEnMin= 4 EnMin= -3120.66003595646     IErMin= 4 ErrMin= 1.10D-05
 ErrMax= 1.10D-05  0.00D+00 EMaxC= 1.00D-01 BMatC= 1.20D-08 BMatP= 1.08D-07
 IDIUse=1 WtCom= 1.00D+00 WtEn= 0.00D+00
 Coeff-Com: -0.708D-03 0.227D+00 0.401D+00 0.372D+00
 Coeff:     -0.708D-03 0.227D+00 0.401D+00 0.372D+00
 Gap=     0.165 Goal=   None    Shift=    0.000
 RMSDP=4.49D-07 MaxDP=2.45D-05 DE=-1.07D-07 OVMax= 3.36D-05

 Cycle  13  Pass 1  IDiag  1:
 RMSU=  1.79D-07    CP:  1.00D+00  1.01D+00  6.29D-01  3.67D-01
 E= -3120.66003596672     Delta-E=       -0.000000010260 Rises=F Damp=F
 DIIS: error= 1.63D-06 at cycle   5 NSaved=   5.
 NSaved= 5 IEnMin= 5 EnMin= -3120.66003596672     IErMin= 5 ErrMin= 1.63D-06
 ErrMax= 1.63D-06  0.00D+00 EMaxC= 1.00D-01 BMatC= 5.00D-10 BMatP= 1.20D-08
 IDIUse=1 WtCom= 1.00D+00 WtEn= 0.00D+00
 Coeff-Com: -0.194D-02 0.130D+00 0.234D+00 0.246D+00 0.392D+00
 Coeff:     -0.194D-02 0.130D+00 0.234D+00 0.246D+00 0.392D+00
 Gap=     0.165 Goal=   None    Shift=    0.000
 RMSDP=1.12D-07 MaxDP=6.98D-06 DE=-1.03D-08 OVMax= 6.84D-06

 Cycle  14  Pass 1  IDiag  1:
 RMSU=  6.06D-08    CP:  1.00D+00  1.01D+00  6.33D-01  3.97D-01  4.90D-01
 E= -3120.66003596718     Delta-E=       -0.000000000455 Rises=F Damp=F
 DIIS: error= 2.62D-07 at cycle   6 NSaved=   6.
 NSaved= 6 IEnMin= 6 EnMin= -3120.66003596718     IErMin= 6 ErrMin= 2.62D-07
 ErrMax= 2.62D-07  0.00D+00 EMaxC= 1.00D-01 BMatC= 2.17D-11 BMatP= 5.00D-10
 IDIUse=1 WtCom= 1.00D+00 WtEn= 0.00D+00
 Coeff-Com: -0.111D-02 0.617D-01 0.112D+00 0.121D+00 0.236D+00 0.471D+00
 Coeff:     -0.111D-02 0.617D-01 0.112D+00 0.121D+00 0.236D+00 0.471D+00
 Gap=     0.165 Goal=   None    Shift=    0.000
 RMSDP=2.50D-08 MaxDP=7.10D-07 DE=-4.55D-10 OVMax= 1.57D-06

 Cycle  15  Pass 1  IDiag  1:
 RMSU=  1.91D-08    CP:  1.00D+00  1.01D+00  6.33D-01  4.02D-01  5.01D-01
                    CP:  7.42D-01
 E= -3120.66003596719     Delta-E=       -0.000000000007 Rises=F Damp=F
 DIIS: error= 1.14D-07 at cycle   7 NSaved=   7.
 NSaved= 7 IEnMin= 7 EnMin= -3120.66003596719     IErMin= 7 ErrMin= 1.14D-07
 ErrMax= 1.14D-07  0.00D+00 EMaxC= 1.00D-01 BMatC= 3.43D-12 BMatP= 2.17D-11
 IDIUse=1 WtCom= 1.00D+00 WtEn= 0.00D+00
 Coeff-Com: -0.502D-03 0.252D-01 0.458D-01 0.508D-01 0.108D+00 0.313D+00
 Coeff-Com:  0.458D+00
 Coeff:     -0.502D-03 0.252D-01 0.458D-01 0.508D-01 0.108D+00 0.313D+00
 Coeff:      0.458D+00
 Gap=     0.165 Goal=   None    Shift=    0.000
 RMSDP=8.45D-09 MaxDP=2.87D-07 DE=-7.28D-12 OVMax= 5.19D-07

 SCF Done:  E(RB3LYP) =  -3120.66003597     A.U. after   15 cycles
            NFock= 15  Conv=0.85D-08     -V/T= 2.0066
 KE= 3.100257906954D+03 PE=-9.503679654821D+03 EE= 2.233913629125D+03
 Leave Link  502 at Tue Sep 17 09:51:41 2024, MaxMem=  1342177280 cpu:             118.1 elap:              15.6
 (Enter /groups/ReismanLab/Software/Gaussian16_RevC/Linux_Binary_AVX2-enabled-CPU/g16/l508.exe)
 QCSCF skips out because SCF is already converged.
 Leave Link  508 at Tue Sep 17 09:51:41 2024, MaxMem=  1342177280 cpu:               0.1 elap:               0.3
 (Enter /groups/ReismanLab/Software/Gaussian16_RevC/Linux_Binary_AVX2-enabled-CPU/g16/l601.exe)
 Copying SCF densities to generalized density rwf, IOpCl= 0 IROHF=0.

 **********************************************************************

            Population analysis using the SCF Density.

 **********************************************************************

 Orbital symmetries:
       Occupied  (A) (A) (A) (A) (A) (A) (A) (A) (A) (A) (A) (A)
                 (A) (A) (A) (A) (A) (A) (A) (A) (A) (A) (A) (A)
                 (A) (A) (A) (A) (A) (A) (A) (A) (A) (A) (A) (A)
                 (A) (A) (A) (A) (A) (A) (A) (A) (A) (A) (A) (A)
                 (A) (A) (A) (A) (A) (A) (A) (A) (A) (A) (A) (A)
                 (A)
       Virtual   (A) (A) (A) (A) (A) (A) (A) (A) (A) (A) (A) (A)
                 (A) (A) (A) (A) (A) (A) (A) (A) (A) (A) (A) (A)
                 (A) (A) (A) (A) (A) (A) (A) (A) (A) (A) (A) (A)
                 (A) (A) (A) (A) (A) (A) (A) (A) (A) (A) (A) (A)
                 (A) (A) (A) (A) (A) (A) (A) (A) (A) (A) (A) (A)
                 (A) (A) (A) (A) (A) (A) (A) (A) (A) (A) (A) (A)
                 (A) (A) (A) (A) (A) (A) (A) (A) (A) (A) (A) (A)
                 (A) (A) (A) (A) (A) (A) (A) (A) (A) (A) (A) (A)
                 (A) (A) (A) (A) (A) (A) (A) (A) (A) (A) (A) (A)
                 (A) (A) (A) (A) (A) (A) (A) (A) (A) (A) (A) (A)
                 (A) (A) (A) (A) (A) (A) (A) (A) (A) (A) (A) (A)
                 (A) (A) (A) (A) (A) (A) (A) (A) (A) (A) (A) (A)
                 (A) (A) (A) (A) (A) (A) (A) (A) (A) (A) (A) (A)
                 (A) (A) (A) (A) (A) (A) (A) (A) (A) (A) (A) (A)
                 (A) (A) (A) (A) (A) (A) (A) (A) (A) (A) (A) (A)
                 (A) (A) (A) (A) (A) (A) (A) (A) (A) (A) (A) (A)
                 (A) (A)
 The electronic state is 1-A.
 Alpha  occ. eigenvalues -- -482.93495 -61.89659 -56.41805 -56.41380 -56.41369
 Alpha  occ. eigenvalues --  -14.41922 -14.34979 -14.31954 -10.28437 -10.27790
 Alpha  occ. eigenvalues --  -10.26456 -10.24668 -10.24428 -10.24199 -10.24057
 Alpha  occ. eigenvalues --  -10.23743 -10.22468 -10.20736  -8.60800  -6.56221
 Alpha  occ. eigenvalues --   -6.54910  -6.54879  -2.67789  -2.67416  -2.67393
 Alpha  occ. eigenvalues --   -2.66346  -2.66345  -1.04853  -0.94293  -0.92305
 Alpha  occ. eigenvalues --   -0.89800  -0.83314  -0.81338  -0.76984  -0.74978
 Alpha  occ. eigenvalues --   -0.69364  -0.66317  -0.61973  -0.60796  -0.58240
 Alpha  occ. eigenvalues --   -0.54759  -0.52461  -0.50164  -0.48245  -0.46715
 Alpha  occ. eigenvalues --   -0.45391  -0.45185  -0.43092  -0.42085  -0.41190
 Alpha  occ. eigenvalues --   -0.40285  -0.38073  -0.37384  -0.35248  -0.34662
 Alpha  occ. eigenvalues --   -0.31009  -0.30427  -0.29521  -0.27602  -0.25922
 Alpha  occ. eigenvalues --   -0.24077
 Alpha virt. eigenvalues --   -0.07570  -0.05265  -0.01895   0.01930   0.02663
 Alpha virt. eigenvalues --    0.05828   0.06095   0.09539   0.10992   0.12082
 Alpha virt. eigenvalues --    0.13974   0.15058   0.15714   0.16458   0.17920
 Alpha virt. eigenvalues --    0.19755   0.20684   0.22288   0.24471   0.26800
 Alpha virt. eigenvalues --    0.27767   0.29786   0.31382   0.35439   0.36648
 Alpha virt. eigenvalues --    0.37947   0.40711   0.42504   0.43953   0.44146
 Alpha virt. eigenvalues --    0.45146   0.45861   0.46160   0.46727   0.46925
 Alpha virt. eigenvalues --    0.49187   0.49916   0.51505   0.52428   0.53229
 Alpha virt. eigenvalues --    0.54145   0.54828   0.55721   0.57663   0.58357
 Alpha virt. eigenvalues --    0.60048   0.60643   0.61191   0.62255   0.63171
 Alpha virt. eigenvalues --    0.65228   0.65413   0.66848   0.67897   0.70526
 Alpha virt. eigenvalues --    0.72156   0.73094   0.74534   0.76166   0.77833
 Alpha virt. eigenvalues --    0.78894   0.79558   0.80334   0.81849   0.82159
 Alpha virt. eigenvalues --    0.83432   0.84367   0.85030   0.87050   0.87282
 Alpha virt. eigenvalues --    0.88852   0.89414   0.91596   0.96139   0.97226
 Alpha virt. eigenvalues --    0.97743   0.99593   1.02644   1.03228   1.05147
 Alpha virt. eigenvalues --    1.08196   1.13688   1.15781   1.19175   1.19918
 Alpha virt. eigenvalues --    1.21675   1.23420   1.27883   1.28840   1.30439
 Alpha virt. eigenvalues --    1.32956   1.34577   1.35287   1.36585   1.38005
 Alpha virt. eigenvalues --    1.39209   1.41457   1.43397   1.46930   1.49312
 Alpha virt. eigenvalues --    1.50685   1.51507   1.54835   1.55126   1.59260
 Alpha virt. eigenvalues --    1.63993   1.66914   1.71201   1.75974   1.76954
 Alpha virt. eigenvalues --    1.78256   1.80015   1.81035   1.83680   1.87907
 Alpha virt. eigenvalues --    1.89128   1.90302   1.91745   1.92931   1.94145
 Alpha virt. eigenvalues --    1.95316   1.97408   1.97892   1.99236   2.01567
 Alpha virt. eigenvalues --    2.02943   2.04535   2.05966   2.06986   2.10883
 Alpha virt. eigenvalues --    2.12107   2.14614   2.19304   2.21566   2.23994
 Alpha virt. eigenvalues --    2.25724   2.27101   2.27211   2.31726   2.36817
 Alpha virt. eigenvalues --    2.39037   2.40021   2.41900   2.45431   2.47779
 Alpha virt. eigenvalues --    2.48657   2.49125   2.49987   2.51727   2.53873
 Alpha virt. eigenvalues --    2.56415   2.59043   2.60522   2.60909   2.62623
 Alpha virt. eigenvalues --    2.66430   2.69127   2.71160   2.73397   2.74509
 Alpha virt. eigenvalues --    2.77481   2.80134   2.81001   2.85237   2.87753
 Alpha virt. eigenvalues --    2.93964   2.98897   3.07040   3.08372   3.16862
 Alpha virt. eigenvalues --    3.18000   3.24525   3.28645   3.33419   3.38230
 Alpha virt. eigenvalues --    3.44666   3.56931   3.70166   3.75605   4.01942
 Alpha virt. eigenvalues --    4.06730   4.07425   4.12150   4.15325   4.19348
 Alpha virt. eigenvalues --    4.24772   4.36365   4.39973   4.43603   4.55161
 Alpha virt. eigenvalues --    4.63458   4.88664   8.58397  72.80221
          Condensed to atoms (all electrons):
               1          2          3          4          5          6
     1  N    6.692501   0.874585  -0.098859  -0.002337  -0.000105  -0.000001
     2  C    0.874585   4.828895   0.172480  -0.060514   0.006324  -0.000225
     3  C   -0.098859   0.172480   5.009937   0.489710  -0.021793   0.005546
     4  C   -0.002337  -0.060514   0.489710   4.946876   0.491217  -0.057154
     5  C   -0.000105   0.006324  -0.021793   0.491217   4.831504   0.265531
     6  Br  -0.000001  -0.000225   0.005546  -0.057154   0.265531  34.941644
     7  C    0.000019   0.000517  -0.037350  -0.034222   0.514408  -0.059120
     8  C   -0.000116   0.009055  -0.046848  -0.059174  -0.020220   0.005480
     9  C    0.001371  -0.039239   0.488938  -0.007376  -0.043016   0.000570
    10  N   -0.001754  -0.025152  -0.057105   0.007323  -0.000047   0.000002
    11  C    0.000050   0.000065   0.004581  -0.000086   0.000001  -0.000000
    12  C    0.000011  -0.000102  -0.000322   0.000004  -0.000000   0.000000
    13  N   -0.000049  -0.000552   0.000656   0.000001  -0.000000   0.000000
    14  C   -0.004934   0.002582  -0.004230   0.000058   0.000008  -0.000000
    15  H    0.000966  -0.006933  -0.036780   0.374538  -0.038637  -0.002811
    16  H   -0.000000   0.000006   0.000571   0.005211  -0.040048  -0.002895
    17  H   -0.000000  -0.000225   0.004468   0.000937   0.003685  -0.000142
    18  H    0.000000   0.000012   0.000118  -0.000014   0.000000   0.000000
    19  H    0.000000  -0.000000   0.000005  -0.000000  -0.000000  -0.000000
    20  H    0.002057   0.003917   0.001473  -0.000028  -0.000001   0.000000
               7          8          9         10         11         12
     1  N    0.000019  -0.000116   0.001371  -0.001754   0.000050   0.000011
     2  C    0.000517   0.009055  -0.039239  -0.025152   0.000065  -0.000102
     3  C   -0.037350  -0.046848   0.488938  -0.057105   0.004581  -0.000322
     4  C   -0.034222  -0.059174  -0.007376   0.007323  -0.000086   0.000004
     5  C    0.514408  -0.020220  -0.043016  -0.000047   0.000001  -0.000000
     6  Br  -0.059120   0.005480   0.000570   0.000002  -0.000000   0.000000
     7  C    4.885398   0.480486  -0.016194   0.006399   0.000244  -0.000003
     8  C    0.480486   4.994644   0.477615  -0.069906  -0.006399   0.000376
     9  C   -0.016194   0.477615   4.676582   0.209101  -0.034167   0.006932
    10  N    0.006399  -0.069906   0.209101   6.965299   0.382500  -0.060896
    11  C    0.000244  -0.006399  -0.034167   0.382500   4.873211   0.570582
    12  C   -0.000003   0.000376   0.006932  -0.060896   0.570582   4.765724
    13  N    0.000002  -0.000417   0.005372  -0.078458  -0.064126   0.444125
    14  C   -0.000100   0.002502  -0.018283   0.368850  -0.109447  -0.115972
    15  H    0.005197   0.000139   0.004294  -0.000075   0.000001  -0.000000
    16  H    0.371859  -0.033101   0.003643  -0.000111  -0.000004  -0.000000
    17  H   -0.031220   0.361762  -0.033512  -0.008067   0.006109  -0.000078
    18  H    0.000056   0.001675   0.000853  -0.045030   0.369068  -0.028427
    19  H    0.000000  -0.000009  -0.000074   0.003264  -0.053058   0.392968
    20  H    0.000004  -0.000108   0.000350  -0.055042   0.004214   0.005870
              13         14         15         16         17         18
     1  N   -0.000049  -0.004934   0.000966  -0.000000  -0.000000   0.000000
     2  C   -0.000552   0.002582  -0.006933   0.000006  -0.000225   0.000012
     3  C    0.000656  -0.004230  -0.036780   0.000571   0.004468   0.000118
     4  C    0.000001   0.000058   0.374538   0.005211   0.000937  -0.000014
     5  C   -0.000000   0.000008  -0.038637  -0.040048   0.003685   0.000000
     6  Br   0.000000  -0.000000  -0.002811  -0.002895  -0.000142   0.000000
     7  C    0.000002  -0.000100   0.005197   0.371859  -0.031220   0.000056
     8  C   -0.000417   0.002502   0.000139  -0.033101   0.361762   0.001675
     9  C    0.005372  -0.018283   0.004294   0.003643  -0.033512   0.000853
    10  N   -0.078458   0.368850  -0.000075  -0.000111  -0.008067  -0.045030
    11  C   -0.064126  -0.109447   0.000001  -0.000004   0.006109   0.369068
    12  C    0.444125  -0.115972  -0.000000  -0.000000  -0.000078  -0.028427
    13  N    6.664209   0.544395  -0.000000  -0.000000  -0.000027   0.005141
    14  C    0.544395   4.664488  -0.000001   0.000001  -0.000125   0.004997
    15  H   -0.000000  -0.000001   0.556839  -0.000153   0.000016   0.000000
    16  H   -0.000000   0.000001  -0.000153   0.573315  -0.005781   0.000000
    17  H   -0.000027  -0.000125   0.000016  -0.005781   0.575939   0.001352
    18  H    0.005141   0.004997   0.000000   0.000000   0.001352   0.571779
    19  H   -0.041854   0.007162   0.000000   0.000000   0.000002   0.000342
    20  H   -0.031580   0.389725   0.000001  -0.000000  -0.000001  -0.000121
              19         20
     1  N    0.000000   0.002057
     2  C   -0.000000   0.003917
     3  C    0.000005   0.001473
     4  C   -0.000000  -0.000028
     5  C   -0.000000  -0.000001
     6  Br  -0.000000   0.000000
     7  C    0.000000   0.000004
     8  C   -0.000009  -0.000108
     9  C   -0.000074   0.000350
    10  N    0.003264  -0.055042
    11  C   -0.053058   0.004214
    12  C    0.392968   0.005870
    13  N   -0.041854  -0.031580
    14  C    0.007162   0.389725
    15  H    0.000000   0.000001
    16  H    0.000000  -0.000000
    17  H    0.000002  -0.000001
    18  H    0.000342  -0.000121
    19  H    0.589666  -0.000179
    20  H   -0.000179   0.539599
 Mulliken charges:
               1
     1  N   -0.463405
     2  C    0.234505
     3  C    0.124804
     4  C   -0.094967
     5  C    0.051189
     6  Br  -0.096426
     7  C   -0.086379
     8  C   -0.097436
     9  C    0.316241
    10  N   -0.541094
    11  C    0.056662
    12  C    0.019210
    13  N   -0.446837
    14  C    0.268326
    15  H    0.143398
    16  H    0.127487
    17  H    0.124910
    18  H    0.118197
    19  H    0.101766
    20  H    0.139850
 Sum of Mulliken charges =  -0.00000
 Mulliken charges with hydrogens summed into heavy atoms:
               1
     1  N   -0.463405
     2  C    0.234505
     3  C    0.124804
     4  C    0.048430
     5  C    0.051189
     6  Br  -0.096426
     7  C    0.041108
     8  C    0.027474
     9  C    0.316241
    10  N   -0.541094
    11  C    0.174858
    12  C    0.120976
    13  N   -0.446837
    14  C    0.408176
 Electronic spatial extent (au):  <R**2>=           4517.6681
 Charge=             -0.0000 electrons
 Dipole moment (field-independent basis, Debye):
    X=              3.3636    Y=             -4.2632    Z=             -0.2890  Tot=              5.4380
 Quadrupole moment (field-independent basis, Debye-Ang):
   XX=           -107.4941   YY=            -93.7116   ZZ=            -92.0820
   XY=             10.6983   XZ=              3.3242   YZ=              3.5325
 Traceless Quadrupole moment (field-independent basis, Debye-Ang):
   XX=             -9.7315   YY=              4.0510   ZZ=              5.6806
   XY=             10.6983   XZ=              3.3242   YZ=              3.5325
 Octapole moment (field-independent basis, Debye-Ang**2):
  XXX=            201.3642  YYY=            -61.1703  ZZZ=              1.7523  XYY=             56.2691
  XXY=            -35.3861  XXZ=            -22.0167  XZZ=             37.4339  YZZ=             -0.3665
  YYZ=              3.5633  XYZ=            -11.1483
 Hexadecapole moment (field-independent basis, Debye-Ang**3):
 XXXX=          -4519.8384 YYYY=          -1087.8487 ZZZZ=           -147.4257 XXXY=            143.9561
 XXXZ=            135.7519 YYYX=             84.8277 YYYZ=             27.6682 ZZZX=              0.7217
 ZZZY=              3.6299 XXYY=           -858.9295 XXZZ=           -750.9082 YYZZ=           -184.4610
 XXYZ=             30.8088 YYXZ=             -0.1564 ZZXY=             -4.8538
 N-N= 1.048848082774D+03 E-N=-9.503679663373D+03  KE= 3.100257906954D+03
 No NMR shielding tensors so no spin-rotation constants.
 Leave Link  601 at Tue Sep 17 09:51:42 2024, MaxMem=  1342177280 cpu:               0.7 elap:               0.6
 (Enter /groups/ReismanLab/Software/Gaussian16_RevC/Linux_Binary_AVX2-enabled-CPU/g16/l701.exe)
 ... and contract with generalized density number  0.
 Compute integral first derivatives.
 R6Disp: Adding Grimme-D3(BJ) dispersion energy 1st derivatives to the gradient.
 Leave Link  701 at Tue Sep 17 09:51:42 2024, MaxMem=  1342177280 cpu:               0.7 elap:               0.1
 (Enter /groups/ReismanLab/Software/Gaussian16_RevC/Linux_Binary_AVX2-enabled-CPU/g16/l702.exe)
 L702 exits ... SP integral derivatives will be done elsewhere.
 Leave Link  702 at Tue Sep 17 09:51:42 2024, MaxMem=  1342177280 cpu:               0.0 elap:               0.0
 (Enter /groups/ReismanLab/Software/Gaussian16_RevC/Linux_Binary_AVX2-enabled-CPU/g16/l703.exe)
 Integral derivatives from FoFJK, PRISM(SPDF).
 Compute integral first derivatives, UseDBF=F ICtDFT=           0.
 Calling FoFJK, ICntrl=      2127 FMM=F ISym2X=0 I1Cent= 0 IOpClX= 0 NMat=1 NMatS=1 NMatT=0.
 FoFJK:  IHMeth= 1 ICntrl=    2127 DoSepK=F KAlg= 0 I1Cent=           0 FoldK=F
 IRaf=         0 NMat=       1 IRICut=       1 DoRegI=T DoRafI=F ISym2E= 0 IDoP0=0 IntGTp=1.
 FoFCou: FMM=F IPFlag=           0 FMFlag=      100000 FMFlg1=         800
         NFxFlg=           0 DoJE=F BraDBF=F KetDBF=F FulRan=T
         wScrn=  0.000000 ICntrl=      2127 IOpCl=  0 I1Cent=           0 NGrid=           0
         NMat0=    1 NMatS0=      1 NMatT0=    0 NMatD0=    1 NMtDS0=    0 NMtDT0=    0
 Symmetry not used in FoFCou.
 Leave Link  703 at Tue Sep 17 09:51:47 2024, MaxMem=  1342177280 cpu:              36.8 elap:               4.8
 (Enter /groups/ReismanLab/Software/Gaussian16_RevC/Linux_Binary_AVX2-enabled-CPU/g16/l716.exe)
 Dipole        = 1.32332917D+00-1.67727385D+00-1.13699099D-01
 ***** Axes restored to original set *****
 -------------------------------------------------------------------
 Center     Atomic                   Forces (Hartrees/Bohr)
 Number     Number              X              Y              Z
 -------------------------------------------------------------------
      1        7          -0.020146485    0.037535060    0.008020742
      2        6           0.014273343   -0.025877228   -0.006676589
      3        6           0.000398150   -0.003800919   -0.001087669
      4        6           0.004535152    0.001638182    0.001382315
      5        6           0.007071099    0.000511093    0.000289421
      6       35           0.000866933    0.000036279   -0.000008862
      7        6           0.004198895   -0.001845344   -0.001499409
      8        6          -0.004393214   -0.001906225   -0.000899369
      9        6           0.006671325   -0.000515572    0.001260895
     10        7           0.001416750    0.000637492   -0.001119070
     11        6          -0.001672079   -0.009837879   -0.012958732
     12        6          -0.001272073   -0.005266886   -0.004480417
     13        7          -0.018536705    0.006342286    0.009814472
     14        6           0.002864806    0.008666190    0.013057177
     15        1           0.001164385    0.001816255    0.000376942
     16        1           0.001902444   -0.002691533   -0.000597342
     17        1          -0.001960236   -0.002801929    0.000082474
     18        1           0.003560874   -0.002205219   -0.004425931
     19        1          -0.004691553   -0.003645669   -0.004439500
     20        1           0.003748188    0.003211567    0.003908451
 -------------------------------------------------------------------
 Cartesian Forces:  Max     0.037535060 RMS     0.008363145
 Leave Link  716 at Tue Sep 17 09:51:47 2024, MaxMem=  1342177280 cpu:               0.1 elap:               0.0
 (Enter /groups/ReismanLab/Software/Gaussian16_RevC/Linux_Binary_AVX2-enabled-CPU/g16/l103.exe)

 GradGradGradGradGradGradGradGradGradGradGradGradGradGradGradGradGradGrad
 Berny optimization.
 FormGI is forming the generalized inverse of G from B-inverse, IUseBI=4.
 Internal  Forces:  Max     0.043340034 RMS     0.006552026
 Search for a local minimum.
 Step number   1 out of a maximum of  108
 All quantities printed in internal units (Hartrees-Bohrs-Radians)
 RMS Force = .65520D-02 SwitMx=.10000D-02 MixMth= 1
 Mixed Optimization -- RFO/linear search
 Second derivative matrix not updated -- first step.
 ITU=  0
     Eigenvalues ---    0.01799   0.01878   0.01878   0.01982   0.02008
     Eigenvalues ---    0.02080   0.02110   0.02183   0.02230   0.02238
     Eigenvalues ---    0.02255   0.02286   0.02292   0.02304   0.02314
     Eigenvalues ---    0.02426   0.02495   0.02596   0.15967   0.15990
     Eigenvalues ---    0.15998   0.15999   0.16000   0.16000   0.18170
     Eigenvalues ---    0.22369   0.22678   0.23403   0.23497   0.24604
     Eigenvalues ---    0.24923   0.24979   0.25000   0.25000   0.36056
     Eigenvalues ---    0.36114   0.36153   0.37115   0.37119   0.37211
     Eigenvalues ---    0.42225   0.43042   0.43085   0.44858   0.45897
     Eigenvalues ---    0.46541   0.46992   0.47018   0.48018   0.48718
     Eigenvalues ---    0.51792   0.51896   0.65513   1.37715
 RFO step:  Lambda=-6.62090409D-03 EMin= 1.79910838D-02
 Linear search not attempted -- first point.
 Iteration  1 RMS(Cart)=  0.03957663 RMS(Int)=  0.00043814
 Iteration  2 RMS(Cart)=  0.00067467 RMS(Int)=  0.00004278
 Iteration  3 RMS(Cart)=  0.00000034 RMS(Int)=  0.00004277
 ITry= 1 IFail=0 DXMaxC= 1.11D-01 DCOld= 1.00D+10 DXMaxT= 3.00D-01 DXLimC= 3.00D+00 Rises=F
 Variable       Old X    -DE/DX   Delta X   Delta X   Delta X     New X
                                 (Linear)    (Quad)   (Total)
    R1        2.16483   0.04334   0.00000   0.03132   0.03132   2.19615
    R2        2.67565   0.01305   0.00000   0.02982   0.02982   2.70548
    R3        2.63617   0.01028   0.00000   0.02192   0.02191   2.65808
    R4        2.65540   0.00852   0.00000   0.01886   0.01886   2.67427
    R5        2.60998   0.00616   0.00000   0.01243   0.01243   2.62241
    R6        2.03995   0.00218   0.00000   0.00593   0.00593   2.04588
    R7        3.59363   0.00087   0.00000   0.00461   0.00461   3.59824
    R8        2.62392   0.00593   0.00000   0.01219   0.01219   2.63611
    R9        2.60826   0.00941   0.00000   0.01883   0.01883   2.62710
   R10        2.03843   0.00335   0.00000   0.00909   0.00909   2.04752
   R11        2.63462   0.00562   0.00000   0.01191   0.01191   2.64653
   R12        2.03904   0.00329   0.00000   0.00895   0.00895   2.04799
   R13        2.63028   0.01470   0.00000   0.03084   0.03084   2.66112
   R14        2.60090   0.01572   0.00000   0.03029   0.03028   2.63118
   R15        2.58759   0.01641   0.00000   0.03243   0.03243   2.62002
   R16        2.57063   0.00998   0.00000   0.01748   0.01747   2.58810
   R17        2.02229   0.00593   0.00000   0.01566   0.01566   2.03796
   R18        2.57355   0.01913   0.00000   0.03602   0.03602   2.60957
   R19        2.02373   0.00708   0.00000   0.01875   0.01875   2.04248
   R20        2.44685   0.01773   0.00000   0.02654   0.02655   2.47340
   R21        2.02366   0.00590   0.00000   0.01562   0.01562   2.03928
    A1        2.05072  -0.00029   0.00000  -0.00126  -0.00127   2.04946
    A2        2.13396   0.00138   0.00000   0.00528   0.00527   2.13924
    A3        2.09779  -0.00109   0.00000  -0.00418  -0.00418   2.09361
    A4        2.08728   0.00152   0.00000   0.00658   0.00655   2.09383
    A5        2.08609  -0.00054   0.00000  -0.00204  -0.00205   2.08403
    A6        2.10978  -0.00097   0.00000  -0.00463  -0.00464   2.10514
    A7        2.08631   0.00054   0.00000   0.00232   0.00232   2.08863
    A8        2.10922  -0.00103   0.00000  -0.00447  -0.00448   2.10474
    A9        2.08765   0.00050   0.00000   0.00215   0.00215   2.08981
   A10        2.08697   0.00020   0.00000   0.00019   0.00017   2.08714
   A11        2.09625  -0.00019   0.00000  -0.00065  -0.00066   2.09559
   A12        2.09994  -0.00002   0.00000   0.00039   0.00037   2.10032
   A13        2.11200   0.00127   0.00000   0.00514   0.00513   2.11713
   A14        2.08887  -0.00009   0.00000   0.00068   0.00067   2.08954
   A15        2.08218  -0.00119   0.00000  -0.00594  -0.00596   2.07623
   A16        2.07304  -0.00087   0.00000  -0.00341  -0.00343   2.06961
   A17        2.11750   0.00444   0.00000   0.01736   0.01732   2.13482
   A18        2.09263  -0.00357   0.00000  -0.01388  -0.01392   2.07871
   A19        2.20346  -0.00360   0.00000  -0.01408  -0.01409   2.18937
   A20        2.23291   0.00082   0.00000   0.00319   0.00317   2.23608
   A21        1.84514   0.00276   0.00000   0.01031   0.01028   1.85542
   A22        1.85139  -0.00121   0.00000  -0.00966  -0.00969   1.84170
   A23        2.13295  -0.00073   0.00000  -0.00318  -0.00316   2.12979
   A24        2.29764   0.00193   0.00000   0.01282   0.01283   2.31047
   A25        1.92075   0.00280   0.00000   0.01013   0.01007   1.93082
   A26        2.25150  -0.00361   0.00000  -0.01831  -0.01834   2.23316
   A27        2.11093   0.00081   0.00000   0.00825   0.00822   2.11915
   A28        1.85257  -0.00175   0.00000  -0.00298  -0.00298   1.84959
   A29        1.95468  -0.00259   0.00000  -0.00748  -0.00748   1.94720
   A30        2.14786  -0.00092   0.00000  -0.00950  -0.00951   2.13835
   A31        2.18005   0.00351   0.00000   0.01708   0.01708   2.19713
   A32        3.19154  -0.00036   0.00000  -0.01433  -0.01433   3.17721
   A33        3.11519   0.00174   0.00000   0.06846   0.06846   3.18365
    D1       -3.09304   0.00046   0.00000   0.01720   0.01727  -3.07577
    D2        0.03932   0.00015   0.00000   0.00631   0.00633   0.04565
    D3        0.00904   0.00036   0.00000   0.01277   0.01281   0.02184
    D4        3.14139   0.00005   0.00000   0.00188   0.00188  -3.13992
    D5        3.08793  -0.00049   0.00000  -0.01748  -0.01750   3.07043
    D6       -0.05925  -0.00008   0.00000  -0.00210  -0.00200  -0.06125
    D7       -0.01220  -0.00034   0.00000  -0.01267  -0.01264  -0.02484
    D8        3.12380   0.00006   0.00000   0.00271   0.00286   3.12666
    D9        3.14084  -0.00016   0.00000  -0.00572  -0.00573   3.13511
   D10        0.00107  -0.00009   0.00000  -0.00296  -0.00298  -0.00191
   D11        0.00861   0.00015   0.00000   0.00530   0.00532   0.01393
   D12       -3.13116   0.00022   0.00000   0.00806   0.00807  -3.12309
   D13       -0.00785  -0.00020   0.00000  -0.00680  -0.00681  -0.01466
   D14       -3.14133   0.00010   0.00000   0.00324   0.00326  -3.13807
   D15        3.13557  -0.00012   0.00000  -0.00404  -0.00406   3.13151
   D16        0.00209   0.00018   0.00000   0.00600   0.00602   0.00810
   D17        0.00450   0.00021   0.00000   0.00679   0.00683   0.01132
   D18       -3.11995   0.00045   0.00000   0.01520   0.01529  -3.10466
   D19        3.13796  -0.00009   0.00000  -0.00328  -0.00328   3.13468
   D20        0.01352   0.00015   0.00000   0.00514   0.00518   0.01870
   D21        0.00543   0.00007   0.00000   0.00292   0.00292   0.00836
   D22       -3.13065  -0.00035   0.00000  -0.01233  -0.01217   3.14036
   D23        3.12994  -0.00016   0.00000  -0.00540  -0.00541   3.12453
   D24       -0.00614  -0.00058   0.00000  -0.02065  -0.02051  -0.02665
   D25        2.52758  -0.00112   0.00000  -0.04395  -0.04398   2.48360
   D26       -0.68521  -0.00137   0.00000  -0.05606  -0.05606  -0.74127
   D27       -0.61967  -0.00071   0.00000  -0.02837  -0.02836  -0.64803
   D28        2.45073  -0.00095   0.00000  -0.04048  -0.04045   2.41028
   D29        3.09700  -0.00035   0.00000  -0.01468  -0.01465   3.08235
   D30       -0.09162  -0.00032   0.00000  -0.01475  -0.01470  -0.10631
   D31        0.01372  -0.00014   0.00000  -0.00475  -0.00472   0.00900
   D32        3.10829  -0.00011   0.00000  -0.00481  -0.00477   3.10352
   D33       -3.08351   0.00027   0.00000   0.00672   0.00679  -3.07672
   D34        0.02256   0.00036   0.00000   0.00985   0.00989   0.03245
   D35       -0.00155  -0.00014   0.00000  -0.00421  -0.00424  -0.00580
   D36        3.10452  -0.00005   0.00000  -0.00107  -0.00115   3.10337
   D37       -0.02118   0.00036   0.00000   0.01176   0.01178  -0.00940
   D38        3.12513  -0.00017   0.00000  -0.00444  -0.00437   3.12076
   D39       -3.10952   0.00045   0.00000   0.01254   0.01256  -3.09696
   D40        0.03679  -0.00008   0.00000  -0.00365  -0.00359   0.03320
   D41        0.02026  -0.00043   0.00000  -0.01418  -0.01429   0.00597
   D42       -3.12560   0.00003   0.00000   0.00041   0.00054  -3.12506
   D43       -0.01129   0.00040   0.00000   0.01137   0.01133   0.00005
   D44       -3.11658   0.00042   0.00000   0.00882   0.00878  -3.10780
         Item               Value     Threshold  Converged?
 Maximum Force            0.043340     0.000450     NO 
 RMS     Force            0.006552     0.000300     NO 
 Maximum Displacement     0.111368     0.001800     NO 
 RMS     Displacement     0.039783     0.001200     NO 
 Predicted change in Energy=-3.403060D-03
 Lowest energy point so far.  Saving SCF results.
 GradGradGradGradGradGradGradGradGradGradGradGradGradGradGradGradGradGrad

 Leave Link  103 at Tue Sep 17 09:51:47 2024, MaxMem=  1342177280 cpu:               0.1 elap:               0.0
 (Enter /groups/ReismanLab/Software/Gaussian16_RevC/Linux_Binary_AVX2-enabled-CPU/g16/l202.exe)
                          Input orientation:                          
 ---------------------------------------------------------------------
 Center     Atomic      Atomic             Coordinates (Angstroms)
 Number     Number       Type             X           Y           Z
 ---------------------------------------------------------------------
      1          7           0       -1.792031    3.114933    0.682376
      2          6           0       -1.253843    2.113722    0.440450
      3          6           0       -0.550062    0.888951    0.207366
      4          6           0        0.855618    0.935555    0.227421
      5          6           0        1.591230   -0.203149   -0.069207
      6         35           0        3.493745   -0.127779   -0.049913
      7          6           0        0.949363   -1.400343   -0.386500
      8          6           0       -0.439763   -1.454936   -0.387859
      9          6           0       -1.212629   -0.325809   -0.089356
     10          7           0       -2.616653   -0.433019   -0.105723
     11          6           0       -3.357735   -1.195765   -1.004433
     12          6           0       -4.661766   -1.067130   -0.606105
     13          7           0       -4.751599   -0.262676    0.512703
     14          6           0       -3.526426    0.102842    0.792846
     15          1           0        1.353308    1.869191    0.457030
     16          1           0        1.532078   -2.285146   -0.613525
     17          1           0       -0.940446   -2.392323   -0.600311
     18          1           0       -2.899069   -1.702698   -1.838506
     19          1           0       -5.541840   -1.497202   -1.062957
     20          1           0       -3.224448    0.715392    1.628393
 ---------------------------------------------------------------------
                    Distance matrix (angstroms):
                    1          2          3          4          5
     1  N    0.000000
     2  C    1.162153   0.000000
     3  C    2.592898   1.431678   0.000000
     4  C    3.459295   2.425548   1.406595   0.000000
     5  C    4.798021   3.704333   2.419567   1.387718   0.000000
     6  Br   6.244266   5.272985   4.177595   2.857850   1.904104
     7  C    5.389384   4.229257   2.800324   2.417045   1.394970
     8  C    4.884439   3.752885   2.420798   2.787656   2.406957
     9  C    3.573512   2.496738   1.415161   2.443160   2.806614
    10  N    3.726804   2.939633   2.473141   3.747084   4.214315
    11  C    4.886602   4.179324   3.701017   4.879788   5.133438
    12  C    5.233088   4.777764   4.625375   5.928493   6.335194
    13  N    4.494004   4.229276   4.367194   5.740907   6.369744
    14  C    3.477503   3.054907   3.133608   4.496157   5.198767
    15  H    3.390547   2.618646   2.155462   1.082632   2.151308
    16  H    6.472242   5.312462   3.883820   3.396719   2.152787
    17  H    5.718423   4.635283   3.401691   3.871144   3.388796
    18  H    5.548869   4.739775   4.052168   5.032505   5.053895
    19  H    6.195082   5.803957   5.676732   6.964972   7.317294
    20  H    2.950350   2.692548   3.033444   4.319506   5.188094
                    6          7          8          9         10
     6  Br   0.000000
     7  C    2.864714   0.000000
     8  C    4.165097   1.390199   0.000000
     9  C    4.710704   2.432515   1.400484   0.000000
    10  N    6.118271   3.705539   2.421314   1.408206   0.000000
    11  C    6.999605   4.356006   2.993642   2.489110   1.392359
    12  C    8.228249   5.625302   4.245389   3.565547   2.198856
    13  N    8.265617   5.882501   4.563378   3.590371   2.229229
    14  C    7.074336   4.866530   3.653522   2.513101   1.386456
    15  H    2.970918   3.400671   3.870241   3.420613   4.623575
    16  H    2.969853   1.083500   2.151355   3.412795   4.571674
    17  H    5.009306   2.145022   1.083750   2.146076   2.625483
    18  H    6.822573   4.124339   2.865999   2.792745   2.166652
    19  H    9.194746   6.527074   5.146720   4.589349   3.256609
    20  H    6.975798   5.094784   4.065718   2.842917   2.166892
                   11         12         13         14         15
    11  C    0.000000
    12  C    1.369565   0.000000
    13  N    2.261684   1.380923   0.000000
    14  C    2.223746   2.148230   1.308866   0.000000
    15  H    5.807215   6.777414   6.466671   5.200439   0.000000
    16  H    5.024920   6.312473   6.696519   5.767914   4.293782
    17  H    2.727334   3.950239   4.505450   3.854093   4.953764
    18  H    1.078440   2.242734   3.321703   3.252316   6.009208
    19  H    2.205584   1.080836   2.152032   3.172701   7.822149
    20  H    3.256080   3.199414   2.129218   1.079142   4.864071
                   16         17         18         19         20
    16  H    0.000000
    17  H    2.474881   0.000000
    18  H    4.634100   2.417626   0.000000
    19  H    7.131841   4.710425   2.761872   0.000000
    20  H    6.054251   4.454400   4.239388   4.184404   0.000000
 Stoichiometry    C10H6BrN3
 Framework group  C1[X(C10H6BrN3)]
 Deg. of freedom    54
 Full point group                 C1      NOp   1
 RotChk:  IX=0 Diff= 9.64D-03
 Largest Abelian subgroup         C1      NOp   1
 Largest concise Abelian subgroup C1      NOp   1
                         Standard orientation:                         
 ---------------------------------------------------------------------
 Center     Atomic      Atomic             Coordinates (Angstroms)
 Number     Number       Type             X           Y           Z
 ---------------------------------------------------------------------
      1          7           0       -1.595935    3.205786   -0.324679
      2          6           0       -1.064742    2.175599   -0.240130
      3          6           0       -0.369961    0.934549   -0.076502
      4          6           0        1.035894    0.976556   -0.058719
      5          6           0        1.763693   -0.202493    0.018166
      6         35           0        3.666606   -0.136374    0.030968
      7          6           0        1.113737   -1.435212    0.080630
      8          6           0       -0.275766   -1.479135    0.083252
      9          6           0       -1.040913   -0.308387    0.010761
     10          7           0       -2.445661   -0.406898    0.015243
     11          6           0       -3.186998   -1.405691   -0.610453
     12          6           0       -4.492626   -1.152276   -0.283612
     13          7           0       -4.583334   -0.040718    0.530734
     14          6           0       -3.357039    0.386093    0.695550
     15          1           0        1.540017    1.932399   -0.124417
     16          1           0        1.690355   -2.350361    0.143769
     17          1           0       -0.783035   -2.433221    0.166396
     18          1           0       -2.726902   -2.148493   -1.242584
     19          1           0       -5.373164   -1.697216   -0.593287
     20          1           0       -3.055635    1.225182    1.303524
 ---------------------------------------------------------------------
 Rotational constants (GHZ):           1.3807992           0.2367534           0.2056101
 Leave Link  202 at Tue Sep 17 09:51:47 2024, MaxMem=  1342177280 cpu:               0.0 elap:               0.0
 (Enter /groups/ReismanLab/Software/Gaussian16_RevC/Linux_Binary_AVX2-enabled-CPU/g16/l301.exe)
 Standard basis: 6-31G(d,p) (6D, 7F)
 Ernie: Thresh=  0.10000D-02 Tol=  0.10000D-05 Strict=F.
 There are   255 symmetry adapted cartesian basis functions of A   symmetry.
 There are   255 symmetry adapted basis functions of A   symmetry.
   255 basis functions,   489 primitive gaussians,   255 cartesian basis functions
    61 alpha electrons       61 beta electrons
       nuclear repulsion energy      1040.3997034891 Hartrees.
 IExCor=  402 DFT=T Ex+Corr=B3LYP ExCW=0 ScaHFX=  0.200000
 ScaDFX=  0.800000  0.720000  1.000000  0.810000 ScalE2=  1.000000  1.000000
 IRadAn=      5 IRanWt=     -1 IRanGd=            0 ICorTp=0 IEmpDi=141
 NAtoms=   20 NActive=   20 NUniq=   20 SFac= 1.00D+00 NAtFMM=   60 NAOKFM=F Big=F
 Integral buffers will be    131072 words long.
 Raffenetti 2 integral format.
 Two-electron integral symmetry is turned on.
 R6Disp:  Grimme-D3(BJ) Dispersion energy=       -0.0475036429 Hartrees.
 Nuclear repulsion after empirical dispersion term =     1040.3521998462 Hartrees.
 Leave Link  301 at Tue Sep 17 09:51:47 2024, MaxMem=  1342177280 cpu:               0.1 elap:               0.0
 (Enter /groups/ReismanLab/Software/Gaussian16_RevC/Linux_Binary_AVX2-enabled-CPU/g16/l302.exe)
 NPDir=0 NMtPBC=     1 NCelOv=     1 NCel=       1 NClECP=     1 NCelD=      1
         NCelK=      1 NCelE2=     1 NClLst=     1 CellRange=     0.0.
 One-electron integrals computed using PRISM.
 One-electron integral symmetry used in STVInt
 NBasis=   255 RedAO= T EigKep=  3.46D-04  NBF=   255
 NBsUse=   255 1.00D-06 EigRej= -1.00D+00 NBFU=   255
 Precomputing XC quadrature grid using
 IXCGrd= 4 IRadAn=           5 IRanWt=          -1 IRanGd=           0 AccXCQ= 0.00D+00.
 Generated NRdTot=       0 NPtTot=           0 NUsed=           0 NTot=          32
 NSgBfM=   252   252   252   252   252 MxSgAt=    20 MxSgA2=    20.
 Leave Link  302 at Tue Sep 17 09:51:48 2024, MaxMem=  1342177280 cpu:               1.0 elap:               0.2
 (Enter /groups/ReismanLab/Software/Gaussian16_RevC/Linux_Binary_AVX2-enabled-CPU/g16/l303.exe)
 DipDrv:  MaxL=1.
 Leave Link  303 at Tue Sep 17 09:51:48 2024, MaxMem=  1342177280 cpu:               0.1 elap:               0.0
 (Enter /groups/ReismanLab/Software/Gaussian16_RevC/Linux_Binary_AVX2-enabled-CPU/g16/l401.exe)
 Initial guess from the checkpoint file:  "smiles_00007_conf_1.chk"
 B after Tr=     0.000000    0.000000   -0.000000
         Rot=    0.999997   -0.002247    0.000429    0.000524 Ang=  -0.27 deg.
 Guess basis will be translated and rotated to current coordinates.
 JPrj=2 DoOrth=T DoCkMO=T.
 Generating alternative initial guess.
 ExpMin= 1.43D-01 ExpMax= 5.74D+05 ExpMxC= 5.74D+03 IAcc=3 IRadAn=         5 AccDes= 0.00D+00
 Harris functional with IExCor=  402 and IRadAn=       5 diagonalized for initial guess.
 HarFok:  IExCor=  402 AccDes= 0.00D+00 IRadAn=         5 IDoV= 1 UseB2=F ITyADJ=14
 ICtDFT=  3500011 ScaDFX=  1.000000  1.000000  1.000000  1.000000
 FoFCou: FMM=F IPFlag=           0 FMFlag=      100000 FMFlg1=           0
         NFxFlg=           0 DoJE=T BraDBF=F KetDBF=T FulRan=T
         wScrn=  0.000000 ICntrl=       500 IOpCl=  0 I1Cent=   200000004 NGrid=           0
         NMat0=    1 NMatS0=      1 NMatT0=    0 NMatD0=    1 NMtDS0=    0 NMtDT0=    0
 Petite list used in FoFCou.
 Harris En= -3120.71664963600    
 Leave Link  401 at Tue Sep 17 09:51:48 2024, MaxMem=  1342177280 cpu:               5.3 elap:               0.7
 (Enter /groups/ReismanLab/Software/Gaussian16_RevC/Linux_Binary_AVX2-enabled-CPU/g16/l502.exe)
 Integral symmetry usage will be decided dynamically.
 Closed shell SCF:
 Using DIIS extrapolation, IDIIS=  1040.
 NGot=  1342177280 LenX=  1342042117 LenY=  1341976651
 Requested convergence on RMS density matrix=1.00D-08 within  32 cycles.
 Requested convergence on MAX density matrix=1.00D-06.
 Requested convergence on             energy=1.00D-06.
 No special actions if energy rises.
 Fock matrices will be formed incrementally for  20 cycles.
 Integral accuracy reduced to 1.0D-05 until final iterations.

 Cycle   1  Pass 0  IDiag  1:
 FoFJK:  IHMeth= 1 ICntrl=       0 DoSepK=F KAlg= 0 I1Cent=           0 FoldK=F
 IRaf= 840000000 NMat=       1 IRICut=       1 DoRegI=T DoRafI=F ISym2E= 0 IDoP0=0 IntGTp=1.
 FoFCou: FMM=F IPFlag=           0 FMFlag=      100000 FMFlg1=           0
         NFxFlg=           0 DoJE=F BraDBF=F KetDBF=F FulRan=T
         wScrn=  0.000000 ICntrl=         0 IOpCl=  0 I1Cent=           0 NGrid=           0
         NMat0=    1 NMatS0=      1 NMatT0=    0 NMatD0=    1 NMtDS0=    0 NMtDT0=    0
 Symmetry not used in FoFCou.
 E= -3120.65846000505    
 DIIS: error= 2.98D-03 at cycle   1 NSaved=   1.
 NSaved= 1 IEnMin= 1 EnMin= -3120.65846000505     IErMin= 1 ErrMin= 2.98D-03
 ErrMax= 2.98D-03  0.00D+00 EMaxC= 1.00D-01 BMatC= 3.59D-03 BMatP= 3.59D-03
 IDIUse=3 WtCom= 9.70D-01 WtEn= 2.98D-02
 Coeff-Com:  0.100D+01
 Coeff-En:   0.100D+01
 Coeff:      0.100D+01
 Gap=     1.669 Goal=   None    Shift=    0.000
 GapD=    1.669 DampG=2.000 DampE=1.000 DampFc=2.0000 IDamp=-1.
 RMSDP=4.66D-04 MaxDP=1.20D-02              OVMax= 1.77D-02

[...]
                 (A) (A) (A) (A) (A) (A) (A) (A) (A) (A) (A) (A)
                 (A) (A) (A) (A) (A) (A) (A) (A) (A) (A) (A) (A)
                 (A) (A) (A) (A) (A) (A) (A) (A) (A) (A) (A) (A)
                 (A) (A) (A) (A) (A) (A) (A) (A) (A) (A) (A) (A)
                 (A) (A) (A) (A) (A) (A) (A) (A) (A) (A) (A) (A)
                 (A) (A) (A) (A) (A) (A) (A) (A) (A) (A) (A) (A)
                 (A) (A) (A) (A) (A) (A) (A) (A) (A) (A) (A) (A)
                 (A) (A) (A) (A) (A) (A) (A) (A) (A) (A) (A) (A)
                 (A) (A) (A) (A) (A) (A) (A) (A) (A) (A) (A) (A)
                 (A) (A) (A) (A) (A) (A) (A) (A) (A) (A) (A) (A)
                 (A) (A) (A) (A) (A) (A) (A) (A) (A) (A) (A) (A)
                 (A) (A) (A) (A) (A) (A) (A) (A) (A) (A) (A) (A)
                 (A) (A) (A) (A) (A) (A) (A) (A) (A) (A) (A) (A)
                 (A) (A) (A) (A) (A) (A) (A) (A) (A) (A) (A) (A)
                 (A) (A) (A) (A) (A) (A) (A) (A) (A) (A) (A) (A)
                 (A) (A) (A) (A) (A) (A) (A) (A) (A) (A) (A) (A)
                 (A) (A) (A) (A) (A) (A) (A) (A) (A) (A) (A) (A)
                 (A) (A) (A) (A) (A) (A) (A) (A) (A) (A) (A) (A)
                 (A) (A) (A) (A) (A) (A) (A) (A) (A) (A) (A) (A)
                 (A) (A) (A) (A) (A) (A) (A) (A) (A) (A) (A) (A)
                 (A) (A) (A) (A) (A) (A) (A) (A) (A) (A) (A) (A)
                 (A) (A) (A) (A) (A) (A) (A) (A) (A) (A) (A) (A)
                 (A) (A) (A) (A) (A) (A) (A) (A) (A) (A) (A) (A)
                 (A) (A) (A) (A) (A) (A) (A) (A) (A) (A) (A) (A)
                 (A) (A) (A) (A) (A) (A) (A) (A) (A) (A) (A) (A)
                 (A) (A) (A) (A) (A) (A) (A) (A) (A) (A) (A) (A)
                 (A) (A) (A) (A) (A) (A) (A) (A) (A) (A) (A) (A)
                 (A) (A) (A) (A) (A) (A) (A) (A) (A) (A) (A) (A)
                 (A) (A) (A) (A) (A) (A) (A) (A) (A) (A) (A) (A)
                 (A) (A) (A) (A) (A) (A) (A) (A) (A) (A) (A) (A)
                 (A) (A) (A) (A) (A) (A) (A) (A) (A) (A) (A) (A)
                 (A) (A) (A) (A) (A) (A) (A) (A) (A) (A) (A) (A)
                 (A) (A) (A) (A) (A) (A) (A) (A) (A) (A) (A) (A)
                 (A) (A) (A) (A) (A) (A)
 The electronic state is 1-A.
 Alpha  occ. eigenvalues -- -485.39407 -63.37879 -57.19830 -57.19585 -57.19577
 Alpha  occ. eigenvalues --  -14.83107 -14.77533 -14.74504 -10.63797 -10.62977
 Alpha  occ. eigenvalues --  -10.61841 -10.60763 -10.60173 -10.59482 -10.58912
 Alpha  occ. eigenvalues --  -10.58495 -10.57968 -10.56288  -9.04523  -6.86953
 Alpha  occ. eigenvalues --   -6.86043  -6.86018  -2.90330  -2.90001  -2.89973
 Alpha  occ. eigenvalues --   -2.89125  -2.89125  -1.15005  -1.04400  -1.02458
 Alpha  occ. eigenvalues --   -0.99381  -0.92426  -0.90168  -0.85982  -0.83750
 Alpha  occ. eigenvalues --   -0.77205  -0.73886  -0.69328  -0.68324  -0.65529
 Alpha  occ. eigenvalues --   -0.61642  -0.59131  -0.56633  -0.54238  -0.53321
 Alpha  occ. eigenvalues --   -0.51398  -0.51361  -0.50011  -0.48238  -0.47555
 Alpha  occ. eigenvalues --   -0.45686  -0.45504  -0.44762  -0.41922  -0.40784
 Alpha  occ. eigenvalues --   -0.36989  -0.36360  -0.35777  -0.34624  -0.31384
 Alpha  occ. eigenvalues --   -0.29567
 Alpha virt. eigenvalues --   -0.04927  -0.02413   0.01628   0.04587   0.05499
 Alpha virt. eigenvalues --    0.08010   0.08138   0.08753   0.09334   0.10035
 Alpha virt. eigenvalues --    0.11712   0.12204   0.12932   0.13040   0.15008
 Alpha virt. eigenvalues --    0.15115   0.16403   0.18236   0.18446   0.19457
 Alpha virt. eigenvalues --    0.20836   0.22106   0.22375   0.22744   0.22993
 Alpha virt. eigenvalues --    0.23733   0.24500   0.24716   0.25531   0.26906
 Alpha virt. eigenvalues --    0.27431   0.28268   0.28621   0.29247   0.29551
 Alpha virt. eigenvalues --    0.30168   0.30727   0.32241   0.32607   0.32834
 Alpha virt. eigenvalues --    0.33916   0.34237   0.34982   0.35503   0.37410
 Alpha virt. eigenvalues --    0.38068   0.38963   0.40051   0.40496   0.41017
 Alpha virt. eigenvalues --    0.41591   0.42449   0.42805   0.43281   0.43901
 Alpha virt. eigenvalues --    0.44507   0.45220   0.46050   0.46737   0.48045
 Alpha virt. eigenvalues --    0.48531   0.49702   0.50161   0.50673   0.51486
 Alpha virt. eigenvalues --    0.52448   0.53531   0.54121   0.54721   0.55338
 Alpha virt. eigenvalues --    0.56388   0.56987   0.57612   0.58956   0.60313
 Alpha virt. eigenvalues --    0.61201   0.62613   0.63347   0.64379   0.64922
 Alpha virt. eigenvalues --    0.66380   0.67937   0.69186   0.69472   0.70773
 Alpha virt. eigenvalues --    0.70973   0.71638   0.72362   0.73429   0.73485
 Alpha virt. eigenvalues --    0.75205   0.76102   0.77702   0.78133   0.78732
 Alpha virt. eigenvalues --    0.79521   0.82221   0.83912   0.85375   0.85817
 Alpha virt. eigenvalues --    0.87049   0.88380   0.89252   0.91140   0.91557
 Alpha virt. eigenvalues --    0.92415   0.93902   0.95255   0.96321   1.00369
 Alpha virt. eigenvalues --    1.01099   1.02578   1.03071   1.04253   1.05100
 Alpha virt. eigenvalues --    1.07611   1.08963   1.09608   1.10508   1.12373
 Alpha virt. eigenvalues --    1.13337   1.14693   1.15527   1.16570   1.17178
 Alpha virt. eigenvalues --    1.18633   1.20498   1.21213   1.22141   1.23054
 Alpha virt. eigenvalues --    1.24784   1.26217   1.27387   1.28601   1.30856
 Alpha virt. eigenvalues --    1.31152   1.32644   1.33837   1.34821   1.36360
 Alpha virt. eigenvalues --    1.36933   1.39320   1.39332   1.40279   1.40993
 Alpha virt. eigenvalues --    1.41727   1.43363   1.45943   1.46934   1.48583
 Alpha virt. eigenvalues --    1.49057   1.49158   1.50337   1.51269   1.51753
 Alpha virt. eigenvalues --    1.52995   1.53339   1.53905   1.55390   1.55692
 Alpha virt. eigenvalues --    1.56389   1.57556   1.59692   1.60130   1.60680
 Alpha virt. eigenvalues --    1.61872   1.63293   1.63894   1.64611   1.65892
 Alpha virt. eigenvalues --    1.66895   1.68490   1.68898   1.69661   1.70771
 Alpha virt. eigenvalues --    1.72377   1.73455   1.73758   1.74585   1.76007
 Alpha virt. eigenvalues --    1.77175   1.79341   1.81004   1.81852   1.83205
 Alpha virt. eigenvalues --    1.84368   1.85479   1.88183   1.88791   1.90687
 Alpha virt. eigenvalues --    1.91731   1.92473   1.92695   1.94823   1.96767
 Alpha virt. eigenvalues --    1.97647   1.98608   2.00632   2.02258   2.04921
 Alpha virt. eigenvalues --    2.05474   2.05903   2.08544   2.14259   2.14969
 Alpha virt. eigenvalues --    2.15681   2.18337   2.19090   2.20488   2.22969
 Alpha virt. eigenvalues --    2.26531   2.27801   2.28635   2.29955   2.33967
 Alpha virt. eigenvalues --    2.34361   2.34712   2.36128   2.38196   2.39330
 Alpha virt. eigenvalues --    2.39880   2.42087   2.43487   2.45777   2.46847
 Alpha virt. eigenvalues --    2.48820   2.52516   2.52793   2.53882   2.55667
 Alpha virt. eigenvalues --    2.58074   2.59308   2.60095   2.61035   2.61823
 Alpha virt. eigenvalues --    2.64134   2.65922   2.66996   2.68007   2.69642
 Alpha virt. eigenvalues --    2.70268   2.72348   2.74495   2.75107   2.76480
 Alpha virt. eigenvalues --    2.77196   2.78445   2.78606   2.80556   2.80993
 Alpha virt. eigenvalues --    2.81361   2.82853   2.83238   2.85670   2.85982
 Alpha virt. eigenvalues --    2.86512   2.89220   2.90027   2.90731   2.91832
 Alpha virt. eigenvalues --    2.94112   2.95371   2.97191   2.97703   2.98315
 Alpha virt. eigenvalues --    2.99213   2.99650   3.01177   3.02447   3.04149
 Alpha virt. eigenvalues --    3.04835   3.06169   3.07542   3.08794   3.09220
 Alpha virt. eigenvalues --    3.10613   3.11488   3.12646   3.13527   3.14284
 Alpha virt. eigenvalues --    3.14970   3.16494   3.18460   3.19516   3.20408
 Alpha virt. eigenvalues --    3.20998   3.22052   3.23901   3.26108   3.27001
 Alpha virt. eigenvalues --    3.28229   3.29620   3.30388   3.32123   3.32743
 Alpha virt. eigenvalues --    3.33902   3.34711   3.35288   3.36589   3.37600
 Alpha virt. eigenvalues --    3.39067   3.39911   3.41808   3.42115   3.42964
 Alpha virt. eigenvalues --    3.44156   3.46086   3.47004   3.48485   3.49629
 Alpha virt. eigenvalues --    3.49828   3.50177   3.52018   3.53656   3.55779
 Alpha virt. eigenvalues --    3.58186   3.61179   3.62843   3.65317   3.65737
 Alpha virt. eigenvalues --    3.67175   3.70154   3.74742   3.75816   3.76789
 Alpha virt. eigenvalues --    3.77982   3.82217   3.84138   3.85925   3.89098
 Alpha virt. eigenvalues --    3.94166   3.95740   3.96287   3.96713   3.98716
 Alpha virt. eigenvalues --    4.00926   4.02235   4.03188   4.05210   4.06139
 Alpha virt. eigenvalues --    4.08871   4.09642   4.11168   4.13657   4.15113
 Alpha virt. eigenvalues --    4.15993   4.18286   4.20400   4.20548   4.21057
 Alpha virt. eigenvalues --    4.22542   4.23143   4.24894   4.27874   4.30323
 Alpha virt. eigenvalues --    4.34520   4.35148   4.40815   4.42974   4.47565
 Alpha virt. eigenvalues --    4.48744   4.50387   4.52985   4.54226   4.55864
 Alpha virt. eigenvalues --    4.56388   4.59359   4.61720   4.63464   4.67604
 Alpha virt. eigenvalues --    4.71173   4.72541   4.74781   4.75944   4.78180
 Alpha virt. eigenvalues --    4.78897   4.80969   4.87224   4.89837   4.92268
 Alpha virt. eigenvalues --    4.95481   4.97730   5.00564   5.01786   5.08574
 Alpha virt. eigenvalues --    5.12120   5.12825   5.13465   5.15456   5.16857
 Alpha virt. eigenvalues --    5.18242   5.23326   5.24973   5.26430   5.29090
 Alpha virt. eigenvalues --    5.30669   5.33096   5.36621   5.40109   5.41036
 Alpha virt. eigenvalues --    5.51298   5.54839   5.59007   5.62855   5.66832
 Alpha virt. eigenvalues --    5.70138   5.76021   5.81917   5.92037   6.01571
 Alpha virt. eigenvalues --    6.13202   6.18349   7.85947  22.26776  22.47160
 Alpha virt. eigenvalues --   22.72806  22.81599  22.89507  22.95166  22.97912
 Alpha virt. eigenvalues --   23.02298  23.36816  23.72586  32.25422  32.37868
 Alpha virt. eigenvalues --   33.21050
          Condensed to atoms (all electrons):
               1          2          3          4          5          6
     1  N    6.130104   0.918086  -0.032140  -0.000714  -0.000230   0.000001
     2  C    0.918086   5.287004   0.150311  -0.037869  -0.009341  -0.001374
     3  C   -0.032140   0.150311   5.068121   0.329976   0.010915   0.023557
     4  C   -0.000714  -0.037869   0.329976   5.300529   0.381259  -0.109746
     5  C   -0.000230  -0.009341   0.010915   0.381259   4.883188   0.392132
     6  Br   0.000001  -0.001374   0.023557  -0.109746   0.392132  34.867642
     7  C    0.000014   0.001105  -0.083295   0.034912   0.398994  -0.105110
     8  C   -0.000297   0.004937  -0.007854  -0.110972   0.022552   0.025214
     9  C   -0.001608  -0.081591   0.452966  -0.016557  -0.046786  -0.004712
    10  N    0.000082   0.015667  -0.070016   0.007179   0.000389  -0.000021
    11  C    0.000122  -0.003018   0.007563   0.000657  -0.000452  -0.000002
    12  C    0.000143   0.000461  -0.001017   0.000226  -0.000078  -0.000000
    13  N    0.000037  -0.001092   0.003123  -0.000077   0.000027   0.000000
    14  C   -0.003620  -0.007026   0.010941   0.005264  -0.000559  -0.000004
    15  H    0.001445   0.004193  -0.032985   0.408253  -0.040895  -0.006179
    16  H   -0.000001   0.000163  -0.001606   0.012200  -0.043101  -0.006598
    17  H    0.000002  -0.000069   0.000881   0.001549  -0.000415  -0.000121
    18  H   -0.000000  -0.000319   0.001959   0.000004  -0.000085   0.000000
    19  H    0.000001   0.000011   0.000037  -0.000001  -0.000000  -0.000000
    20  H   -0.000876  -0.008675   0.002849   0.000608  -0.000058   0.000000
               7          8          9         10         11         12
     1  N    0.000014  -0.000297  -0.001608   0.000082   0.000122   0.000143
     2  C    0.001105   0.004937  -0.081591   0.015667  -0.003018   0.000461
     3  C   -0.083295  -0.007854   0.452966  -0.070016   0.007563  -0.001017
     4  C    0.034912  -0.110972  -0.016557   0.007179   0.000657   0.000226
     5  C    0.398994   0.022552  -0.046786   0.000389  -0.000452  -0.000078
     6  Br  -0.105110   0.025214  -0.004712  -0.000021  -0.000002  -0.000000
     7  C    5.117201   0.380910  -0.011628   0.004594   0.003768   0.000211
     8  C    0.380910   5.103927   0.455005  -0.038042  -0.006757   0.005720
     9  C   -0.011628   0.455005   4.999612   0.298397  -0.086794   0.001937
    10  N    0.004594  -0.038042   0.298397   6.337148   0.389754  -0.098037
    11  C    0.003768  -0.006757  -0.086794   0.389754   5.029926   0.641520
    12  C    0.000211   0.005720   0.001937  -0.098037   0.641520   4.881866
    13  N   -0.000078  -0.002498  -0.001745  -0.125551  -0.064544   0.444077
    14  C    0.000092  -0.003164  -0.081833   0.423980  -0.119632  -0.156428
    15  H    0.011469  -0.003356   0.009362  -0.000077   0.000003   0.000001
    16  H    0.414306  -0.030879   0.004847  -0.000100   0.000028   0.000003
    17  H   -0.005389   0.392346  -0.029746   0.003700  -0.000610   0.000560
    18  H    0.000484  -0.010014   0.002616  -0.032323   0.399722  -0.016746
    19  H    0.000002  -0.000034  -0.000381   0.001837  -0.035359   0.417541
    20  H    0.000038   0.000315  -0.006982  -0.037165   0.005793   0.006046
              13         14         15         16         17         18
     1  N    0.000037  -0.003620   0.001445  -0.000001   0.000002  -0.000000
     2  C   -0.001092  -0.007026   0.004193   0.000163  -0.000069  -0.000319
     3  C    0.003123   0.010941  -0.032985  -0.001606   0.000881   0.001959
     4  C   -0.000077   0.005264   0.408253   0.012200   0.001549   0.000004
     5  C    0.000027  -0.000559  -0.040895  -0.043101  -0.000415  -0.000085
     6  Br   0.000000  -0.000004  -0.006179  -0.006598  -0.000121   0.000000
     7  C   -0.000078   0.000092   0.011469   0.414306  -0.005389   0.000484
     8  C   -0.002498  -0.003164  -0.003356  -0.030879   0.392346  -0.010014
     9  C   -0.001745  -0.081833   0.009362   0.004847  -0.029746   0.002616
    10  N   -0.125551   0.423980  -0.000077  -0.000100   0.003700  -0.032323
    11  C   -0.064544  -0.119632   0.000003   0.000028  -0.000610   0.399722
    12  C    0.444077  -0.156428   0.000001   0.000003   0.000560  -0.016746
    13  N    6.493148   0.600695  -0.000001  -0.000001  -0.000256   0.007071
    14  C    0.600695   4.918010   0.000042   0.000011  -0.000131   0.006191
    15  H   -0.000001   0.000042   0.442640   0.000021   0.000028  -0.000001
    16  H   -0.000001   0.000011   0.000021   0.459179  -0.002324   0.000005
    17  H   -0.000256  -0.000131   0.000028  -0.002324   0.431868  -0.004061
    18  H    0.007071   0.006191  -0.000001   0.000005  -0.004061   0.443435
    19  H   -0.024628   0.007552   0.000000   0.000000   0.000007   0.000790
    20  H   -0.018147   0.417258   0.000011  -0.000000  -0.000007   0.000019
              19         20
     1  N    0.000001  -0.000876
     2  C    0.000011  -0.008675
     3  C    0.000037   0.002849
     4  C   -0.000001   0.000608
     5  C   -0.000000  -0.000058
     6  Br  -0.000000   0.000000
     7  C    0.000002   0.000038
     8  C   -0.000034   0.000315
     9  C   -0.000381  -0.006982
    10  N    0.001837  -0.037165
    11  C   -0.035359   0.005793
    12  C    0.417541   0.006046
    13  N   -0.024628  -0.018147
    14  C    0.007552   0.417258
    15  H    0.000000   0.000011
    16  H    0.000000  -0.000000
    17  H    0.000007  -0.000007
    18  H    0.000790   0.000019
    19  H    0.462831  -0.000004
    20  H   -0.000004   0.424549
 Mulliken charges:
               1
     1  N   -0.010550
     2  C   -0.231564
     3  C    0.165717
     4  C   -0.206679
     5  C    0.052545
     6  Br  -0.074678
     7  C   -0.162598
     8  C   -0.177060
     9  C    0.145621
    10  N   -0.081394
    11  C   -0.161688
    12  C   -0.128006
    13  N   -0.309561
    14  C   -0.017640
    15  H    0.206027
    16  H    0.193845
    17  H    0.212188
    18  H    0.201253
    19  H    0.169796
    20  H    0.214428
 Sum of Mulliken charges =  -0.00000
 Mulliken charges with hydrogens summed into heavy atoms:
               1
     1  N   -0.010550
     2  C   -0.231564
     3  C    0.165717
     4  C   -0.000652
     5  C    0.052545
     6  Br  -0.074678
     7  C    0.031246
     8  C    0.035128
     9  C    0.145621
    10  N   -0.081394
    11  C    0.039565
    12  C    0.041790
    13  N   -0.309561
    14  C    0.196788
 Electronic spatial extent (au):  <R**2>=           4578.9108
 Charge=              0.0000 electrons
 Dipole moment (field-independent basis, Debye):
    X=              4.2749    Y=             -5.0066    Z=             -0.4624  Tot=              6.5996
 Quadrupole moment (field-independent basis, Debye-Ang):
   XX=           -114.3185   YY=            -96.0210   ZZ=            -94.1655
   XY=             11.9055   XZ=              4.5419   YZ=              4.4050
 Traceless Quadrupole moment (field-independent basis, Debye-Ang):
   XX=            -12.8169   YY=              5.4807   ZZ=              7.3361
   XY=             11.9055   XZ=              4.5419   YZ=              4.4050
 Octapole moment (field-independent basis, Debye-Ang**2):
  XXX=            226.4366  YYY=            -72.5542  ZZZ=              1.5675  XYY=             62.5888
  XXY=            -39.4207  XXZ=            -29.3625  XZZ=             39.3605  YZZ=             -1.8987
  YYZ=              3.4634  XYZ=            -15.0593
 Hexadecapole moment (field-independent basis, Debye-Ang**3):
 XXXX=          -4807.4458 YYYY=          -1145.7004 ZZZZ=           -174.0623 XXXY=            158.6498
 XXXZ=            178.7855 YYYX=             98.8619 YYYZ=             31.5117 ZZZX=              2.2493
 ZZZY=              8.3567 XXYY=           -895.1702 XXZZ=           -788.0790 YYZZ=           -194.3705
 XXYZ=             44.8401 YYXZ=              3.0025 ZZXY=             -2.5794
 N-N= 1.041640324801D+03 E-N=-9.509558430755D+03  KE= 3.116803591099D+03
 Calculating spin-rotation constants.
 Leave Link  601 at Tue Sep 17 11:22:30 2024, MaxMem=  1342177280 cpu:               5.2 elap:               5.3
 (Enter /groups/ReismanLab/Software/Gaussian16_RevC/Linux_Binary_AVX2-enabled-CPU/g16/l9999.exe)
 Unable to Open any file for archive entry.
 1\1\GINC-HPC-52-29\SP\RM062X\def2TZVP\C10H6Br1N3\MANTIND\17-Sep-2024\0
 \\#p M062X/def2tzvp geom=check guess=read scf(xqc,tight) integral(grid
 =ultrafine) scrf(SMD, solvent=1,4-Dioxane) nmr=giao\\spe\\0,1\N,0,-1.8
 355646993,3.0957207949,0.6259641946\C,0,-1.2782653457,2.0945098221,0.4
 28714377\C,0,-0.5509112093,0.8850828128,0.1912828118\C,0,0.8523140328,
 0.939262449,0.2127109362\C,0,1.5897223084,-0.2023382229,-0.0687526824\
 Br,0,3.4898516305,-0.1200573845,-0.0504628788\C,0,0.9532806166,-1.4077
 469462,-0.3656621241\C,0,-0.4355327756,-1.4673152781,-0.36619853\C,0,-
 1.2050980286,-0.3329556255,-0.0906674937\N,0,-2.6107646643,-0.42786998
 29,-0.1103613339\C,0,-3.363467806,-1.1574404242,-1.0274289938\C,0,-4.6
 602930937,-1.0435170784,-0.6090993713\N,0,-4.7386390909,-0.2861785382,
 0.5446075338\C,0,-3.5090031848,0.0692760977,0.8183440899\H,0,1.3469103
 772,1.8766410828,0.4333614577\H,0,1.5395051853,-2.293780885,-0.5775699
 986\H,0,-0.9384755678,-2.4074849294,-0.5603666153\H,0,-2.9064177967,-1
 .625629305,-1.8841557088\H,0,-5.5452391639,-1.4542475837,-1.0733031486
 \H,0,-3.1868801066,0.6586788256,1.6632350459\\Version=ES64L-G16RevC.02
 \State=1-A\HF=-3123.0985873\RMSD=5.007e-09\Dipole=1.691471,-1.8102514,
 -0.7769407\Quadrupole=-9.566559,2.4475077,7.1190514,7.3468062,5.979717
 3,2.2861337\PG=C01 [X(C10H6Br1N3)]\\@
 The archive entry for this job was punched.


 NEVER LOSE YOUR IGNORANCE, IT CAN'T BE REPLACED.
   -- ANDY CAPP
 Job cpu time:       0 days  0 hours 25 minutes 19.8 seconds.
 Elapsed time:       0 days  0 hours 25 minutes 27.0 seconds.
 File lengths (MBytes):  RWF=    320 Int=      0 D2E=      0 Chk=     32 Scr=     16
 Normal termination of Gaussian 16 at Tue Sep 17 11:22:30 2024.
