 Entering Gaussian System, Link 0=g16
 Input=smiles_00067_conf_0.gjf
 Output=smiles_00067_conf_0.log
 Initial command:
 /groups/ReismanLab/Software/Gaussian16_RevC/Linux_Binary_AVX2-enabled-CPU/g16/l1.exe "/central/groups/ReismanLab/DM/dft_final/smiles_00067/Gau-4000737.inp" -scrdir="/central/groups/ReismanLab/DM/dft_final/smiles_00067/"
 Entering Link 1 = /groups/ReismanLab/Software/Gaussian16_RevC/Linux_Binary_AVX2-enabled-CPU/g16/l1.exe PID=   4000738.
  
 Copyright (c) 1988-2021, Gaussian, Inc.  All Rights Reserved.
  
 This is part of the Gaussian(R) 16 program.  It is based on
 the Gaussian(R) 09 system (copyright 2009, Gaussian, Inc.),
 the Gaussian(R) 03 system (copyright 2003, Gaussian, Inc.),
 the Gaussian(R) 98 system (copyright 1998, Gaussian, Inc.),
 the Gaussian(R) 94 system (copyright 1995, Gaussian, Inc.),
 the Gaussian 92(TM) system (copyright 1992, Gaussian, Inc.),
 the Gaussian 90(TM) system (copyright 1990, Gaussian, Inc.),
 the Gaussian 88(TM) system (copyright 1988, Gaussian, Inc.),
 the Gaussian 86(TM) system (copyright 1986, Carnegie Mellon
 University), and the Gaussian 82(TM) system (copyright 1983,
 Carnegie Mellon University). Gaussian is a federally registered
 trademark of Gaussian, Inc.
  
 This software contains proprietary and confidential information,
 including trade secrets, belonging to Gaussian, Inc.
  
 This software is provided under written license and may be
 used, copied, transmitted, or stored only in accord with that
 written license.
  
 The following legend is applicable only to US Government
 contracts under FAR:
  
                    RESTRICTED RIGHTS LEGEND
  
 Use, reproduction and disclosure by the US Government is
 subject to restrictions as set forth in subparagraphs (a)
 and (c) of the Commercial Computer Software - Restricted
 Rights clause in FAR 52.227-19.
  
 Gaussian, Inc.
 340 Quinnipiac St., Bldg. 40, Wallingford CT 06492
  
  
 ---------------------------------------------------------------
 Warning -- This program may not be used in any manner that
 competes with the business of Gaussian, Inc. or will provide
 assistance to any competitor of Gaussian, Inc.  The licensee
 of this program is prohibited from giving any competitor of
 Gaussian, Inc. access to this program.  By using this program,
 the user acknowledges that Gaussian, Inc. is engaged in the
 business of creating and licensing software in the field of
 computational chemistry and represents and warrants to the
 licensee that it is not a competitor of Gaussian, Inc. and that
 it will not use this program in any manner prohibited above.
 ---------------------------------------------------------------
  

 Cite this work as:
 Gaussian 16, Revision C.02,
 M. J. Frisch, G. W. Trucks, H. B. Schlegel, G. E. Scuseria, 
 M. A. Robb, J. R. Cheeseman, G. Scalmani, V. Barone, 
 G. A. Petersson, H. Nakatsuji, X. Li, M. Caricato, A. V. Marenich, 
 J. Bloino, B. G. Janesko, R. Gomperts, B. Mennucci, H. P. Hratchian, 
 J. V. Ortiz, A. F. Izmaylov, J. L. Sonnenberg, D. Williams-Young, 
 F. Ding, F. Lipparini, F. Egidi, J. Goings, B. Peng, A. Petrone, 
 T. Henderson, D. Ranasinghe, V. G. Zakrzewski, J. Gao, N. Rega, 
 G. Zheng, W. Liang, M. Hada, M. Ehara, K. Toyota, R. Fukuda, 
 J. Hasegawa, M. Ishida, T. Nakajima, Y. Honda, O. Kitao, H. Nakai, 
 T. Vreven, K. Throssell, J. A. Montgomery, Jr., J. E. Peralta, 
 F. Ogliaro, M. J. Bearpark, J. J. Heyd, E. N. Brothers, K. N. Kudin, 
 V. N. Staroverov, T. A. Keith, R. Kobayashi, J. Normand, 
 K. Raghavachari, A. P. Rendell, J. C. Burant, S. S. Iyengar, 
 J. Tomasi, M. Cossi, J. M. Millam, M. Klene, C. Adamo, R. Cammi, 
 J. W. Ochterski, R. L. Martin, K. Morokuma, O. Farkas, 
 J. B. Foresman, and D. J. Fox, Gaussian, Inc., Wallingford CT, 2019.
 
 ******************************************
 Gaussian 16:  ES64L-G16RevC.02  7-Dec-2021
                17-Sep-2024 
 ******************************************
 %nprocshared=8
 Will use up to    8 processors via shared memory.
 %Mem=10GB
 %Chk=smiles_00067_conf_0.chk
 ----------------------------------------------------------------------
 #p B3LYP/6-31G(d,p) EmpiricalDispersion=GD3BJ opt freq scf(xqc,tight) 
 integral(grid=ultrafine)
 ----------------------------------------------------------------------
 1/18=20,19=15,26=4,38=1/1,3;
 2/9=110,12=2,17=6,18=5,40=1/2;
 3/5=1,6=6,7=101,11=2,25=1,30=1,71=1,74=-5,75=-5,124=41/1,2,3;
 4//1;
 5/5=2,8=3,13=1,32=2,38=5/2,8;
 6/7=2,8=2,9=2,10=2,28=1/1;
 7//1,2,3,16;
 1/18=20,19=15,26=4/3(2);
 2/9=110/2;
 99//99;
 2/9=110/2;
 3/5=1,6=6,7=101,11=2,25=1,30=1,71=1,74=-5,75=-5,124=41/1,2,3;
 4/5=5,16=3,69=1/1;
 5/5=2,8=3,13=1,32=2,38=5/2,8;
 7//1,2,3,16;
 1/18=20,19=15,26=4/3(-5);
 2/9=110/2;
 6/7=2,8=2,9=2,10=2,19=2,28=1/1;
 99/9=1/99;
 Leave Link    1 at Tue Sep 17 09:51:30 2024, MaxMem=  1342177280 cpu:               0.1 elap:              17.6
 (Enter /groups/ReismanLab/Software/Gaussian16_RevC/Linux_Binary_AVX2-enabled-CPU/g16/l101.exe)
 ----------------------------------
 opt-freq conformers_unique/conf_aa
 ----------------------------------
 Symbolic Z-matrix:
 Charge =  0 Multiplicity = 1
 C                    -4.27283   0.1067   -0.00597 
 C                    -2.92537   0.77557   0.00018 
 O                    -2.79458   1.97599   0.00482 
 C                    -1.73111  -0.12188   0.00041 
 C                    -1.79015  -1.51585   0.00154 
 N                    -0.71675  -2.28454   0.0019 
 C                     0.47749  -1.72799   0.00116 
 C                     0.64772  -0.34769   0.00016 
 Br                    2.39435   0.39859  -0.00065 
 C                    -0.4667    0.46954  -0.00017 
 H                    -4.38317  -0.51998   0.87646 
 H                    -4.37621  -0.51844  -0.89031 
 H                    -5.04997   0.86663  -0.00816 
 H                    -2.72926  -2.05002   0.00237 
 H                     1.32419  -2.40048   0.00134 
 H                    -0.38744   1.54719  -0.00084 
 
 ITRead=  0  0  0  0  0  0  0  0  0  0  0  0  0  0  0  0
 MicOpt= -1 -1 -1 -1 -1 -1 -1 -1 -1 -1 -1 -1 -1 -1 -1 -1
 NAtoms=     16 NQM=       16 NQMF=       0 NMMI=      0 NMMIF=      0
                NMic=       0 NMicF=      0.
                    Isotopes and Nuclear Properties:
 (Nuclear quadrupole moments (NQMom) in fm**2, nuclear magnetic moments (NMagM)
  in nuclear magnetons)

  Atom         1           2           3           4           5           6           7           8           9          10
 IAtWgt=          12          12          16          12          12          14          12          12          79          12
 AtmWgt=  12.0000000  12.0000000  15.9949146  12.0000000  12.0000000  14.0030740  12.0000000  12.0000000  78.9183361  12.0000000
 NucSpn=           0           0           0           0           0           2           0           0           3           0
 AtZEff=  -0.0000000  -0.0000000  -0.0000000  -0.0000000  -0.0000000  -0.0000000  -0.0000000  -0.0000000  -0.0000000  -0.0000000
 NQMom=    0.0000000   0.0000000   0.0000000   0.0000000   0.0000000   2.0440000   0.0000000   0.0000000  31.3000000   0.0000000
 NMagM=    0.0000000   0.0000000   0.0000000   0.0000000   0.0000000   0.4037610   0.0000000   0.0000000   2.1063990   0.0000000
 AtZNuc=   6.0000000   6.0000000   8.0000000   6.0000000   6.0000000   7.0000000   6.0000000   6.0000000  35.0000000   6.0000000

  Atom        11          12          13          14          15          16
 IAtWgt=           1           1           1           1           1           1
 AtmWgt=   1.0078250   1.0078250   1.0078250   1.0078250   1.0078250   1.0078250
 NucSpn=           1           1           1           1           1           1
 AtZEff=  -0.0000000  -0.0000000  -0.0000000  -0.0000000  -0.0000000  -0.0000000
 NQMom=    0.0000000   0.0000000   0.0000000   0.0000000   0.0000000   0.0000000
 NMagM=    2.7928460   2.7928460   2.7928460   2.7928460   2.7928460   2.7928460
 AtZNuc=   1.0000000   1.0000000   1.0000000   1.0000000   1.0000000   1.0000000
 Leave Link  101 at Tue Sep 17 09:51:31 2024, MaxMem=  1342177280 cpu:               0.2 elap:               0.3
 (Enter /groups/ReismanLab/Software/Gaussian16_RevC/Linux_Binary_AVX2-enabled-CPU/g16/l103.exe)

 GradGradGradGradGradGradGradGradGradGradGradGradGradGradGradGradGradGrad
 Berny optimization.
 Initialization pass.
                           ----------------------------
                           !    Initial Parameters    !
                           ! (Angstroms and Degrees)  !
 --------------------------                            --------------------------
 ! Name  Definition              Value          Derivative Info.                !
 --------------------------------------------------------------------------------
 ! R1    R(1,2)                  1.5044         estimate D2E/DX2                !
 ! R2    R(1,11)                 1.0879         estimate D2E/DX2                !
 ! R3    R(1,12)                 1.0879         estimate D2E/DX2                !
 ! R4    R(1,13)                 1.0869         estimate D2E/DX2                !
 ! R5    R(2,3)                  1.2075         estimate D2E/DX2                !
 ! R6    R(2,4)                  1.4939         estimate D2E/DX2                !
 ! R7    R(4,5)                  1.3952         estimate D2E/DX2                !
 ! R8    R(4,10)                 1.3959         estimate D2E/DX2                !
 ! R9    R(5,6)                  1.3203         estimate D2E/DX2                !
 ! R10   R(5,14)                 1.0804         estimate D2E/DX2                !
 ! R11   R(6,7)                  1.3176         estimate D2E/DX2                !
 ! R12   R(7,8)                  1.3908         estimate D2E/DX2                !
 ! R13   R(7,15)                 1.0813         estimate D2E/DX2                !
 ! R14   R(8,9)                  1.8994         estimate D2E/DX2                !
 ! R15   R(8,10)                 1.3819         estimate D2E/DX2                !
 ! R16   R(10,16)                1.0806         estimate D2E/DX2                !
 ! A1    A(2,1,11)             110.0987         estimate D2E/DX2                !
 ! A2    A(2,1,12)             110.1164         estimate D2E/DX2                !
 ! A3    A(2,1,13)             109.2419         estimate D2E/DX2                !
 ! A4    A(11,1,12)            108.5842         estimate D2E/DX2                !
 ! A5    A(11,1,13)            109.3811         estimate D2E/DX2                !
 ! A6    A(12,1,13)            109.4011         estimate D2E/DX2                !
 ! A7    A(1,2,3)              122.6177         estimate D2E/DX2                !
 ! A8    A(1,2,4)              116.6763         estimate D2E/DX2                !
 ! A9    A(3,2,4)              120.7059         estimate D2E/DX2                !
 ! A10   A(2,4,5)              124.499          estimate D2E/DX2                !
 ! A11   A(2,4,10)             118.0086         estimate D2E/DX2                !
 ! A12   A(5,4,10)             117.4924         estimate D2E/DX2                !
 ! A13   A(4,5,6)              123.1825         estimate D2E/DX2                !
 ! A14   A(4,5,14)             122.0565         estimate D2E/DX2                !
 ! A15   A(6,5,14)             114.761          estimate D2E/DX2                !
 ! A16   A(5,6,7)              119.4057         estimate D2E/DX2                !
 ! A17   A(6,7,8)              122.0172         estimate D2E/DX2                !
 ! A18   A(6,7,15)             116.5549         estimate D2E/DX2                !
 ! A19   A(8,7,15)             121.4279         estimate D2E/DX2                !
 ! A20   A(7,8,9)              120.166          estimate D2E/DX2                !
 ! A21   A(7,8,10)             119.2233         estimate D2E/DX2                !
 ! A22   A(9,8,10)             120.6107         estimate D2E/DX2                !
 ! A23   A(4,10,8)             118.6788         estimate D2E/DX2                !
 ! A24   A(4,10,16)            119.2736         estimate D2E/DX2                !
 ! A25   A(8,10,16)            122.0476         estimate D2E/DX2                !
 ! D1    D(11,1,2,3)          -119.9813         estimate D2E/DX2                !
 ! D2    D(11,1,2,4)            60.0156         estimate D2E/DX2                !
 ! D3    D(12,1,2,3)           120.3199         estimate D2E/DX2                !
 ! D4    D(12,1,2,4)           -59.6832         estimate D2E/DX2                !
 ! D5    D(13,1,2,3)             0.1515         estimate D2E/DX2                !
 ! D6    D(13,1,2,4)          -179.8516         estimate D2E/DX2                !
 ! D7    D(1,2,4,5)             -0.3084         estimate D2E/DX2                !
 ! D8    D(1,2,4,10)           179.7103         estimate D2E/DX2                !
 ! D9    D(3,2,4,5)            179.6885         estimate D2E/DX2                !
 ! D10   D(3,2,4,10)            -0.2927         estimate D2E/DX2                !
 ! D11   D(2,4,5,6)           -179.9901         estimate D2E/DX2                !
 ! D12   D(2,4,5,14)            -0.0015         estimate D2E/DX2                !
 ! D13   D(10,4,5,6)            -0.0087         estimate D2E/DX2                !
 ! D14   D(10,4,5,14)          179.9798         estimate D2E/DX2                !
 ! D15   D(2,4,10,8)           179.9939         estimate D2E/DX2                !
 ! D16   D(2,4,10,16)           -0.0045         estimate D2E/DX2                !
 ! D17   D(5,4,10,8)             0.0113         estimate D2E/DX2                !
 ! D18   D(5,4,10,16)         -179.9871         estimate D2E/DX2                !
 ! D19   D(4,5,6,7)             -0.001          estimate D2E/DX2                !
 ! D20   D(14,5,6,7)          -179.9903         estimate D2E/DX2                !
 ! D21   D(5,6,7,8)              0.0081         estimate D2E/DX2                !
 ! D22   D(5,6,7,15)          -179.9909         estimate D2E/DX2                !
 ! D23   D(6,7,8,9)            179.9918         estimate D2E/DX2                !
 ! D24   D(6,7,8,10)            -0.005          estimate D2E/DX2                !
 ! D25   D(15,7,8,9)            -0.0093         estimate D2E/DX2                !
 ! D26   D(15,7,8,10)          179.9938         estimate D2E/DX2                !
 ! D27   D(7,8,10,4)            -0.0049         estimate D2E/DX2                !
 ! D28   D(7,8,10,16)          179.9934         estimate D2E/DX2                !
 ! D29   D(9,8,10,4)           179.9982         estimate D2E/DX2                !
 ! D30   D(9,8,10,16)           -0.0034         estimate D2E/DX2                !
 --------------------------------------------------------------------------------
 Trust Radius=3.00D-01 FncErr=1.00D-07 GrdErr=1.00D-06 EigMax=2.50D+02 EigMin=1.00D-04
 Number of steps in this run=     81 maximum allowed number of steps=    100.
 GradGradGradGradGradGradGradGradGradGradGradGradGradGradGradGradGradGrad

 Leave Link  103 at Tue Sep 17 09:51:31 2024, MaxMem=  1342177280 cpu:               0.1 elap:               0.0
 (Enter /groups/ReismanLab/Software/Gaussian16_RevC/Linux_Binary_AVX2-enabled-CPU/g16/l202.exe)
                          Input orientation:                          
 ---------------------------------------------------------------------
 Center     Atomic      Atomic             Coordinates (Angstroms)
 Number     Number       Type             X           Y           Z
 ---------------------------------------------------------------------
      1          6           0       -4.272834    0.106696   -0.005973
      2          6           0       -2.925367    0.775570    0.000184
      3          8           0       -2.794583    1.975992    0.004823
      4          6           0       -1.731114   -0.121882    0.000409
      5          6           0       -1.790148   -1.515847    0.001538
      6          7           0       -0.716746   -2.284540    0.001902
      7          6           0        0.477492   -1.727994    0.001157
      8          6           0        0.647715   -0.347694    0.000157
      9         35           0        2.394350    0.398590   -0.000652
     10          6           0       -0.466697    0.469538   -0.000172
     11          1           0       -4.383172   -0.519983    0.876461
     12          1           0       -4.376205   -0.518445   -0.890309
     13          1           0       -5.049971    0.866632   -0.008161
     14          1           0       -2.729256   -2.050017    0.002368
     15          1           0        1.324192   -2.400484    0.001343
     16          1           0       -0.387443    1.547187   -0.000835
 ---------------------------------------------------------------------
                    Distance matrix (angstroms):
                    1          2          3          4          5
     1  C    0.000000
     2  C    1.504360   0.000000
     3  O    2.383194   1.207535   0.000000
     4  C    2.551986   1.493874   2.352033   0.000000
     5  C    2.965878   2.557208   3.633434   1.395215   0.000000
     6  N    4.285304   3.773894   4.740205   2.388730   1.320258
     7  C    5.092322   4.224604   4.942267   2.730849   2.277542
     8  C    4.941489   3.745482   4.153187   2.389523   2.703287
     9  Br   6.673573   5.333057   5.423399   4.158166   4.601640
    10  C    3.823398   2.477643   2.772812   1.395897   2.386059
    11  H    1.087929   2.138110   3.084357   2.821234   2.912217
    12  H    1.087904   2.138313   3.086260   2.819069   2.911682
    13  H    1.086944   2.126571   2.513488   3.462953   4.037665
    14  H    2.652190   2.832385   4.026540   2.171174   1.080399
    15  H    6.132920   5.305287   6.009814   3.811420   3.237545
    16  H    4.143827   2.652631   2.445042   2.142719   3.368941
                    6          7          8          9         10
     6  N    0.000000
     7  C    1.317554   0.000000
     8  C    2.369204   1.390757   0.000000
     9  Br   4.108297   2.862989   1.899387   0.000000
    10  C    2.765406   2.391786   1.381949   2.861926   0.000000
    11  H    4.161874   5.084437   5.109542   6.895499   4.133572
    12  H    4.160141   5.080955   5.105082   6.890055   4.129493
    13  H    5.357874   6.106145   5.825657   7.459023   4.600451
    14  H    2.026129   3.222877   3.781778   5.678646   3.386346
    15  H    2.044229   1.081270   2.161381   2.996674   3.382944
    16  H    3.845852   3.387466   2.159196   3.009592   1.080559
                   11         12         13         14         15
    11  H    0.000000
    12  H    1.766784   0.000000
    13  H    1.774789   1.774988   0.000000
    14  H    2.416708   2.419716   3.727287   0.000000
    15  H    6.072571   6.068908   7.162687   4.068571   0.000000
    16  H    4.583523   4.579107   4.711939   4.292315   4.302767
                   16
    16  H    0.000000
 Stoichiometry    C7H6BrNO
 Framework group  C1[X(C7H6BrNO)]
 Deg. of freedom    42
 Full point group                 C1      NOp   1
 Largest Abelian subgroup         C1      NOp   1
 Largest concise Abelian subgroup C1      NOp   1
                         Standard orientation:                         
 ---------------------------------------------------------------------
 Center     Atomic      Atomic             Coordinates (Angstroms)
 Number     Number       Type             X           Y           Z
 ---------------------------------------------------------------------
      1          6           0       -4.074741   -0.098655    0.005909
      2          6           0       -2.734497   -0.781888   -0.000248
      3          8           0       -2.616547   -1.983639   -0.004887
      4          6           0       -1.530724    0.102753   -0.000473
      5          6           0       -1.574861    1.497269   -0.001602
      6          7           0       -0.493307    2.254449   -0.001965
      7          6           0        0.694917    1.685176   -0.001220
      8          6           0        0.850382    0.303136   -0.000221
      9         35           0        2.588944   -0.461767    0.000588
     10          6           0       -0.272697   -0.502143    0.000108
     11          1           0       -4.178377    0.529167   -0.876525
     12          1           0       -4.171427    0.527554    0.890245
     13          1           0       -4.859952   -0.850245    0.008097
     14          1           0       -2.508208    2.041442   -0.002432
     15          1           0        1.548753    2.348581   -0.001407
     16          1           0       -0.204962   -1.580577    0.000771
 ---------------------------------------------------------------------
 Rotational constants (GHZ):           2.1195492           0.4738841           0.3882305
 Leave Link  202 at Tue Sep 17 09:51:31 2024, MaxMem=  1342177280 cpu:               0.0 elap:               0.0
 (Enter /groups/ReismanLab/Software/Gaussian16_RevC/Linux_Binary_AVX2-enabled-CPU/g16/l301.exe)
 Standard basis: 6-31G(d,p) (6D, 7F)
 Ernie: Thresh=  0.10000D-02 Tol=  0.10000D-05 Strict=F.
 There are   195 symmetry adapted cartesian basis functions of A   symmetry.
 There are   195 symmetry adapted basis functions of A   symmetry.
   195 basis functions,   377 primitive gaussians,   195 cartesian basis functions
    49 alpha electrons       49 beta electrons
       nuclear repulsion energy       702.2736134910 Hartrees.
 IExCor=  402 DFT=T Ex+Corr=B3LYP ExCW=0 ScaHFX=  0.200000
 ScaDFX=  0.800000  0.720000  1.000000  0.810000 ScalE2=  1.000000  1.000000
 IRadAn=      5 IRanWt=     -1 IRanGd=            0 ICorTp=0 IEmpDi=141
 NAtoms=   16 NActive=   16 NUniq=   16 SFac= 1.00D+00 NAtFMM=   60 NAOKFM=F Big=F
 Integral buffers will be    131072 words long.
 Raffenetti 2 integral format.
 Two-electron integral symmetry is turned on.
 R6Disp:  Grimme-D3(BJ) Dispersion energy=       -0.0327358902 Hartrees.
 Nuclear repulsion after empirical dispersion term =      702.2408776009 Hartrees.
 Leave Link  301 at Tue Sep 17 09:51:31 2024, MaxMem=  1342177280 cpu:               0.1 elap:               0.0
 (Enter /groups/ReismanLab/Software/Gaussian16_RevC/Linux_Binary_AVX2-enabled-CPU/g16/l302.exe)
 NPDir=0 NMtPBC=     1 NCelOv=     1 NCel=       1 NClECP=     1 NCelD=      1
         NCelK=      1 NCelE2=     1 NClLst=     1 CellRange=     0.0.
 One-electron integrals computed using PRISM.
 One-electron integral symmetry used in STVInt
 NBasis=   195 RedAO= T EigKep=  6.66D-04  NBF=   195
 NBsUse=   195 1.00D-06 EigRej= -1.00D+00 NBFU=   195
 Precomputing XC quadrature grid using
 IXCGrd= 4 IRadAn=           5 IRanWt=          -1 IRanGd=           0 AccXCQ= 0.00D+00.
 Generated NRdTot=       0 NPtTot=           0 NUsed=           0 NTot=          32
 NSgBfM=   195   195   195   195   195 MxSgAt=    16 MxSgA2=    16.
 Leave Link  302 at Tue Sep 17 09:51:31 2024, MaxMem=  1342177280 cpu:               0.9 elap:               0.1
 (Enter /groups/ReismanLab/Software/Gaussian16_RevC/Linux_Binary_AVX2-enabled-CPU/g16/l303.exe)
 DipDrv:  MaxL=1.
 Leave Link  303 at Tue Sep 17 09:51:31 2024, MaxMem=  1342177280 cpu:               0.1 elap:               0.0
 (Enter /groups/ReismanLab/Software/Gaussian16_RevC/Linux_Binary_AVX2-enabled-CPU/g16/l401.exe)
 ExpMin= 1.43D-01 ExpMax= 5.74D+05 ExpMxC= 5.74D+03 IAcc=3 IRadAn=         5 AccDes= 0.00D+00
 Harris functional with IExCor=  402 and IRadAn=       5 diagonalized for initial guess.
 HarFok:  IExCor=  402 AccDes= 0.00D+00 IRadAn=         5 IDoV= 1 UseB2=F ITyADJ=14
 ICtDFT=  3500011 ScaDFX=  1.000000  1.000000  1.000000  1.000000
 FoFCou: FMM=F IPFlag=           0 FMFlag=      100000 FMFlg1=           0
         NFxFlg=           0 DoJE=T BraDBF=F KetDBF=T FulRan=T
         wScrn=  0.000000 ICntrl=       500 IOpCl=  0 I1Cent=   200000004 NGrid=           0
         NMat0=    1 NMatS0=      1 NMatT0=    0 NMatD0=    1 NMtDS0=    0 NMtDT0=    0
 Petite list used in FoFCou.
 Harris En= -2972.17639116331    
 JPrj=0 DoOrth=F DoCkMO=F.
 Leave Link  401 at Tue Sep 17 09:51:31 2024, MaxMem=  1342177280 cpu:               3.7 elap:               0.5
 (Enter /groups/ReismanLab/Software/Gaussian16_RevC/Linux_Binary_AVX2-enabled-CPU/g16/l502.exe)
 Integral symmetry usage will be decided dynamically.
 Closed shell SCF:
 Using DIIS extrapolation, IDIIS=  1040.
 NGot=  1342177280 LenX=  1342097209 LenY=  1342058743
 Requested convergence on RMS density matrix=1.00D-08 within  32 cycles.
 Requested convergence on MAX density matrix=1.00D-06.
 Requested convergence on             energy=1.00D-06.
 No special actions if energy rises.
 Fock matrices will be formed incrementally for  20 cycles.
 Integral accuracy reduced to 1.0D-05 until final iterations.

 Cycle   1  Pass 0  IDiag  1:
 FoFJK:  IHMeth= 1 ICntrl=       0 DoSepK=F KAlg= 0 I1Cent=           0 FoldK=F
 IRaf= 880000000 NMat=       1 IRICut=       1 DoRegI=T DoRafI=F ISym2E= 0 IDoP0=0 IntGTp=1.
 FoFCou: FMM=F IPFlag=           0 FMFlag=      100000 FMFlg1=           0
         NFxFlg=           0 DoJE=F BraDBF=F KetDBF=F FulRan=T
         wScrn=  0.000000 ICntrl=         0 IOpCl=  0 I1Cent=           0 NGrid=           0
         NMat0=    1 NMatS0=      1 NMatT0=    0 NMatD0=    1 NMtDS0=    0 NMtDT0=    0
 Symmetry not used in FoFCou.
 E= -2971.87718149637    
 DIIS: error= 1.99D-01 at cycle   1 NSaved=   1.
 NSaved= 1 IEnMin= 1 EnMin= -2971.87718149637     IErMin= 1 ErrMin= 1.99D-01
 ErrMax= 1.99D-01  0.00D+00 EMaxC= 1.00D-01 BMatC= 5.62D-01 BMatP= 5.62D-01
 IDIUse=3 WtCom= 0.00D+00 WtEn= 1.00D+00
 Coeff-Com:  0.100D+01
 Coeff-En:   0.100D+01
 Coeff:      0.100D+01
 Gap=     0.234 Goal=   None    Shift=    0.000
 GapD=    0.234 DampG=1.000 DampE=0.250 DampFc=0.2500 IDamp=-1.
 Damping current iteration by 2.50D-01
 RMSDP=6.42D-03 MaxDP=1.89D-01              OVMax= 2.15D-01

 Cycle   2  Pass 0  IDiag  1:
 RMSU=  1.57D-03    CP:  9.93D-01
 E= -2971.94620356733     Delta-E=       -0.069022070958 Rises=F Damp=T
 DIIS: error= 1.47D-01 at cycle   2 NSaved=   2.
 NSaved= 2 IEnMin= 2 EnMin= -2971.94620356733     IErMin= 2 ErrMin= 1.47D-01
 ErrMax= 1.47D-01  0.00D+00 EMaxC= 1.00D-01 BMatC= 2.42D-01 BMatP= 5.62D-01
 IDIUse=3 WtCom= 0.00D+00 WtEn= 1.00D+00
 Coeff-Com: -0.126D+01 0.226D+01
 Coeff-En:   0.000D+00 0.100D+01
 Coeff:      0.000D+00 0.100D+01
 Gap=     0.171 Goal=   None    Shift=    0.000
 RMSDP=2.95D-03 MaxDP=1.10D-01 DE=-6.90D-02 OVMax= 1.19D-01

 Cycle   3  Pass 0  IDiag  1:
 RMSU=  1.37D-03    CP:  9.70D-01  2.52D+00
 E= -2972.03535562386     Delta-E=       -0.089152056532 Rises=F Damp=F
 DIIS: error= 1.36D-02 at cycle   3 NSaved=   3.
 NSaved= 3 IEnMin= 3 EnMin= -2972.03535562386     IErMin= 3 ErrMin= 1.36D-02
 ErrMax= 1.36D-02  0.00D+00 EMaxC= 1.00D-01 BMatC= 4.14D-02 BMatP= 2.42D-01
 IDIUse=3 WtCom= 8.64D-01 WtEn= 1.36D-01
 Coeff-Com:  0.807D+00-0.935D+00 0.113D+01
 Coeff-En:   0.933D-01 0.000D+00 0.907D+00
 Coeff:      0.710D+00-0.808D+00 0.110D+01
 Gap=     0.180 Goal=   None    Shift=    0.000
 RMSDP=1.66D-03 MaxDP=5.03D-02 DE=-8.92D-02 OVMax= 5.27D-02

 Cycle   4  Pass 0  IDiag  1:
 RMSU=  1.24D-03    CP:  9.71D-01  1.84D+00  8.55D-01
 E= -2972.05686407125     Delta-E=       -0.021508447392 Rises=F Damp=F
 DIIS: error= 1.10D-02 at cycle   4 NSaved=   4.
 NSaved= 4 IEnMin= 4 EnMin= -2972.05686407125     IErMin= 4 ErrMin= 1.10D-02
 ErrMax= 1.10D-02  0.00D+00 EMaxC= 1.00D-01 BMatC= 1.70D-02 BMatP= 4.14D-02
 IDIUse=3 WtCom= 8.90D-01 WtEn= 1.10D-01
 Coeff-Com:  0.605D+00-0.785D+00 0.706D+00 0.474D+00
 Coeff-En:   0.000D+00 0.000D+00 0.260D+00 0.740D+00
 Coeff:      0.538D+00-0.699D+00 0.657D+00 0.504D+00
 Gap=     0.195 Goal=   None    Shift=    0.000
 RMSDP=8.65D-04 MaxDP=2.34D-02 DE=-2.15D-02 OVMax= 3.65D-02

 Cycle   5  Pass 0  IDiag  1:
 RMSU=  1.94D-04    CP:  9.71D-01  1.85D+00  1.08D+00  3.69D-01
 E= -2972.07327015044     Delta-E=       -0.016406079188 Rises=F Damp=F
 DIIS: error= 2.26D-03 at cycle   5 NSaved=   5.
 NSaved= 5 IEnMin= 5 EnMin= -2972.07327015044     IErMin= 5 ErrMin= 2.26D-03
 ErrMax= 2.26D-03  0.00D+00 EMaxC= 1.00D-01 BMatC= 6.32D-04 BMatP= 1.70D-02
 IDIUse=3 WtCom= 9.77D-01 WtEn= 2.26D-02
 Coeff-Com:  0.184D+00-0.239D+00 0.248D+00 0.243D+00 0.564D+00
 Coeff-En:   0.000D+00 0.000D+00 0.000D+00 0.000D+00 0.100D+01
 Coeff:      0.180D+00-0.233D+00 0.242D+00 0.238D+00 0.573D+00
 Gap=     0.186 Goal=   None    Shift=    0.000
 RMSDP=1.76D-04 MaxDP=5.79D-03 DE=-1.64D-02 OVMax= 7.63D-03

 Cycle   6  Pass 0  IDiag  1:
 RMSU=  6.25D-05    CP:  9.71D-01  1.88D+00  1.05D+00  4.64D-01  5.30D-01
 E= -2972.07379406390     Delta-E=       -0.000523913457 Rises=F Damp=F
 DIIS: error= 3.56D-04 at cycle   6 NSaved=   6.
 NSaved= 6 IEnMin= 6 EnMin= -2972.07379406390     IErMin= 6 ErrMin= 3.56D-04
 ErrMax= 3.56D-04  0.00D+00 EMaxC= 1.00D-01 BMatC= 4.50D-05 BMatP= 6.32D-04
 IDIUse=3 WtCom= 9.96D-01 WtEn= 3.56D-03
 Coeff-Com:  0.457D-01-0.595D-01 0.691D-01 0.842D-01 0.323D+00 0.538D+00
 Coeff-En:   0.000D+00 0.000D+00 0.000D+00 0.000D+00 0.657D-02 0.993D+00
 Coeff:      0.455D-01-0.593D-01 0.689D-01 0.839D-01 0.322D+00 0.539D+00
 Gap=     0.185 Goal=   None    Shift=    0.000
 RMSDP=3.84D-05 MaxDP=1.48D-03 DE=-5.24D-04 OVMax= 2.03D-03

 Cycle   7  Pass 0  IDiag  1:
 RMSU=  1.67D-05    CP:  9.71D-01  1.88D+00  1.05D+00  4.55D-01  5.99D-01
                    CP:  5.49D-01
 E= -2972.07383455193     Delta-E=       -0.000040488037 Rises=F Damp=F
 DIIS: error= 9.18D-05 at cycle   7 NSaved=   7.
 NSaved= 7 IEnMin= 7 EnMin= -2972.07383455193     IErMin= 7 ErrMin= 9.18D-05
 ErrMax= 9.18D-05  0.00D+00 EMaxC= 1.00D-01 BMatC= 1.89D-06 BMatP= 4.50D-05
 IDIUse=1 WtCom= 1.00D+00 WtEn= 0.00D+00
 Coeff-Com:  0.116D-01-0.153D-01 0.196D-01 0.269D-01 0.124D+00 0.265D+00
 Coeff-Com:  0.568D+00
 Coeff:      0.116D-01-0.153D-01 0.196D-01 0.269D-01 0.124D+00 0.265D+00
 Coeff:      0.568D+00
 Gap=     0.185 Goal=   None    Shift=    0.000
 RMSDP=1.06D-05 MaxDP=2.87D-04 DE=-4.05D-05 OVMax= 5.98D-04

 Cycle   8  Pass 0  IDiag  1:
 RMSU=  7.71D-06    CP:  9.71D-01  1.88D+00  1.05D+00  4.54D-01  6.04D-01
                    CP:  5.84D-01  5.95D-01
 E= -2972.07383586102     Delta-E=       -0.000001309088 Rises=F Damp=F
 DIIS: error= 4.21D-05 at cycle   8 NSaved=   8.
 NSaved= 8 IEnMin= 8 EnMin= -2972.07383586102     IErMin= 8 ErrMin= 4.21D-05
 ErrMax= 4.21D-05  0.00D+00 EMaxC= 1.00D-01 BMatC= 4.21D-07 BMatP= 1.89D-06
 IDIUse=1 WtCom= 1.00D+00 WtEn= 0.00D+00
 Coeff-Com:  0.258D-02-0.342D-02 0.499D-02 0.745D-02 0.401D-01 0.103D+00
 Coeff-Com:  0.362D+00 0.483D+00
 Coeff:      0.258D-02-0.342D-02 0.499D-02 0.745D-02 0.401D-01 0.103D+00
 Coeff:      0.362D+00 0.483D+00
 Gap=     0.185 Goal=   None    Shift=    0.000
 RMSDP=4.28D-06 MaxDP=1.57D-04 DE=-1.31D-06 OVMax= 2.54D-04

 Initial convergence to 1.0D-05 achieved.  Increase integral accuracy.
 Cycle   9  Pass 1  IDiag  1:
 E= -2972.07383556185     Delta-E=        0.000000299172 Rises=F Damp=F
 DIIS: error= 4.95D-05 at cycle   1 NSaved=   1.
 NSaved= 1 IEnMin= 1 EnMin= -2972.07383556185     IErMin= 1 ErrMin= 4.95D-05
 ErrMax= 4.95D-05  0.00D+00 EMaxC= 1.00D-01 BMatC= 1.71D-07 BMatP= 1.71D-07
 IDIUse=1 WtCom= 1.00D+00 WtEn= 0.00D+00
 Coeff-Com:  0.100D+01
 Coeff:      0.100D+01
 Gap=     0.185 Goal=   None    Shift=    0.000
 RMSDP=4.28D-06 MaxDP=1.57D-04 DE= 2.99D-07 OVMax= 1.42D-04

 Cycle  10  Pass 1  IDiag  1:
 RMSU=  1.32D-05    CP:  1.00D+00
 E= -2972.07383561606     Delta-E=       -0.000000054210 Rises=F Damp=F
 DIIS: error= 1.50D-05 at cycle   2 NSaved=   2.
 NSaved= 2 IEnMin= 2 EnMin= -2972.07383561606     IErMin= 2 ErrMin= 1.50D-05
 ErrMax= 1.50D-05  0.00D+00 EMaxC= 1.00D-01 BMatC= 5.74D-08 BMatP= 1.71D-07
 IDIUse=1 WtCom= 1.00D+00 WtEn= 0.00D+00
 Coeff-Com:  0.303D+00 0.697D+00
 Coeff:      0.303D+00 0.697D+00
 Gap=     0.185 Goal=   None    Shift=    0.000
 RMSDP=2.62D-06 MaxDP=1.08D-04 DE=-5.42D-08 OVMax= 1.82D-04

 Cycle  11  Pass 1  IDiag  1:
 RMSU=  2.61D-06    CP:  1.00D+00  9.88D-01
 E= -2972.07383560479     Delta-E=        0.000000011265 Rises=F Damp=F
 DIIS: error= 1.83D-05 at cycle   3 NSaved=   3.
 NSaved= 3 IEnMin= 2 EnMin= -2972.07383561606     IErMin= 2 ErrMin= 1.50D-05
 ErrMax= 1.83D-05  0.00D+00 EMaxC= 1.00D-01 BMatC= 6.68D-08 BMatP= 5.74D-08
 IDIUse=1 WtCom= 1.00D+00 WtEn= 0.00D+00
 Coeff-Com:  0.110D-01 0.516D+00 0.473D+00
 Coeff:      0.110D-01 0.516D+00 0.473D+00
 Gap=     0.185 Goal=   None    Shift=    0.000
 RMSDP=1.46D-06 MaxDP=5.46D-05 DE= 1.13D-08 OVMax= 9.21D-05

 Cycle  12  Pass 1  IDiag  1:
 RMSU=  3.71D-07    CP:  1.00D+00  1.01D+00  4.71D-01
 E= -2972.07383567628     Delta-E=       -0.000000071490 Rises=F Damp=F
 DIIS: error= 2.77D-06 at cycle   4 NSaved=   4.
 NSaved= 4 IEnMin= 4 EnMin= -2972.07383567628     IErMin= 4 ErrMin= 2.77D-06
 ErrMax= 2.77D-06  0.00D+00 EMaxC= 1.00D-01 BMatC= 1.73D-09 BMatP= 5.74D-08
 IDIUse=1 WtCom= 1.00D+00 WtEn= 0.00D+00
 Coeff-Com: -0.171D-02 0.295D+00 0.286D+00 0.421D+00
 Coeff:     -0.171D-02 0.295D+00 0.286D+00 0.421D+00
 Gap=     0.185 Goal=   None    Shift=    0.000
 RMSDP=2.07D-07 MaxDP=6.55D-06 DE=-7.15D-08 OVMax= 1.04D-05

 Cycle  13  Pass 1  IDiag  1:
 RMSU=  9.16D-08    CP:  1.00D+00  1.01D+00  4.93D-01  5.26D-01
 E= -2972.07383567782     Delta-E=       -0.000000001534 Rises=F Damp=F
 DIIS: error= 6.71D-07 at cycle   5 NSaved=   5.
 NSaved= 5 IEnMin= 5 EnMin= -2972.07383567782     IErMin= 5 ErrMin= 6.71D-07
 ErrMax= 6.71D-07  0.00D+00 EMaxC= 1.00D-01 BMatC= 6.51D-11 BMatP= 1.73D-09
 IDIUse=1 WtCom= 1.00D+00 WtEn= 0.00D+00
 Coeff-Com: -0.151D-02 0.153D+00 0.150D+00 0.252D+00 0.447D+00
 Coeff:     -0.151D-02 0.153D+00 0.150D+00 0.252D+00 0.447D+00
 Gap=     0.185 Goal=   None    Shift=    0.000
 RMSDP=5.41D-08 MaxDP=2.16D-06 DE=-1.53D-09 OVMax= 2.74D-06

 Cycle  14  Pass 1  IDiag  1:
 RMSU=  3.33D-08    CP:  1.00D+00  1.01D+00  4.91D-01  5.09D-01  5.49D-01
 E= -2972.07383567785     Delta-E=       -0.000000000029 Rises=F Damp=F
 DIIS: error= 2.09D-07 at cycle   6 NSaved=   6.
 NSaved= 6 IEnMin= 6 EnMin= -2972.07383567785     IErMin= 6 ErrMin= 2.09D-07
 ErrMax= 2.09D-07  0.00D+00 EMaxC= 1.00D-01 BMatC= 4.76D-12 BMatP= 6.51D-11
 IDIUse=1 WtCom= 1.00D+00 WtEn= 0.00D+00
 Coeff-Com: -0.783D-03 0.686D-01 0.674D-01 0.119D+00 0.267D+00 0.479D+00
 Coeff:     -0.783D-03 0.686D-01 0.674D-01 0.119D+00 0.267D+00 0.479D+00
 Gap=     0.185 Goal=   None    Shift=    0.000
 RMSDP=1.40D-08 MaxDP=5.39D-07 DE=-2.86D-11 OVMax= 7.07D-07

 Cycle  15  Pass 1  IDiag  1:
 RMSU=  1.05D-08    CP:  1.00D+00  1.01D+00  4.91D-01  5.13D-01  6.01D-01
                    CP:  7.65D-01
 E= -2972.07383567787     Delta-E=       -0.000000000028 Rises=F Damp=F
 DIIS: error= 5.46D-08 at cycle   7 NSaved=   7.
 NSaved= 7 IEnMin= 7 EnMin= -2972.07383567787     IErMin= 7 ErrMin= 5.46D-08
 ErrMax= 5.46D-08  0.00D+00 EMaxC= 1.00D-01 BMatC= 3.16D-13 BMatP= 4.76D-12
 IDIUse=1 WtCom= 1.00D+00 WtEn= 0.00D+00
 Coeff-Com: -0.149D-03 0.106D-01 0.105D-01 0.210D-01 0.621D-01 0.237D+00
 Coeff-Com:  0.659D+00
 Coeff:     -0.149D-03 0.106D-01 0.105D-01 0.210D-01 0.621D-01 0.237D+00
 Coeff:      0.659D+00
 Gap=     0.185 Goal=   None    Shift=    0.000
 RMSDP=3.78D-09 MaxDP=1.27D-07 DE=-2.77D-11 OVMax= 1.62D-07

 SCF Done:  E(RB3LYP) =  -2972.07383568     A.U. after   15 cycles
            NFock= 15  Conv=0.38D-08     -V/T= 2.0065
 KE= 2.952901148381D+03 PE=-8.468658561609D+03 EE= 1.841442699949D+03
 Leave Link  502 at Tue Sep 17 09:51:40 2024, MaxMem=  1342177280 cpu:              65.3 elap:               8.9
 (Enter /groups/ReismanLab/Software/Gaussian16_RevC/Linux_Binary_AVX2-enabled-CPU/g16/l508.exe)
 QCSCF skips out because SCF is already converged.
 Leave Link  508 at Tue Sep 17 09:51:40 2024, MaxMem=  1342177280 cpu:               0.0 elap:               0.0
 (Enter /groups/ReismanLab/Software/Gaussian16_RevC/Linux_Binary_AVX2-enabled-CPU/g16/l601.exe)
 Copying SCF densities to generalized density rwf, IOpCl= 0 IROHF=0.

 **********************************************************************

            Population analysis using the SCF Density.

 **********************************************************************

 Orbital symmetries:
       Occupied  (A) (A) (A) (A) (A) (A) (A) (A) (A) (A) (A) (A)
                 (A) (A) (A) (A) (A) (A) (A) (A) (A) (A) (A) (A)
                 (A) (A) (A) (A) (A) (A) (A) (A) (A) (A) (A) (A)
                 (A) (A) (A) (A) (A) (A) (A) (A) (A) (A) (A) (A)
                 (A)
       Virtual   (A) (A) (A) (A) (A) (A) (A) (A) (A) (A) (A) (A)
                 (A) (A) (A) (A) (A) (A) (A) (A) (A) (A) (A) (A)
                 (A) (A) (A) (A) (A) (A) (A) (A) (A) (A) (A) (A)
                 (A) (A) (A) (A) (A) (A) (A) (A) (A) (A) (A) (A)
                 (A) (A) (A) (A) (A) (A) (A) (A) (A) (A) (A) (A)
                 (A) (A) (A) (A) (A) (A) (A) (A) (A) (A) (A) (A)
                 (A) (A) (A) (A) (A) (A) (A) (A) (A) (A) (A) (A)
                 (A) (A) (A) (A) (A) (A) (A) (A) (A) (A) (A) (A)
                 (A) (A) (A) (A) (A) (A) (A) (A) (A) (A) (A) (A)
                 (A) (A) (A) (A) (A) (A) (A) (A) (A) (A) (A) (A)
                 (A) (A) (A) (A) (A) (A) (A) (A) (A) (A) (A) (A)
                 (A) (A) (A) (A) (A) (A) (A) (A) (A) (A) (A) (A)
                 (A) (A)
 The electronic state is 1-A.
 Alpha  occ. eigenvalues -- -482.92477 -61.88646 -56.40790 -56.40366 -56.40358
 Alpha  occ. eigenvalues --  -19.15358 -14.35119 -10.29212 -10.26469 -10.24857
 Alpha  occ. eigenvalues --  -10.24596 -10.22930 -10.22284 -10.20010  -8.59790
 Alpha  occ. eigenvalues --   -6.55204  -6.53906  -6.53871  -2.66774  -2.66404
 Alpha  occ. eigenvalues --   -2.66378  -2.65342  -2.65342  -1.06048  -0.97567
 Alpha  occ. eigenvalues --   -0.85231  -0.82091  -0.76629  -0.74785  -0.66791
 Alpha  occ. eigenvalues --   -0.64482  -0.56533  -0.54103  -0.52015  -0.48142
 Alpha  occ. eigenvalues --   -0.46503  -0.44690  -0.43858  -0.42817  -0.42481
 Alpha  occ. eigenvalues --   -0.40714  -0.38838  -0.37943  -0.34309  -0.30260
 Alpha  occ. eigenvalues --   -0.29975  -0.28008  -0.26487  -0.26070
 Alpha virt. eigenvalues --   -0.07552  -0.04110  -0.00211   0.01916   0.09156
 Alpha virt. eigenvalues --    0.13649   0.13764   0.14049   0.15072   0.16522
 Alpha virt. eigenvalues --    0.16946   0.20846   0.21391   0.24007   0.26298
 Alpha virt. eigenvalues --    0.29361   0.30474   0.33542   0.36347   0.39806
 Alpha virt. eigenvalues --    0.41450   0.45018   0.45125   0.45635   0.47029
 Alpha virt. eigenvalues --    0.47075   0.48282   0.50388   0.52774   0.54162
 Alpha virt. eigenvalues --    0.54461   0.56223   0.57051   0.58077   0.60410
 Alpha virt. eigenvalues --    0.60940   0.63419   0.64650   0.65885   0.69832
 Alpha virt. eigenvalues --    0.72518   0.72918   0.73130   0.76160   0.76208
 Alpha virt. eigenvalues --    0.78476   0.80810   0.82053   0.82174   0.85455
 Alpha virt. eigenvalues --    0.86448   0.87589   0.88339   0.89075   0.93969
 Alpha virt. eigenvalues --    0.94670   0.97134   1.00660   1.02357   1.06141
 Alpha virt. eigenvalues --    1.09485   1.16117   1.18747   1.20624   1.21590
 Alpha virt. eigenvalues --    1.25381   1.26053   1.31910   1.35769   1.37805
 Alpha virt. eigenvalues --    1.38383   1.41331   1.42273   1.42672   1.47920
 Alpha virt. eigenvalues --    1.52404   1.56343   1.56815   1.67086   1.69450
 Alpha virt. eigenvalues --    1.70037   1.74034   1.77701   1.78432   1.79618
 Alpha virt. eigenvalues --    1.83350   1.87068   1.88795   1.91343   1.97715
 Alpha virt. eigenvalues --    1.99794   2.01431   2.02617   2.03380   2.05189
 Alpha virt. eigenvalues --    2.07690   2.09667   2.12604   2.15225   2.16860
 Alpha virt. eigenvalues --    2.17451   2.27732   2.29276   2.30508   2.32938
 Alpha virt. eigenvalues --    2.35274   2.43267   2.43994   2.48160   2.49911
 Alpha virt. eigenvalues --    2.51631   2.54616   2.55808   2.61317   2.62257
 Alpha virt. eigenvalues --    2.65356   2.65881   2.67332   2.69672   2.70570
 Alpha virt. eigenvalues --    2.78174   2.85227   2.88137   2.93206   2.97785
 Alpha virt. eigenvalues --    3.02036   3.06377   3.18975   3.20176   3.28509
 Alpha virt. eigenvalues --    3.38656   3.40150   3.41084   3.44851   3.69748
 Alpha virt. eigenvalues --    3.96795   4.04671   4.13234   4.20986   4.27822
 Alpha virt. eigenvalues --    4.37912   4.41094   4.54539   4.72375   8.59327
 Alpha virt. eigenvalues --   72.79771
          Condensed to atoms (all electrons):
               1          2          3          4          5          6
     1  C    5.191637   0.332660  -0.088198  -0.128570  -0.009454  -0.000233
     2  C    0.332660   4.560897   0.596830   0.232872  -0.026474   0.005102
     3  O   -0.088198   0.596830   7.991630  -0.094380   0.003624  -0.000039
     4  C   -0.128570   0.232872  -0.094380   5.227600   0.451583  -0.010918
     5  C   -0.009454  -0.026474   0.003624   0.451583   4.843735   0.459772
     6  N   -0.000233   0.005102  -0.000039  -0.010918   0.459772   6.685868
     7  C    0.000014   0.000230  -0.000012  -0.034724  -0.081793   0.465018
     8  C   -0.000132   0.008997   0.001277  -0.016341  -0.034677  -0.017513
     9  Br   0.000001  -0.000097   0.000000   0.005797   0.000364   0.004640
    10  C    0.011059  -0.034153   0.001952   0.443138  -0.077222  -0.060068
    11  H    0.362741  -0.019890   0.001418   0.001220   0.000626   0.000081
    12  H    0.362786  -0.020029   0.001441   0.001329   0.000613   0.000079
    13  H    0.359865  -0.019986   0.005305   0.006088   0.000111  -0.000001
    14  H    0.004908  -0.005282   0.000001  -0.063113   0.387466  -0.050416
    15  H   -0.000000   0.000019  -0.000000   0.000510   0.004446  -0.048988
    16  H    0.000874  -0.009966   0.017526  -0.047345   0.005308  -0.000503
               7          8          9         10         11         12
     1  C    0.000014  -0.000132   0.000001   0.011059   0.362741   0.362786
     2  C    0.000230   0.008997  -0.000097  -0.034153  -0.019890  -0.020029
     3  O   -0.000012   0.001277   0.000000   0.001952   0.001418   0.001441
     4  C   -0.034724  -0.016341   0.005797   0.443138   0.001220   0.001329
     5  C   -0.081793  -0.034677   0.000364  -0.077222   0.000626   0.000613
     6  N    0.465018  -0.017513   0.004640  -0.060068   0.000081   0.000079
     7  C    4.773694   0.458327  -0.050465  -0.041237  -0.000004  -0.000004
     8  C    0.458327   4.979190   0.251610   0.451086  -0.000004  -0.000004
     9  Br  -0.050465   0.251610  34.954730  -0.062354   0.000000   0.000000
    10  C   -0.041237   0.451086  -0.062354   5.044685  -0.000385  -0.000392
    11  H   -0.000004  -0.000004   0.000000  -0.000385   0.564205  -0.027979
    12  H   -0.000004  -0.000004   0.000000  -0.000392  -0.027979   0.564322
    13  H    0.000000   0.000002  -0.000000  -0.000172  -0.021702  -0.021726
    14  H    0.005060   0.000456   0.000017   0.003693   0.001226   0.001206
    15  H    0.392496  -0.065976   0.002173   0.003143   0.000000   0.000000
    16  H    0.004711  -0.044360  -0.002787   0.377003  -0.000026  -0.000027
              13         14         15         16
     1  C    0.359865   0.004908  -0.000000   0.000874
     2  C   -0.019986  -0.005282   0.000019  -0.009966
     3  O    0.005305   0.000001  -0.000000   0.017526
     4  C    0.006088  -0.063113   0.000510  -0.047345
     5  C    0.000111   0.387466   0.004446   0.005308
     6  N   -0.000001  -0.050416  -0.048988  -0.000503
     7  C    0.000000   0.005060   0.392496   0.004711
     8  C    0.000002   0.000456  -0.065976  -0.044360
     9  Br  -0.000000   0.000017   0.002173  -0.002787
    10  C   -0.000172   0.003693   0.003143   0.377003
    11  H   -0.021702   0.001226   0.000000  -0.000026
    12  H   -0.021726   0.001206   0.000000  -0.000027
    13  H    0.550915  -0.000082  -0.000000  -0.000020
    14  H   -0.000082   0.607380  -0.000177  -0.000157
    15  H   -0.000000  -0.000177   0.585721  -0.000146
    16  H   -0.000020  -0.000157  -0.000146   0.551398
 Mulliken charges:
               1
     1  C   -0.399958
     2  C    0.398269
     3  O   -0.438375
     4  C    0.025254
     5  C    0.071974
     6  N   -0.431883
     7  C    0.108689
     8  C    0.028062
     9  Br  -0.103629
    10  C   -0.059775
    11  H    0.138474
    12  H    0.138386
    13  H    0.141402
    14  H    0.107814
    15  H    0.126779
    16  H    0.148515
 Sum of Mulliken charges =  -0.00000
 Mulliken charges with hydrogens summed into heavy atoms:
               1
     1  C    0.018305
     2  C    0.398269
     3  O   -0.438375
     4  C    0.025254
     5  C    0.179788
     6  N   -0.431883
     7  C    0.235468
     8  C    0.028062
     9  Br  -0.103629
    10  C    0.088740
 Electronic spatial extent (au):  <R**2>=           2530.8934
 Charge=             -0.0000 electrons
 Dipole moment (field-independent basis, Debye):
    X=             -1.1838    Y=              1.2564    Z=              0.0108  Tot=              1.7263
 Quadrupole moment (field-independent basis, Debye-Ang):
   XX=            -61.5886   YY=            -77.7417   ZZ=            -69.3696
   XY=             -5.1407   XZ=             -0.0280   YZ=             -0.0197
 Traceless Quadrupole moment (field-independent basis, Debye-Ang):
   XX=              7.9780   YY=             -8.1751   ZZ=              0.1971
   XY=             -5.1407   XZ=             -0.0280   YZ=             -0.0197
 Octapole moment (field-independent basis, Debye-Ang**2):
  XXX=             42.8250  YYY=            -24.1860  ZZZ=              0.0075  XYY=             44.7461
  XXY=             12.7558  XXZ=              0.0710  XZZ=             20.3017  YZZ=             -7.4360
  YYZ=              0.0581  XYZ=              0.0583
 Hexadecapole moment (field-independent basis, Debye-Ang**3):
 XXXX=          -2045.3152 YYYY=           -708.6030 ZZZZ=            -75.7275 XXXY=            -77.3435
 XXXZ=              0.0376 YYYX=            -40.9920 YYYZ=             -0.0194 ZZZX=              0.1936
 ZZZY=              0.0509 XXYY=           -493.9131 XXZZ=           -379.7321 YYZZ=           -118.0534
 XXYZ=             -0.2073 YYXZ=             -0.0450 ZZXY=             -6.6368
 N-N= 7.022408776009D+02 E-N=-8.468658564345D+03  KE= 2.952901148381D+03
 No NMR shielding tensors so no spin-rotation constants.
 Leave Link  601 at Tue Sep 17 09:51:40 2024, MaxMem=  1342177280 cpu:               0.6 elap:               0.1
 (Enter /groups/ReismanLab/Software/Gaussian16_RevC/Linux_Binary_AVX2-enabled-CPU/g16/l701.exe)
 ... and contract with generalized density number  0.
 Compute integral first derivatives.
 R6Disp: Adding Grimme-D3(BJ) dispersion energy 1st derivatives to the gradient.
 Leave Link  701 at Tue Sep 17 09:51:41 2024, MaxMem=  1342177280 cpu:               0.6 elap:               0.1
 (Enter /groups/ReismanLab/Software/Gaussian16_RevC/Linux_Binary_AVX2-enabled-CPU/g16/l702.exe)
 L702 exits ... SP integral derivatives will be done elsewhere.
 Leave Link  702 at Tue Sep 17 09:51:41 2024, MaxMem=  1342177280 cpu:               0.0 elap:               0.0
 (Enter /groups/ReismanLab/Software/Gaussian16_RevC/Linux_Binary_AVX2-enabled-CPU/g16/l703.exe)
 Integral derivatives from FoFJK, PRISM(SPDF).
 Compute integral first derivatives, UseDBF=F ICtDFT=           0.
 Calling FoFJK, ICntrl=      2127 FMM=F ISym2X=0 I1Cent= 0 IOpClX= 0 NMat=1 NMatS=1 NMatT=0.
 FoFJK:  IHMeth= 1 ICntrl=    2127 DoSepK=F KAlg= 0 I1Cent=           0 FoldK=F
 IRaf=         0 NMat=       1 IRICut=       1 DoRegI=T DoRafI=F ISym2E= 0 IDoP0=0 IntGTp=1.
 FoFCou: FMM=F IPFlag=           0 FMFlag=      100000 FMFlg1=         800
         NFxFlg=           0 DoJE=F BraDBF=F KetDBF=F FulRan=T
         wScrn=  0.000000 ICntrl=      2127 IOpCl=  0 I1Cent=           0 NGrid=           0
         NMat0=    1 NMatS0=      1 NMatT0=    0 NMatD0=    1 NMtDS0=    0 NMtDT0=    0
 Symmetry not used in FoFCou.
 Leave Link  703 at Tue Sep 17 09:51:43 2024, MaxMem=  1342177280 cpu:              19.1 elap:               2.4
 (Enter /groups/ReismanLab/Software/Gaussian16_RevC/Linux_Binary_AVX2-enabled-CPU/g16/l716.exe)
 Dipole        =-4.65743196D-01 4.94324943D-01 4.25298800D-03
 ***** Axes restored to original set *****
 -------------------------------------------------------------------
 Center     Atomic                   Forces (Hartrees/Bohr)
 Number     Number              X              Y              Z
 -------------------------------------------------------------------
      1        6          -0.003834871    0.005625633   -0.000000235
      2        6          -0.001551298   -0.018015467   -0.000034293
      3        8           0.001741710    0.019398512    0.000037781
      4        6           0.003465823    0.002866592    0.000005918
      5        6          -0.009534705    0.005178110   -0.000024497
      6        7          -0.002173327   -0.020223036    0.000026152
      7        6           0.010902275    0.001434681   -0.000006289
      8        6           0.002490984    0.004564419   -0.000002722
      9       35           0.001999561    0.000285240   -0.000004161
     10        6           0.001315084    0.003053697    0.000014806
     11        1          -0.001298976   -0.003943766    0.002678518
     12        1          -0.001275789   -0.003934989   -0.002691735
     13        1          -0.001633507    0.001559986    0.000000912
     14        1          -0.005433204    0.000299943   -0.000003213
     15        1           0.004850160   -0.000463133   -0.000001193
     16        1          -0.000029921    0.002313578    0.000004250
 -------------------------------------------------------------------
 Cartesian Forces:  Max     0.020223036 RMS     0.005737253
 Leave Link  716 at Tue Sep 17 09:51:43 2024, MaxMem=  1342177280 cpu:               0.1 elap:               0.0
 (Enter /groups/ReismanLab/Software/Gaussian16_RevC/Linux_Binary_AVX2-enabled-CPU/g16/l103.exe)

 GradGradGradGradGradGradGradGradGradGradGradGradGradGradGradGradGradGrad
 Berny optimization.
 FormGI is forming the generalized inverse of G from B-inverse, IUseBI=4.
 Internal  Forces:  Max     0.019473191 RMS     0.004677465
 Search for a local minimum.
 Step number   1 out of a maximum of   81
 All quantities printed in internal units (Hartrees-Bohrs-Radians)
 RMS Force = .46775D-02 SwitMx=.10000D-02 MixMth= 1
 Mixed Optimization -- RFO/linear search
 Second derivative matrix not updated -- first step.
 ITU=  0
     Eigenvalues ---    0.00708   0.00762   0.00847   0.01738   0.02175
     Eigenvalues ---    0.02228   0.02273   0.02288   0.02327   0.02403
     Eigenvalues ---    0.02647   0.07405   0.07467   0.16000   0.16000
     Eigenvalues ---    0.16000   0.16000   0.16000   0.16000   0.18281
     Eigenvalues ---    0.23216   0.23407   0.23501   0.25000   0.25000
     Eigenvalues ---    0.25000   0.25000   0.31924   0.33029   0.35053
     Eigenvalues ---    0.35056   0.35168   0.35841   0.35927   0.35946
     Eigenvalues ---    0.42941   0.44842   0.46835   0.47836   0.59512
     Eigenvalues ---    0.61283   1.01126
 RFO step:  Lambda=-3.01878987D-03 EMin= 7.08272098D-03
 Linear search not attempted -- first point.
 Iteration  1 RMS(Cart)=  0.02459128 RMS(Int)=  0.00014328
 Iteration  2 RMS(Cart)=  0.00019657 RMS(Int)=  0.00001245
 Iteration  3 RMS(Cart)=  0.00000004 RMS(Int)=  0.00001245
 ITry= 1 IFail=0 DXMaxC= 9.17D-02 DCOld= 1.00D+10 DXMaxT= 3.00D-01 DXLimC= 3.00D+00 Rises=F
 Variable       Old X    -DE/DX   Delta X   Delta X   Delta X     New X
                                 (Linear)    (Quad)   (Total)
    R1        2.84283   0.00751   0.00000   0.02331   0.02331   2.86614
    R2        2.05589   0.00458   0.00000   0.01294   0.01294   2.06883
    R3        2.05584   0.00457   0.00000   0.01293   0.01293   2.06877
    R4        2.05403   0.00226   0.00000   0.00637   0.00637   2.06040
    R5        2.28191   0.01947   0.00000   0.01920   0.01920   2.30111
    R6        2.82301   0.00669   0.00000   0.02008   0.02008   2.84309
    R7        2.63657   0.00600   0.00000   0.01280   0.01280   2.64938
    R8        2.63786   0.00577   0.00000   0.01076   0.01074   2.64861
    R9        2.49493   0.01814   0.00000   0.03029   0.03031   2.52523
   R10        2.04166   0.00457   0.00000   0.01262   0.01262   2.05428
   R11        2.48982   0.01847   0.00000   0.03059   0.03061   2.52042
   R12        2.62815   0.00781   0.00000   0.01663   0.01663   2.64478
   R13        2.04330   0.00409   0.00000   0.01131   0.01131   2.05461
   R14        3.58932   0.00195   0.00000   0.01050   0.01050   3.59982
   R15        2.61150   0.00494   0.00000   0.00867   0.00865   2.62015
   R16        2.04196   0.00231   0.00000   0.00636   0.00636   2.04832
    A1        1.92159   0.00160   0.00000   0.00893   0.00891   1.93050
    A2        1.92189   0.00160   0.00000   0.00893   0.00891   1.93081
    A3        1.90663  -0.00029   0.00000  -0.00002  -0.00004   1.90659
    A4        1.89515  -0.00226   0.00000  -0.01727  -0.01727   1.87788
    A5        1.90906  -0.00034   0.00000  -0.00037  -0.00039   1.90867
    A6        1.90941  -0.00033   0.00000  -0.00032  -0.00034   1.90907
    A7        2.14008  -0.00355   0.00000  -0.01403  -0.01403   2.12605
    A8        2.03639   0.00626   0.00000   0.02472   0.02472   2.06111
    A9        2.10672  -0.00271   0.00000  -0.01070  -0.01070   2.09602
   A10        2.17292  -0.00254   0.00000  -0.00816  -0.00815   2.16477
   A11        2.05964   0.00025   0.00000   0.00289   0.00290   2.06254
   A12        2.05063   0.00229   0.00000   0.00527   0.00525   2.05588
   A13        2.14994   0.00015   0.00000   0.00303   0.00305   2.15299
   A14        2.13029  -0.00308   0.00000  -0.01997  -0.01998   2.11031
   A15        2.00296   0.00293   0.00000   0.01694   0.01693   2.01989
   A16        2.08402  -0.00550   0.00000  -0.01395  -0.01390   2.07013
   A17        2.12960  -0.00008   0.00000   0.00280   0.00281   2.13242
   A18        2.03427   0.00275   0.00000   0.01523   0.01522   2.04949
   A19        2.11932  -0.00267   0.00000  -0.01803  -0.01804   2.10128
   A20        2.09729  -0.00187   0.00000  -0.00586  -0.00585   2.09144
   A21        2.08084   0.00185   0.00000   0.00429   0.00427   2.08511
   A22        2.10505   0.00001   0.00000   0.00157   0.00158   2.10663
   A23        2.07134   0.00129   0.00000  -0.00144  -0.00148   2.06985
   A24        2.08172  -0.00085   0.00000  -0.00053  -0.00051   2.08121
   A25        2.13013  -0.00044   0.00000   0.00197   0.00199   2.13212
    D1       -2.09407  -0.00039   0.00000  -0.00558  -0.00558  -2.09965
    D2        1.04747  -0.00039   0.00000  -0.00490  -0.00490   1.04256
    D3        2.09998   0.00039   0.00000   0.00454   0.00454   2.10452
    D4       -1.04167   0.00039   0.00000   0.00522   0.00522  -1.03645
    D5        0.00265  -0.00001   0.00000  -0.00055  -0.00055   0.00209
    D6       -3.13900   0.00000   0.00000   0.00012   0.00012  -3.13888
    D7       -0.00538   0.00002   0.00000   0.00170   0.00170  -0.00368
    D8        3.13654   0.00002   0.00000   0.00174   0.00174   3.13827
    D9        3.13616   0.00003   0.00000   0.00236   0.00236   3.13852
   D10       -0.00511   0.00003   0.00000   0.00240   0.00240  -0.00271
   D11       -3.14142   0.00000   0.00000   0.00009   0.00009  -3.14133
   D12       -0.00003   0.00000   0.00000   0.00012   0.00012   0.00009
   D13       -0.00015   0.00000   0.00000   0.00006   0.00006  -0.00009
   D14        3.14124   0.00000   0.00000   0.00008   0.00008   3.14132
   D15        3.14149   0.00000   0.00000   0.00002   0.00002   3.14151
   D16       -0.00008   0.00000   0.00000   0.00004   0.00004  -0.00004
   D17        0.00020   0.00000   0.00000   0.00006   0.00006   0.00026
   D18       -3.14137   0.00000   0.00000   0.00007   0.00007  -3.14130
   D19       -0.00002  -0.00000   0.00000  -0.00012  -0.00012  -0.00014
   D20       -3.14142  -0.00000   0.00000  -0.00014  -0.00014  -3.14156
   D21        0.00014   0.00000   0.00000   0.00007   0.00007   0.00021
   D22       -3.14143   0.00000   0.00000   0.00008   0.00008  -3.14135
   D23        3.14145   0.00000   0.00000   0.00008   0.00008   3.14153
   D24       -0.00009   0.00000   0.00000   0.00004   0.00004  -0.00004
   D25       -0.00016   0.00000   0.00000   0.00006   0.00006  -0.00010
   D26        3.14148   0.00000   0.00000   0.00003   0.00003   3.14152
   D27       -0.00009  -0.00000   0.00000  -0.00011  -0.00011  -0.00019
   D28        3.14148  -0.00000   0.00000  -0.00012  -0.00012   3.14136
   D29        3.14156  -0.00000   0.00000  -0.00014  -0.00014   3.14142
   D30       -0.00006  -0.00000   0.00000  -0.00015  -0.00015  -0.00021
         Item               Value     Threshold  Converged?
 Maximum Force            0.019473     0.000450     NO 
 RMS     Force            0.004677     0.000300     NO 
 Maximum Displacement     0.091732     0.001800     NO 
 RMS     Displacement     0.024678     0.001200     NO 
 Predicted change in Energy=-1.520713D-03
 Lowest energy point so far.  Saving SCF results.
 GradGradGradGradGradGradGradGradGradGradGradGradGradGradGradGradGradGrad

 Leave Link  103 at Tue Sep 17 09:51:43 2024, MaxMem=  1342177280 cpu:               0.1 elap:               0.0
 (Enter /groups/ReismanLab/Software/Gaussian16_RevC/Linux_Binary_AVX2-enabled-CPU/g16/l202.exe)
                          Input orientation:                          
 ---------------------------------------------------------------------
 Center     Atomic      Atomic             Coordinates (Angstroms)
 Number     Number       Type             X           Y           Z
 ---------------------------------------------------------------------
      1          6           0       -4.301726    0.117679   -0.005201
      2          6           0       -2.931221    0.767338   -0.000513
      3          8           0       -2.794399    1.977318    0.002201
      4          6           0       -1.722516   -0.128515   -0.000082
      5          6           0       -1.783973   -1.529157    0.000527
      6          7           0       -0.701102   -2.312150    0.001202
      7          6           0        0.502512   -1.737516    0.001141
      8          6           0        0.664767   -0.347396    0.000645
      9         35           0        2.416017    0.402224    0.000699
     10          6           0       -0.455168    0.470037    0.000146
     11          1           0       -4.430685   -0.516300    0.877964
     12          1           0       -4.424748   -0.516786   -0.888821
     13          1           0       -5.067314    0.893986   -0.007741
     14          1           0       -2.740226   -2.046186    0.000638
     15          1           0        1.370236   -2.392628    0.001466
     16          1           0       -0.380240    1.551370   -0.000033
 ---------------------------------------------------------------------
                    Distance matrix (angstroms):
                    1          2          3          4          5
     1  C    0.000000
     2  C    1.516695   0.000000
     3  O    2.393815   1.217694   0.000000
     4  C    2.590939   1.504500   2.362937   0.000000
     5  C    3.008518   2.567112   3.649154   1.401990   0.000000
     6  N    4.343800   3.802194   4.772989   2.410716   1.336297
     7  C    5.149999   4.250272   4.966851   2.745840   2.295959
     8  C    4.988225   3.764806   4.167749   2.397297   2.718987
     9  Br   6.723769   5.359688   5.443285   4.172426   4.622786
    10  C    3.862667   2.493837   2.782787   1.401583   2.400520
    11  H    1.094778   2.160519   3.108460   2.873242   2.966624
    12  H    1.094744   2.160715   3.110066   2.871005   2.964713
    13  H    1.090314   2.139857   2.517906   3.497605   4.080688
    14  H    2.668450   2.819999   4.023869   2.170989   1.087077
    15  H    6.202648   5.337407   6.036606   3.832927   3.270263
    16  H    4.175350   2.668746   2.451448   2.150283   3.385278
                    6          7          8          9         10
     6  N    0.000000
     7  C    1.333750   0.000000
     8  C    2.392876   1.399557   0.000000
     9  Br   4.133310   2.870538   1.904942   0.000000
    10  C    2.793035   2.406333   1.386525   2.871985   0.000000
    11  H    4.231262   5.157191   5.173186   6.963520   4.189052
    12  H    4.228595   5.153649   5.169430   6.959302   4.185886
    13  H    5.416936   6.160182   5.864969   7.499476   4.631597
    14  H    2.056396   3.257395   3.805241   5.708025   3.398950
    15  H    2.072901   1.087252   2.163483   2.984101   3.395136
    16  H    3.876820   3.405293   2.167338   3.023175   1.083926
                   11         12         13         14         15
    11  H    0.000000
    12  H    1.766795   0.000000
    13  H    1.782885   1.783107   0.000000
    14  H    2.442929   2.442911   3.749670   0.000000
    15  H    6.159508   6.155748   7.227999   4.125036   0.000000
    16  H    4.631656   4.628742   4.732956   4.302550   4.315007
                   16
    16  H    0.000000
 Stoichiometry    C7H6BrNO
 Framework group  C1[X(C7H6BrNO)]
 Deg. of freedom    42
 Full point group                 C1      NOp   1
 RotChk:  IX=0 Diff= 6.06D-04
 Largest Abelian subgroup         C1      NOp   1
 Largest concise Abelian subgroup C1      NOp   1
                         Standard orientation:                         
 ---------------------------------------------------------------------
 Center     Atomic      Atomic             Coordinates (Angstroms)
 Number     Number       Type             X           Y           Z
 ---------------------------------------------------------------------
      1          6           0       -4.113972   -0.110840    0.003581
      2          6           0       -2.750490   -0.775117   -0.000530
      3          8           0       -2.626614   -1.986491   -0.003202
      4          6           0       -1.532275    0.107759   -0.000430
      5          6           0       -1.578752    1.508978   -0.001046
      6          7           0       -0.487569    2.280347   -0.001247
      7          6           0        0.709831    1.692876   -0.000679
      8          6           0        0.857212    0.301101   -0.000133
      9         35           0        2.600345   -0.467204    0.000552
     10          6           0       -0.271400   -0.504310   -0.000124
     11          1           0       -4.235767    0.524489   -0.879630
     12          1           0       -4.230581    0.524895    0.887157
     13          1           0       -4.887819   -0.878917    0.005783
     14          1           0       -2.529420    2.036203   -0.001559
     15          1           0        1.584511    2.338672   -0.000624
     16          1           0       -0.208040   -1.586383    0.000071
 ---------------------------------------------------------------------
 Rotational constants (GHZ):           2.0943093           0.4684679           0.3837481
 Leave Link  202 at Tue Sep 17 09:51:43 2024, MaxMem=  1342177280 cpu:               0.0 elap:               0.0
 (Enter /groups/ReismanLab/Software/Gaussian16_RevC/Linux_Binary_AVX2-enabled-CPU/g16/l301.exe)
 Standard basis: 6-31G(d,p) (6D, 7F)
 Ernie: Thresh=  0.10000D-02 Tol=  0.10000D-05 Strict=F.
 There are   195 symmetry adapted cartesian basis functions of A   symmetry.
 There are   195 symmetry adapted basis functions of A   symmetry.
   195 basis functions,   377 primitive gaussians,   195 cartesian basis functions
    49 alpha electrons       49 beta electrons
       nuclear repulsion energy       698.1587631060 Hartrees.
 IExCor=  402 DFT=T Ex+Corr=B3LYP ExCW=0 ScaHFX=  0.200000
 ScaDFX=  0.800000  0.720000  1.000000  0.810000 ScalE2=  1.000000  1.000000
 IRadAn=      5 IRanWt=     -1 IRanGd=            0 ICorTp=0 IEmpDi=141
 NAtoms=   16 NActive=   16 NUniq=   16 SFac= 1.00D+00 NAtFMM=   60 NAOKFM=F Big=F
 Integral buffers will be    131072 words long.
 Raffenetti 2 integral format.
 Two-electron integral symmetry is turned on.
 R6Disp:  Grimme-D3(BJ) Dispersion energy=       -0.0325612854 Hartrees.
 Nuclear repulsion after empirical dispersion term =      698.1262018206 Hartrees.
 Leave Link  301 at Tue Sep 17 09:51:43 2024, MaxMem=  1342177280 cpu:               0.1 elap:               0.0
 (Enter /groups/ReismanLab/Software/Gaussian16_RevC/Linux_Binary_AVX2-enabled-CPU/g16/l302.exe)
 NPDir=0 NMtPBC=     1 NCelOv=     1 NCel=       1 NClECP=     1 NCelD=      1
         NCelK=      1 NCelE2=     1 NClLst=     1 CellRange=     0.0.
 One-electron integrals computed using PRISM.
 One-electron integral symmetry used in STVInt
 NBasis=   195 RedAO= T EigKep=  7.00D-04  NBF=   195
 NBsUse=   195 1.00D-06 EigRej= -1.00D+00 NBFU=   195
 Precomputing XC quadrature grid using
 IXCGrd= 4 IRadAn=           5 IRanWt=          -1 IRanGd=           0 AccXCQ= 0.00D+00.
 Generated NRdTot=       0 NPtTot=           0 NUsed=           0 NTot=          32
 NSgBfM=   195   195   195   195   195 MxSgAt=    16 MxSgA2=    16.
 Leave Link  302 at Tue Sep 17 09:51:43 2024, MaxMem=  1342177280 cpu:               0.8 elap:               0.1
 (Enter /groups/ReismanLab/Software/Gaussian16_RevC/Linux_Binary_AVX2-enabled-CPU/g16/l303.exe)
 DipDrv:  MaxL=1.
 Leave Link  303 at Tue Sep 17 09:51:43 2024, MaxMem=  1342177280 cpu:               0.0 elap:               0.0
 (Enter /groups/ReismanLab/Software/Gaussian16_RevC/Linux_Binary_AVX2-enabled-CPU/g16/l401.exe)
 Initial guess from the checkpoint file:  "smiles_00067_conf_0.chk"
 B after Tr=     0.000000   -0.000000    0.000000
         Rot=    1.000000   -0.000008    0.000053    0.000444 Ang=  -0.05 deg.
 Guess basis will be translated and rotated to current coordinates.
 JPrj=2 DoOrth=T DoCkMO=T.
 Generating alternative initial guess.
 ExpMin= 1.43D-01 ExpMax= 5.74D+05 ExpMxC= 5.74D+03 IAcc=3 IRadAn=         5 AccDes= 0.00D+00
 Harris functional with IExCor=  402 and IRadAn=       5 diagonalized for initial guess.
 HarFok:  IExCor=  402 AccDes= 0.00D+00 IRadAn=         5 IDoV= 1 UseB2=F ITyADJ=14
 ICtDFT=  3500011 ScaDFX=  1.000000  1.000000  1.000000  1.000000
 FoFCou: FMM=F IPFlag=           0 FMFlag=      100000 FMFlg1=           0
         NFxFlg=           0 DoJE=T BraDBF=F KetDBF=T FulRan=T
         wScrn=  0.000000 ICntrl=       500 IOpCl=  0 I1Cent=   200000004 NGrid=           0
         NMat0=    1 NMatS0=      1 NMatT0=    0 NMatD0=    1 NMtDS0=    0 NMtDT0=    0
 Petite list used in FoFCou.
 Harris En= -2972.17281848591    
 Leave Link  401 at Tue Sep 17 09:51:44 2024, MaxMem=  1342177280 cpu:               3.7 elap:               0.8
 (Enter /groups/ReismanLab/Software/Gaussian16_RevC/Linux_Binary_AVX2-enabled-CPU/g16/l502.exe)
 Integral symmetry usage will be decided dynamically.
 Closed shell SCF:
 Using DIIS extrapolation, IDIIS=  1040.
 NGot=  1342177280 LenX=  1342097209 LenY=  1342058743
 Requested convergence on RMS density matrix=1.00D-08 within  32 cycles.
 Requested convergence on MAX density matrix=1.00D-06.
 Requested convergence on             energy=1.00D-06.
 No special actions if energy rises.
 Fock matrices will be formed incrementally for  20 cycles.
 Integral accuracy reduced to 1.0D-05 until final iterations.

 Cycle   1  Pass 0  IDiag  1:
 FoFJK:  IHMeth= 1 ICntrl=       0 DoSepK=F KAlg= 0 I1Cent=           0 FoldK=F
 IRaf= 880000000 NMat=       1 IRICut=       1 DoRegI=T DoRafI=F ISym2E= 0 IDoP0=0 IntGTp=1.
 FoFCou: FMM=F IPFlag=           0 FMFlag=      100000 FMFlg1=           0
         NFxFlg=           0 DoJE=F BraDBF=F KetDBF=F FulRan=T
         wScrn=  0.000000 ICntrl=         0 IOpCl=  0 I1Cent=           0 NGrid=           0
         NMat0=    1 NMatS0=      1 NMatT0=    0 NMatD0=    1 NMtDS0=    0 NMtDT0=    0
 Symmetry not used in FoFCou.
 E= -2972.07470280089    
 DIIS: error= 1.03D-03 at cycle   1 NSaved=   1.
 NSaved= 1 IEnMin= 1 EnMin= -2972.07470280089     IErMin= 1 ErrMin= 1.03D-03
 ErrMax= 1.03D-03  0.00D+00 EMaxC= 1.00D-01 BMatC= 7.39D-04 BMatP= 7.39D-04
 IDIUse=3 WtCom= 9.90D-01 WtEn= 1.03D-02
 Coeff-Com:  0.100D+01
 Coeff-En:   0.100D+01
 Coeff:      0.100D+01
 Gap=     1.710 Goal=   None    Shift=    0.000
 GapD=    1.710 DampG=2.000 DampE=1.000 DampFc=2.0000 IDamp=-1.
 RMSDP=2.59D-04 MaxDP=9.72D-03              OVMax= 5.30D-03

 Cycle   2  Pass 0  IDiag  1:
 RMSU=  2.59D-04    CP:  1.00D+00
 E= -2972.07527250730     Delta-E=       -0.000569706406 Rises=F Damp=F
 DIIS: error= 5.18D-04 at cycle   2 NSaved=   2.
 NSaved= 2 IEnMin= 2 EnMin= -2972.07527250730     IErMin= 2 ErrMin= 5.18D-04
 ErrMax= 5.18D-04  0.00D+00 EMaxC= 1.00D-01 BMatC= 7.38D-05 BMatP= 7.39D-04
 IDIUse=3 WtCom= 9.95D-01 WtEn= 5.18D-03
 Coeff-Com:  0.138D+00 0.862D+00
 Coeff-En:   0.000D+00 0.100D+01
 Coeff:      0.137D+00 0.863D+00
 Gap=     0.185 Goal=   None    Shift=    0.000
 RMSDP=1.08D-04 MaxDP=3.76D-03 DE=-5.70D-04 OVMax= 4.50D-03

 Cycle   3  Pass 0  IDiag  1:
 RMSU=  1.05D-04    CP:  1.00D+00  1.10D+00
 E= -2972.07525435622     Delta-E=        0.000018151076 Rises=F Damp=F
 DIIS: error= 6.98D-04 at cycle   3 NSaved=   3.
 NSaved= 3 IEnMin= 2 EnMin= -2972.07527250730     IErMin= 2 ErrMin= 5.18D-04
 ErrMax= 6.98D-04  0.00D+00 EMaxC= 1.00D-01 BMatC= 8.80D-05 BMatP= 7.38D-05
 IDIUse=3 WtCom= 2.75D-01 WtEn= 7.25D-01
 Coeff-Com:  0.224D-02 0.523D+00 0.475D+00
 Coeff-En:   0.000D+00 0.550D+00 0.450D+00
 Coeff:      0.616D-03 0.543D+00 0.457D+00
 Gap=     0.184 Goal=   None    Shift=    0.000
 RMSDP=6.28D-05 MaxDP=2.33D-03 DE= 1.82D-05 OVMax= 3.59D-03

 Cycle   4  Pass 0  IDiag  1:
 RMSU=  2.83D-05    CP:  1.00D+00  1.07D+00  4.71D-01
 E= -2972.07533772050     Delta-E=       -0.000083364278 Rises=F Damp=F
 DIIS: error= 2.00D-04 at cycle   4 NSaved=   4.
 NSaved= 4 IEnMin= 4 EnMin= -2972.07533772050     IErMin= 4 ErrMin= 2.00D-04
 ErrMax= 2.00D-04  0.00D+00 EMaxC= 1.00D-01 BMatC= 6.74D-06 BMatP= 7.38D-05
 IDIUse=3 WtCom= 9.98D-01 WtEn= 2.00D-03
 Coeff-Com: -0.832D-02 0.262D+00 0.286D+00 0.460D+00
 Coeff-En:   0.000D+00 0.000D+00 0.000D+00 0.100D+01
 Coeff:     -0.830D-02 0.262D+00 0.286D+00 0.461D+00
 Gap=     0.184 Goal=   None    Shift=    0.000
 RMSDP=1.74D-05 MaxDP=4.29D-04 DE=-8.34D-05 OVMax= 9.92D-04

 Cycle   5  Pass 0  IDiag  1:
 RMSU=  8.82D-06    CP:  1.00D+00  1.08D+00  4.89D-01  4.78D-01
 E= -2972.07534469009     Delta-E=       -0.000006969591 Rises=F Damp=F
 DIIS: error= 2.21D-05 at cycle   5 NSaved=   5.
 NSaved= 5 IEnMin= 5 EnMin= -2972.07534469009     IErMin= 5 ErrMin= 2.21D-05
 ErrMax= 2.21D-05  0.00D+00 EMaxC= 1.00D-01 BMatC= 2.06D-07 BMatP= 6.74D-06
 IDIUse=1 WtCom= 1.00D+00 WtEn= 0.00D+00
 Coeff-Com: -0.343D-02 0.671D-01 0.881D-01 0.200D+00 0.649D+00
 Coeff:     -0.343D-02 0.671D-01 0.881D-01 0.200D+00 0.649D+00
 Gap=     0.184 Goal=   None    Shift=    0.000
 RMSDP=4.22D-06 MaxDP=1.61D-04 DE=-6.97D-06 OVMax= 1.61D-04

 Initial convergence to 1.0D-05 achieved.  Increase integral accuracy.
 Cycle   6  Pass 1  IDiag  1:
 E= -2972.07535089677     Delta-E=       -0.000006206679 Rises=F Damp=F
 DIIS: error= 5.10D-05 at cycle   1 NSaved=   1.
 NSaved= 1 IEnMin= 1 EnMin= -2972.07535089677     IErMin= 1 ErrMin= 5.10D-05
 ErrMax= 5.10D-05  0.00D+00 EMaxC= 1.00D-01 BMatC= 2.12D-07 BMatP= 2.12D-07
 IDIUse=1 WtCom= 1.00D+00 WtEn= 0.00D+00
 Coeff-Com:  0.100D+01
 Coeff:      0.100D+01
 Gap=     0.184 Goal=   None    Shift=    0.000
 RMSDP=4.22D-06 MaxDP=1.61D-04 DE=-6.21D-06 OVMax= 1.42D-04

 Cycle   7  Pass 1  IDiag  1:
 RMSU=  1.42D-05    CP:  1.00D+00
 E= -2972.07535095775     Delta-E=       -0.000000060979 Rises=F Damp=F
 DIIS: error= 1.60D-05 at cycle   2 NSaved=   2.
 NSaved= 2 IEnMin= 2 EnMin= -2972.07535095775     IErMin= 2 ErrMin= 1.60D-05
 ErrMax= 1.60D-05  0.00D+00 EMaxC= 1.00D-01 BMatC= 8.81D-08 BMatP= 2.12D-07
 IDIUse=1 WtCom= 1.00D+00 WtEn= 0.00D+00
 Coeff-Com:  0.347D+00 0.653D+00
 Coeff:      0.347D+00 0.653D+00
 Gap=     0.184 Goal=   None    Shift=    0.000
 RMSDP=3.01D-06 MaxDP=1.01D-04 DE=-6.10D-08 OVMax= 1.19D-04

 Cycle   8  Pass 1  IDiag  1:
 RMSU=  3.00D-06    CP:  1.00D+00  9.79D-01
 E= -2972.07535098154     Delta-E=       -0.000000023792 Rises=F Damp=F
 DIIS: error= 1.58D-05 at cycle   3 NSaved=   3.
 NSaved= 3 IEnMin= 3 EnMin= -2972.07535098154     IErMin= 3 ErrMin= 1.58D-05
 ErrMax= 1.58D-05  0.00D+00 EMaxC= 1.00D-01 BMatC= 6.50D-08 BMatP= 8.81D-08
 IDIUse=1 WtCom= 1.00D+00 WtEn= 0.00D+00
 Coeff-Com:  0.199D-01 0.458D+00 0.522D+00
 Coeff:      0.199D-01 0.458D+00 0.522D+00
 Gap=     0.184 Goal=   None    Shift=    0.000
 RMSDP=1.50D-06 MaxDP=5.00D-05 DE=-2.38D-08 OVMax= 6.93D-05

 Cycle   9  Pass 1  IDiag  1:
 RMSU=  5.75D-07    CP:  1.00D+00  9.98D-01  5.48D-01
 E= -2972.07535104212     Delta-E=       -0.000000060576 Rises=F Damp=F
 DIIS: error= 5.23D-06 at cycle   4 NSaved=   4.
 NSaved= 4 IEnMin= 4 EnMin= -2972.07535104212     IErMin= 4 ErrMin= 5.23D-06
 ErrMax= 5.23D-06  0.00D+00 EMaxC= 1.00D-01 BMatC= 3.93D-09 BMatP= 6.50D-08
 IDIUse=1 WtCom= 1.00D+00 WtEn= 0.00D+00
 Coeff-Com: -0.130D-02 0.266D+00 0.334D+00 0.401D+00
 Coeff:     -0.130D-02 0.266D+00 0.334D+00 0.401D+00
 Gap=     0.184 Goal=   None    Shift=    0.000
 RMSDP=3.35D-07 MaxDP=9.76D-06 DE=-6.06D-08 OVMax= 2.03D-05

 Cycle  10  Pass 1  IDiag  1:
 RMSU=  1.22D-07    CP:  1.00D+00  1.00D+00  5.63D-01  4.68D-01
 E= -2972.07535104566     Delta-E=       -0.000000003547 Rises=F Damp=F
 DIIS: error= 4.44D-07 at cycle   5 NSaved=   5.
 NSaved= 5 IEnMin= 5 EnMin= -2972.07535104566     IErMin= 5 ErrMin= 4.44D-07
 ErrMax= 4.44D-07  0.00D+00 EMaxC= 1.00D-01 BMatC= 7.76D-11 BMatP= 3.93D-09
 IDIUse=1 WtCom= 1.00D+00 WtEn= 0.00D+00
 Coeff-Com: -0.151D-02 0.127D+00 0.163D+00 0.217D+00 0.494D+00
 Coeff:     -0.151D-02 0.127D+00 0.163D+00 0.217D+00 0.494D+00
 Gap=     0.184 Goal=   None    Shift=    0.000
 RMSDP=5.82D-08 MaxDP=1.59D-06 DE=-3.55D-09 OVMax= 2.23D-06

 Cycle  11  Pass 1  IDiag  1:
 RMSU=  3.45D-08    CP:  1.00D+00  1.00D+00  5.62D-01  4.63D-01  6.23D-01
 E= -2972.07535104573     Delta-E=       -0.000000000068 Rises=F Damp=F
 DIIS: error= 1.40D-07 at cycle   6 NSaved=   6.
 NSaved= 6 IEnMin= 6 EnMin= -2972.07535104573     IErMin= 6 ErrMin= 1.40D-07
 ErrMax= 1.40D-07  0.00D+00 EMaxC= 1.00D-01 BMatC= 5.06D-12 BMatP= 7.76D-11
 IDIUse=1 WtCom= 1.00D+00 WtEn= 0.00D+00
 Coeff-Com: -0.843D-03 0.653D-01 0.838D-01 0.113D+00 0.295D+00 0.444D+00
 Coeff:     -0.843D-03 0.653D-01 0.838D-01 0.113D+00 0.295D+00 0.444D+00
 Gap=     0.184 Goal=   None    Shift=    0.000
 RMSDP=1.55D-08 MaxDP=5.71D-07 DE=-6.82D-11 OVMax= 8.81D-07

 Cycle  12  Pass 1  IDiag  1:
 RMSU=  1.25D-08    CP:  1.00D+00  1.00D+00  5.62D-01  4.65D-01  6.28D-01
                    CP:  7.41D-01
 E= -2972.07535104575     Delta-E=       -0.000000000015 Rises=F Damp=F
 DIIS: error= 5.28D-08 at cycle   7 NSaved=   7.
 NSaved= 7 IEnMin= 7 EnMin= -2972.07535104575     IErMin= 7 ErrMin= 5.28D-08
 ErrMax= 5.28D-08  0.00D+00 EMaxC= 1.00D-01 BMatC= 4.85D-13 BMatP= 5.06D-12
 IDIUse=1 WtCom= 1.00D+00 WtEn= 0.00D+00
 Coeff-Com: -0.166D-03 0.108D-01 0.139D-01 0.193D-01 0.633D-01 0.247D+00
 Coeff-Com:  0.646D+00
 Coeff:     -0.166D-03 0.108D-01 0.139D-01 0.193D-01 0.633D-01 0.247D+00
 Coeff:      0.646D+00
 Gap=     0.184 Goal=   None    Shift=    0.000
 RMSDP=4.93D-09 MaxDP=1.34D-07 DE=-1.55D-11 OVMax= 2.85D-07

 SCF Done:  E(RB3LYP) =  -2972.07535105     A.U. after   12 cycles
            NFock= 12  Conv=0.49D-08     -V/T= 2.0066
 KE= 2.952608388139D+03 PE=-8.460201511394D+03 EE= 1.837391570389D+03
 Leave Link  502 at Tue Sep 17 09:51:52 2024, MaxMem=  1342177280 cpu:              55.2 elap:               7.5
 (Enter /groups/ReismanLab/Software/Gaussian16_RevC/Linux_Binary_AVX2-enabled-CPU/g16/l508.exe)
 QCSCF skips out because SCF is already converged.
 Leave Link  508 at Tue Sep 17 09:51:52 2024, MaxMem=  1342177280 cpu:               0.0 elap:               0.0
 (Enter /groups/ReismanLab/Software/Gaussian16_RevC/Linux_Binary_AVX2-enabled-CPU/g16/l701.exe)
 ... and contract with generalized density number  0.
 Compute integral first derivatives.
 R6Disp: Adding Grimme-D3(BJ) dispersion energy 1st derivatives to the gradient.
 Leave Link  701 at Tue Sep 17 09:51:52 2024, MaxMem=  1342177280 cpu:               0.6 elap:               0.1
 (Enter /groups/ReismanLab/Software/Gaussian16_RevC/Linux_Binary_AVX2-enabled-CPU/g16/l702.exe)
 L702 exits ... SP integral derivatives will be done elsewhere.
 Leave Link  702 at Tue Sep 17 09:51:52 2024, MaxMem=  1342177280 cpu:               0.0 elap:               0.0
 (Enter /groups/ReismanLab/Software/Gaussian16_RevC/Linux_Binary_AVX2-enabled-CPU/g16/l703.exe)
 Integral derivatives from FoFJK, PRISM(SPDF).
 Compute integral first derivatives, UseDBF=F ICtDFT=           0.
 Calling FoFJK, ICntrl=      2127 FMM=F ISym2X=0 I1Cent= 0 IOpClX= 0 NMat=1 NMatS=1 NMatT=0.
 FoFJK:  IHMeth= 1 ICntrl=    2127 DoSepK=F KAlg= 0 I1Cent=           0 FoldK=F
 IRaf=         0 NMat=       1 IRICut=       1 DoRegI=T DoRafI=F ISym2E= 0 IDoP0=0 IntGTp=1.
 FoFCou: FMM=F IPFlag=           0 FMFlag=      100000 FMFlg1=         800
         NFxFlg=           0 DoJE=F BraDBF=F KetDBF=F FulRan=T
         wScrn=  0.000000 ICntrl=      2127 IOpCl=  0 I1Cent=           0 NGrid=           0
         NMat0=    1 NMatS0=      1 NMatT0=    0 NMatD0=    1 NMtDS0=    0 NMtDT0=    0
 Symmetry not used in FoFCou.
 Leave Link  703 at Tue Sep 17 09:51:54 2024, MaxMem=  1342177280 cpu:              18.8 elap:               2.6
 (Enter /groups/ReismanLab/Software/Gaussian16_RevC/Linux_Binary_AVX2-enabled-CPU/g16/l716.exe)
 Dipole        =-4.73310317D-01 4.83257124D-01 2.50240308D-03
 ***** Axes restored to original set *****
 -------------------------------------------------------------------
 Center     Atomic                   Forces (Hartrees/Bohr)
 Number     Number              X              Y              Z
 -------------------------------------------------------------------
      1        6           0.000425010    0.001403515    0.000043898
      2        6           0.000057377   -0.004664075   -0.000083516
      3        8          -0.000083396    0.002116518    0.000013541
      4        6           0.000964355    0.000103392    0.000036166
      5        6          -0.000195559    0.003133394   -0.000008026
      6        7          -0.000097403   -0.003694343   -0.000004521
      7        6           0.000114266    0.002130772   -0.000003311
      8        6          -0.001469432   -0.000052299   -0.000001566
      9       35          -0.000354377   -0.000439383    0.000000044
     10        6           0.000179571    0.000488732    0.000009919
     11        1           0.000003726   -0.000513744   -0.000010995
     12        1           0.000004769   -0.000501716    0.000006854
     13        1           0.000705690    0.000229775    0.000001384
     14        1           0.000356809    0.000171009   -0.000002045
     15        1          -0.000499026    0.000222422    0.000003827
     16        1          -0.000112379   -0.000133969   -0.000001650
 -------------------------------------------------------------------
 Cartesian Forces:  Max     0.004664075 RMS     0.001133914
 Leave Link  716 at Tue Sep 17 09:51:54 2024, MaxMem=  1342177280 cpu:               0.1 elap:               0.0
 (Enter /groups/ReismanLab/Software/Gaussian16_RevC/Linux_Binary_AVX2-enabled-CPU/g16/l103.exe)

 GradGradGradGradGradGradGradGradGradGradGradGradGradGradGradGradGradGrad
 Berny optimization.
 Using GEDIIS/GDIIS optimizer.
 FormGI is forming the generalized inverse of G from B-inverse, IUseBI=4.
 Internal  Forces:  Max     0.002830764 RMS     0.000756717
 Search for a local minimum.
 Step number   2 out of a maximum of   81
 All quantities printed in internal units (Hartrees-Bohrs-Radians)
 RMS Force = .75672D-03 SwitMx=.10000D-02 MixMth= 2
 Mixed Optimization -- En-DIIS/RFO-DIIS
 Update second derivatives using D2CorX and points    1    2
 DE= -1.52D-03 DEPred=-1.52D-03 R= 9.96D-01
 TightC=F SS=  1.41D+00  RLast= 8.79D-02 DXNew= 5.0454D-01 2.6379D-01
 Trust test= 9.96D-01 RLast= 8.79D-02 DXMaxT set to 3.00D-01
 ITU=  1  0
 Use linear search instead of GDIIS.
     Eigenvalues ---    0.00708   0.00763   0.00847   0.01740   0.02175
     Eigenvalues ---    0.02228   0.02273   0.02287   0.02333   0.02409
[...]
   Eigenvalues:  -146.1603   -72.4545   100.1146
      3  O    Isotropic =  -418.9244   Anisotropy =  1163.8441
   XX=  -506.4476   YX=   -30.1969   ZX=     0.1867
   XY=    38.0998   YY= -1107.2968   ZY=    -0.8028
   XZ=     0.2050   YZ=    -0.8820   ZZ=   356.9711
   Eigenvalues: -1107.3233  -506.4216   356.9716
      4  C    Isotropic =    31.6140   Anisotropy =   188.9491
   XX=   -39.4812   YX=   -40.6815   ZX=     0.0156
   XY=   -57.6027   YY=   -23.2569   ZY=     0.0140
   XZ=    -0.0290   YZ=     0.0599   ZZ=   157.5800
   Eigenvalues:   -81.1762    18.4381   157.5800
      5  C    Isotropic =    11.6273   Anisotropy =   204.3628
   XX=   -99.6942   YX=    45.4236   ZX=    -0.0010
   XY=    -0.8314   YY=   -13.2931   ZY=     0.0302
   XZ=    -0.0098   YZ=    -0.0016   ZZ=   147.8692
   Eigenvalues:  -105.1085    -7.8788   147.8692
      6  N    Isotropic =  -146.0209   Anisotropy =   644.9787
   XX=  -488.8988   YX=   -20.1601   ZX=     0.0201
   XY=   -17.3225   YY=  -233.1288   ZY=     0.0792
   XZ=     0.0522   YZ=     0.0772   ZZ=   283.9649
   Eigenvalues:  -490.2647  -231.7629   283.9649
      7  C    Isotropic =     4.4600   Anisotropy =   185.2151
   XX=   -91.3167   YX=   -61.4062   ZX=     0.0112
   XY=   -36.3167   YY=   -23.2400   ZY=     0.0206
   XZ=     0.0150   YZ=     0.0295   ZZ=   127.9368
   Eigenvalues:  -116.8271     2.2704   127.9368
      8  C    Isotropic =    26.0257   Anisotropy =   143.2575
   XX=   -54.9363   YX=    48.1367   ZX=    -0.0059
   XY=    67.9643   YY=    11.4827   ZY=     0.0130
   XZ=    -0.0053   YZ=     0.0111   ZZ=   121.5307
   Eigenvalues:   -88.6052    45.1517   121.5307
      9  Br   Isotropic =  2119.1145   Anisotropy =  1217.1846
   XX=  2747.9609   YX=  -439.1508   ZX=     0.0610
   XY=  -427.4776   YY=  1902.3623   ZY=    -0.0235
   XZ=     0.0222   YZ=    -0.0105   ZZ=  1707.0204
   Eigenvalues:  1707.0204  1719.7523  2930.5710
     10  C    Isotropic =    22.7845   Anisotropy =   220.0551
   XX=    -8.3974   YX=     3.2438   ZX=     0.0043
   XY=    19.0332   YY=   -92.7370   ZY=     0.0183
   XZ=    -0.0050   YZ=     0.0244   ZZ=   169.4879
   Eigenvalues:   -94.1832    -6.9512   169.4879
     11  H    Isotropic =    28.9641   Anisotropy =     4.7035
   XX=    29.0854   YX=    -0.8546   ZX=     1.6227
   XY=     1.2840   YY=    29.1335   ZY=    -1.6640
   XZ=     2.6662   YZ=    -3.3783   ZZ=    28.6733
   Eigenvalues:    25.4751    29.3173    32.0997
     12  H    Isotropic =    28.9609   Anisotropy =     4.6951
   XX=    29.0860   YX=    -0.8548   ZX=    -1.6196
   XY=     1.2916   YY=    29.1393   ZY=     1.6667
   XZ=    -2.6593   YZ=     3.3809   ZZ=    28.6573
   Eigenvalues:    25.4681    29.3235    32.0910
     13  H    Isotropic =    29.3516   Anisotropy =     6.2834
   XX=    32.0434   YX=     4.4276   ZX=    -0.0061
   XY=     0.0575   YY=    30.1816   ZY=    -0.0005
   XZ=    -0.0109   YZ=    -0.0062   ZZ=    25.8298
   Eigenvalues:    25.8298    28.6844    33.5406
     14  H    Isotropic =    21.7713   Anisotropy =     8.5248
   XX=    21.4001   YX=     3.7877   ZX=    -0.0015
   XY=     2.7430   YY=    25.6934   ZY=    -0.0007
   XZ=    -0.0017   YZ=    -0.0019   ZZ=    18.2204
   Eigenvalues:    18.2204    19.6390    27.4546
     15  H    Isotropic =    22.1636   Anisotropy =    11.8460
   XX=    20.4109   YX=    -4.2538   ZX=     0.0004
   XY=    -4.3806   YY=    28.1295   ZY=    -0.0011
   XZ=     0.0011   YZ=    -0.0009   ZZ=    17.9503
   Eigenvalues:    17.9503    18.4795    30.0609
     16  H    Isotropic =    22.4783   Anisotropy =    12.0418
   XX=    30.0535   YX=     2.2832   ZX=    -0.0006
   XY=     2.1686   YY=    19.5598   ZY=     0.0007
   XZ=     0.0008   YZ=     0.0020   ZZ=    17.8215
   Eigenvalues:    17.8215    19.1072    30.5062
 End of Minotr F.D. properties file   721 does not exist.
 End of Minotr F.D. properties file   722 does not exist.
 End of Minotr F.D. properties file   788 does not exist.
 Leave Link 1002 at Tue Sep 17 10:22:31 2024, MaxMem=  1342177280 cpu:             434.8 elap:             435.8
 (Enter /groups/ReismanLab/Software/Gaussian16_RevC/Linux_Binary_AVX2-enabled-CPU/g16/l601.exe)
 Copying SCF densities to generalized density rwf, IOpCl= 0 IROHF=0.

 **********************************************************************

            Population analysis using the SCF Density.

 **********************************************************************

 Orbital symmetries:
       Occupied  (A) (A) (A) (A) (A) (A) (A) (A) (A) (A) (A) (A)
                 (A) (A) (A) (A) (A) (A) (A) (A) (A) (A) (A) (A)
                 (A) (A) (A) (A) (A) (A) (A) (A) (A) (A) (A) (A)
                 (A) (A) (A) (A) (A) (A) (A) (A) (A) (A) (A) (A)
                 (A)
       Virtual   (A) (A) (A) (A) (A) (A) (A) (A) (A) (A) (A) (A)
                 (A) (A) (A) (A) (A) (A) (A) (A) (A) (A) (A) (A)
                 (A) (A) (A) (A) (A) (A) (A) (A) (A) (A) (A) (A)
                 (A) (A) (A) (A) (A) (A) (A) (A) (A) (A) (A) (A)
                 (A) (A) (A) (A) (A) (A) (A) (A) (A) (A) (A) (A)
                 (A) (A) (A) (A) (A) (A) (A) (A) (A) (A) (A) (A)
                 (A) (A) (A) (A) (A) (A) (A) (A) (A) (A) (A) (A)
                 (A) (A) (A) (A) (A) (A) (A) (A) (A) (A) (A) (A)
                 (A) (A) (A) (A) (A) (A) (A) (A) (A) (A) (A) (A)
                 (A) (A) (A) (A) (A) (A) (A) (A) (A) (A) (A) (A)
                 (A) (A) (A) (A) (A) (A) (A) (A) (A) (A) (A) (A)
                 (A) (A) (A) (A) (A) (A) (A) (A) (A) (A) (A) (A)
                 (A) (A) (A) (A) (A) (A) (A) (A) (A) (A) (A) (A)
                 (A) (A) (A) (A) (A) (A) (A) (A) (A) (A) (A) (A)
                 (A) (A) (A) (A) (A) (A) (A) (A) (A) (A) (A) (A)
                 (A) (A) (A) (A) (A) (A) (A) (A) (A) (A) (A) (A)
                 (A) (A) (A) (A) (A) (A) (A) (A) (A) (A) (A) (A)
                 (A) (A) (A) (A) (A) (A) (A) (A) (A) (A) (A) (A)
                 (A) (A) (A) (A) (A) (A) (A) (A) (A) (A) (A) (A)
                 (A) (A) (A) (A) (A) (A) (A) (A) (A) (A) (A) (A)
                 (A) (A) (A) (A) (A) (A) (A) (A) (A) (A) (A) (A)
                 (A) (A) (A) (A) (A) (A) (A) (A) (A) (A) (A) (A)
                 (A) (A) (A) (A) (A) (A) (A) (A) (A) (A) (A) (A)
                 (A) (A) (A) (A) (A) (A) (A) (A) (A) (A) (A) (A)
                 (A) (A) (A) (A) (A) (A) (A) (A) (A) (A) (A) (A)
                 (A) (A) (A) (A) (A) (A) (A) (A) (A) (A) (A) (A)
                 (A) (A)
 The electronic state is 1-A.
 Alpha  occ. eigenvalues -- -485.38772 -63.37247 -57.19197 -57.18953 -57.18946
 Alpha  occ. eigenvalues --  -19.63116 -14.77355 -10.64799 -10.61961 -10.60374
 Alpha  occ. eigenvalues --  -10.60028 -10.58318 -10.57673 -10.54534  -9.03891
 Alpha  occ. eigenvalues --   -6.86317  -6.85412  -6.85390  -2.89693  -2.89366
 Alpha  occ. eigenvalues --   -2.89341  -2.88498  -2.88497  -1.17826  -1.07772
 Alpha  occ. eigenvalues --   -0.94994  -0.91575  -0.85495  -0.83502  -0.75100
 Alpha  occ. eigenvalues --   -0.72723  -0.64280  -0.61583  -0.58845  -0.55671
 Alpha  occ. eigenvalues --   -0.53022  -0.51525  -0.50342  -0.49625  -0.49187
 Alpha  occ. eigenvalues --   -0.46801  -0.44680  -0.44185  -0.40693  -0.36837
 Alpha  occ. eigenvalues --   -0.35637  -0.35496  -0.33629  -0.31828
 Alpha virt. eigenvalues --   -0.04687  -0.01493   0.02828   0.05357   0.07076
 Alpha virt. eigenvalues --    0.10684   0.12479   0.12903   0.13095   0.14241
 Alpha virt. eigenvalues --    0.14830   0.16429   0.16555   0.17329   0.20547
 Alpha virt. eigenvalues --    0.21402   0.22381   0.23447   0.23467   0.24750
 Alpha virt. eigenvalues --    0.24951   0.26278   0.26340   0.27188   0.27864
 Alpha virt. eigenvalues --    0.28605   0.30770   0.30935   0.31889   0.33860
 Alpha virt. eigenvalues --    0.34827   0.34945   0.35241   0.37767   0.37794
 Alpha virt. eigenvalues --    0.40003   0.40195   0.40309   0.41615   0.42754
 Alpha virt. eigenvalues --    0.43595   0.43814   0.44893   0.47606   0.48024
 Alpha virt. eigenvalues --    0.48693   0.49231   0.49840   0.50411   0.53251
 Alpha virt. eigenvalues --    0.55187   0.55326   0.55756   0.56693   0.58812
 Alpha virt. eigenvalues --    0.58963   0.61633   0.62451   0.62665   0.64342
 Alpha virt. eigenvalues --    0.65347   0.66078   0.68420   0.69518   0.70388
 Alpha virt. eigenvalues --    0.71341   0.72603   0.75175   0.75691   0.76419
 Alpha virt. eigenvalues --    0.77671   0.80558   0.82011   0.83813   0.86065
 Alpha virt. eigenvalues --    0.87242   0.88933   0.90486   0.92275   0.93023
 Alpha virt. eigenvalues --    0.95908   0.98336   0.98674   1.00071   1.02131
 Alpha virt. eigenvalues --    1.06047   1.06765   1.09351   1.12044   1.12821
 Alpha virt. eigenvalues --    1.13775   1.14401   1.18900   1.21102   1.22188
 Alpha virt. eigenvalues --    1.24257   1.25021   1.26639   1.29202   1.32320
 Alpha virt. eigenvalues --    1.34632   1.35545   1.37332   1.37836   1.39024
 Alpha virt. eigenvalues --    1.39583   1.40728   1.42143   1.45958   1.46931
 Alpha virt. eigenvalues --    1.48020   1.50096   1.52730   1.53964   1.54916
 Alpha virt. eigenvalues --    1.55553   1.55814   1.57140   1.57171   1.57833
 Alpha virt. eigenvalues --    1.59963   1.60742   1.63288   1.64124   1.64200
 Alpha virt. eigenvalues --    1.65799   1.66166   1.67421   1.67624   1.68980
 Alpha virt. eigenvalues --    1.70452   1.72222   1.72458   1.74072   1.76174
 Alpha virt. eigenvalues --    1.78228   1.80465   1.84741   1.85965   1.86570
 Alpha virt. eigenvalues --    1.87288   1.90226   1.93820   1.96093   1.97524
 Alpha virt. eigenvalues --    1.98538   2.00290   2.00827   2.01893   2.03102
 Alpha virt. eigenvalues --    2.05252   2.07906   2.12279   2.14151   2.15591
 Alpha virt. eigenvalues --    2.17422   2.21682   2.25045   2.26900   2.28974
 Alpha virt. eigenvalues --    2.31896   2.35054   2.36380   2.37515   2.39637
 Alpha virt. eigenvalues --    2.39815   2.41045   2.44424   2.49043   2.50192
 Alpha virt. eigenvalues --    2.50905   2.53213   2.54353   2.55536   2.58485
 Alpha virt. eigenvalues --    2.63464   2.64462   2.65405   2.65995   2.69575
 Alpha virt. eigenvalues --    2.69814   2.70322   2.72362   2.74389   2.77466
 Alpha virt. eigenvalues --    2.80097   2.80108   2.84067   2.84582   2.85476
 Alpha virt. eigenvalues --    2.88936   2.90930   2.91141   2.94215   2.94287
 Alpha virt. eigenvalues --    2.95978   2.97862   2.99769   3.02042   3.02695
 Alpha virt. eigenvalues --    3.04777   3.06241   3.06528   3.10130   3.11349
 Alpha virt. eigenvalues --    3.11687   3.12736   3.13667   3.15286   3.17171
 Alpha virt. eigenvalues --    3.18744   3.20372   3.23327   3.24664   3.25704
 Alpha virt. eigenvalues --    3.27214   3.27425   3.28717   3.31122   3.31258
 Alpha virt. eigenvalues --    3.33822   3.34166   3.36356   3.38728   3.39708
 Alpha virt. eigenvalues --    3.40120   3.43138   3.45930   3.46624   3.48121
 Alpha virt. eigenvalues --    3.49170   3.51729   3.54497   3.56772   3.62323
 Alpha virt. eigenvalues --    3.65917   3.69306   3.69497   3.70780   3.73606
 Alpha virt. eigenvalues --    3.79529   3.79889   3.84256   3.85511   3.89764
 Alpha virt. eigenvalues --    3.90580   3.91139   3.97087   4.02926   4.03757
 Alpha virt. eigenvalues --    4.04949   4.07186   4.07322   4.11945   4.13226
 Alpha virt. eigenvalues --    4.13982   4.15636   4.21319   4.26639   4.26669
 Alpha virt. eigenvalues --    4.27730   4.32465   4.34043   4.36956   4.37946
 Alpha virt. eigenvalues --    4.39223   4.42327   4.45521   4.49302   4.49397
 Alpha virt. eigenvalues --    4.53061   4.56026   4.64159   4.67918   4.74895
 Alpha virt. eigenvalues --    4.77785   4.81055   4.88889   4.93358   4.95151
 Alpha virt. eigenvalues --    5.03301   5.05392   5.10500   5.15489   5.17561
 Alpha virt. eigenvalues --    5.20968   5.24127   5.24814   5.27728   5.35928
 Alpha virt. eigenvalues --    5.48708   5.57071   5.58080   5.69916   5.72808
 Alpha virt. eigenvalues --    5.92105   6.07702   6.33251   6.38307   6.54958
 Alpha virt. eigenvalues --    6.60036   6.79584   7.04733   7.06429   7.85128
 Alpha virt. eigenvalues --   22.45085  22.51152  22.77032  22.86119  22.92895
 Alpha virt. eigenvalues --   23.11204  23.33328  32.51564  44.03878
          Condensed to atoms (all electrons):
               1          2          3          4          5          6
     1  C    5.212208   0.327521  -0.079964  -0.152159  -0.001673  -0.002592
     2  C    0.327521   4.828440   0.647425   0.053338  -0.011575   0.002290
     3  O   -0.079964   0.647425   7.869454  -0.193940   0.005235  -0.000394
     4  C   -0.152159   0.053338  -0.193940   5.910005   0.406895  -0.034011
     5  C   -0.001673  -0.011575   0.005235   0.406895   4.915912   0.498290
     6  N   -0.002592   0.002290  -0.000394  -0.034011   0.498290   6.453611
     7  C    0.001070   0.002211   0.000460  -0.041326  -0.114547   0.475330
     8  C   -0.001674   0.004477   0.002672  -0.011781  -0.025545  -0.012281
     9  Br   0.000012  -0.000603   0.000043   0.015635   0.001170   0.007989
    10  C    0.032410  -0.021860   0.044955   0.125293  -0.035238  -0.096455
    11  H    0.400262  -0.039712   0.001745   0.011887  -0.005367   0.000228
    12  H    0.400425  -0.039957   0.001760   0.012002  -0.005392   0.000229
    13  H    0.397455  -0.045108   0.007037   0.017994   0.000270   0.000038
    14  H    0.000048   0.000257  -0.000037  -0.071926   0.437241  -0.025446
    15  H   -0.000009   0.000103  -0.000003  -0.000995   0.005174  -0.030973
    16  H    0.002153  -0.003112   0.021400  -0.053927   0.003815  -0.002345
               7          8          9         10         11         12
     1  C    0.001070  -0.001674   0.000012   0.032410   0.400262   0.400425
     2  C    0.002211   0.004477  -0.000603  -0.021860  -0.039712  -0.039957
     3  O    0.000460   0.002672   0.000043   0.044955   0.001745   0.001760
     4  C   -0.041326  -0.011781   0.015635   0.125293   0.011887   0.012002
     5  C   -0.114547  -0.025545   0.001170  -0.035238  -0.005367  -0.005392
     6  N    0.475330  -0.012281   0.007989  -0.096455   0.000228   0.000229
     7  C    4.937546   0.426137  -0.072088  -0.011578  -0.000137  -0.000137
     8  C    0.426137   4.914566   0.369162   0.392620   0.000060   0.000058
     9  Br  -0.072088   0.369162  34.874935  -0.109059  -0.000000  -0.000000
    10  C   -0.011578   0.392620  -0.109059   5.413648  -0.002420  -0.002418
    11  H   -0.000137   0.000060  -0.000000  -0.002420   0.494700  -0.031566
    12  H   -0.000137   0.000058  -0.000000  -0.002418  -0.031566   0.494829
    13  H   -0.000010   0.000037  -0.000000  -0.001703  -0.011919  -0.011957
    14  H    0.007089  -0.001092   0.000070   0.004361  -0.003580  -0.003586
    15  H    0.436868  -0.067572  -0.000947   0.006513   0.000001   0.000001
    16  H    0.007789  -0.036225  -0.006194   0.422888  -0.000127  -0.000127
              13         14         15         16
     1  C    0.397455   0.000048  -0.000009   0.002153
     2  C   -0.045108   0.000257   0.000103  -0.003112
     3  O    0.007037  -0.000037  -0.000003   0.021400
     4  C    0.017994  -0.071926  -0.000995  -0.053927
     5  C    0.000270   0.437241   0.005174   0.003815
     6  N    0.000038  -0.025446  -0.030973  -0.002345
     7  C   -0.000010   0.007089   0.436868   0.007789
     8  C    0.000037  -0.001092  -0.067572  -0.036225
     9  Br  -0.000000   0.000070  -0.000947  -0.006194
    10  C   -0.001703   0.004361   0.006513   0.422888
    11  H   -0.011919  -0.003580   0.000001  -0.000127
    12  H   -0.011957  -0.003586   0.000001  -0.000127
    13  H    0.475628   0.000392   0.000000  -0.000093
    14  H    0.000392   0.472796  -0.000025  -0.000093
    15  H    0.000000  -0.000025   0.468706  -0.000038
    16  H   -0.000093  -0.000093  -0.000038   0.435664
 Mulliken charges:
               1
     1  C   -0.535492
     2  C    0.295866
     3  O   -0.327850
     4  C    0.007014
     5  C   -0.074666
     6  N   -0.233510
     7  C   -0.054678
     8  C    0.046381
     9  Br  -0.080124
    10  C   -0.161957
    11  H    0.185945
    12  H    0.185835
    13  H    0.171938
    14  H    0.183531
    15  H    0.183196
    16  H    0.208572
 Sum of Mulliken charges =  -0.00000
 Mulliken charges with hydrogens summed into heavy atoms:
               1
     1  C    0.008226
     2  C    0.295866
     3  O   -0.327850
     4  C    0.007014
     5  C    0.108865
     6  N   -0.233510
     7  C    0.128517
     8  C    0.046381
     9  Br  -0.080124
    10  C    0.046615
 Electronic spatial extent (au):  <R**2>=           2559.6617
 Charge=             -0.0000 electrons
 Dipole moment (field-independent basis, Debye):
    X=             -1.5155    Y=              1.5662    Z=              0.0014  Tot=              2.1794
 Quadrupole moment (field-independent basis, Debye-Ang):
   XX=            -60.8451   YY=            -80.3474   ZZ=            -71.2681
   XY=             -6.2360   XZ=             -0.0036   YZ=             -0.0029
 Traceless Quadrupole moment (field-independent basis, Debye-Ang):
   XX=              9.9751   YY=             -9.5272   ZZ=             -0.4479
   XY=             -6.2360   XZ=             -0.0036   YZ=             -0.0029
 Octapole moment (field-independent basis, Debye-Ang**2):
  XXX=             31.4276  YYY=            -24.7276  ZZZ=             -0.0023  XYY=             48.0513
  XXY=             19.4082  XXZ=              0.0076  XZZ=             20.9670  YZZ=             -7.5062
  YYZ=              0.0106  XYZ=              0.0087
 Hexadecapole moment (field-independent basis, Debye-Ang**3):
 XXXX=          -2065.3836 YYYY=           -750.3979 ZZZZ=            -84.4052 XXXY=            -93.1222
 XXXZ=             -0.0082 YYYX=            -47.2136 YYYZ=             -0.0031 ZZZX=              0.0229
 ZZZY=              0.0037 XXYY=           -512.2363 XXZZ=           -393.5434 YYZZ=           -125.5532
 XXYZ=             -0.0364 YYXZ=             -0.0248 ZZXY=             -8.5473
 N-N= 6.986377184321D+02 E-N=-8.481687339841D+03  KE= 2.969082643734D+03
 Calculating spin-rotation constants.
 Leave Link  601 at Tue Sep 17 10:22:33 2024, MaxMem=  1342177280 cpu:               2.2 elap:               2.2
 (Enter /groups/ReismanLab/Software/Gaussian16_RevC/Linux_Binary_AVX2-enabled-CPU/g16/l9999.exe)
 Unable to Open any file for archive entry.
 1\1\GINC-HPC-52-28\SP\RM062X\def2TZVP\C7H6Br1N1O1\MANTIND\17-Sep-2024\
 0\\#p M062X/def2tzvp geom=check guess=read scf(xqc,tight) integral(gri
 d=ultrafine) scrf(SMD, solvent=1,4-Dioxane) nmr=giao\\spe\\0,1\C,0,-4.
 2984146808,0.1131437245,-0.0039947764\C,0,-2.9293132173,0.7601424267,-
 0.0022313284\O,0,-2.7986718591,1.9728412706,-0.0012659711\C,0,-1.71822
 87248,-0.1254665656,-0.0010484865\C,0,-1.7829724944,-1.5236219062,-0.0
 010261574\N,0,-0.7048464584,-2.3163444281,0.0001407985\C,0,0.496913895
 8,-1.734736312,0.0012990841\C,0,0.6607885991,-0.3455320791,0.001380933
 7\Br,0,2.4164725954,0.3916292005,0.0030783566\C,0,-0.4538421894,0.4765
 947624,0.0002429114\H,0,-4.4291040962,-0.5220481866,0.8786787891\H,0,-
 4.4263328349,-0.5238087198,-0.8857679946\H,0,-5.056739644,0.8956410319
 ,-0.0058439558\H,0,-2.7414750743,-2.0350445432,-0.0019422203\H,0,1.365
 3267678,-2.3876469278,0.0022083022\H,0,-0.3793476739,1.5575757703,0.00
 03308487\\Version=ES64L-G16RevC.02\State=1-A\HF=-2974.5152751\RMSD=4.6
 07e-09\Dipole=-0.6036321,-0.608951,-0.0011953\Quadrupole=7.5259904,-7.
 1929982,-0.3329922,4.4600091,0.0107325,0.0017697\PG=C01 [X(C7H6Br1N1O1
 )]\\@
 The archive entry for this job was punched.


 ... IT IS NO ONE DREAME THAT
     CAN PLEASE THESE ALL ...

                -- BEN JONSON
 Job cpu time:       0 days  0 hours  8 minutes  2.1 seconds.
 Elapsed time:       0 days  0 hours  8 minutes  3.9 seconds.
 File lengths (MBytes):  RWF=    232 Int=      0 D2E=      0 Chk=     24 Scr=     16
 Normal termination of Gaussian 16 at Tue Sep 17 10:22:33 2024.
