 Entering Gaussian System, Link 0=g16
 Input=smiles_00067_conf_2.gjf
 Output=smiles_00067_conf_2.log
 Initial command:
 /groups/ReismanLab/Software/Gaussian16_RevC/Linux_Binary_AVX2-enabled-CPU/g16/l1.exe "/central/groups/ReismanLab/DM/dft_final/smiles_00067/Gau-4000275.inp" -scrdir="/central/groups/ReismanLab/DM/dft_final/smiles_00067/"
 Entering Link 1 = /groups/ReismanLab/Software/Gaussian16_RevC/Linux_Binary_AVX2-enabled-CPU/g16/l1.exe PID=   4000278.
  
 Copyright (c) 1988-2021, Gaussian, Inc.  All Rights Reserved.
  
 This is part of the Gaussian(R) 16 program.  It is based on
 the Gaussian(R) 09 system (copyright 2009, Gaussian, Inc.),
 the Gaussian(R) 03 system (copyright 2003, Gaussian, Inc.),
 the Gaussian(R) 98 system (copyright 1998, Gaussian, Inc.),
 the Gaussian(R) 94 system (copyright 1995, Gaussian, Inc.),
 the Gaussian 92(TM) system (copyright 1992, Gaussian, Inc.),
 the Gaussian 90(TM) system (copyright 1990, Gaussian, Inc.),
 the Gaussian 88(TM) system (copyright 1988, Gaussian, Inc.),
 the Gaussian 86(TM) system (copyright 1986, Carnegie Mellon
 University), and the Gaussian 82(TM) system (copyright 1983,
 Carnegie Mellon University). Gaussian is a federally registered
 trademark of Gaussian, Inc.
  
 This software contains proprietary and confidential information,
 including trade secrets, belonging to Gaussian, Inc.
  
 This software is provided under written license and may be
 used, copied, transmitted, or stored only in accord with that
 written license.
  
 The following legend is applicable only to US Government
 contracts under FAR:
  
                    RESTRICTED RIGHTS LEGEND
  
 Use, reproduction and disclosure by the US Government is
 subject to restrictions as set forth in subparagraphs (a)
 and (c) of the Commercial Computer Software - Restricted
 Rights clause in FAR 52.227-19.
  
 Gaussian, Inc.
 340 Quinnipiac St., Bldg. 40, Wallingford CT 06492
  
  
 ---------------------------------------------------------------
 Warning -- This program may not be used in any manner that
 competes with the business of Gaussian, Inc. or will provide
 assistance to any competitor of Gaussian, Inc.  The licensee
 of this program is prohibited from giving any competitor of
 Gaussian, Inc. access to this program.  By using this program,
 the user acknowledges that Gaussian, Inc. is engaged in the
 business of creating and licensing software in the field of
 computational chemistry and represents and warrants to the
 licensee that it is not a competitor of Gaussian, Inc. and that
 it will not use this program in any manner prohibited above.
 ---------------------------------------------------------------
  

 Cite this work as:
 Gaussian 16, Revision C.02,
 M. J. Frisch, G. W. Trucks, H. B. Schlegel, G. E. Scuseria, 
 M. A. Robb, J. R. Cheeseman, G. Scalmani, V. Barone, 
 G. A. Petersson, H. Nakatsuji, X. Li, M. Caricato, A. V. Marenich, 
 J. Bloino, B. G. Janesko, R. Gomperts, B. Mennucci, H. P. Hratchian, 
 J. V. Ortiz, A. F. Izmaylov, J. L. Sonnenberg, D. Williams-Young, 
 F. Ding, F. Lipparini, F. Egidi, J. Goings, B. Peng, A. Petrone, 
 T. Henderson, D. Ranasinghe, V. G. Zakrzewski, J. Gao, N. Rega, 
 G. Zheng, W. Liang, M. Hada, M. Ehara, K. Toyota, R. Fukuda, 
 J. Hasegawa, M. Ishida, T. Nakajima, Y. Honda, O. Kitao, H. Nakai, 
 T. Vreven, K. Throssell, J. A. Montgomery, Jr., J. E. Peralta, 
 F. Ogliaro, M. J. Bearpark, J. J. Heyd, E. N. Brothers, K. N. Kudin, 
 V. N. Staroverov, T. A. Keith, R. Kobayashi, J. Normand, 
 K. Raghavachari, A. P. Rendell, J. C. Burant, S. S. Iyengar, 
 J. Tomasi, M. Cossi, J. M. Millam, M. Klene, C. Adamo, R. Cammi, 
 J. W. Ochterski, R. L. Martin, K. Morokuma, O. Farkas, 
 J. B. Foresman, and D. J. Fox, Gaussian, Inc., Wallingford CT, 2019.
 
 ******************************************
 Gaussian 16:  ES64L-G16RevC.02  7-Dec-2021
                17-Sep-2024 
 ******************************************
 %nprocshared=8
 Will use up to    8 processors via shared memory.
 %Mem=10GB
 %Chk=smiles_00067_conf_2.chk
 ----------------------------------------------------------------------
 #p B3LYP/6-31G(d,p) EmpiricalDispersion=GD3BJ opt freq scf(xqc,tight) 
 integral(grid=ultrafine)
 ----------------------------------------------------------------------
 1/18=20,19=15,26=4,38=1/1,3;
 2/9=110,12=2,17=6,18=5,40=1/2;
 3/5=1,6=6,7=101,11=2,25=1,30=1,71=1,74=-5,75=-5,124=41/1,2,3;
 4//1;
 5/5=2,8=3,13=1,32=2,38=5/2,8;
 6/7=2,8=2,9=2,10=2,28=1/1;
 7//1,2,3,16;
 1/18=20,19=15,26=4/3(2);
 2/9=110/2;
 99//99;
 2/9=110/2;
 3/5=1,6=6,7=101,11=2,25=1,30=1,71=1,74=-5,75=-5,124=41/1,2,3;
 4/5=5,16=3,69=1/1;
 5/5=2,8=3,13=1,32=2,38=5/2,8;
 7//1,2,3,16;
 1/18=20,19=15,26=4/3(-5);
 2/9=110/2;
 6/7=2,8=2,9=2,10=2,19=2,28=1/1;
 99/9=1/99;
 Leave Link    1 at Tue Sep 17 09:50:59 2024, MaxMem=  1342177280 cpu:               0.1 elap:               0.8
 (Enter /groups/ReismanLab/Software/Gaussian16_RevC/Linux_Binary_AVX2-enabled-CPU/g16/l101.exe)
 ----------------------------------
 opt-freq conformers_unique/conf_ac
 ----------------------------------
 Symbolic Z-matrix:
 Charge =  0 Multiplicity = 1
 C                    -4.17468   0.22473   0.53418 
 C                    -2.92846   0.76399  -0.11609 
 O                    -2.87164   1.87221  -0.5914 
 C                    -1.72706  -0.12258  -0.11611 
 C                    -1.77867  -1.50716  -0.27712 
 N                    -0.70457  -2.27371  -0.285 
 C                     0.48324  -1.72373  -0.13747 
 C                     0.647    -0.34903  -0.00735 
 Br                    2.38608   0.39301   0.1661 
 C                    -0.46891   0.46785  -0.00271 
 H                    -5.02915   0.40599  -0.1146 
 H                    -4.34153   0.79078   1.45035 
 H                    -4.10267  -0.8284    0.78058 
 H                    -2.71297  -2.02807  -0.43403 
 H                     1.33018  -2.39575  -0.13126 
 H                    -0.38814   1.54098   0.09103 
 
 ITRead=  0  0  0  0  0  0  0  0  0  0  0  0  0  0  0  0
 MicOpt= -1 -1 -1 -1 -1 -1 -1 -1 -1 -1 -1 -1 -1 -1 -1 -1
 NAtoms=     16 NQM=       16 NQMF=       0 NMMI=      0 NMMIF=      0
                NMic=       0 NMicF=      0.
                    Isotopes and Nuclear Properties:
 (Nuclear quadrupole moments (NQMom) in fm**2, nuclear magnetic moments (NMagM)
  in nuclear magnetons)

  Atom         1           2           3           4           5           6           7           8           9          10
 IAtWgt=          12          12          16          12          12          14          12          12          79          12
 AtmWgt=  12.0000000  12.0000000  15.9949146  12.0000000  12.0000000  14.0030740  12.0000000  12.0000000  78.9183361  12.0000000
 NucSpn=           0           0           0           0           0           2           0           0           3           0
 AtZEff=  -0.0000000  -0.0000000  -0.0000000  -0.0000000  -0.0000000  -0.0000000  -0.0000000  -0.0000000  -0.0000000  -0.0000000
 NQMom=    0.0000000   0.0000000   0.0000000   0.0000000   0.0000000   2.0440000   0.0000000   0.0000000  31.3000000   0.0000000
 NMagM=    0.0000000   0.0000000   0.0000000   0.0000000   0.0000000   0.4037610   0.0000000   0.0000000   2.1063990   0.0000000
 AtZNuc=   6.0000000   6.0000000   8.0000000   6.0000000   6.0000000   7.0000000   6.0000000   6.0000000  35.0000000   6.0000000

  Atom        11          12          13          14          15          16
 IAtWgt=           1           1           1           1           1           1
 AtmWgt=   1.0078250   1.0078250   1.0078250   1.0078250   1.0078250   1.0078250
 NucSpn=           1           1           1           1           1           1
 AtZEff=  -0.0000000  -0.0000000  -0.0000000  -0.0000000  -0.0000000  -0.0000000
 NQMom=    0.0000000   0.0000000   0.0000000   0.0000000   0.0000000   0.0000000
 NMagM=    2.7928460   2.7928460   2.7928460   2.7928460   2.7928460   2.7928460
 AtZNuc=   1.0000000   1.0000000   1.0000000   1.0000000   1.0000000   1.0000000
 Leave Link  101 at Tue Sep 17 09:50:59 2024, MaxMem=  1342177280 cpu:               0.3 elap:               0.4
 (Enter /groups/ReismanLab/Software/Gaussian16_RevC/Linux_Binary_AVX2-enabled-CPU/g16/l103.exe)

 GradGradGradGradGradGradGradGradGradGradGradGradGradGradGradGradGradGrad
 Berny optimization.
 Initialization pass.
                           ----------------------------
                           !    Initial Parameters    !
                           ! (Angstroms and Degrees)  !
 --------------------------                            --------------------------
 ! Name  Definition              Value          Derivative Info.                !
 --------------------------------------------------------------------------------
 ! R1    R(1,2)                  1.5056         estimate D2E/DX2                !
 ! R2    R(1,11)                 1.0881         estimate D2E/DX2                !
 ! R3    R(1,12)                 1.0898         estimate D2E/DX2                !
 ! R4    R(1,13)                 1.084          estimate D2E/DX2                !
 ! R5    R(2,3)                  1.2072         estimate D2E/DX2                !
 ! R6    R(2,4)                  1.4931         estimate D2E/DX2                !
 ! R7    R(4,5)                  1.3949         estimate D2E/DX2                !
 ! R8    R(4,10)                 1.3944         estimate D2E/DX2                !
 ! R9    R(5,6)                  1.3196         estimate D2E/DX2                !
 ! R10   R(5,14)                 1.0811         estimate D2E/DX2                !
 ! R11   R(6,7)                  1.3172         estimate D2E/DX2                !
 ! R12   R(7,8)                  1.3905         estimate D2E/DX2                !
 ! R13   R(7,15)                 1.0812         estimate D2E/DX2                !
 ! R14   R(8,9)                  1.8987         estimate D2E/DX2                !
 ! R15   R(8,10)                 1.383          estimate D2E/DX2                !
 ! R16   R(10,16)                1.0802         estimate D2E/DX2                !
 ! A1    A(2,1,11)             109.4408         estimate D2E/DX2                !
 ! A2    A(2,1,12)             107.6853         estimate D2E/DX2                !
 ! A3    A(2,1,13)             113.0286         estimate D2E/DX2                !
 ! A4    A(11,1,12)            107.1275         estimate D2E/DX2                !
 ! A5    A(11,1,13)            110.4604         estimate D2E/DX2                !
 ! A6    A(12,1,13)            108.8878         estimate D2E/DX2                !
 ! A7    A(1,2,3)              122.5362         estimate D2E/DX2                !
 ! A8    A(1,2,4)              116.9588         estimate D2E/DX2                !
 ! A9    A(3,2,4)              120.4793         estimate D2E/DX2                !
 ! A10   A(2,4,5)              124.0304         estimate D2E/DX2                !
 ! A11   A(2,4,10)             118.332          estimate D2E/DX2                !
 ! A12   A(5,4,10)             117.5851         estimate D2E/DX2                !
 ! A13   A(4,5,6)              123.174          estimate D2E/DX2                !
 ! A14   A(4,5,14)             121.8018         estimate D2E/DX2                !
 ! A15   A(6,5,14)             115.0023         estimate D2E/DX2                !
 ! A16   A(5,6,7)              119.3915         estimate D2E/DX2                !
 ! A17   A(6,7,8)              121.9682         estimate D2E/DX2                !
 ! A18   A(6,7,15)             116.5838         estimate D2E/DX2                !
 ! A19   A(8,7,15)             121.4458         estimate D2E/DX2                !
 ! A20   A(7,8,9)              120.1842         estimate D2E/DX2                !
 ! A21   A(7,8,10)             119.2909         estimate D2E/DX2                !
 ! A22   A(9,8,10)             120.5248         estimate D2E/DX2                !
 ! A23   A(4,10,8)             118.5334         estimate D2E/DX2                !
 ! A24   A(4,10,16)            119.6796         estimate D2E/DX2                !
 ! A25   A(8,10,16)            121.7862         estimate D2E/DX2                !
 ! D1    D(11,1,2,3)            48.2124         estimate D2E/DX2                !
 ! D2    D(11,1,2,4)          -133.6256         estimate D2E/DX2                !
 ! D3    D(12,1,2,3)           -67.9132         estimate D2E/DX2                !
 ! D4    D(12,1,2,4)           110.2488         estimate D2E/DX2                !
 ! D5    D(13,1,2,3)           171.7733         estimate D2E/DX2                !
 ! D6    D(13,1,2,4)           -10.0647         estimate D2E/DX2                !
 ! D7    D(1,2,4,5)             36.9897         estimate D2E/DX2                !
 ! D8    D(1,2,4,10)          -145.7149         estimate D2E/DX2                !
 ! D9    D(3,2,4,5)           -144.8083         estimate D2E/DX2                !
 ! D10   D(3,2,4,10)            32.4871         estimate D2E/DX2                !
 ! D11   D(2,4,5,6)            179.4443         estimate D2E/DX2                !
 ! D12   D(2,4,5,14)             1.2312         estimate D2E/DX2                !
 ! D13   D(10,4,5,6)             2.1303         estimate D2E/DX2                !
 ! D14   D(10,4,5,14)         -176.0829         estimate D2E/DX2                !
 ! D15   D(2,4,10,8)          -179.7599         estimate D2E/DX2                !
 ! D16   D(2,4,10,16)            0.5567         estimate D2E/DX2                !
 ! D17   D(5,4,10,8)            -2.2886         estimate D2E/DX2                !
 ! D18   D(5,4,10,16)          178.0279         estimate D2E/DX2                !
 ! D19   D(4,5,6,7)             -0.1211         estimate D2E/DX2                !
 ! D20   D(14,5,6,7)           178.2034         estimate D2E/DX2                !
 ! D21   D(5,6,7,8)             -1.7058         estimate D2E/DX2                !
 ! D22   D(5,6,7,15)           178.826          estimate D2E/DX2                !
 ! D23   D(6,7,8,9)           -178.7101         estimate D2E/DX2                !
 ! D24   D(6,7,8,10)             1.4401         estimate D2E/DX2                !
 ! D25   D(15,7,8,9)             0.7324         estimate D2E/DX2                !
 ! D26   D(15,7,8,10)         -179.1173         estimate D2E/DX2                !
 ! D27   D(7,8,10,4)             0.6348         estimate D2E/DX2                !
 ! D28   D(7,8,10,16)         -179.6888         estimate D2E/DX2                !
 ! D29   D(9,8,10,4)          -179.2145         estimate D2E/DX2                !
 ! D30   D(9,8,10,16)            0.462          estimate D2E/DX2                !
 --------------------------------------------------------------------------------
 Trust Radius=3.00D-01 FncErr=1.00D-07 GrdErr=1.00D-06 EigMax=2.50D+02 EigMin=1.00D-04
 Number of steps in this run=     81 maximum allowed number of steps=    100.
 GradGradGradGradGradGradGradGradGradGradGradGradGradGradGradGradGradGrad

 Leave Link  103 at Tue Sep 17 09:50:59 2024, MaxMem=  1342177280 cpu:               0.1 elap:               0.0
 (Enter /groups/ReismanLab/Software/Gaussian16_RevC/Linux_Binary_AVX2-enabled-CPU/g16/l202.exe)
                          Input orientation:                          
 ---------------------------------------------------------------------
 Center     Atomic      Atomic             Coordinates (Angstroms)
 Number     Number       Type             X           Y           Z
 ---------------------------------------------------------------------
      1          6           0       -4.174676    0.224726    0.534178
      2          6           0       -2.928457    0.763995   -0.116089
      3          8           0       -2.871645    1.872215   -0.591399
      4          6           0       -1.727062   -0.122579   -0.116109
      5          6           0       -1.778667   -1.507161   -0.277122
      6          7           0       -0.704566   -2.273705   -0.285004
      7          6           0        0.483239   -1.723730   -0.137470
      8          6           0        0.646998   -0.349032   -0.007350
      9         35           0        2.386085    0.393010    0.166104
     10          6           0       -0.468906    0.467846   -0.002711
     11          1           0       -5.029152    0.405992   -0.114600
     12          1           0       -4.341534    0.790785    1.450346
     13          1           0       -4.102673   -0.828398    0.780580
     14          1           0       -2.712966   -2.028071   -0.434032
     15          1           0        1.330185   -2.395748   -0.131256
     16          1           0       -0.388140    1.540982    0.091030
 ---------------------------------------------------------------------
                    Distance matrix (angstroms):
                    1          2          3          4          5
     1  C    0.000000
     2  C    1.505562   0.000000
     3  O    2.383072   1.207186   0.000000
     4  C    2.556229   1.493106   2.348441   0.000000
     5  C    3.065697   2.550706   3.565607   1.394867   0.000000
     6  N    4.353721   3.768534   4.688152   2.387754   1.319601
     7  C    5.093502   4.222429   4.938837   2.729389   2.276537
     8  C    4.885795   3.746270   4.201893   2.387314   2.701460
     9  Br   6.573232   5.334944   5.514126   4.154931   4.599158
    10  C    3.752344   2.479910   2.844637   1.394423   2.385671
    11  H    1.088072   2.130983   2.651789   3.344128   3.775212
    12  H    1.089783   2.109792   2.738391   3.181742   3.851362
    13  H    1.083960   2.172214   3.269720   2.635481   2.642055
    14  H    2.854667   2.818360   3.906683   2.168866   1.081149
    15  H    6.132958   5.302852   6.006880   3.809761   3.236637
    16  H    4.033208   2.664549   2.596771   2.145473   3.370501
                    6          7          8          9         10
     6  N    0.000000
     7  C    1.317239   0.000000
     8  C    2.368160   1.390518   0.000000
     9  Br   4.106944   2.862440   1.898719   0.000000
    10  C    2.766104   2.393270   1.382951   2.860957   0.000000
    11  H    5.090370   5.909543   5.727150   7.420560   4.562038
    12  H    5.062616   5.667660   5.320669   6.860638   4.148844
    13  H    3.843372   4.761829   4.838388   6.631244   3.936757
    14  H    2.028846   3.224329   3.780289   5.676452   3.383998
    15  H    2.044197   1.081186   2.161282   2.996751   3.384290
    16  H    3.846215   3.386718   2.157161   3.003298   1.080246
                   11         12         13         14         15
    11  H    0.000000
    12  H    1.752125   0.000000
    13  H    1.784218   1.768445   0.000000
    14  H    3.375118   3.761524   2.201313   0.000000
    15  H    6.949186   6.695061   5.727475   4.071108   0.000000
    16  H    4.782205   4.247336   4.459507   4.291695   4.301150
                   16
    16  H    0.000000
 Stoichiometry    C7H6BrNO
 Framework group  C1[X(C7H6BrNO)]
 Deg. of freedom    42
 Full point group                 C1      NOp   1
 Largest Abelian subgroup         C1      NOp   1
 Largest concise Abelian subgroup C1      NOp   1
                         Standard orientation:                         
 ---------------------------------------------------------------------
 Center     Atomic      Atomic             Coordinates (Angstroms)
 Number     Number       Type             X           Y           Z
 ---------------------------------------------------------------------
      1          6           0        3.967532   -0.192390    0.627559
      2          6           0        2.750449   -0.732868   -0.074802
      3          8           0        2.730385   -1.823054   -0.592865
      4          6           0        1.529947    0.127212   -0.072685
      5          6           0        1.554679    1.517725   -0.179995
      6          7           0        0.464277    2.260908   -0.186942
      7          6           0       -0.714299    1.680462   -0.091222
      8          6           0       -0.850563    0.298611   -0.017320
      9         35           0       -2.576474   -0.486476    0.082700
     10          6           0        0.282824   -0.493841   -0.014421
     11          1           0        4.841925   -0.330425   -0.005122
     12          1           0        4.123835   -0.789391    1.525773
     13          1           0        3.865854    0.848761    0.911523
     14          1           0        2.480777    2.064080   -0.292778
     15          1           0       -1.575920    2.333518   -0.081736
     16          1           0        0.223692   -1.571257    0.036668
 ---------------------------------------------------------------------
 Rotational constants (GHZ):           2.0666405           0.4715101           0.3929602
 Leave Link  202 at Tue Sep 17 09:51:00 2024, MaxMem=  1342177280 cpu:               0.0 elap:               0.0
 (Enter /groups/ReismanLab/Software/Gaussian16_RevC/Linux_Binary_AVX2-enabled-CPU/g16/l301.exe)
 Standard basis: 6-31G(d,p) (6D, 7F)
 Ernie: Thresh=  0.10000D-02 Tol=  0.10000D-05 Strict=F.
 There are   195 symmetry adapted cartesian basis functions of A   symmetry.
 There are   195 symmetry adapted basis functions of A   symmetry.
   195 basis functions,   377 primitive gaussians,   195 cartesian basis functions
    49 alpha electrons       49 beta electrons
       nuclear repulsion energy       701.8563922819 Hartrees.
 IExCor=  402 DFT=T Ex+Corr=B3LYP ExCW=0 ScaHFX=  0.200000
 ScaDFX=  0.800000  0.720000  1.000000  0.810000 ScalE2=  1.000000  1.000000
 IRadAn=      5 IRanWt=     -1 IRanGd=            0 ICorTp=0 IEmpDi=141
 NAtoms=   16 NActive=   16 NUniq=   16 SFac= 1.00D+00 NAtFMM=   60 NAOKFM=F Big=F
 Integral buffers will be    131072 words long.
 Raffenetti 2 integral format.
 Two-electron integral symmetry is turned on.
 R6Disp:  Grimme-D3(BJ) Dispersion energy=       -0.0325765489 Hartrees.
 Nuclear repulsion after empirical dispersion term =      701.8238157330 Hartrees.
 Leave Link  301 at Tue Sep 17 09:51:00 2024, MaxMem=  1342177280 cpu:               0.1 elap:               0.1
 (Enter /groups/ReismanLab/Software/Gaussian16_RevC/Linux_Binary_AVX2-enabled-CPU/g16/l302.exe)
 NPDir=0 NMtPBC=     1 NCelOv=     1 NCel=       1 NClECP=     1 NCelD=      1
         NCelK=      1 NCelE2=     1 NClLst=     1 CellRange=     0.0.
 One-electron integrals computed using PRISM.
 One-electron integral symmetry used in STVInt
 NBasis=   195 RedAO= T EigKep=  6.73D-04  NBF=   195
 NBsUse=   195 1.00D-06 EigRej= -1.00D+00 NBFU=   195
 Precomputing XC quadrature grid using
 IXCGrd= 4 IRadAn=           5 IRanWt=          -1 IRanGd=           0 AccXCQ= 0.00D+00.
 Generated NRdTot=       0 NPtTot=           0 NUsed=           0 NTot=          32
 NSgBfM=   195   195   195   195   195 MxSgAt=    16 MxSgA2=    16.
 Leave Link  302 at Tue Sep 17 09:51:00 2024, MaxMem=  1342177280 cpu:               0.9 elap:               0.2
 (Enter /groups/ReismanLab/Software/Gaussian16_RevC/Linux_Binary_AVX2-enabled-CPU/g16/l303.exe)
 DipDrv:  MaxL=1.
 Leave Link  303 at Tue Sep 17 09:51:00 2024, MaxMem=  1342177280 cpu:               0.1 elap:               0.1
 (Enter /groups/ReismanLab/Software/Gaussian16_RevC/Linux_Binary_AVX2-enabled-CPU/g16/l401.exe)
 ExpMin= 1.43D-01 ExpMax= 5.74D+05 ExpMxC= 5.74D+03 IAcc=3 IRadAn=         5 AccDes= 0.00D+00
 Harris functional with IExCor=  402 and IRadAn=       5 diagonalized for initial guess.
 HarFok:  IExCor=  402 AccDes= 0.00D+00 IRadAn=         5 IDoV= 1 UseB2=F ITyADJ=14
 ICtDFT=  3500011 ScaDFX=  1.000000  1.000000  1.000000  1.000000
 FoFCou: FMM=F IPFlag=           0 FMFlag=      100000 FMFlg1=           0
         NFxFlg=           0 DoJE=T BraDBF=F KetDBF=T FulRan=T
         wScrn=  0.000000 ICntrl=       500 IOpCl=  0 I1Cent=   200000004 NGrid=           0
         NMat0=    1 NMatS0=      1 NMatT0=    0 NMatD0=    1 NMtDS0=    0 NMtDT0=    0
 Petite list used in FoFCou.
 Harris En= -2972.17309064463    
 JPrj=0 DoOrth=F DoCkMO=F.
 Leave Link  401 at Tue Sep 17 09:51:00 2024, MaxMem=  1342177280 cpu:               4.1 elap:               0.6
 (Enter /groups/ReismanLab/Software/Gaussian16_RevC/Linux_Binary_AVX2-enabled-CPU/g16/l502.exe)
 Integral symmetry usage will be decided dynamically.
 Closed shell SCF:
 Using DIIS extrapolation, IDIIS=  1040.
 NGot=  1342177280 LenX=  1342097209 LenY=  1342058743
 Requested convergence on RMS density matrix=1.00D-08 within  32 cycles.
 Requested convergence on MAX density matrix=1.00D-06.
 Requested convergence on             energy=1.00D-06.
 No special actions if energy rises.
 Fock matrices will be formed incrementally for  20 cycles.
 Integral accuracy reduced to 1.0D-05 until final iterations.

 Cycle   1  Pass 0  IDiag  1:
 FoFJK:  IHMeth= 1 ICntrl=       0 DoSepK=F KAlg= 0 I1Cent=           0 FoldK=F
 IRaf= 880000000 NMat=       1 IRICut=       1 DoRegI=T DoRafI=F ISym2E= 0 IDoP0=0 IntGTp=1.
 FoFCou: FMM=F IPFlag=           0 FMFlag=      100000 FMFlg1=           0
         NFxFlg=           0 DoJE=F BraDBF=F KetDBF=F FulRan=T
         wScrn=  0.000000 ICntrl=         0 IOpCl=  0 I1Cent=           0 NGrid=           0
         NMat0=    1 NMatS0=      1 NMatT0=    0 NMatD0=    1 NMtDS0=    0 NMtDT0=    0
 Symmetry not used in FoFCou.
 E= -2971.87136104060    
 DIIS: error= 1.98D-01 at cycle   1 NSaved=   1.
 NSaved= 1 IEnMin= 1 EnMin= -2971.87136104060     IErMin= 1 ErrMin= 1.98D-01
 ErrMax= 1.98D-01  0.00D+00 EMaxC= 1.00D-01 BMatC= 5.63D-01 BMatP= 5.63D-01
 IDIUse=3 WtCom= 0.00D+00 WtEn= 1.00D+00
 Coeff-Com:  0.100D+01
 Coeff-En:   0.100D+01
 Coeff:      0.100D+01
 Gap=     0.236 Goal=   None    Shift=    0.000
 GapD=    0.236 DampG=1.000 DampE=0.250 DampFc=0.2500 IDamp=-1.
 Damping current iteration by 2.50D-01
 RMSDP=5.99D-03 MaxDP=1.69D-01              OVMax= 2.10D-01

 Cycle   2  Pass 0  IDiag  1:
 RMSU=  1.46D-03    CP:  9.93D-01
 E= -2971.94084475116     Delta-E=       -0.069483710555 Rises=F Damp=T
 DIIS: error= 1.46D-01 at cycle   2 NSaved=   2.
 NSaved= 2 IEnMin= 2 EnMin= -2971.94084475116     IErMin= 2 ErrMin= 1.46D-01
 ErrMax= 1.46D-01  0.00D+00 EMaxC= 1.00D-01 BMatC= 2.42D-01 BMatP= 5.63D-01
 IDIUse=3 WtCom= 0.00D+00 WtEn= 1.00D+00
 Coeff-Com: -0.125D+01 0.225D+01
 Coeff-En:   0.000D+00 0.100D+01
 Coeff:      0.000D+00 0.100D+01
 Gap=     0.174 Goal=   None    Shift=    0.000
 RMSDP=2.90D-03 MaxDP=1.10D-01 DE=-6.95D-02 OVMax= 8.92D-02

 Cycle   3  Pass 0  IDiag  1:
 RMSU=  1.27D-03    CP:  9.70D-01  2.64D+00
 E= -2972.03031737176     Delta-E=       -0.089472620599 Rises=F Damp=F
 DIIS: error= 1.02D-02 at cycle   3 NSaved=   3.
 NSaved= 3 IEnMin= 3 EnMin= -2972.03031737176     IErMin= 3 ErrMin= 1.02D-02
 ErrMax= 1.02D-02  0.00D+00 EMaxC= 1.00D-01 BMatC= 4.19D-02 BMatP= 2.42D-01
 IDIUse=3 WtCom= 8.98D-01 WtEn= 1.02D-01
 Coeff-Com:  0.809D+00-0.938D+00 0.113D+01
 Coeff-En:   0.950D-01 0.000D+00 0.905D+00
 Coeff:      0.737D+00-0.843D+00 0.111D+01
 Gap=     0.182 Goal=   None    Shift=    0.000
 RMSDP=1.64D-03 MaxDP=4.96D-02 DE=-8.95D-02 OVMax= 5.09D-02

 Cycle   4  Pass 0  IDiag  1:
 RMSU=  1.23D-03    CP:  9.71D-01  1.91D+00  8.65D-01
 E= -2972.05135017086     Delta-E=       -0.021032799104 Rises=F Damp=F
 DIIS: error= 7.84D-03 at cycle   4 NSaved=   4.
 NSaved= 4 IEnMin= 4 EnMin= -2972.05135017086     IErMin= 4 ErrMin= 7.84D-03
 ErrMax= 7.84D-03  0.00D+00 EMaxC= 1.00D-01 BMatC= 1.81D-02 BMatP= 4.19D-02
 IDIUse=3 WtCom= 9.22D-01 WtEn= 7.84D-02
 Coeff-Com:  0.636D+00-0.827D+00 0.721D+00 0.470D+00
 Coeff-En:   0.000D+00 0.000D+00 0.266D+00 0.734D+00
 Coeff:      0.586D+00-0.762D+00 0.685D+00 0.491D+00
 Gap=     0.193 Goal=   None    Shift=    0.000
 RMSDP=8.37D-04 MaxDP=1.96D-02 DE=-2.10D-02 OVMax= 3.67D-02

 Cycle   5  Pass 0  IDiag  1:
 RMSU=  1.91D-04    CP:  9.71D-01  1.96D+00  1.08D+00  3.79D-01
 E= -2972.06878734048     Delta-E=       -0.017437169618 Rises=F Damp=F
 DIIS: error= 1.05D-03 at cycle   5 NSaved=   5.
 NSaved= 5 IEnMin= 5 EnMin= -2972.06878734048     IErMin= 5 ErrMin= 1.05D-03
 ErrMax= 1.05D-03  0.00D+00 EMaxC= 1.00D-01 BMatC= 4.31D-04 BMatP= 1.81D-02
 IDIUse=3 WtCom= 9.90D-01 WtEn= 1.05D-02
 Coeff-Com:  0.215D+00-0.280D+00 0.263D+00 0.228D+00 0.574D+00
 Coeff-En:   0.000D+00 0.000D+00 0.000D+00 0.000D+00 0.100D+01
 Coeff:      0.212D+00-0.277D+00 0.260D+00 0.226D+00 0.579D+00
 Gap=     0.188 Goal=   None    Shift=    0.000
 RMSDP=1.48D-04 MaxDP=3.96D-03 DE=-1.74D-02 OVMax= 6.67D-03

 Cycle   6  Pass 0  IDiag  1:
 RMSU=  6.15D-05    CP:  9.71D-01  1.98D+00  1.06D+00  4.57D-01  5.36D-01
 E= -2972.06914741704     Delta-E=       -0.000360076559 Rises=F Damp=F
 DIIS: error= 3.27D-04 at cycle   6 NSaved=   6.
 NSaved= 6 IEnMin= 6 EnMin= -2972.06914741704     IErMin= 6 ErrMin= 3.27D-04
 ErrMax= 3.27D-04  0.00D+00 EMaxC= 1.00D-01 BMatC= 4.26D-05 BMatP= 4.31D-04
 IDIUse=3 WtCom= 9.97D-01 WtEn= 3.27D-03
 Coeff-Com:  0.587D-01-0.768D-01 0.752D-01 0.760D-01 0.323D+00 0.544D+00
 Coeff-En:   0.000D+00 0.000D+00 0.000D+00 0.000D+00 0.444D-01 0.956D+00
 Coeff:      0.585D-01-0.766D-01 0.749D-01 0.758D-01 0.322D+00 0.545D+00
 Gap=     0.188 Goal=   None    Shift=    0.000
 RMSDP=3.66D-05 MaxDP=1.56D-03 DE=-3.60D-04 OVMax= 2.17D-03

 Cycle   7  Pass 0  IDiag  1:
 RMSU=  1.77D-05    CP:  9.71D-01  1.98D+00  1.07D+00  4.49D-01  6.04D-01
                    CP:  5.59D-01
 E= -2972.06918655629     Delta-E=       -0.000039139249 Rises=F Damp=F
 DIIS: error= 7.45D-05 at cycle   7 NSaved=   7.
 NSaved= 7 IEnMin= 7 EnMin= -2972.06918655629     IErMin= 7 ErrMin= 7.45D-05
 ErrMax= 7.45D-05  0.00D+00 EMaxC= 1.00D-01 BMatC= 1.94D-06 BMatP= 4.26D-05
 IDIUse=1 WtCom= 1.00D+00 WtEn= 0.00D+00
 Coeff-Com:  0.158D-01-0.209D-01 0.210D-01 0.228D-01 0.121D+00 0.265D+00
 Coeff-Com:  0.575D+00
 Coeff:      0.158D-01-0.209D-01 0.210D-01 0.228D-01 0.121D+00 0.265D+00
 Coeff:      0.575D+00
 Gap=     0.188 Goal=   None    Shift=    0.000
 RMSDP=1.11D-05 MaxDP=3.41D-04 DE=-3.91D-05 OVMax= 6.63D-04

 Cycle   8  Pass 0  IDiag  1:
 RMSU=  7.96D-06    CP:  9.71D-01  1.98D+00  1.07D+00  4.48D-01  6.07D-01
                    CP:  5.98D-01  5.92D-01
 E= -2972.06918795001     Delta-E=       -0.000001393721 Rises=F Damp=F
 DIIS: error= 3.70D-05 at cycle   8 NSaved=   8.
 NSaved= 8 IEnMin= 8 EnMin= -2972.06918795001     IErMin= 8 ErrMin= 3.70D-05
 ErrMax= 3.70D-05  0.00D+00 EMaxC= 1.00D-01 BMatC= 4.34D-07 BMatP= 1.94D-06
 IDIUse=1 WtCom= 1.00D+00 WtEn= 0.00D+00
 Coeff-Com:  0.382D-02-0.507D-02 0.528D-02 0.581D-02 0.379D-01 0.102D+00
 Coeff-Com:  0.362D+00 0.488D+00
 Coeff:      0.382D-02-0.507D-02 0.528D-02 0.581D-02 0.379D-01 0.102D+00
 Coeff:      0.362D+00 0.488D+00
 Gap=     0.188 Goal=   None    Shift=    0.000
 RMSDP=4.49D-06 MaxDP=1.37D-04 DE=-1.39D-06 OVMax= 2.68D-04

 Initial convergence to 1.0D-05 achieved.  Increase integral accuracy.
 Cycle   9  Pass 1  IDiag  1:
 E= -2972.06916996508     Delta-E=        0.000017984929 Rises=F Damp=F
 DIIS: error= 3.92D-05 at cycle   1 NSaved=   1.
 NSaved= 1 IEnMin= 1 EnMin= -2972.06916996508     IErMin= 1 ErrMin= 3.92D-05
 ErrMax= 3.92D-05  0.00D+00 EMaxC= 1.00D-01 BMatC= 1.32D-07 BMatP= 1.32D-07
 IDIUse=1 WtCom= 1.00D+00 WtEn= 0.00D+00
 Coeff-Com:  0.100D+01
 Coeff:      0.100D+01
 Gap=     0.188 Goal=   None    Shift=    0.000
 RMSDP=4.49D-06 MaxDP=1.37D-04 DE= 1.80D-05 OVMax= 1.32D-04

 Cycle  10  Pass 1  IDiag  1:
 RMSU=  1.02D-05    CP:  1.00D+00
 E= -2972.06916998946     Delta-E=       -0.000000024384 Rises=F Damp=F
 DIIS: error= 1.38D-05 at cycle   2 NSaved=   2.
 NSaved= 2 IEnMin= 2 EnMin= -2972.06916998946     IErMin= 2 ErrMin= 1.38D-05
 ErrMax= 1.38D-05  0.00D+00 EMaxC= 1.00D-01 BMatC= 6.34D-08 BMatP= 1.32D-07
 IDIUse=1 WtCom= 1.00D+00 WtEn= 0.00D+00
 Coeff-Com:  0.370D+00 0.630D+00
 Coeff:      0.370D+00 0.630D+00
 Gap=     0.188 Goal=   None    Shift=    0.000
 RMSDP=2.38D-06 MaxDP=8.85D-05 DE=-2.44D-08 OVMax= 1.59D-04

 Cycle  11  Pass 1  IDiag  1:
 RMSU=  2.36D-06    CP:  1.00D+00  9.71D-01
 E= -2972.06917000644     Delta-E=       -0.000000016981 Rises=F Damp=F
 DIIS: error= 1.39D-05 at cycle   3 NSaved=   3.
 NSaved= 3 IEnMin= 3 EnMin= -2972.06917000644     IErMin= 2 ErrMin= 1.38D-05
 ErrMax= 1.39D-05  0.00D+00 EMaxC= 1.00D-01 BMatC= 4.49D-08 BMatP= 6.34D-08
 IDIUse=1 WtCom= 1.00D+00 WtEn= 0.00D+00
 Coeff-Com:  0.153D-01 0.454D+00 0.531D+00
 Coeff:      0.153D-01 0.454D+00 0.531D+00
 Gap=     0.188 Goal=   None    Shift=    0.000
 RMSDP=1.24D-06 MaxDP=3.99D-05 DE=-1.70D-08 OVMax= 8.00D-05

 Cycle  12  Pass 1  IDiag  1:
 RMSU=  3.69D-07    CP:  1.00D+00  9.96D-01  5.12D-01
 E= -2972.06917005300     Delta-E=       -0.000000046556 Rises=F Damp=F
 DIIS: error= 2.48D-06 at cycle   4 NSaved=   4.
 NSaved= 4 IEnMin= 4 EnMin= -2972.06917005300     IErMin= 4 ErrMin= 2.48D-06
 ErrMax= 2.48D-06  0.00D+00 EMaxC= 1.00D-01 BMatC= 1.56D-09 BMatP= 4.49D-08
 IDIUse=1 WtCom= 1.00D+00 WtEn= 0.00D+00
 Coeff-Com: -0.143D-02 0.255D+00 0.320D+00 0.426D+00
 Coeff:     -0.143D-02 0.255D+00 0.320D+00 0.426D+00
 Gap=     0.188 Goal=   None    Shift=    0.000
 RMSDP=2.10D-07 MaxDP=8.11D-06 DE=-4.66D-08 OVMax= 1.07D-05

 Cycle  13  Pass 1  IDiag  1:
 RMSU=  8.62D-08    CP:  1.00D+00  9.97D-01  5.45D-01  5.29D-01
 E= -2972.06917005447     Delta-E=       -0.000000001476 Rises=F Damp=F
 DIIS: error= 4.97D-07 at cycle   5 NSaved=   5.
 NSaved= 5 IEnMin= 5 EnMin= -2972.06917005447     IErMin= 5 ErrMin= 4.97D-07
 ErrMax= 4.97D-07  0.00D+00 EMaxC= 1.00D-01 BMatC= 7.04D-11 BMatP= 1.56D-09
 IDIUse=1 WtCom= 1.00D+00 WtEn= 0.00D+00
 Coeff-Com: -0.165D-02 0.132D+00 0.170D+00 0.258D+00 0.442D+00
 Coeff:     -0.165D-02 0.132D+00 0.170D+00 0.258D+00 0.442D+00
 Gap=     0.188 Goal=   None    Shift=    0.000
 RMSDP=4.97D-08 MaxDP=2.02D-06 DE=-1.48D-09 OVMax= 2.88D-06

 Cycle  14  Pass 1  IDiag  1:
 RMSU=  3.31D-08    CP:  1.00D+00  9.97D-01  5.45D-01  5.16D-01  5.83D-01
 E= -2972.06917005449     Delta-E=       -0.000000000020 Rises=F Damp=F
 DIIS: error= 1.25D-07 at cycle   6 NSaved=   6.
 NSaved= 6 IEnMin= 6 EnMin= -2972.06917005449     IErMin= 6 ErrMin= 1.25D-07
 ErrMax= 1.25D-07  0.00D+00 EMaxC= 1.00D-01 BMatC= 5.25D-12 BMatP= 7.04D-11
 IDIUse=1 WtCom= 1.00D+00 WtEn= 0.00D+00
 Coeff-Com: -0.886D-03 0.598D-01 0.771D-01 0.122D+00 0.270D+00 0.472D+00
 Coeff:     -0.886D-03 0.598D-01 0.771D-01 0.122D+00 0.270D+00 0.472D+00
 Gap=     0.188 Goal=   None    Shift=    0.000
 RMSDP=1.34D-08 MaxDP=4.71D-07 DE=-2.05D-11 OVMax= 6.56D-07

 Cycle  15  Pass 1  IDiag  1:
 RMSU=  1.02D-08    CP:  1.00D+00  9.97D-01  5.44D-01  5.18D-01  6.12D-01
                    CP:  7.50D-01
 E= -2972.06917005450     Delta-E=       -0.000000000003 Rises=F Damp=F
 DIIS: error= 2.36D-08 at cycle   7 NSaved=   7.
 NSaved= 7 IEnMin= 7 EnMin= -2972.06917005450     IErMin= 7 ErrMin= 2.36D-08
 ErrMax= 2.36D-08  0.00D+00 EMaxC= 1.00D-01 BMatC= 2.82D-13 BMatP= 5.25D-12
 IDIUse=1 WtCom= 1.00D+00 WtEn= 0.00D+00
 Coeff-Com: -0.141D-03 0.671D-02 0.901D-02 0.158D-01 0.555D-01 0.217D+00
 Coeff-Com:  0.697D+00
 Coeff:     -0.141D-03 0.671D-02 0.901D-02 0.158D-01 0.555D-01 0.217D+00
 Coeff:      0.697D+00
 Gap=     0.188 Goal=   None    Shift=    0.000
 RMSDP=3.81D-09 MaxDP=1.19D-07 DE=-3.18D-12 OVMax= 1.86D-07

 SCF Done:  E(RB3LYP) =  -2972.06917005     A.U. after   15 cycles
            NFock= 15  Conv=0.38D-08     -V/T= 2.0065
 KE= 2.952905650279D+03 PE=-8.467818843580D+03 EE= 1.841020207513D+03
 Leave Link  502 at Tue Sep 17 09:51:10 2024, MaxMem=  1342177280 cpu:              70.5 elap:               9.9
 (Enter /groups/ReismanLab/Software/Gaussian16_RevC/Linux_Binary_AVX2-enabled-CPU/g16/l508.exe)
 QCSCF skips out because SCF is already converged.
 Leave Link  508 at Tue Sep 17 09:51:10 2024, MaxMem=  1342177280 cpu:               0.0 elap:               0.0
 (Enter /groups/ReismanLab/Software/Gaussian16_RevC/Linux_Binary_AVX2-enabled-CPU/g16/l601.exe)
 Copying SCF densities to generalized density rwf, IOpCl= 0 IROHF=0.

 **********************************************************************

            Population analysis using the SCF Density.

 **********************************************************************

 Orbital symmetries:
       Occupied  (A) (A) (A) (A) (A) (A) (A) (A) (A) (A) (A) (A)
                 (A) (A) (A) (A) (A) (A) (A) (A) (A) (A) (A) (A)
                 (A) (A) (A) (A) (A) (A) (A) (A) (A) (A) (A) (A)
                 (A) (A) (A) (A) (A) (A) (A) (A) (A) (A) (A) (A)
                 (A)
       Virtual   (A) (A) (A) (A) (A) (A) (A) (A) (A) (A) (A) (A)
                 (A) (A) (A) (A) (A) (A) (A) (A) (A) (A) (A) (A)
                 (A) (A) (A) (A) (A) (A) (A) (A) (A) (A) (A) (A)
                 (A) (A) (A) (A) (A) (A) (A) (A) (A) (A) (A) (A)
                 (A) (A) (A) (A) (A) (A) (A) (A) (A) (A) (A) (A)
                 (A) (A) (A) (A) (A) (A) (A) (A) (A) (A) (A) (A)
                 (A) (A) (A) (A) (A) (A) (A) (A) (A) (A) (A) (A)
                 (A) (A) (A) (A) (A) (A) (A) (A) (A) (A) (A) (A)
                 (A) (A) (A) (A) (A) (A) (A) (A) (A) (A) (A) (A)
                 (A) (A) (A) (A) (A) (A) (A) (A) (A) (A) (A) (A)
                 (A) (A) (A) (A) (A) (A) (A) (A) (A) (A) (A) (A)
                 (A) (A) (A) (A) (A) (A) (A) (A) (A) (A) (A) (A)
                 (A) (A)
 The electronic state is 1-A.
 Alpha  occ. eigenvalues -- -482.92513 -61.88684 -56.40826 -56.40403 -56.40396
 Alpha  occ. eigenvalues --  -19.15191 -14.35106 -10.29228 -10.26480 -10.24731
 Alpha  occ. eigenvalues --  -10.24550 -10.23079 -10.22359 -10.20015  -8.59830
 Alpha  occ. eigenvalues --   -6.55244  -6.53946  -6.53911  -2.66814  -2.66444
 Alpha  occ. eigenvalues --   -2.66418  -2.65382  -2.65382  -1.05955  -0.97546
 Alpha  occ. eigenvalues --   -0.85281  -0.82087  -0.76486  -0.74845  -0.66854
 Alpha  occ. eigenvalues --   -0.64577  -0.56622  -0.53957  -0.52129  -0.48242
 Alpha  occ. eigenvalues --   -0.46027  -0.44579  -0.44104  -0.43001  -0.42483
 Alpha  occ. eigenvalues --   -0.40971  -0.39235  -0.37031  -0.34292  -0.30300
 Alpha  occ. eigenvalues --   -0.30122  -0.27972  -0.26412  -0.25830
 Alpha virt. eigenvalues --   -0.07038  -0.04141  -0.00427   0.01167   0.09454
 Alpha virt. eigenvalues --    0.12127   0.13144   0.14444   0.15021   0.16546
 Alpha virt. eigenvalues --    0.18008   0.20771   0.21583   0.23668   0.27443
 Alpha virt. eigenvalues --    0.29300   0.30659   0.32855   0.37224   0.38922
 Alpha virt. eigenvalues --    0.42103   0.45000   0.45079   0.45824   0.47034
 Alpha virt. eigenvalues --    0.47195   0.48129   0.50125   0.51868   0.54334
 Alpha virt. eigenvalues --    0.55844   0.56286   0.57233   0.57980   0.60746
 Alpha virt. eigenvalues --    0.61327   0.63304   0.64288   0.65894   0.69480
 Alpha virt. eigenvalues --    0.70380   0.72039   0.73334   0.74426   0.76756
 Alpha virt. eigenvalues --    0.78527   0.81197   0.82012   0.83157   0.85172
 Alpha virt. eigenvalues --    0.85538   0.86348   0.88488   0.89472   0.92002
 Alpha virt. eigenvalues --    0.95650   0.96504   0.97890   1.02700   1.05879
 Alpha virt. eigenvalues --    1.07725   1.12362   1.14689   1.17208   1.19659
 Alpha virt. eigenvalues --    1.23291   1.24382   1.30992   1.34872   1.36312
 Alpha virt. eigenvalues --    1.38237   1.39704   1.42074   1.44984   1.46563
 Alpha virt. eigenvalues --    1.52630   1.56599   1.58920   1.67464   1.68812
 Alpha virt. eigenvalues --    1.69780   1.72610   1.76844   1.78473   1.80153
 Alpha virt. eigenvalues --    1.83356   1.86094   1.88839   1.93120   1.96685
 Alpha virt. eigenvalues --    1.98337   2.00738   2.01739   2.03276   2.07040
 Alpha virt. eigenvalues --    2.07303   2.08635   2.11582   2.13182   2.16816
 Alpha virt. eigenvalues --    2.22428   2.24139   2.29306   2.31241   2.34538
 Alpha virt. eigenvalues --    2.35767   2.37992   2.41978   2.47321   2.50200
 Alpha virt. eigenvalues --    2.52884   2.54131   2.57938   2.61075   2.61563
 Alpha virt. eigenvalues --    2.63639   2.66120   2.67163   2.69727   2.71733
 Alpha virt. eigenvalues --    2.76843   2.85249   2.88357   2.91882   2.99463
 Alpha virt. eigenvalues --    3.00066   3.03657   3.18849   3.20404   3.27770
 Alpha virt. eigenvalues --    3.37720   3.39636   3.42275   3.44951   3.69449
 Alpha virt. eigenvalues --    3.97495   4.04405   4.12166   4.18546   4.28133
 Alpha virt. eigenvalues --    4.35525   4.39084   4.54929   4.70349   8.59282
 Alpha virt. eigenvalues --   72.79716
          Condensed to atoms (all electrons):
               1          2          3          4          5          6
     1  C    5.171581   0.328856  -0.083526  -0.121087  -0.006383  -0.000128
     2  C    0.328856   4.587280   0.576767   0.260238  -0.024665   0.004644
     3  O   -0.083526   0.576767   8.010004  -0.091368   0.001408  -0.000042
     4  C   -0.121087   0.260238  -0.091368   5.160310   0.463926  -0.012941
     5  C   -0.006383  -0.024665   0.001408   0.463926   4.795521   0.465081
     6  N   -0.000128   0.004644  -0.000042  -0.012941   0.465081   6.675639
     7  C   -0.000004   0.000381  -0.000009  -0.033690  -0.083821   0.465463
     8  C   -0.000154   0.008307   0.000780  -0.014062  -0.037261  -0.017169
     9  Br   0.000002  -0.000095   0.000000   0.006067   0.000369   0.004632
    10  C    0.008432  -0.039146   0.004075   0.464625  -0.054432  -0.060393
    11  H    0.365390  -0.019237   0.000878   0.003769   0.000248   0.000005
    12  H    0.371678  -0.020723  -0.001226   0.003263  -0.000082  -0.000003
    13  H    0.353384  -0.021520   0.003775   0.002402   0.001757   0.000052
    14  H    0.002075  -0.001406  -0.000038  -0.066458   0.387592  -0.048080
    15  H   -0.000000   0.000016  -0.000000   0.000456   0.004640  -0.049097
    16  H    0.000835  -0.008191   0.010435  -0.048646   0.005395  -0.000503
               7          8          9         10         11         12
     1  C   -0.000004  -0.000154   0.000002   0.008432   0.365390   0.371678
     2  C    0.000381   0.008307  -0.000095  -0.039146  -0.019237  -0.020723
     3  O   -0.000009   0.000780   0.000000   0.004075   0.000878  -0.001226
     4  C   -0.033690  -0.014062   0.006067   0.464625   0.003769   0.003263
     5  C   -0.083821  -0.037261   0.000369  -0.054432   0.000248  -0.000082
     6  N    0.465463  -0.017169   0.004632  -0.060393   0.000005  -0.000003
     7  C    4.772665   0.462244  -0.050654  -0.043248  -0.000000   0.000001
     8  C    0.462244   4.963664   0.250135   0.467839   0.000004   0.000003
     9  Br  -0.050654   0.250135  34.955991  -0.061584  -0.000000  -0.000000
    10  C   -0.043248   0.467839  -0.061584   4.981429  -0.000106  -0.000381
    11  H   -0.000000   0.000004  -0.000000  -0.000106   0.544336  -0.018793
    12  H    0.000001   0.000003  -0.000000  -0.000381  -0.018793   0.537273
    13  H    0.000006  -0.000030   0.000000  -0.000197  -0.025608  -0.024694
    14  H    0.004899   0.000507   0.000017   0.003539  -0.000070  -0.000095
    15  H    0.392086  -0.065875   0.002050   0.003287   0.000000  -0.000000
    16  H    0.004778  -0.045013  -0.003031   0.380372  -0.000011  -0.000050
              13         14         15         16
     1  C    0.353384   0.002075  -0.000000   0.000835
     2  C   -0.021520  -0.001406   0.000016  -0.008191
     3  O    0.003775  -0.000038  -0.000000   0.010435
     4  C    0.002402  -0.066458   0.000456  -0.048646
     5  C    0.001757   0.387592   0.004640   0.005395
     6  N    0.000052  -0.048080  -0.049097  -0.000503
     7  C    0.000006   0.004899   0.392086   0.004778
     8  C   -0.000030   0.000507  -0.065875  -0.045013
     9  Br   0.000000   0.000017   0.002050  -0.003031
    10  C   -0.000197   0.003539   0.003287   0.380372
    11  H   -0.025608  -0.000070   0.000000  -0.000011
    12  H   -0.024694  -0.000095  -0.000000  -0.000050
    13  H    0.590107   0.002809   0.000000  -0.000037
    14  H    0.002809   0.603130  -0.000177  -0.000154
    15  H    0.000000  -0.000177   0.586567  -0.000151
    16  H   -0.000037  -0.000154  -0.000151   0.562238
 Mulliken charges:
               1
     1  C   -0.390952
     2  C    0.368493
     3  O   -0.431914
     4  C    0.023196
     5  C    0.080706
     6  N   -0.427162
     7  C    0.108906
     8  C    0.026081
     9  Br  -0.103900
    10  C   -0.054114
    11  H    0.149196
    12  H    0.153829
    13  H    0.117792
    14  H    0.111912
    15  H    0.126198
    16  H    0.141735
 Sum of Mulliken charges =  -0.00000
 Mulliken charges with hydrogens summed into heavy atoms:
               1
     1  C    0.029864
     2  C    0.368493
     3  O   -0.431914
     4  C    0.023196
     5  C    0.192618
     6  N   -0.427162
     7  C    0.235104
     8  C    0.026081
     9  Br  -0.103900
    10  C    0.087621
 Electronic spatial extent (au):  <R**2>=           2525.1569
 Charge=             -0.0000 electrons
 Dipole moment (field-independent basis, Debye):
    X=              1.0820    Y=              0.9051    Z=              1.2920  Tot=              1.9129
 Quadrupole moment (field-independent basis, Debye-Ang):
   XX=            -62.1976   YY=            -76.5928   ZZ=            -70.0094
   XY=              4.4436   XZ=              3.6224   YZ=             -2.2829
 Traceless Quadrupole moment (field-independent basis, Debye-Ang):
   XX=              7.4023   YY=             -6.9929   ZZ=             -0.4094
   XY=              4.4436   XZ=              3.6224   YZ=             -2.2829
 Octapole moment (field-independent basis, Debye-Ang**2):
  XXX=            -44.0932  YYY=            -27.5448  ZZZ=              1.8152  XYY=            -42.0873
  XXY=             11.3745  XXZ=             10.5610  XZZ=            -21.1818  YZZ=             -7.3374
  YYZ=              6.3815  XYZ=             -7.0654
 Hexadecapole moment (field-independent basis, Debye-Ang**3):
 XXXX=          -2019.1462 YYYY=           -683.5203 ZZZZ=           -109.4139 XXXY=             78.7649
 XXXZ=             14.3899 YYYX=             39.1027 YYYZ=             -2.0307 ZZZX=             -7.0661
 ZZZY=              0.2937 XXYY=           -484.9380 XXZZ=           -382.1520 YYZZ=           -123.6584
 XXYZ=            -22.6971 YYXZ=              9.5393 ZZXY=              5.9020
 N-N= 7.018238157330D+02 E-N=-8.467818846026D+03  KE= 2.952905650279D+03
 No NMR shielding tensors so no spin-rotation constants.
 Leave Link  601 at Tue Sep 17 09:51:10 2024, MaxMem=  1342177280 cpu:               0.7 elap:               0.1
 (Enter /groups/ReismanLab/Software/Gaussian16_RevC/Linux_Binary_AVX2-enabled-CPU/g16/l701.exe)
 ... and contract with generalized density number  0.
 Compute integral first derivatives.
 R6Disp: Adding Grimme-D3(BJ) dispersion energy 1st derivatives to the gradient.
 Leave Link  701 at Tue Sep 17 09:51:11 2024, MaxMem=  1342177280 cpu:               0.6 elap:               0.1
 (Enter /groups/ReismanLab/Software/Gaussian16_RevC/Linux_Binary_AVX2-enabled-CPU/g16/l702.exe)
 L702 exits ... SP integral derivatives will be done elsewhere.
 Leave Link  702 at Tue Sep 17 09:51:11 2024, MaxMem=  1342177280 cpu:               0.0 elap:               0.0
 (Enter /groups/ReismanLab/Software/Gaussian16_RevC/Linux_Binary_AVX2-enabled-CPU/g16/l703.exe)
 Integral derivatives from FoFJK, PRISM(SPDF).
 Compute integral first derivatives, UseDBF=F ICtDFT=           0.
 Calling FoFJK, ICntrl=      2127 FMM=F ISym2X=0 I1Cent= 0 IOpClX= 0 NMat=1 NMatS=1 NMatT=0.
 FoFJK:  IHMeth= 1 ICntrl=    2127 DoSepK=F KAlg= 0 I1Cent=           0 FoldK=F
 IRaf=         0 NMat=       1 IRICut=       1 DoRegI=T DoRafI=F ISym2E= 0 IDoP0=0 IntGTp=1.
 FoFCou: FMM=F IPFlag=           0 FMFlag=      100000 FMFlg1=         800
         NFxFlg=           0 DoJE=F BraDBF=F KetDBF=F FulRan=T
         wScrn=  0.000000 ICntrl=      2127 IOpCl=  0 I1Cent=           0 NGrid=           0
         NMat0=    1 NMatS0=      1 NMatT0=    0 NMatD0=    1 NMtDS0=    0 NMtDT0=    0
 Symmetry not used in FoFCou.
 Leave Link  703 at Tue Sep 17 09:51:13 2024, MaxMem=  1342177280 cpu:              21.4 elap:               2.7
 (Enter /groups/ReismanLab/Software/Gaussian16_RevC/Linux_Binary_AVX2-enabled-CPU/g16/l716.exe)
 Dipole        = 4.25701292D-01 3.56078830D-01 5.08296462D-01
 ***** Axes restored to original set *****
 -------------------------------------------------------------------
 Center     Atomic                   Forces (Hartrees/Bohr)
 Number     Number              X              Y              Z
 -------------------------------------------------------------------
      1        6          -0.004206639    0.001790097   -0.002038608
      2        6           0.000877059   -0.017161324    0.003637571
      3        8           0.000536015    0.018480494   -0.004965524
      4        6           0.002892048    0.002729511   -0.001138191
      5        6          -0.009783725    0.004701007    0.001678552
      6        7          -0.002224968   -0.019994692   -0.003180253
      7        6           0.011318498    0.001668981    0.000361654
      8        6           0.002786011    0.004270556    0.001217778
      9       35           0.002074735    0.000353020    0.000271118
     10        6           0.001262862    0.003084041   -0.000506520
     11        1          -0.003354108    0.000248445   -0.001537847
     12        1          -0.000697181    0.001061125    0.003644669
     13        1          -0.001274545   -0.003460615    0.001698078
     14        1          -0.005431661    0.000104016    0.000577858
     15        1           0.004864801   -0.000443946    0.000468229
     16        1           0.000360797    0.002569285   -0.000188564
 -------------------------------------------------------------------
 Cartesian Forces:  Max     0.019994692 RMS     0.005650898
 Leave Link  716 at Tue Sep 17 09:51:13 2024, MaxMem=  1342177280 cpu:               0.0 elap:               0.0
 (Enter /groups/ReismanLab/Software/Gaussian16_RevC/Linux_Binary_AVX2-enabled-CPU/g16/l103.exe)

 GradGradGradGradGradGradGradGradGradGradGradGradGradGradGradGradGradGrad
 Berny optimization.
 FormGI is forming the generalized inverse of G from B-inverse, IUseBI=4.
 Internal  Forces:  Max     0.018945696 RMS     0.004788233
 Search for a local minimum.
 Step number   1 out of a maximum of   81
 All quantities printed in internal units (Hartrees-Bohrs-Radians)
 RMS Force = .47882D-02 SwitMx=.10000D-02 MixMth= 1
 Mixed Optimization -- RFO/linear search
 Second derivative matrix not updated -- first step.
 ITU=  0
     Eigenvalues ---    0.00692   0.00759   0.00857   0.01754   0.02187
     Eigenvalues ---    0.02231   0.02268   0.02286   0.02336   0.02407
     Eigenvalues ---    0.02653   0.07002   0.07710   0.15996   0.16000
     Eigenvalues ---    0.16000   0.16000   0.16000   0.16000   0.18314
     Eigenvalues ---    0.23212   0.23403   0.23495   0.24972   0.24989
     Eigenvalues ---    0.25000   0.25000   0.31801   0.33111   0.34838
     Eigenvalues ---    0.35036   0.35520   0.35851   0.35856   0.35965
     Eigenvalues ---    0.42993   0.44980   0.46878   0.47750   0.59631
     Eigenvalues ---    0.61387   1.01294
 RFO step:  Lambda=-4.56548518D-03 EMin= 6.92368631D-03
 Linear search not attempted -- first point.
 Iteration  1 RMS(Cart)=  0.09085931 RMS(Int)=  0.00332950
 Iteration  2 RMS(Cart)=  0.00428973 RMS(Int)=  0.00007575
 Iteration  3 RMS(Cart)=  0.00001263 RMS(Int)=  0.00007517
 Iteration  4 RMS(Cart)=  0.00000000 RMS(Int)=  0.00007517
 ITry= 1 IFail=0 DXMaxC= 3.14D-01 DCOld= 1.00D+10 DXMaxT= 3.00D-01 DXLimC= 3.00D+00 Rises=F
 Variable       Old X    -DE/DX   Delta X   Delta X   Delta X     New X
                                 (Linear)    (Quad)   (Total)
    R1        2.84510   0.00878   0.00000   0.02723   0.02723   2.87233
    R2        2.05616   0.00359   0.00000   0.01012   0.01012   2.06628
    R3        2.05939   0.00372   0.00000   0.01055   0.01055   2.06994
    R4        2.04839   0.00366   0.00000   0.01018   0.01018   2.05857
    R5        2.28125   0.01895   0.00000   0.01862   0.01862   2.29987
    R6        2.82156   0.00710   0.00000   0.02116   0.02116   2.84272
    R7        2.63592   0.00633   0.00000   0.01351   0.01351   2.64942
    R8        2.63508   0.00654   0.00000   0.01234   0.01231   2.64739
    R9        2.49368   0.01834   0.00000   0.03049   0.03051   2.52419
   R10        2.04307   0.00456   0.00000   0.01256   0.01256   2.05563
   R11        2.48922   0.01892   0.00000   0.03117   0.03120   2.52042
   R12        2.62770   0.00757   0.00000   0.01599   0.01600   2.64369
   R13        2.04315   0.00409   0.00000   0.01126   0.01126   2.05441
   R14        3.58806   0.00206   0.00000   0.01099   0.01099   3.59905
   R15        2.61340   0.00519   0.00000   0.00916   0.00914   2.62254
   R16        2.04137   0.00256   0.00000   0.00704   0.00704   2.04841
    A1        1.91010   0.00084   0.00000   0.00619   0.00615   1.91626
    A2        1.87946   0.00031   0.00000   0.00080   0.00079   1.88026
    A3        1.97272   0.00208   0.00000   0.01266   0.01263   1.98535
    A4        1.86973  -0.00050   0.00000  -0.00301  -0.00302   1.86671
    A5        1.92790  -0.00129   0.00000  -0.00598  -0.00604   1.92186
    A6        1.90045  -0.00155   0.00000  -0.01144  -0.01144   1.88901
    A7        2.13866  -0.00497   0.00000  -0.01991  -0.02021   2.11845
    A8        2.04132   0.00744   0.00000   0.02880   0.02850   2.06982
    A9        2.10276  -0.00249   0.00000  -0.01017  -0.01048   2.09228
   A10        2.16474  -0.00181   0.00000  -0.00535  -0.00532   2.15942
   A11        2.06528  -0.00018   0.00000   0.00104   0.00107   2.06635
   A12        2.05225   0.00200   0.00000   0.00437   0.00431   2.05655
   A13        2.14979  -0.00003   0.00000   0.00251   0.00248   2.15227
   A14        2.12584  -0.00284   0.00000  -0.01858  -0.01857   2.10727
   A15        2.00717   0.00287   0.00000   0.01619   0.01620   2.02337
   A16        2.08377  -0.00517   0.00000  -0.01240  -0.01240   2.07138
   A17        2.12875  -0.00012   0.00000   0.00252   0.00249   2.13124
   A18        2.03477   0.00283   0.00000   0.01562   0.01560   2.05037
   A19        2.11963  -0.00271   0.00000  -0.01803  -0.01805   2.10158
   A20        2.09761  -0.00174   0.00000  -0.00528  -0.00527   2.09234
   A21        2.08202   0.00175   0.00000   0.00376   0.00371   2.08573
   A22        2.10355  -0.00001   0.00000   0.00154   0.00155   2.10510
   A23        2.06880   0.00159   0.00000  -0.00002  -0.00010   2.06869
   A24        2.08880  -0.00064   0.00000   0.00094   0.00096   2.08977
   A25        2.12557  -0.00094   0.00000  -0.00087  -0.00085   2.12472
    D1        0.84147  -0.00005   0.00000   0.00489   0.00481   0.84628
    D2       -2.33221  -0.00059   0.00000  -0.04126  -0.04122  -2.37343
    D3       -1.18531  -0.00007   0.00000   0.00476   0.00469  -1.18062
    D4        1.92420  -0.00061   0.00000  -0.04140  -0.04134   1.88286
    D5        2.99801   0.00038   0.00000   0.01069   0.01065   3.00866
    D6       -0.17566  -0.00016   0.00000  -0.03547  -0.03538  -0.21104
    D7        0.64559  -0.00175   0.00000  -0.12954  -0.12945   0.51614
    D8       -2.54320  -0.00165   0.00000  -0.12786  -0.12778  -2.67098
    D9       -2.52738  -0.00233   0.00000  -0.17490  -0.17498  -2.70236
   D10        0.56701  -0.00223   0.00000  -0.17322  -0.17331   0.39370
   D11        3.13189  -0.00057   0.00000  -0.01990  -0.01989   3.11200
   D12        0.02149  -0.00071   0.00000  -0.02498  -0.02498  -0.00349
   D13        0.03718  -0.00062   0.00000  -0.02148  -0.02148   0.01570
   D14       -3.07323  -0.00075   0.00000  -0.02657  -0.02657  -3.09980
   D15       -3.13740   0.00016   0.00000   0.00762   0.00764  -3.12976
   D16        0.00972  -0.00002   0.00000  -0.00063  -0.00064   0.00908
   D17       -0.03994   0.00015   0.00000   0.00893   0.00896  -0.03099
   D18        3.10717  -0.00003   0.00000   0.00068   0.00068   3.10786
   D19       -0.00211   0.00043   0.00000   0.01381   0.01372   0.01161
   D20        3.11024   0.00046   0.00000   0.01802   0.01803   3.12826
   D21       -0.02977   0.00018   0.00000   0.00650   0.00650  -0.02327
   D22        3.12110  -0.00015   0.00000  -0.00643  -0.00659   3.11451
   D23       -3.11908  -0.00023   0.00000  -0.00866  -0.00865  -3.12773
   D24        0.02514  -0.00046   0.00000  -0.01795  -0.01794   0.00719
   D25        0.01278   0.00015   0.00000   0.00507   0.00500   0.01778
   D26       -3.12619  -0.00008   0.00000  -0.00421  -0.00429  -3.13048
   D27        0.01108   0.00027   0.00000   0.00943   0.00943   0.02051
   D28       -3.13616   0.00046   0.00000   0.01787   0.01788  -3.11828
   D29       -3.12788   0.00004   0.00000   0.00012   0.00008  -3.12780
   D30        0.00806   0.00022   0.00000   0.00856   0.00853   0.01660
         Item               Value     Threshold  Converged?
 Maximum Force            0.018946     0.000450     NO 
 RMS     Force            0.004788     0.000300     NO 
 Maximum Displacement     0.313698     0.001800     NO 
 RMS     Displacement     0.091317     0.001200     NO 
 Predicted change in Energy=-2.534384D-03
 Lowest energy point so far.  Saving SCF results.
 GradGradGradGradGradGradGradGradGradGradGradGradGradGradGradGradGradGrad

 Leave Link  103 at Tue Sep 17 09:51:13 2024, MaxMem=  1342177280 cpu:               0.1 elap:               0.0
 (Enter /groups/ReismanLab/Software/Gaussian16_RevC/Linux_Binary_AVX2-enabled-CPU/g16/l202.exe)
                          Input orientation:                          
 ---------------------------------------------------------------------
 Center     Atomic      Atomic             Coordinates (Angstroms)
 Number     Number       Type             X           Y           Z
 ---------------------------------------------------------------------
      1          6           0       -4.228834    0.217004    0.474703
      2          6           0       -2.922563    0.768434   -0.072918
      3          8           0       -2.822903    1.929043   -0.425397
      4          6           0       -1.711178   -0.123433   -0.079569
      5          6           0       -1.772882   -1.519345   -0.194741
      6          7           0       -0.690349   -2.300946   -0.232630
      7          6           0        0.512969   -1.732562   -0.144045
      8          6           0        0.675072   -0.346847   -0.040753
      9         35           0        2.424634    0.398971    0.059463
     10          6           0       -0.444751    0.472628   -0.020379
     11          1           0       -5.054267    0.495479   -0.186127
     12          1           0       -4.415893    0.699409    1.440166
     13          1           0       -4.219627   -0.861376    0.628627
     14          1           0       -2.730260   -2.028120   -0.283466
     15          1           0        1.379524   -2.389010   -0.150938
     16          1           0       -0.360626    1.551799    0.037098
 ---------------------------------------------------------------------
                    Distance matrix (angstroms):
                    1          2          3          4          5
     1  C    0.000000
     2  C    1.519971   0.000000
     3  O    2.391213   1.217039   0.000000
     4  C    2.600328   1.504302   2.359700   0.000000
     5  C    3.081357   2.563307   3.612080   1.402014   0.000000
     6  N    4.400144   3.798603   4.741071   2.409789   1.335745
     7  C    5.164142   4.250050   4.961306   2.745958   2.296334
     8  C    4.963056   3.766678   4.190878   2.397000   2.718629
     9  Br   6.668896   5.361580   5.487518   4.170992   4.622088
    10  C    3.824884   2.495960   2.817941   1.400939   2.400477
    11  H    1.093428   2.152088   2.662957   3.401566   3.850594
    12  H    1.095365   2.127022   2.744074   3.209696   3.818546
    13  H    1.089349   2.197914   3.293667   2.708951   2.664098
    14  H    2.803770   2.811054   3.960790   2.169777   1.087794
    15  H    6.215820   5.336993   6.031691   3.832802   3.270459
    16  H    4.115364   2.681285   2.533580   2.154995   3.388236
                    6          7          8          9         10
     6  N    0.000000
     7  C    1.333748   0.000000
     8  C    2.391588   1.398983   0.000000
     9  Br   4.132553   2.870420   1.904535   0.000000
    10  C    2.792504   2.407360   1.387789   2.871440   0.000000
    11  H    5.183236   5.996671   5.792752   7.483554   4.612552
    12  H    5.067549   5.719956   5.404230   6.984942   4.237286
    13  H    3.907675   4.873751   4.966980   6.786650   4.055917
    14  H    2.058702   3.259651   3.805506   5.708003   3.398015
    15  H    2.073356   1.087147   2.163058   2.984855   3.396173
    16  H    3.876224   3.403382   2.164160   3.014495   1.083970
                   11         12         13         14         15
    11  H    0.000000
    12  H    1.758959   0.000000
    13  H    1.789275   1.770075   0.000000
    14  H    3.432060   3.640285   2.100337   0.000000
    15  H    7.050899   6.756982   5.855927   4.127727   0.000000
    16  H    4.816214   4.374970   4.589686   4.305084   4.312012
                   16
    16  H    0.000000
 Stoichiometry    C7H6BrNO
 Framework group  C1[X(C7H6BrNO)]
 Deg. of freedom    42
 Full point group                 C1      NOp   1
 RotChk:  IX=0 Diff= 4.16D-02
 Largest Abelian subgroup         C1      NOp   1
 Largest concise Abelian subgroup C1      NOp   1
                         Standard orientation:                         
 ---------------------------------------------------------------------
 Center     Atomic      Atomic             Coordinates (Angstroms)
 Number     Number       Type             X           Y           Z
 ---------------------------------------------------------------------
      1          6           0        4.057070   -0.171831    0.485878
      2          6           0        2.762239   -0.737024   -0.074730
      3          8           0        2.686918   -1.890267   -0.456228
      4          6           0        1.532144    0.128725   -0.058295
      5          6           0        1.564007    1.528088   -0.138363
      6          7           0        0.465048    2.287160   -0.156000
      7          6           0       -0.725808    1.691230   -0.081084
      8          6           0       -0.858277    0.300218   -0.012582
      9         35           0       -2.591463   -0.484978    0.069794
     10          6           0        0.278751   -0.495473   -0.013427
     11          1           0        4.887529   -0.415969   -0.182192
     12          1           0        4.255390   -0.674252    1.438803
     13          1           0        4.025083    0.901900    0.666875
     14          1           0        2.510246    2.059208   -0.214784
     15          1           0       -1.606142    2.329037   -0.070998
     16          1           0        0.217670   -1.577294    0.016940
 ---------------------------------------------------------------------
 Rotational constants (GHZ):           2.0578365           0.4671262           0.3864355
 Leave Link  202 at Tue Sep 17 09:51:13 2024, MaxMem=  1342177280 cpu:               0.0 elap:               0.0
 (Enter /groups/ReismanLab/Software/Gaussian16_RevC/Linux_Binary_AVX2-enabled-CPU/g16/l301.exe)
 Standard basis: 6-31G(d,p) (6D, 7F)
 Ernie: Thresh=  0.10000D-02 Tol=  0.10000D-05 Strict=F.
 There are   195 symmetry adapted cartesian basis functions of A   symmetry.
 There are   195 symmetry adapted basis functions of A   symmetry.
   195 basis functions,   377 primitive gaussians,   195 cartesian basis functions
    49 alpha electrons       49 beta electrons
       nuclear repulsion energy       697.7837361820 Hartrees.
 IExCor=  402 DFT=T Ex+Corr=B3LYP ExCW=0 ScaHFX=  0.200000
 ScaDFX=  0.800000  0.720000  1.000000  0.810000 ScalE2=  1.000000  1.000000
 IRadAn=      5 IRanWt=     -1 IRanGd=            0 ICorTp=0 IEmpDi=141
 NAtoms=   16 NActive=   16 NUniq=   16 SFac= 1.00D+00 NAtFMM=   60 NAOKFM=F Big=F
 Integral buffers will be    131072 words long.
 Raffenetti 2 integral format.
 Two-electron integral symmetry is turned on.
 R6Disp:  Grimme-D3(BJ) Dispersion energy=       -0.0324148869 Hartrees.
 Nuclear repulsion after empirical dispersion term =      697.7513212952 Hartrees.
 Leave Link  301 at Tue Sep 17 09:51:13 2024, MaxMem=  1342177280 cpu:               0.1 elap:               0.0
 (Enter /groups/ReismanLab/Software/Gaussian16_RevC/Linux_Binary_AVX2-enabled-CPU/g16/l302.exe)
 NPDir=0 NMtPBC=     1 NCelOv=     1 NCel=       1 NClECP=     1 NCelD=      1
         NCelK=      1 NCelE2=     1 NClLst=     1 CellRange=     0.0.
 One-electron integrals computed using PRISM.
 One-electron integral symmetry used in STVInt
 NBasis=   195 RedAO= T EigKep=  7.03D-04  NBF=   195
 NBsUse=   195 1.00D-06 EigRej= -1.00D+00 NBFU=   195
 Precomputing XC quadrature grid using
 IXCGrd= 4 IRadAn=           5 IRanWt=          -1 IRanGd=           0 AccXCQ= 0.00D+00.
 Generated NRdTot=       0 NPtTot=           0 NUsed=           0 NTot=          32
 NSgBfM=   195   195   195   195   195 MxSgAt=    16 MxSgA2=    16.
 Leave Link  302 at Tue Sep 17 09:51:14 2024, MaxMem=  1342177280 cpu:               0.8 elap:               0.1
 (Enter /groups/ReismanLab/Software/Gaussian16_RevC/Linux_Binary_AVX2-enabled-CPU/g16/l303.exe)
 DipDrv:  MaxL=1.
 Leave Link  303 at Tue Sep 17 09:51:14 2024, MaxMem=  1342177280 cpu:               0.1 elap:               0.0
 (Enter /groups/ReismanLab/Software/Gaussian16_RevC/Linux_Binary_AVX2-enabled-CPU/g16/l401.exe)
 Initial guess from the checkpoint file:  "smiles_00067_conf_2.chk"
 B after Tr=    -0.000000   -0.000000    0.000000
         Rot=    0.999990    0.004096   -0.001362    0.001147 Ang=   0.51 deg.
 Guess basis will be translated and rotated to current coordinates.
 JPrj=2 DoOrth=T DoCkMO=T.
 Generating alternative initial guess.
 ExpMin= 1.43D-01 ExpMax= 5.74D+05 ExpMxC= 5.74D+03 IAcc=3 IRadAn=         5 AccDes= 0.00D+00
 Harris functional with IExCor=  402 and IRadAn=       5 diagonalized for initial guess.
 HarFok:  IExCor=  402 AccDes= 0.00D+00 IRadAn=         5 IDoV= 1 UseB2=F ITyADJ=14
 ICtDFT=  3500011 ScaDFX=  1.000000  1.000000  1.000000  1.000000
 FoFCou: FMM=F IPFlag=           0 FMFlag=      100000 FMFlg1=           0
         NFxFlg=           0 DoJE=T BraDBF=F KetDBF=T FulRan=T
         wScrn=  0.000000 ICntrl=       500 IOpCl=  0 I1Cent=   200000004 NGrid=           0
         NMat0=    1 NMatS0=      1 NMatT0=    0 NMatD0=    1 NMtDS0=    0 NMtDT0=    0
 Petite list used in FoFCou.
 Harris En= -2972.17011479145    
 Leave Link  401 at Tue Sep 17 09:51:14 2024, MaxMem=  1342177280 cpu:               3.9 elap:               0.5
 (Enter /groups/ReismanLab/Software/Gaussian16_RevC/Linux_Binary_AVX2-enabled-CPU/g16/l502.exe)
 Integral symmetry usage will be decided dynamically.
 Closed shell SCF:
 Using DIIS extrapolation, IDIIS=  1040.
 NGot=  1342177280 LenX=  1342097209 LenY=  1342058743
 Requested convergence on RMS density matrix=1.00D-08 within  32 cycles.
 Requested convergence on MAX density matrix=1.00D-06.
 Requested convergence on             energy=1.00D-06.
 No special actions if energy rises.
 Fock matrices will be formed incrementally for  20 cycles.
 Integral accuracy reduced to 1.0D-05 until final iterations.

 Cycle   1  Pass 0  IDiag  1:
 FoFJK:  IHMeth= 1 ICntrl=       0 DoSepK=F KAlg= 0 I1Cent=           0 FoldK=F
 IRaf= 880000000 NMat=       1 IRICut=       1 DoRegI=T DoRafI=F ISym2E= 0 IDoP0=0 IntGTp=1.
 FoFCou: FMM=F IPFlag=           0 FMFlag=      100000 FMFlg1=           0
         NFxFlg=           0 DoJE=F BraDBF=F KetDBF=F FulRan=T
         wScrn=  0.000000 ICntrl=         0 IOpCl=  0 I1Cent=           0 NGrid=           0
         NMat0=    1 NMatS0=      1 NMatT0=    0 NMatD0=    1 NMtDS0=    0 NMtDT0=    0
 Symmetry not used in FoFCou.
 E= -2972.05404978532    
 DIIS: error= 5.60D-03 at cycle   1 NSaved=   1.
 NSaved= 1 IEnMin= 1 EnMin= -2972.05404978532     IErMin= 1 ErrMin= 5.60D-03
 ErrMax= 5.60D-03  0.00D+00 EMaxC= 1.00D-01 BMatC= 1.03D-02 BMatP= 1.03D-02
 IDIUse=3 WtCom= 9.44D-01 WtEn= 5.60D-02
 Coeff-Com:  0.100D+01
 Coeff-En:   0.100D+01
 Coeff:      0.100D+01
 Gap=     1.703 Goal=   None    Shift=    0.000
 GapD=    1.703 DampG=2.000 DampE=1.000 DampFc=2.0000 IDamp=-1.
 RMSDP=8.61D-04 MaxDP=2.79D-02              OVMax= 4.54D-02

 Cycle   2  Pass 0  IDiag  1:
 RMSU=  8.61D-04    CP:  1.00D+00
 E= -2972.07146995747     Delta-E=       -0.017420172155 Rises=F Damp=F
 DIIS: error= 9.55D-04 at cycle   2 NSaved=   2.
 NSaved= 2 IEnMin= 2 EnMin= -2972.07146995747     IErMin= 2 ErrMin= 9.55D-04
 ErrMax= 9.55D-04  0.00D+00 EMaxC= 1.00D-01 BMatC= 2.39D-04 BMatP= 1.03D-02
 IDIUse=3 WtCom= 9.90D-01 WtEn= 9.55D-03
 Coeff-Com: -0.463D-01 0.105D+01
 Coeff-En:   0.000D+00 0.100D+01
 Coeff:     -0.459D-01 0.105D+01
 Gap=     0.185 Goal=   None    Shift=    0.000
 RMSDP=1.80D-04 MaxDP=4.87D-03 DE=-1.74D-02 OVMax= 6.96D-03

 Cycle   3  Pass 0  IDiag  1:
 RMSU=  1.63D-04    CP:  1.00D+00  1.09D+00
 E= -2972.07158206680     Delta-E=       -0.000112109324 Rises=F Damp=F
 DIIS: error= 8.78D-04 at cycle   3 NSaved=   3.
 NSaved= 3 IEnMin= 3 EnMin= -2972.07158206680     IErMin= 3 ErrMin= 8.78D-04
 ErrMax= 8.78D-04  0.00D+00 EMaxC= 1.00D-01 BMatC= 2.61D-04 BMatP= 2.39D-04
 IDIUse=3 WtCom= 9.91D-01 WtEn= 8.78D-03
 Coeff-Com: -0.401D-01 0.559D+00 0.481D+00
 Coeff-En:   0.000D+00 0.342D+00 0.658D+00
 Coeff:     -0.397D-01 0.557D+00 0.483D+00
 Gap=     0.184 Goal=   None    Shift=    0.000
 RMSDP=1.18D-04 MaxDP=3.52D-03 DE=-1.12D-04 OVMax= 5.94D-03

 Cycle   4  Pass 0  IDiag  1:
 RMSU=  6.68D-05    CP:  1.00D+00  1.10D+00  4.04D-01
 E= -2972.07179316309     Delta-E=       -0.000211096291 Rises=F Damp=F
 DIIS: error= 4.28D-04 at cycle   4 NSaved=   4.
 NSaved= 4 IEnMin= 4 EnMin= -2972.07179316309     IErMin= 4 ErrMin= 4.28D-04
 ErrMax= 4.28D-04  0.00D+00 EMaxC= 1.00D-01 BMatC= 4.47D-05 BMatP= 2.39D-04
 IDIUse=3 WtCom= 9.96D-01 WtEn= 4.28D-03
 Coeff-Com: -0.154D-01 0.183D+00 0.308D+00 0.525D+00
 Coeff-En:   0.000D+00 0.000D+00 0.151D+00 0.849D+00
 Coeff:     -0.153D-01 0.182D+00 0.307D+00 0.526D+00
 Gap=     0.185 Goal=   None    Shift=    0.000
 RMSDP=4.37D-05 MaxDP=1.12D-03 DE=-2.11D-04 OVMax= 2.30D-03

 Cycle   5  Pass 0  IDiag  1:
 RMSU=  2.69D-05    CP:  1.00D+00  1.10D+00  5.35D-01  6.02D-01
 E= -2972.07183417804     Delta-E=       -0.000041014956 Rises=F Damp=F
 DIIS: error= 1.22D-04 at cycle   5 NSaved=   5.
 NSaved= 5 IEnMin= 5 EnMin= -2972.07183417804     IErMin= 5 ErrMin= 1.22D-04
 ErrMax= 1.22D-04  0.00D+00 EMaxC= 1.00D-01 BMatC= 4.20D-06 BMatP= 4.47D-05
 IDIUse=3 WtCom= 9.99D-01 WtEn= 1.22D-03
 Coeff-Com: -0.318D-02 0.264D-01 0.110D+00 0.303D+00 0.563D+00
 Coeff-En:   0.000D+00 0.000D+00 0.000D+00 0.306D-01 0.969D+00
 Coeff:     -0.318D-02 0.263D-01 0.110D+00 0.303D+00 0.564D+00
 Gap=     0.185 Goal=   None    Shift=    0.000
 RMSDP=1.46D-05 MaxDP=4.18D-04 DE=-4.10D-05 OVMax= 6.40D-04

 Cycle   6  Pass 0  IDiag  1:
 RMSU=  8.63D-06    CP:  1.00D+00  1.10D+00  5.55D-01  6.85D-01  6.40D-01
 E= -2972.07183844491     Delta-E=       -0.000004266867 Rises=F Damp=F
 DIIS: error= 4.62D-05 at cycle   6 NSaved=   6.
 NSaved= 6 IEnMin= 6 EnMin= -2972.07183844491     IErMin= 6 ErrMin= 4.62D-05
 ErrMax= 4.62D-05  0.00D+00 EMaxC= 1.00D-01 BMatC= 4.46D-07 BMatP= 4.20D-06
 IDIUse=1 WtCom= 1.00D+00 WtEn= 0.00D+00
 Coeff-Com:  0.926D-04-0.955D-02 0.253D-01 0.110D+00 0.312D+00 0.563D+00
 Coeff:      0.926D-04-0.955D-02 0.253D-01 0.110D+00 0.312D+00 0.563D+00
 Gap=     0.185 Goal=   None    Shift=    0.000
 RMSDP=5.08D-06 MaxDP=1.67D-04 DE=-4.27D-06 OVMax= 2.73D-04

 Initial convergence to 1.0D-05 achieved.  Increase integral accuracy.
 Cycle   7  Pass 1  IDiag  1:
 E= -2972.07182426954     Delta-E=        0.000014175372 Rises=F Damp=F
 DIIS: error= 4.99D-05 at cycle   1 NSaved=   1.
 NSaved= 1 IEnMin= 1 EnMin= -2972.07182426954     IErMin= 1 ErrMin= 4.99D-05
 ErrMax= 4.99D-05  0.00D+00 EMaxC= 1.00D-01 BMatC= 2.62D-07 BMatP= 2.62D-07
 IDIUse=1 WtCom= 1.00D+00 WtEn= 0.00D+00
 Coeff-Com:  0.100D+01
 Coeff:      0.100D+01
 Gap=     0.185 Goal=   None    Shift=    0.000
 RMSDP=5.08D-06 MaxDP=1.67D-04 DE= 1.42D-05 OVMax= 2.57D-04

 Cycle   8  Pass 1  IDiag  1:
 RMSU=  1.31D-05    CP:  1.00D+00
 E= -2972.07182409079     Delta-E=        0.000000178747 Rises=F Damp=F
 DIIS: error= 4.60D-05 at cycle   2 NSaved=   2.
 NSaved= 2 IEnMin= 1 EnMin= -2972.07182426954     IErMin= 2 ErrMin= 4.60D-05
 ErrMax= 4.60D-05  0.00D+00 EMaxC= 1.00D-01 BMatC= 4.45D-07 BMatP= 2.62D-07
 IDIUse=1 WtCom= 1.00D+00 WtEn= 0.00D+00
 Coeff-Com:  0.581D+00 0.419D+00
 Coeff:      0.581D+00 0.419D+00
 Gap=     0.185 Goal=   None    Shift=    0.000
 RMSDP=4.23D-06 MaxDP=1.82D-04 DE= 1.79D-07 OVMax= 2.33D-04

 Cycle   9  Pass 1  IDiag  1:
 RMSU=  3.86D-06    CP:  1.00D+00  8.69D-01
 E= -2972.07182442533     Delta-E=       -0.000000334539 Rises=F Damp=F
 DIIS: error= 1.69D-05 at cycle   3 NSaved=   3.
 NSaved= 3 IEnMin= 3 EnMin= -2972.07182442533     IErMin= 3 ErrMin= 1.69D-05
 ErrMax= 1.69D-05  0.00D+00 EMaxC= 1.00D-01 BMatC= 5.06D-08 BMatP= 2.62D-07
 IDIUse=1 WtCom= 1.00D+00 WtEn= 0.00D+00
 Coeff-Com:  0.309D-01 0.251D+00 0.718D+00
 Coeff:      0.309D-01 0.251D+00 0.718D+00
 Gap=     0.185 Goal=   None    Shift=    0.000
 RMSDP=1.25D-06 MaxDP=5.42D-05 DE=-3.35D-07 OVMax= 7.24D-05

 Cycle  10  Pass 1  IDiag  1:
 RMSU=  6.93D-07    CP:  1.00D+00  9.11D-01  7.70D-01
 E= -2972.07182446367     Delta-E=       -0.000000038338 Rises=F Damp=F
 DIIS: error= 3.83D-06 at cycle   4 NSaved=   4.
 NSaved= 4 IEnMin= 4 EnMin= -2972.07182446367     IErMin= 4 ErrMin= 3.83D-06
 ErrMax= 3.83D-06  0.00D+00 EMaxC= 1.00D-01 BMatC= 4.74D-09 BMatP= 5.06D-08
 IDIUse=1 WtCom= 1.00D+00 WtEn= 0.00D+00
 Coeff-Com: -0.946D-03 0.138D+00 0.443D+00 0.419D+00
 Coeff:     -0.946D-03 0.138D+00 0.443D+00 0.419D+00
 Gap=     0.185 Goal=   None    Shift=    0.000
 RMSDP=4.21D-07 MaxDP=1.20D-05 DE=-3.83D-08 OVMax= 2.50D-05

 Cycle  11  Pass 1  IDiag  1:
 RMSU=  1.87D-07    CP:  1.00D+00  9.13D-01  7.72D-01  4.57D-01
 E= -2972.07182446829     Delta-E=       -0.000000004617 Rises=F Damp=F
 DIIS: error= 8.92D-07 at cycle   5 NSaved=   5.
 NSaved= 5 IEnMin= 5 EnMin= -2972.07182446829     IErMin= 5 ErrMin= 8.92D-07
 ErrMax= 8.92D-07  0.00D+00 EMaxC= 1.00D-01 BMatC= 2.79D-10 BMatP= 4.74D-09
 IDIUse=1 WtCom= 1.00D+00 WtEn= 0.00D+00
 Coeff-Com: -0.249D-02 0.737D-01 0.241D+00 0.263D+00 0.425D+00
 Coeff:     -0.249D-02 0.737D-01 0.241D+00 0.263D+00 0.425D+00
 Gap=     0.185 Goal=   None    Shift=    0.000
 RMSDP=1.01D-07 MaxDP=2.41D-06 DE=-4.62D-09 OVMax= 5.67D-06

 Cycle  12  Pass 1  IDiag  1:
 RMSU=  7.68D-08    CP:  1.00D+00  9.13D-01  7.76D-01  4.92D-01  6.89D-01
 E= -2972.07182446857     Delta-E=       -0.000000000285 Rises=F Damp=F
 DIIS: error= 1.47D-07 at cycle   6 NSaved=   6.
 NSaved= 6 IEnMin= 6 EnMin= -2972.07182446857     IErMin= 6 ErrMin= 1.47D-07
 ErrMax= 1.47D-07  0.00D+00 EMaxC= 1.00D-01 BMatC= 8.90D-12 BMatP= 2.79D-10
 IDIUse=1 WtCom= 1.00D+00 WtEn= 0.00D+00
 Coeff-Com: -0.815D-03 0.673D-02 0.232D-01 0.339D-01 0.153D+00 0.784D+00
 Coeff:     -0.815D-03 0.673D-02 0.232D-01 0.339D-01 0.153D+00 0.784D+00
 Gap=     0.185 Goal=   None    Shift=    0.000
 RMSDP=3.07D-08 MaxDP=8.79D-07 DE=-2.85D-10 OVMax= 2.59D-06

 Cycle  13  Pass 1  IDiag  1:
 RMSU=  1.99D-08    CP:  1.00D+00  9.13D-01  7.75D-01  4.96D-01  8.06D-01
                    CP:  1.05D+00
 E= -2972.07182446857     Delta-E=       -0.000000000004 Rises=F Damp=F
 DIIS: error= 7.06D-08 at cycle   7 NSaved=   7.
 NSaved= 7 IEnMin= 7 EnMin= -2972.07182446857     IErMin= 7 ErrMin= 7.06D-08
 ErrMax= 7.06D-08  0.00D+00 EMaxC= 1.00D-01 BMatC= 2.47D-12 BMatP= 8.90D-12
 IDIUse=1 WtCom= 1.00D+00 WtEn= 0.00D+00
 Coeff-Com: -0.224D-04-0.797D-02-0.253D-01-0.236D-01 0.101D-01 0.405D+00
 Coeff-Com:  0.642D+00
 Coeff:     -0.224D-04-0.797D-02-0.253D-01-0.236D-01 0.101D-01 0.405D+00
 Coeff:      0.642D+00
 Gap=     0.185 Goal=   None    Shift=    0.000
 RMSDP=1.48D-08 MaxDP=4.05D-07 DE=-4.09D-12 OVMax= 1.24D-06

 Cycle  14  Pass 1  IDiag  1:
 RMSU=  9.16D-09    CP:  1.00D+00  9.13D-01  7.76D-01  5.01D-01  8.35D-01
                    CP:  1.14D+00  7.42D-01
 E= -2972.07182446859     Delta-E=       -0.000000000017 Rises=F Damp=F
 DIIS: error= 3.70D-08 at cycle   8 NSaved=   8.
 NSaved= 8 IEnMin= 8 EnMin= -2972.07182446859     IErMin= 8 ErrMin= 3.70D-08
 ErrMax= 3.70D-08  0.00D+00 EMaxC= 1.00D-01 BMatC= 6.03D-13 BMatP= 2.47D-12
 IDIUse=1 WtCom= 1.00D+00 WtEn= 0.00D+00
 Coeff-Com:  0.126D-03-0.583D-02-0.188D-01-0.195D-01-0.194D-01 0.109D+00
 Coeff-Com:  0.388D+00 0.567D+00
 Coeff:      0.126D-03-0.583D-02-0.188D-01-0.195D-01-0.194D-01 0.109D+00
 Coeff:      0.388D+00 0.567D+00
 Gap=     0.185 Goal=   None    Shift=    0.000
 RMSDP=5.85D-09 MaxDP=1.31D-07 DE=-1.73D-11 OVMax= 3.63D-07

 SCF Done:  E(RB3LYP) =  -2972.07182447     A.U. after   14 cycles
            NFock= 14  Conv=0.58D-08     -V/T= 2.0066
 KE= 2.952607990026D+03 PE=-8.459449146709D+03 EE= 1.837018010920D+03
 Leave Link  502 at Tue Sep 17 09:51:24 2024, MaxMem=  1342177280 cpu:              70.0 elap:               9.8
 (Enter /groups/ReismanLab/Software/Gaussian16_RevC/Linux_Binary_AVX2-enabled-CPU/g16/l508.exe)
 QCSCF skips out because SCF is already converged.
 Leave Link  508 at Tue Sep 17 09:51:24 2024, MaxMem=  1342177280 cpu:               0.0 elap:               0.0
 (Enter /groups/ReismanLab/Software/Gaussian16_RevC/Linux_Binary_AVX2-enabled-CPU/g16/l701.exe)
 ... and contract with generalized density number  0.
 Compute integral first derivatives.
 R6Disp: Adding Grimme-D3(BJ) dispersion energy 1st derivatives to the gradient.
 Leave Link  701 at Tue Sep 17 09:51:24 2024, MaxMem=  1342177280 cpu:               0.6 elap:               0.1
 (Enter /groups/ReismanLab/Software/Gaussian16_RevC/Linux_Binary_AVX2-enabled-CPU/g16/l702.exe)
 L702 exits ... SP integral derivatives will be done elsewhere.
 Leave Link  702 at Tue Sep 17 09:51:24 2024, MaxMem=  1342177280 cpu:               0.0 elap:               0.0
 (Enter /groups/ReismanLab/Software/Gaussian16_RevC/Linux_Binary_AVX2-enabled-CPU/g16/l703.exe)
 Integral derivatives from FoFJK, PRISM(SPDF).
 Compute integral first derivatives, UseDBF=F ICtDFT=           0.
 Calling FoFJK, ICntrl=      2127 FMM=F ISym2X=0 I1Cent= 0 IOpClX= 0 NMat=1 NMatS=1 NMatT=0.
 FoFJK:  IHMeth= 1 ICntrl=    2127 DoSepK=F KAlg= 0 I1Cent=           0 FoldK=F
 IRaf=         0 NMat=       1 IRICut=       1 DoRegI=T DoRafI=F ISym2E= 0 IDoP0=0 IntGTp=1.
 FoFCou: FMM=F IPFlag=           0 FMFlag=      100000 FMFlg1=         800
         NFxFlg=           0 DoJE=F BraDBF=F KetDBF=F FulRan=T
         wScrn=  0.000000 ICntrl=      2127 IOpCl=  0 I1Cent=           0 NGrid=           0
         NMat0=    1 NMatS0=      1 NMatT0=    0 NMatD0=    1 NMtDS0=    0 NMtDT0=    0
 Symmetry not used in FoFCou.
 Leave Link  703 at Tue Sep 17 09:51:27 2024, MaxMem=  1342177280 cpu:              20.7 elap:               2.7
 (Enter /groups/ReismanLab/Software/Gaussian16_RevC/Linux_Binary_AVX2-enabled-CPU/g16/l716.exe)
 Dipole        = 4.51535614D-01 3.92545170D-01 3.97122198D-01
 ***** Axes restored to original set *****
 -------------------------------------------------------------------
 Center     Atomic                   Forces (Hartrees/Bohr)
 Number     Number              X              Y              Z
 -------------------------------------------------------------------
      1        6          -0.000744598    0.000952851   -0.002845923
      2        6           0.002235393   -0.003945686    0.005288505
      3        8          -0.000697867    0.002500524   -0.000971343
      4        6          -0.000473741   -0.000403421   -0.001923483
      5        6           0.000248581    0.002930274    0.001109773
      6        7          -0.000039938   -0.004119102   -0.000149170
      7        6          -0.000127907    0.002014477    0.000625882
      8        6          -0.001796039    0.000428314   -0.000223109
      9       35          -0.000322041   -0.000450456    0.000115006
     10        6           0.001010449    0.000452742   -0.000928671
     11        1           0.000560550   -0.000107163   -0.000113152
     12        1           0.000785443   -0.000095959    0.000120596
[...]
      3  O    Isotropic =  -419.0303   Anisotropy =  1163.9877
   XX=  -506.5292   YX=    30.2223   ZX=     0.1599
   XY=   -38.0772   YY= -1107.5231   ZY=     0.3614
   XZ=     0.1717   YZ=     0.3963   ZZ=   356.9613
   Eigenvalues: -1107.5488  -506.5036   356.9615
      4  C    Isotropic =    31.5984   Anisotropy =   188.9729
   XX=   -39.5153   YX=    40.6945   ZX=     0.0008
   XY=    57.5929   YY=   -23.2698   ZY=    -0.0031
   XZ=    -0.0121   YZ=    -0.0269   ZZ=   157.5803
   Eigenvalues:   -81.2030    18.4179   157.5803
      5  C    Isotropic =    11.6339   Anisotropy =   204.3366
   XX=   -99.6948   YX=   -45.4262   ZX=    -0.0028
   XY=     0.8885   YY=   -13.2618   ZY=    -0.0090
   XZ=    -0.0103   YZ=    -0.0007   ZZ=   147.8583
   Eigenvalues:  -105.0948    -7.8617   147.8583
      6  N    Isotropic =  -146.0099   Anisotropy =   645.0009
   XX=  -488.9729   YX=    20.2199   ZX=    -0.0148
   XY=    17.3327   YY=  -233.0475   ZY=    -0.0220
   XZ=    -0.0025   YZ=    -0.0183   ZZ=   283.9907
   Eigenvalues:  -490.3431  -231.6773   283.9907
      7  C    Isotropic =     4.4794   Anisotropy =   185.1872
   XX=   -91.2899   YX=    61.4293   ZX=     0.0003
   XY=    36.2919   YY=   -23.2094   ZY=    -0.0063
   XZ=    -0.0001   YZ=    -0.0070   ZZ=   127.9375
   Eigenvalues:  -116.7988     2.2995   127.9375
      8  C    Isotropic =    26.0163   Anisotropy =   143.2626
   XX=   -54.9350   YX=   -48.1509   ZX=    -0.0070
   XY=   -67.9296   YY=    11.4592   ZY=    -0.0062
   XZ=    -0.0034   YZ=    -0.0043   ZZ=   121.5247
   Eigenvalues:   -88.6013    45.1255   121.5247
      9  Br   Isotropic =  2119.0369   Anisotropy =  1217.2875
   XX=  2747.8108   YX=   439.3058   ZX=     0.0571
   XY=   427.6635   YY=  1902.3385   ZY=     0.0291
   XZ=     0.0356   YZ=     0.0191   ZZ=  1706.9614
   Eigenvalues:  1706.9614  1719.5874  2930.5619
     10  C    Isotropic =    22.7856   Anisotropy =   220.0309
   XX=    -8.3819   YX=    -3.2316   ZX=    -0.0026
   XY=   -19.0487   YY=   -92.7343   ZY=    -0.0075
   XZ=    -0.0128   YZ=    -0.0089   ZZ=   169.4729
   Eigenvalues:   -94.1807    -6.9354   169.4729
     11  H    Isotropic =    29.3513   Anisotropy =     6.2828
   XX=    32.0426   YX=    -4.4275   ZX=    -0.0015
   XY=    -0.0570   YY=    30.1819   ZY=    -0.0002
   XZ=    -0.0032   YZ=     0.0015   ZZ=    25.8295
   Eigenvalues:    25.8295    28.6847    33.5399
     12  H    Isotropic =    28.9627   Anisotropy =     4.7017
   XX=    29.0861   YX=     0.8561   ZX=     1.6229
   XY=    -1.2858   YY=    29.1362   ZY=     1.6655
   XZ=     2.6636   YZ=     3.3789   ZZ=    28.6659
   Eigenvalues:    25.4721    29.3189    32.0972
     13  H    Isotropic =    28.9625   Anisotropy =     4.6995
   XX=    29.0858   YX=     0.8552   ZX=    -1.6220
   XY=    -1.2881   YY=    29.1364   ZY=    -1.6655
   XZ=    -2.6626   YZ=    -3.3791   ZZ=    28.6653
   Eigenvalues:    25.4716    29.3204    32.0955
     14  H    Isotropic =    21.7708   Anisotropy =     8.5232
   XX=    21.4000   YX=    -3.7876   ZX=    -0.0003
   XY=    -2.7398   YY=    25.6932   ZY=     0.0003
   XZ=    -0.0011   YZ=     0.0006   ZZ=    18.2193
   Eigenvalues:    18.2193    19.6402    27.4530
     15  H    Isotropic =    22.1626   Anisotropy =    11.8408
   XX=    20.4116   YX=     4.2521   ZX=     0.0004
   XY=     4.3776   YY=    28.1261   ZY=     0.0004
   XZ=     0.0003   YZ=     0.0005   ZZ=    17.9501
   Eigenvalues:    17.9501    18.4813    30.0564
     16  H    Isotropic =    22.4780   Anisotropy =    12.0426
   XX=    30.0541   YX=    -2.2820   ZX=    -0.0001
   XY=    -2.1683   YY=    19.5601   ZY=    -0.0005
   XZ=     0.0011   YZ=    -0.0007   ZZ=    17.8198
   Eigenvalues:    17.8198    19.1078    30.5064
 End of Minotr F.D. properties file   721 does not exist.
 End of Minotr F.D. properties file   722 does not exist.
 End of Minotr F.D. properties file   788 does not exist.
 Leave Link 1002 at Tue Sep 17 10:24:11 2024, MaxMem=  1342177280 cpu:             423.7 elap:             424.6
 (Enter /groups/ReismanLab/Software/Gaussian16_RevC/Linux_Binary_AVX2-enabled-CPU/g16/l601.exe)
 Copying SCF densities to generalized density rwf, IOpCl= 0 IROHF=0.

 **********************************************************************

            Population analysis using the SCF Density.

 **********************************************************************

 Orbital symmetries:
       Occupied  (A) (A) (A) (A) (A) (A) (A) (A) (A) (A) (A) (A)
                 (A) (A) (A) (A) (A) (A) (A) (A) (A) (A) (A) (A)
                 (A) (A) (A) (A) (A) (A) (A) (A) (A) (A) (A) (A)
                 (A) (A) (A) (A) (A) (A) (A) (A) (A) (A) (A) (A)
                 (A)
       Virtual   (A) (A) (A) (A) (A) (A) (A) (A) (A) (A) (A) (A)
                 (A) (A) (A) (A) (A) (A) (A) (A) (A) (A) (A) (A)
                 (A) (A) (A) (A) (A) (A) (A) (A) (A) (A) (A) (A)
                 (A) (A) (A) (A) (A) (A) (A) (A) (A) (A) (A) (A)
                 (A) (A) (A) (A) (A) (A) (A) (A) (A) (A) (A) (A)
                 (A) (A) (A) (A) (A) (A) (A) (A) (A) (A) (A) (A)
                 (A) (A) (A) (A) (A) (A) (A) (A) (A) (A) (A) (A)
                 (A) (A) (A) (A) (A) (A) (A) (A) (A) (A) (A) (A)
                 (A) (A) (A) (A) (A) (A) (A) (A) (A) (A) (A) (A)
                 (A) (A) (A) (A) (A) (A) (A) (A) (A) (A) (A) (A)
                 (A) (A) (A) (A) (A) (A) (A) (A) (A) (A) (A) (A)
                 (A) (A) (A) (A) (A) (A) (A) (A) (A) (A) (A) (A)
                 (A) (A) (A) (A) (A) (A) (A) (A) (A) (A) (A) (A)
                 (A) (A) (A) (A) (A) (A) (A) (A) (A) (A) (A) (A)
                 (A) (A) (A) (A) (A) (A) (A) (A) (A) (A) (A) (A)
                 (A) (A) (A) (A) (A) (A) (A) (A) (A) (A) (A) (A)
                 (A) (A) (A) (A) (A) (A) (A) (A) (A) (A) (A) (A)
                 (A) (A) (A) (A) (A) (A) (A) (A) (A) (A) (A) (A)
                 (A) (A) (A) (A) (A) (A) (A) (A) (A) (A) (A) (A)
                 (A) (A) (A) (A) (A) (A) (A) (A) (A) (A) (A) (A)
                 (A) (A) (A) (A) (A) (A) (A) (A) (A) (A) (A) (A)
                 (A) (A) (A) (A) (A) (A) (A) (A) (A) (A) (A) (A)
                 (A) (A) (A) (A) (A) (A) (A) (A) (A) (A) (A) (A)
                 (A) (A) (A) (A) (A) (A) (A) (A) (A) (A) (A) (A)
                 (A) (A) (A) (A) (A) (A) (A) (A) (A) (A) (A) (A)
                 (A) (A) (A) (A) (A) (A) (A) (A) (A) (A) (A) (A)
                 (A) (A)
 The electronic state is 1-A.
 Alpha  occ. eigenvalues -- -485.38772 -63.37246 -57.19196 -57.18952 -57.18946
 Alpha  occ. eigenvalues --  -19.63117 -14.77353 -10.64800 -10.61962 -10.60376
 Alpha  occ. eigenvalues --  -10.60031 -10.58318 -10.57675 -10.54534  -9.03890
 Alpha  occ. eigenvalues --   -6.86316  -6.85411  -6.85389  -2.89692  -2.89365
 Alpha  occ. eigenvalues --   -2.89340  -2.88497  -2.88497  -1.17823  -1.07775
 Alpha  occ. eigenvalues --   -0.94993  -0.91574  -0.85494  -0.83502  -0.75102
 Alpha  occ. eigenvalues --   -0.72721  -0.64281  -0.61584  -0.58845  -0.55672
 Alpha  occ. eigenvalues --   -0.53020  -0.51525  -0.50340  -0.49626  -0.49187
 Alpha  occ. eigenvalues --   -0.46801  -0.44681  -0.44185  -0.40693  -0.36836
 Alpha  occ. eigenvalues --   -0.35637  -0.35494  -0.33628  -0.31827
 Alpha virt. eigenvalues --   -0.04690  -0.01492   0.02827   0.05356   0.07076
 Alpha virt. eigenvalues --    0.10683   0.12478   0.12902   0.13095   0.14242
 Alpha virt. eigenvalues --    0.14830   0.16428   0.16554   0.17328   0.20546
 Alpha virt. eigenvalues --    0.21401   0.22380   0.23448   0.23466   0.24752
 Alpha virt. eigenvalues --    0.24949   0.26279   0.26339   0.27187   0.27864
 Alpha virt. eigenvalues --    0.28607   0.30770   0.30933   0.31889   0.33861
 Alpha virt. eigenvalues --    0.34826   0.34943   0.35242   0.37766   0.37793
 Alpha virt. eigenvalues --    0.40001   0.40197   0.40309   0.41614   0.42751
 Alpha virt. eigenvalues --    0.43594   0.43811   0.44892   0.47606   0.48024
 Alpha virt. eigenvalues --    0.48693   0.49229   0.49840   0.50407   0.53251
 Alpha virt. eigenvalues --    0.55191   0.55325   0.55756   0.56690   0.58812
 Alpha virt. eigenvalues --    0.58963   0.61631   0.62453   0.62664   0.64340
 Alpha virt. eigenvalues --    0.65345   0.66078   0.68416   0.69517   0.70387
 Alpha virt. eigenvalues --    0.71341   0.72602   0.75175   0.75690   0.76418
 Alpha virt. eigenvalues --    0.77670   0.80558   0.82009   0.83810   0.86062
 Alpha virt. eigenvalues --    0.87241   0.88931   0.90487   0.92277   0.93024
 Alpha virt. eigenvalues --    0.95908   0.98333   0.98674   1.00071   1.02131
 Alpha virt. eigenvalues --    1.06047   1.06764   1.09353   1.12044   1.12819
 Alpha virt. eigenvalues --    1.13774   1.14400   1.18899   1.21101   1.22186
 Alpha virt. eigenvalues --    1.24256   1.25016   1.26642   1.29200   1.32317
 Alpha virt. eigenvalues --    1.34630   1.35543   1.37327   1.37835   1.39025
 Alpha virt. eigenvalues --    1.39583   1.40728   1.42140   1.45957   1.46930
 Alpha virt. eigenvalues --    1.48017   1.50096   1.52731   1.53963   1.54915
 Alpha virt. eigenvalues --    1.55554   1.55814   1.57142   1.57176   1.57834
 Alpha virt. eigenvalues --    1.59963   1.60740   1.63289   1.64123   1.64198
 Alpha virt. eigenvalues --    1.65796   1.66164   1.67421   1.67623   1.68982
 Alpha virt. eigenvalues --    1.70446   1.72221   1.72454   1.74075   1.76176
 Alpha virt. eigenvalues --    1.78223   1.80461   1.84739   1.85958   1.86568
 Alpha virt. eigenvalues --    1.87288   1.90218   1.93812   1.96093   1.97520
 Alpha virt. eigenvalues --    1.98537   2.00288   2.00824   2.01888   2.03098
 Alpha virt. eigenvalues --    2.05250   2.07908   2.12270   2.14149   2.15585
 Alpha virt. eigenvalues --    2.17413   2.21683   2.25044   2.26897   2.28974
 Alpha virt. eigenvalues --    2.31890   2.35061   2.36376   2.37509   2.39639
 Alpha virt. eigenvalues --    2.39819   2.41038   2.44421   2.49040   2.50189
 Alpha virt. eigenvalues --    2.50902   2.53214   2.54350   2.55545   2.58481
 Alpha virt. eigenvalues --    2.63467   2.64456   2.65403   2.65991   2.69569
 Alpha virt. eigenvalues --    2.69811   2.70322   2.72356   2.74388   2.77466
 Alpha virt. eigenvalues --    2.80095   2.80107   2.84064   2.84585   2.85466
 Alpha virt. eigenvalues --    2.88934   2.90930   2.91139   2.94212   2.94287
 Alpha virt. eigenvalues --    2.95972   2.97860   2.99775   3.02038   3.02683
 Alpha virt. eigenvalues --    3.04780   3.06244   3.06524   3.10125   3.11347
 Alpha virt. eigenvalues --    3.11698   3.12731   3.13667   3.15281   3.17166
 Alpha virt. eigenvalues --    3.18739   3.20365   3.23320   3.24660   3.25705
 Alpha virt. eigenvalues --    3.27209   3.27422   3.28708   3.31119   3.31249
 Alpha virt. eigenvalues --    3.33818   3.34167   3.36354   3.38734   3.39710
 Alpha virt. eigenvalues --    3.40115   3.43131   3.45916   3.46619   3.48116
 Alpha virt. eigenvalues --    3.49168   3.51725   3.54496   3.56769   3.62322
 Alpha virt. eigenvalues --    3.65913   3.69301   3.69500   3.70778   3.73599
 Alpha virt. eigenvalues --    3.79539   3.79881   3.84252   3.85517   3.89763
 Alpha virt. eigenvalues --    3.90579   3.91131   3.97080   4.02914   4.03760
 Alpha virt. eigenvalues --    4.04941   4.07185   4.07324   4.11939   4.13225
 Alpha virt. eigenvalues --    4.13973   4.15630   4.21314   4.26639   4.26663
 Alpha virt. eigenvalues --    4.27729   4.32464   4.34030   4.36949   4.37940
 Alpha virt. eigenvalues --    4.39211   4.42321   4.45512   4.49294   4.49388
 Alpha virt. eigenvalues --    4.53058   4.56030   4.64155   4.67915   4.74886
 Alpha virt. eigenvalues --    4.77784   4.81068   4.88882   4.93356   4.95138
 Alpha virt. eigenvalues --    5.03294   5.05396   5.10502   5.15482   5.17594
 Alpha virt. eigenvalues --    5.20966   5.24121   5.24807   5.27721   5.35933
 Alpha virt. eigenvalues --    5.48727   5.57080   5.58070   5.69932   5.72798
 Alpha virt. eigenvalues --    5.92116   6.07687   6.33234   6.38304   6.54945
 Alpha virt. eigenvalues --    6.60030   6.79582   7.04724   7.06424   7.85120
 Alpha virt. eigenvalues --   22.45078  22.51151  22.77036  22.86102  22.92878
 Alpha virt. eigenvalues --   23.11188  23.33305  32.51593  44.03872
          Condensed to atoms (all electrons):
               1          2          3          4          5          6
     1  C    5.212229   0.327587  -0.079961  -0.152185  -0.001684  -0.002593
     2  C    0.327587   4.828376   0.647409   0.053308  -0.011583   0.002292
     3  O   -0.079961   0.647409   7.869504  -0.193899   0.005232  -0.000394
     4  C   -0.152185   0.053308  -0.193899   5.910007   0.406941  -0.034011
     5  C   -0.001684  -0.011583   0.005232   0.406941   4.915806   0.498314
     6  N   -0.002593   0.002292  -0.000394  -0.034011   0.498314   6.453501
     7  C    0.001070   0.002213   0.000461  -0.041300  -0.114529   0.475417
     8  C   -0.001674   0.004483   0.002672  -0.011782  -0.025546  -0.012291
     9  Br   0.000012  -0.000603   0.000043   0.015638   0.001168   0.007991
    10  C    0.032420  -0.021863   0.044940   0.125252  -0.035209  -0.096521
    11  H    0.397448  -0.045111   0.007036   0.017997   0.000271   0.000038
    12  H    0.400291  -0.039761   0.001751   0.011905  -0.005366   0.000228
    13  H    0.400371  -0.039863   0.001754   0.011966  -0.005386   0.000228
    14  H    0.000041   0.000263  -0.000037  -0.071882   0.437210  -0.025456
    15  H   -0.000009   0.000103  -0.000003  -0.000995   0.005169  -0.030977
    16  H    0.002153  -0.003108   0.021398  -0.053941   0.003816  -0.002346
               7          8          9         10         11         12
     1  C    0.001070  -0.001674   0.000012   0.032420   0.397448   0.400291
     2  C    0.002213   0.004483  -0.000603  -0.021863  -0.045111  -0.039761
     3  O    0.000461   0.002672   0.000043   0.044940   0.007036   0.001751
     4  C   -0.041300  -0.011782   0.015638   0.125252   0.017997   0.011905
     5  C   -0.114529  -0.025546   0.001168  -0.035209   0.000271  -0.005366
     6  N    0.475417  -0.012291   0.007991  -0.096521   0.000038   0.000228
     7  C    4.937410   0.426090  -0.072068  -0.011525  -0.000010  -0.000136
     8  C    0.426090   4.914535   0.369120   0.392718   0.000037   0.000059
     9  Br  -0.072068   0.369120  34.875000  -0.109058  -0.000000  -0.000000
    10  C   -0.011525   0.392718  -0.109058   5.413617  -0.001704  -0.002417
    11  H   -0.000010   0.000037  -0.000000  -0.001704   0.475645  -0.011944
    12  H   -0.000136   0.000059  -0.000000  -0.002417  -0.011944   0.494752
    13  H   -0.000137   0.000059  -0.000000  -0.002419  -0.011945  -0.031557
    14  H    0.007081  -0.001090   0.000070   0.004353   0.000392  -0.003578
    15  H    0.436838  -0.067529  -0.000941   0.006501   0.000000   0.000001
    16  H    0.007790  -0.036238  -0.006200   0.422907  -0.000093  -0.000127
              13         14         15         16
     1  C    0.400371   0.000041  -0.000009   0.002153
     2  C   -0.039863   0.000263   0.000103  -0.003108
     3  O    0.001754  -0.000037  -0.000003   0.021398
     4  C    0.011966  -0.071882  -0.000995  -0.053941
     5  C   -0.005386   0.437210   0.005169   0.003816
     6  N    0.000228  -0.025456  -0.030977  -0.002346
     7  C   -0.000137   0.007081   0.436838   0.007790
     8  C    0.000059  -0.001090  -0.067529  -0.036238
     9  Br  -0.000000   0.000070  -0.000941  -0.006200
    10  C   -0.002419   0.004353   0.006501   0.422907
    11  H   -0.011945   0.000392   0.000000  -0.000093
    12  H   -0.031557  -0.003578   0.000001  -0.000127
    13  H    0.494742  -0.003579   0.000001  -0.000127
    14  H   -0.003579   0.472777  -0.000025  -0.000093
    15  H    0.000001  -0.000025   0.468678  -0.000038
    16  H   -0.000127  -0.000093  -0.000038   0.435678
 Mulliken charges:
               1
     1  C   -0.535516
     2  C    0.295858
     3  O   -0.327907
     4  C    0.006980
     5  C   -0.074625
     6  N   -0.233421
     7  C   -0.054665
     8  C    0.046378
     9  Br  -0.080171
    10  C   -0.161992
    11  H    0.171944
    12  H    0.185897
    13  H    0.185892
    14  H    0.183553
    15  H    0.183225
    16  H    0.208569
 Sum of Mulliken charges =   0.00000
 Mulliken charges with hydrogens summed into heavy atoms:
               1
     1  C    0.008217
     2  C    0.295858
     3  O   -0.327907
     4  C    0.006980
     5  C    0.108928
     6  N   -0.233421
     7  C    0.128560
     8  C    0.046378
     9  Br  -0.080171
    10  C    0.046578
 Electronic spatial extent (au):  <R**2>=           2559.7133
 Charge=              0.0000 electrons
 Dipole moment (field-independent basis, Debye):
    X=              1.5153    Y=              1.5682    Z=             -0.0008  Tot=              2.1807
 Quadrupole moment (field-independent basis, Debye-Ang):
   XX=            -60.8477   YY=            -80.3439   ZZ=            -71.2687
   XY=              6.2368   XZ=             -0.0023   YZ=              0.0014
 Traceless Quadrupole moment (field-independent basis, Debye-Ang):
   XX=              9.9724   YY=             -9.5238   ZZ=             -0.4486
   XY=              6.2368   XZ=             -0.0023   YZ=              0.0014
 Octapole moment (field-independent basis, Debye-Ang**2):
  XXX=            -31.4276  YYY=            -24.7084  ZZZ=             -0.0011  XYY=            -48.0553
  XXY=             19.4162  XXZ=             -0.0064  XZZ=            -20.9674  YZZ=             -7.5063
  YYZ=             -0.0049  XYZ=              0.0039
 Hexadecapole moment (field-independent basis, Debye-Ang**3):
 XXXX=          -2065.4419 YYYY=           -750.4213 ZZZZ=            -84.4067 XXXY=             93.1609
 XXXZ=             -0.0094 YYYX=             47.2263 YYYZ=              0.0026 ZZZX=              0.0069
 ZZZY=             -0.0025 XXYY=           -512.2392 XXZZ=           -393.5464 YYZZ=           -125.5636
 XXYZ=              0.0156 YYXZ=             -0.0090 ZZXY=              8.5492
 N-N= 6.986257074886D+02 E-N=-8.481663008085D+03  KE= 2.969081947511D+03
 Calculating spin-rotation constants.
 Leave Link  601 at Tue Sep 17 10:24:14 2024, MaxMem=  1342177280 cpu:               2.2 elap:               2.2
 (Enter /groups/ReismanLab/Software/Gaussian16_RevC/Linux_Binary_AVX2-enabled-CPU/g16/l9999.exe)
 Unable to Open any file for archive entry.
 1\1\GINC-HPC-52-28\SP\RM062X\def2TZVP\C7H6Br1N1O1\MANTIND\17-Sep-2024\
 0\\#p M062X/def2tzvp geom=check guess=read scf(xqc,tight) integral(gri
 d=ultrafine) scrf(SMD, solvent=1,4-Dioxane) nmr=giao\\spe\\0,1\C,0,-4.
 2587933581,0.1876492585,0.2539570967\C,0,-2.8914441806,0.8109388766,0.
 0665271039\O,0,-2.7533085325,2.0164892441,-0.0577040239\C,0,-1.6918532
 914,-0.0895047614,0.0354777813\C,0,-1.7655834324,-1.4807327245,0.17113
 25565\N,0,-0.6974548933,-2.2863370426,0.1438277304\C,0,0.5028005142,-1
 .7260588662,-0.0223299239\C,0,0.6751182466,-0.3452660859,-0.1663687528
 \Br,0,2.4278084268,0.3619820688,-0.3987544846\C,0,-0.4289850092,0.4903
 871288,-0.138418276\H,0,-5.0084836063,0.9784586499,0.2520427069\H,0,-4
 .3089012444,-0.3626673309,1.1996214061\H,0,-4.4750163773,-0.5245505284
 ,-0.5495367158\H,0,-2.7230766777,-1.9755291012,0.3080458393\H,0,1.3628
 39632,-2.3897000576,-0.0428897365\H,0,-0.3476011846,1.5655685826,-0.24
 55353985\\Version=ES64L-G16RevC.02\State=1-A\HF=-2974.5152701\RMSD=4.6
 20e-09\Dipole=-0.6049416,-0.5978803,0.1125523\Quadrupole=7.5126815,-7.
 2659884,-0.2466931,4.2556662,-1.1389258,0.2340964\PG=C01 [X(C7H6Br1N1O
 1)]\\@
 The archive entry for this job was punched.


 ... FOR AFTERWARDS A MAN FINDS PLEASURE IN HIS PAINS,
 WHEN HE HAS SUFFERED LONG AND WANDERED FAR.

                                    -- HOMER
 Job cpu time:       0 days  0 hours  7 minutes 50.4 seconds.
 Elapsed time:       0 days  0 hours  7 minutes 51.9 seconds.
 File lengths (MBytes):  RWF=    232 Int=      0 D2E=      0 Chk=     24 Scr=     16
 Normal termination of Gaussian 16 at Tue Sep 17 10:24:14 2024.
