 Entering Gaussian System, Link 0=g16
 Input=smiles_00057_conf_0.gjf
 Output=smiles_00057_conf_0.log
 Initial command:
 /groups/ReismanLab/Software/Gaussian16_RevC/Linux_Binary_AVX2-enabled-CPU/g16/l1.exe "/central/groups/ReismanLab/DM/dft_final/smiles_00057/Gau-118109.inp" -scrdir="/central/groups/ReismanLab/DM/dft_final/smiles_00057/"
 Entering Link 1 = /groups/ReismanLab/Software/Gaussian16_RevC/Linux_Binary_AVX2-enabled-CPU/g16/l1.exe PID=    118110.
  
 Copyright (c) 1988-2021, Gaussian, Inc.  All Rights Reserved.
  
 This is part of the Gaussian(R) 16 program.  It is based on
 the Gaussian(R) 09 system (copyright 2009, Gaussian, Inc.),
 the Gaussian(R) 03 system (copyright 2003, Gaussian, Inc.),
 the Gaussian(R) 98 system (copyright 1998, Gaussian, Inc.),
 the Gaussian(R) 94 system (copyright 1995, Gaussian, Inc.),
 the Gaussian 92(TM) system (copyright 1992, Gaussian, Inc.),
 the Gaussian 90(TM) system (copyright 1990, Gaussian, Inc.),
 the Gaussian 88(TM) system (copyright 1988, Gaussian, Inc.),
 the Gaussian 86(TM) system (copyright 1986, Carnegie Mellon
 University), and the Gaussian 82(TM) system (copyright 1983,
 Carnegie Mellon University). Gaussian is a federally registered
 trademark of Gaussian, Inc.
  
 This software contains proprietary and confidential information,
 including trade secrets, belonging to Gaussian, Inc.
  
 This software is provided under written license and may be
 used, copied, transmitted, or stored only in accord with that
 written license.
  
 The following legend is applicable only to US Government
 contracts under FAR:
  
                    RESTRICTED RIGHTS LEGEND
  
 Use, reproduction and disclosure by the US Government is
 subject to restrictions as set forth in subparagraphs (a)
 and (c) of the Commercial Computer Software - Restricted
 Rights clause in FAR 52.227-19.
  
 Gaussian, Inc.
 340 Quinnipiac St., Bldg. 40, Wallingford CT 06492
  
  
 ---------------------------------------------------------------
 Warning -- This program may not be used in any manner that
 competes with the business of Gaussian, Inc. or will provide
 assistance to any competitor of Gaussian, Inc.  The licensee
 of this program is prohibited from giving any competitor of
 Gaussian, Inc. access to this program.  By using this program,
 the user acknowledges that Gaussian, Inc. is engaged in the
 business of creating and licensing software in the field of
 computational chemistry and represents and warrants to the
 licensee that it is not a competitor of Gaussian, Inc. and that
 it will not use this program in any manner prohibited above.
 ---------------------------------------------------------------
  

 Cite this work as:
 Gaussian 16, Revision C.02,
 M. J. Frisch, G. W. Trucks, H. B. Schlegel, G. E. Scuseria, 
 M. A. Robb, J. R. Cheeseman, G. Scalmani, V. Barone, 
 G. A. Petersson, H. Nakatsuji, X. Li, M. Caricato, A. V. Marenich, 
 J. Bloino, B. G. Janesko, R. Gomperts, B. Mennucci, H. P. Hratchian, 
 J. V. Ortiz, A. F. Izmaylov, J. L. Sonnenberg, D. Williams-Young, 
 F. Ding, F. Lipparini, F. Egidi, J. Goings, B. Peng, A. Petrone, 
 T. Henderson, D. Ranasinghe, V. G. Zakrzewski, J. Gao, N. Rega, 
 G. Zheng, W. Liang, M. Hada, M. Ehara, K. Toyota, R. Fukuda, 
 J. Hasegawa, M. Ishida, T. Nakajima, Y. Honda, O. Kitao, H. Nakai, 
 T. Vreven, K. Throssell, J. A. Montgomery, Jr., J. E. Peralta, 
 F. Ogliaro, M. J. Bearpark, J. J. Heyd, E. N. Brothers, K. N. Kudin, 
 V. N. Staroverov, T. A. Keith, R. Kobayashi, J. Normand, 
 K. Raghavachari, A. P. Rendell, J. C. Burant, S. S. Iyengar, 
 J. Tomasi, M. Cossi, J. M. Millam, M. Klene, C. Adamo, R. Cammi, 
 J. W. Ochterski, R. L. Martin, K. Morokuma, O. Farkas, 
 J. B. Foresman, and D. J. Fox, Gaussian, Inc., Wallingford CT, 2019.
 
 ******************************************
 Gaussian 16:  ES64L-G16RevC.02  7-Dec-2021
                17-Sep-2024 
 ******************************************
 %nprocshared=8
 Will use up to    8 processors via shared memory.
 %Mem=10GB
 %Chk=smiles_00057_conf_0.chk
 ----------------------------------------------------------------------
 #p B3LYP/6-31G(d,p) EmpiricalDispersion=GD3BJ opt freq scf(xqc,tight) 
 integral(grid=ultrafine)
 ----------------------------------------------------------------------
 1/18=20,19=15,26=4,38=1/1,3;
 2/9=110,12=2,17=6,18=5,40=1/2;
 3/5=1,6=6,7=101,11=2,25=1,30=1,71=1,74=-5,75=-5,124=41/1,2,3;
 4//1;
 5/5=2,8=3,13=1,32=2,38=5/2,8;
 6/7=2,8=2,9=2,10=2,28=1/1;
 7//1,2,3,16;
 1/18=20,19=15,26=4/3(2);
 2/9=110/2;
 99//99;
 2/9=110/2;
 3/5=1,6=6,7=101,11=2,25=1,30=1,71=1,74=-5,75=-5,124=41/1,2,3;
 4/5=5,16=3,69=1/1;
 5/5=2,8=3,13=1,32=2,38=5/2,8;
 7//1,2,3,16;
 1/18=20,19=15,26=4/3(-5);
 2/9=110/2;
 6/7=2,8=2,9=2,10=2,19=2,28=1/1;
 99/9=1/99;
 Leave Link    1 at Tue Sep 17 09:54:48 2024, MaxMem=  1342177280 cpu:               0.1 elap:               0.6
 (Enter /groups/ReismanLab/Software/Gaussian16_RevC/Linux_Binary_AVX2-enabled-CPU/g16/l101.exe)
 ----------------------------------
 opt-freq conformers_unique/conf_aa
 ----------------------------------
 Symbolic Z-matrix:
 Charge =  0 Multiplicity = 1
 N                     3.51768  -1.28354   0.00016 
 C                     2.54162  -0.68577  -0.00012 
 C                     1.30457   0.01895  -0.00015 
 C                     0.11196  -0.70752  -0.00003 
 C                    -1.07297   0.0128    0.00012 
 Cl                   -2.58624  -0.81276  -0.00001 
 C                    -1.02881   1.40058   0.00005 
 C                     0.21965   2.01005   0.00003 
 N                     1.35657   1.34714  -0.00005 
 H                     0.11893  -1.78574  -0.00005 
 H                    -1.93416   1.98466   0.00006 
 H                     0.30987   3.08759   0.00013 
 
 ITRead=  0  0  0  0  0  0  0  0  0  0  0  0
 MicOpt= -1 -1 -1 -1 -1 -1 -1 -1 -1 -1 -1 -1
 NAtoms=     12 NQM=       12 NQMF=       0 NMMI=      0 NMMIF=      0
                NMic=       0 NMicF=      0.
                    Isotopes and Nuclear Properties:
 (Nuclear quadrupole moments (NQMom) in fm**2, nuclear magnetic moments (NMagM)
  in nuclear magnetons)

  Atom         1           2           3           4           5           6           7           8           9          10
 IAtWgt=          14          12          12          12          12          35          12          12          14           1
 AtmWgt=  14.0030740  12.0000000  12.0000000  12.0000000  12.0000000  34.9688527  12.0000000  12.0000000  14.0030740   1.0078250
 NucSpn=           2           0           0           0           0           3           0           0           2           1
 AtZEff=  -0.0000000  -0.0000000  -0.0000000  -0.0000000  -0.0000000  -0.0000000  -0.0000000  -0.0000000  -0.0000000  -0.0000000
 NQMom=    2.0440000   0.0000000   0.0000000   0.0000000   0.0000000  -8.1650000   0.0000000   0.0000000   2.0440000   0.0000000
 NMagM=    0.4037610   0.0000000   0.0000000   0.0000000   0.0000000   0.8218740   0.0000000   0.0000000   0.4037610   2.7928460
 AtZNuc=   7.0000000   6.0000000   6.0000000   6.0000000   6.0000000  17.0000000   6.0000000   6.0000000   7.0000000   1.0000000

  Atom        11          12
 IAtWgt=           1           1
 AtmWgt=   1.0078250   1.0078250
 NucSpn=           1           1
 AtZEff=  -0.0000000  -0.0000000
 NQMom=    0.0000000   0.0000000
 NMagM=    2.7928460   2.7928460
 AtZNuc=   1.0000000   1.0000000
 Leave Link  101 at Tue Sep 17 09:54:49 2024, MaxMem=  1342177280 cpu:               0.2 elap:               0.2
 (Enter /groups/ReismanLab/Software/Gaussian16_RevC/Linux_Binary_AVX2-enabled-CPU/g16/l103.exe)

 GradGradGradGradGradGradGradGradGradGradGradGradGradGradGradGradGradGrad
 Berny optimization.
 Initialization pass.
                           ----------------------------
                           !    Initial Parameters    !
                           ! (Angstroms and Degrees)  !
 --------------------------                            --------------------------
 ! Name  Definition              Value          Derivative Info.                !
 --------------------------------------------------------------------------------
 ! R1    R(1,2)                  1.1446         estimate D2E/DX2                !
 ! R2    R(2,3)                  1.4237         estimate D2E/DX2                !
 ! R3    R(3,4)                  1.3965         estimate D2E/DX2                !
 ! R4    R(3,9)                  1.3292         estimate D2E/DX2                !
 ! R5    R(4,5)                  1.3867         estimate D2E/DX2                !
 ! R6    R(4,10)                 1.0782         estimate D2E/DX2                !
 ! R7    R(5,6)                  1.7238         estimate D2E/DX2                !
 ! R8    R(5,7)                  1.3885         estimate D2E/DX2                !
 ! R9    R(7,8)                  1.3893         estimate D2E/DX2                !
 ! R10   R(7,11)                 1.0774         estimate D2E/DX2                !
 ! R11   R(8,9)                  1.3161         estimate D2E/DX2                !
 ! R12   R(8,12)                 1.0813         estimate D2E/DX2                !
 ! A1    A(2,3,4)              118.9832         estimate D2E/DX2                !
 ! A2    A(2,3,9)              117.4273         estimate D2E/DX2                !
 ! A3    A(4,3,9)              123.5894         estimate D2E/DX2                !
 ! A4    A(3,4,5)              117.3573         estimate D2E/DX2                !
 ! A5    A(3,4,10)             120.9773         estimate D2E/DX2                !
 ! A6    A(5,4,10)             121.6654         estimate D2E/DX2                !
 ! A7    A(4,5,6)              120.0904         estimate D2E/DX2                !
 ! A8    A(4,5,7)              119.4725         estimate D2E/DX2                !
 ! A9    A(6,5,7)              120.4371         estimate D2E/DX2                !
 ! A10   A(5,7,8)              117.8434         estimate D2E/DX2                !
 ! A11   A(5,7,11)             121.0052         estimate D2E/DX2                !
 ! A12   A(8,7,11)             121.1515         estimate D2E/DX2                !
 ! A13   A(7,8,9)              123.7343         estimate D2E/DX2                !
 ! A14   A(7,8,12)             120.8069         estimate D2E/DX2                !
 ! A15   A(9,8,12)             115.4588         estimate D2E/DX2                !
 ! A16   A(3,9,8)              118.0031         estimate D2E/DX2                !
 ! A17   L(1,2,3,10,-1)        178.1849         estimate D2E/DX2                !
 ! A18   L(1,2,3,10,-2)        179.9849         estimate D2E/DX2                !
 ! D1    D(2,3,4,5)            179.9917         estimate D2E/DX2                !
 ! D2    D(2,3,4,10)            -0.0079         estimate D2E/DX2                !
 ! D3    D(9,3,4,5)              0.004          estimate D2E/DX2                !
 ! D4    D(9,3,4,10)          -179.9956         estimate D2E/DX2                !
 ! D5    D(2,3,9,8)           -179.9946         estimate D2E/DX2                !
 ! D6    D(4,3,9,8)             -0.0068         estimate D2E/DX2                !
 ! D7    D(3,4,5,6)            179.9893         estimate D2E/DX2                !
 ! D8    D(3,4,5,7)              0.0044         estimate D2E/DX2                !
 ! D9    D(10,4,5,6)            -0.0112         estimate D2E/DX2                !
 ! D10   D(10,4,5,7)          -179.9961         estimate D2E/DX2                !
 ! D11   D(4,5,7,8)             -0.0094         estimate D2E/DX2                !
 ! D12   D(4,5,7,11)           179.9937         estimate D2E/DX2                !
 ! D13   D(6,5,7,8)           -179.9942         estimate D2E/DX2                !
 ! D14   D(6,5,7,11)             0.0089         estimate D2E/DX2                !
 ! D15   D(5,7,8,9)              0.0068         estimate D2E/DX2                !
 ! D16   D(5,7,8,12)          -179.9911         estimate D2E/DX2                !
 ! D17   D(11,7,8,9)          -179.9963         estimate D2E/DX2                !
 ! D18   D(11,7,8,12)            0.0058         estimate D2E/DX2                !
 ! D19   D(7,8,9,3)              0.0012         estimate D2E/DX2                !
 ! D20   D(12,8,9,3)           179.9992         estimate D2E/DX2                !
 --------------------------------------------------------------------------------
 Trust Radius=3.00D-01 FncErr=1.00D-07 GrdErr=1.00D-06 EigMax=2.50D+02 EigMin=1.00D-04
 Number of steps in this run=     60 maximum allowed number of steps=    100.
 GradGradGradGradGradGradGradGradGradGradGradGradGradGradGradGradGradGrad

 Leave Link  103 at Tue Sep 17 09:54:49 2024, MaxMem=  1342177280 cpu:               0.0 elap:               0.0
 (Enter /groups/ReismanLab/Software/Gaussian16_RevC/Linux_Binary_AVX2-enabled-CPU/g16/l202.exe)
                          Input orientation:                          
 ---------------------------------------------------------------------
 Center     Atomic      Atomic             Coordinates (Angstroms)
 Number     Number       Type             X           Y           Z
 ---------------------------------------------------------------------
      1          7           0        3.517679   -1.283543    0.000157
      2          6           0        2.541617   -0.685775   -0.000118
      3          6           0        1.304572    0.018947   -0.000147
      4          6           0        0.111963   -0.707523   -0.000031
      5          6           0       -1.072972    0.012795    0.000115
      6         17           0       -2.586240   -0.812757   -0.000013
      7          6           0       -1.028808    1.400580    0.000047
      8          6           0        0.219646    2.010047    0.000033
      9          7           0        1.356571    1.347141   -0.000049
     10          1           0        0.118928   -1.785740   -0.000046
     11          1           0       -1.934157    1.984662    0.000056
     12          1           0        0.309870    3.087588    0.000126
 ---------------------------------------------------------------------
                    Distance matrix (angstroms):
                    1          2          3          4          5
     1  N    0.000000
     2  C    1.144563   0.000000
     3  C    2.567942   1.423697   0.000000
     4  C    3.454085   2.429751   1.396450   0.000000
     5  C    4.770176   3.681475   2.377552   1.386698   0.000000
     6  Cl   6.122047   5.129429   3.978711   2.700254   1.723808
     7  C    5.279684   4.135313   2.711747   2.396968   1.388487
     8  C    4.660983   3.557950   2.267498   2.719703   2.379050
     9  N    3.404540   2.353101   1.329212   2.402227   2.771852
    10  H    3.435653   2.660704   2.159316   1.078240   2.157627
    11  H    6.356389   5.211889   3.788588   3.381488   2.151719
    12  H    5.421884   4.383944   3.225832   3.800268   3.371440
                    6          7          8          9         10
     6  Cl   0.000000
     7  C    2.706373   0.000000
     8  C    3.980103   1.389276   0.000000
     9  N    4.495655   2.385978   1.316072   0.000000
    10  H    2.874826   3.386729   3.797124   3.368488   0.000000
    11  H    2.872415   1.077408   2.153952   3.351913   4.293144
    12  H    4.857998   2.153615   1.081312   2.030945   4.877068
                   11         12
    11  H    0.000000
    12  H    2.500421   0.000000
 Stoichiometry    C6H3ClN2
 Framework group  C1[X(C6H3ClN2)]
 Deg. of freedom    30
 Full point group                 C1      NOp   1
 Largest Abelian subgroup         C1      NOp   1
 Largest concise Abelian subgroup C1      NOp   1
                         Standard orientation:                         
 ---------------------------------------------------------------------
 Center     Atomic      Atomic             Coordinates (Angstroms)
 Number     Number       Type             X           Y           Z
 ---------------------------------------------------------------------
      1          7           0        3.523168   -1.257021    0.000156
      2          6           0        2.537355   -0.675473   -0.000119
      3          6           0        1.288826    0.008698   -0.000149
      4          6           0        0.108393   -0.737392   -0.000032
      5          6           0       -1.088291   -0.036765    0.000114
      6         17           0       -2.587701   -0.887227   -0.000014
      7          6           0       -1.067079    1.351560    0.000046
      8          6           0        0.171126    1.981587    0.000032
      9          7           0        1.318857    1.337570   -0.000050
     10          1           0        0.133185   -1.815347   -0.000047
     11          1           0       -1.981962    1.920592    0.000055
     12          1           0        0.243522    3.060473    0.000124
 ---------------------------------------------------------------------
 Rotational constants (GHZ):           2.9374026           0.8992537           0.6884824
 Leave Link  202 at Tue Sep 17 09:54:49 2024, MaxMem=  1342177280 cpu:               0.0 elap:               0.0
 (Enter /groups/ReismanLab/Software/Gaussian16_RevC/Linux_Binary_AVX2-enabled-CPU/g16/l301.exe)
 Standard basis: 6-31G(d,p) (6D, 7F)
 Ernie: Thresh=  0.10000D-02 Tol=  0.10000D-05 Strict=F.
 There are   154 symmetry adapted cartesian basis functions of A   symmetry.
 There are   154 symmetry adapted basis functions of A   symmetry.
   154 basis functions,   297 primitive gaussians,   154 cartesian basis functions
    35 alpha electrons       35 beta electrons
       nuclear repulsion energy       436.1203596801 Hartrees.
 IExCor=  402 DFT=T Ex+Corr=B3LYP ExCW=0 ScaHFX=  0.200000
 ScaDFX=  0.800000  0.720000  1.000000  0.810000 ScalE2=  1.000000  1.000000
 IRadAn=      5 IRanWt=     -1 IRanGd=            0 ICorTp=0 IEmpDi=141
 NAtoms=   12 NActive=   12 NUniq=   12 SFac= 1.00D+00 NAtFMM=   60 NAOKFM=F Big=F
 Integral buffers will be    131072 words long.
 Raffenetti 2 integral format.
 Two-electron integral symmetry is turned on.
 R6Disp:  Grimme-D3(BJ) Dispersion energy=       -0.0252645324 Hartrees.
 Nuclear repulsion after empirical dispersion term =      436.0950951477 Hartrees.
 Leave Link  301 at Tue Sep 17 09:54:49 2024, MaxMem=  1342177280 cpu:               0.1 elap:               0.1
 (Enter /groups/ReismanLab/Software/Gaussian16_RevC/Linux_Binary_AVX2-enabled-CPU/g16/l302.exe)
 NPDir=0 NMtPBC=     1 NCelOv=     1 NCel=       1 NClECP=     1 NCelD=      1
         NCelK=      1 NCelE2=     1 NClLst=     1 CellRange=     0.0.
 One-electron integrals computed using PRISM.
 One-electron integral symmetry used in STVInt
 NBasis=   154 RedAO= T EigKep=  7.54D-04  NBF=   154
 NBsUse=   154 1.00D-06 EigRej= -1.00D+00 NBFU=   154
 Precomputing XC quadrature grid using
 IXCGrd= 4 IRadAn=           5 IRanWt=          -1 IRanGd=           0 AccXCQ= 0.00D+00.
 Generated NRdTot=       0 NPtTot=           0 NUsed=           0 NTot=          32
 NSgBfM=   154   154   154   154   154 MxSgAt=    12 MxSgA2=    12.
 Leave Link  302 at Tue Sep 17 09:54:49 2024, MaxMem=  1342177280 cpu:               0.5 elap:               0.1
 (Enter /groups/ReismanLab/Software/Gaussian16_RevC/Linux_Binary_AVX2-enabled-CPU/g16/l303.exe)
 DipDrv:  MaxL=1.
 Leave Link  303 at Tue Sep 17 09:54:49 2024, MaxMem=  1342177280 cpu:               0.1 elap:               0.0
 (Enter /groups/ReismanLab/Software/Gaussian16_RevC/Linux_Binary_AVX2-enabled-CPU/g16/l401.exe)
 ExpMin= 1.43D-01 ExpMax= 2.52D+04 ExpMxC= 3.78D+03 IAcc=3 IRadAn=         5 AccDes= 0.00D+00
 Harris functional with IExCor=  402 and IRadAn=       5 diagonalized for initial guess.
 HarFok:  IExCor=  402 AccDes= 0.00D+00 IRadAn=         5 IDoV= 1 UseB2=F ITyADJ=14
 ICtDFT=  3500011 ScaDFX=  1.000000  1.000000  1.000000  1.000000
 FoFCou: FMM=F IPFlag=           0 FMFlag=      100000 FMFlg1=           0
         NFxFlg=           0 DoJE=T BraDBF=F KetDBF=T FulRan=T
         wScrn=  0.000000 ICntrl=       500 IOpCl=  0 I1Cent=   200000004 NGrid=           0
         NMat0=    1 NMatS0=      1 NMatT0=    0 NMatD0=    1 NMtDS0=    0 NMtDT0=    0
 Petite list used in FoFCou.
 Harris En= -800.057676315599    
 JPrj=0 DoOrth=F DoCkMO=F.
 Leave Link  401 at Tue Sep 17 09:54:49 2024, MaxMem=  1342177280 cpu:               2.1 elap:               0.3
 (Enter /groups/ReismanLab/Software/Gaussian16_RevC/Linux_Binary_AVX2-enabled-CPU/g16/l502.exe)
 Keep R1 ints in memory in canonical form, NReq=79073604.
 FoFCou: FMM=F IPFlag=           0 FMFlag=           0 FMFlg1=           0
         NFxFlg=           0 DoJE=F BraDBF=F KetDBF=F FulRan=T
         wScrn=  0.000000 ICntrl=       600 IOpCl=  0 I1Cent=           0 NGrid=           0
         NMat0=    1 NMatS0=  11935 NMatT0=    0 NMatD0=    1 NMtDS0=    0 NMtDT0=    0
 Symmetry not used in FoFCou.
 Two-electron integral symmetry not used.
 Closed shell SCF:
 Using DIIS extrapolation, IDIIS=  1040.
 NGot=  1342177280 LenX=  1270898622 LenY=  1270874465
 Requested convergence on RMS density matrix=1.00D-08 within  32 cycles.
 Requested convergence on MAX density matrix=1.00D-06.
 Requested convergence on             energy=1.00D-06.
 No special actions if energy rises.
 Integral accuracy reduced to 1.0D-05 until final iterations.

 Cycle   1  Pass 0  IDiag  1:
 E= -799.977357658479    
 DIIS: error= 3.71D-02 at cycle   1 NSaved=   1.
 NSaved= 1 IEnMin= 1 EnMin= -799.977357658479     IErMin= 1 ErrMin= 3.71D-02
 ErrMax= 3.71D-02  0.00D+00 EMaxC= 1.00D-01 BMatC= 1.71D-01 BMatP= 1.71D-01
 IDIUse=3 WtCom= 6.29D-01 WtEn= 3.71D-01
 Coeff-Com:  0.100D+01
 Coeff-En:   0.100D+01
 Coeff:      0.100D+01
 Gap=     0.360 Goal=   None    Shift=    0.000
 GapD=    0.360 DampG=1.000 DampE=0.500 DampFc=0.5000 IDamp=-1.
 Damping current iteration by 5.00D-01
 RMSDP=7.30D-03 MaxDP=2.32D-01              OVMax= 2.30D-01

 Cycle   2  Pass 0  IDiag  1:
 E= -800.038139679279     Delta-E=       -0.060782020800 Rises=F Damp=T
 DIIS: error= 1.35D-02 at cycle   2 NSaved=   2.
 NSaved= 2 IEnMin= 2 EnMin= -800.038139679279     IErMin= 2 ErrMin= 1.35D-02
 ErrMax= 1.35D-02  0.00D+00 EMaxC= 1.00D-01 BMatC= 2.38D-02 BMatP= 1.71D-01
 IDIUse=3 WtCom= 8.65D-01 WtEn= 1.35D-01
 Coeff-Com:  0.153D+00 0.847D+00
 Coeff-En:   0.247D+00 0.753D+00
 Coeff:      0.166D+00 0.834D+00
 Gap=     0.294 Goal=   None    Shift=    0.000
 RMSDP=2.16D-03 MaxDP=5.08D-02 DE=-6.08D-02 OVMax= 1.54D-01

 Cycle   3  Pass 0  IDiag  1:
 E= -800.119051526782     Delta-E=       -0.080911847502 Rises=F Damp=F
 DIIS: error= 2.07D-02 at cycle   3 NSaved=   3.
 NSaved= 3 IEnMin= 3 EnMin= -800.119051526782     IErMin= 2 ErrMin= 1.35D-02
 ErrMax= 2.07D-02  0.00D+00 EMaxC= 1.00D-01 BMatC= 2.80D-02 BMatP= 2.38D-02
 IDIUse=2 WtCom= 0.00D+00 WtEn= 1.00D+00
 Coeff-En:   0.000D+00 0.000D+00 0.100D+01
 Coeff:      0.000D+00 0.000D+00 0.100D+01
 Gap=     0.213 Goal=   None    Shift=    0.000
 RMSDP=3.46D-03 MaxDP=9.84D-02 DE=-8.09D-02 OVMax= 1.81D-01

 Cycle   4  Pass 0  IDiag  1:
 E= -799.981337427451     Delta-E=        0.137714099331 Rises=F Damp=F
 DIIS: error= 4.47D-02 at cycle   4 NSaved=   4.
 NSaved= 4 IEnMin= 3 EnMin= -800.119051526782     IErMin= 2 ErrMin= 1.35D-02
 ErrMax= 4.47D-02  0.00D+00 EMaxC= 1.00D-01 BMatC= 1.80D-01 BMatP= 2.38D-02
 IDIUse=2 WtCom= 0.00D+00 WtEn= 1.00D+00
 Coeff-En:   0.000D+00 0.000D+00 0.803D+00 0.197D+00
 Coeff:      0.000D+00 0.000D+00 0.803D+00 0.197D+00
 Gap=     0.213 Goal=   None    Shift=    0.000
 RMSDP=1.90D-03 MaxDP=5.71D-02 DE= 1.38D-01 OVMax= 9.31D-02

 Cycle   5  Pass 0  IDiag  1:
 E= -800.131238576605     Delta-E=       -0.149901149155 Rises=F Damp=F
 DIIS: error= 1.42D-02 at cycle   5 NSaved=   5.
 NSaved= 5 IEnMin= 5 EnMin= -800.131238576605     IErMin= 2 ErrMin= 1.35D-02
 ErrMax= 1.42D-02  0.00D+00 EMaxC= 1.00D-01 BMatC= 1.53D-02 BMatP= 2.38D-02
 IDIUse=3 WtCom= 8.58D-01 WtEn= 1.42D-01
 Coeff-Com:  0.558D-02 0.487D-02 0.342D+00-0.771D-01 0.725D+00
 Coeff-En:   0.000D+00 0.000D+00 0.388D+00 0.000D+00 0.612D+00
 Coeff:      0.479D-02 0.418D-02 0.349D+00-0.662D-01 0.709D+00
 Gap=     0.218 Goal=   None    Shift=    0.000
 RMSDP=7.41D-04 MaxDP=2.02D-02 DE=-1.50D-01 OVMax= 3.53D-02

 Cycle   6  Pass 0  IDiag  1:
 E= -800.144984651749     Delta-E=       -0.013746075144 Rises=F Damp=F
 DIIS: error= 6.67D-04 at cycle   6 NSaved=   6.
 NSaved= 6 IEnMin= 6 EnMin= -800.144984651749     IErMin= 6 ErrMin= 6.67D-04
 ErrMax= 6.67D-04  0.00D+00 EMaxC= 1.00D-01 BMatC= 7.34D-05 BMatP= 1.53D-02
 IDIUse=3 WtCom= 9.93D-01 WtEn= 6.67D-03
 Coeff-Com:  0.124D-02-0.260D-03 0.170D+00-0.638D-01 0.457D+00 0.435D+00
 Coeff-En:   0.000D+00 0.000D+00 0.000D+00 0.000D+00 0.000D+00 0.100D+01
 Coeff:      0.123D-02-0.259D-03 0.169D+00-0.634D-01 0.454D+00 0.439D+00
 Gap=     0.216 Goal=   None    Shift=    0.000
 RMSDP=7.18D-05 MaxDP=1.86D-03 DE=-1.37D-02 OVMax= 3.39D-03

 Cycle   7  Pass 0  IDiag  1:
 E= -800.145054472412     Delta-E=       -0.000069820663 Rises=F Damp=F
 DIIS: error= 2.01D-04 at cycle   7 NSaved=   7.
 NSaved= 7 IEnMin= 7 EnMin= -800.145054472412     IErMin= 7 ErrMin= 2.01D-04
 ErrMax= 2.01D-04  0.00D+00 EMaxC= 1.00D-01 BMatC= 3.58D-06 BMatP= 7.34D-05
 IDIUse=3 WtCom= 9.98D-01 WtEn= 2.01D-03
 Coeff-Com:  0.639D-03-0.132D-02 0.553D-01-0.228D-01 0.153D+00 0.213D+00
 Coeff-Com:  0.602D+00
 Coeff-En:   0.000D+00 0.000D+00 0.000D+00 0.000D+00 0.000D+00 0.000D+00
 Coeff-En:   0.100D+01
 Coeff:      0.637D-03-0.131D-02 0.552D-01-0.227D-01 0.153D+00 0.213D+00
 Coeff:      0.602D+00
 Gap=     0.216 Goal=   None    Shift=    0.000
 RMSDP=1.63D-05 MaxDP=4.38D-04 DE=-6.98D-05 OVMax= 1.11D-03

 Cycle   8  Pass 0  IDiag  1:
 E= -800.145057950962     Delta-E=       -0.000003478550 Rises=F Damp=F
 DIIS: error= 5.45D-05 at cycle   8 NSaved=   8.
 NSaved= 8 IEnMin= 8 EnMin= -800.145057950962     IErMin= 8 ErrMin= 5.45D-05
 ErrMax= 5.45D-05  0.00D+00 EMaxC= 1.00D-01 BMatC= 4.13D-07 BMatP= 3.58D-06
 IDIUse=1 WtCom= 1.00D+00 WtEn= 0.00D+00
 Coeff-Com:  0.425D-03-0.121D-02 0.147D-01-0.606D-02 0.392D-01 0.714D-01
 Coeff-Com:  0.318D+00 0.563D+00
 Coeff:      0.425D-03-0.121D-02 0.147D-01-0.606D-02 0.392D-01 0.714D-01
 Coeff:      0.318D+00 0.563D+00
 Gap=     0.216 Goal=   None    Shift=    0.000
 RMSDP=4.91D-06 MaxDP=1.74D-04 DE=-3.48D-06 OVMax= 3.31D-04

 Initial convergence to 1.0D-05 achieved.  Increase integral accuracy.
 Cycle   9  Pass 1  IDiag  1:
 E= -800.145052605255     Delta-E=        0.000005345707 Rises=F Damp=F
 DIIS: error= 1.63D-05 at cycle   1 NSaved=   1.
 NSaved= 1 IEnMin= 1 EnMin= -800.145052605255     IErMin= 1 ErrMin= 1.63D-05
 ErrMax= 1.63D-05  0.00D+00 EMaxC= 1.00D-01 BMatC= 3.82D-08 BMatP= 3.82D-08
 IDIUse=1 WtCom= 1.00D+00 WtEn= 0.00D+00
 Coeff-Com:  0.100D+01
 Coeff:      0.100D+01
 Gap=     0.216 Goal=   None    Shift=    0.000
 RMSDP=4.91D-06 MaxDP=1.74D-04 DE= 5.35D-06 OVMax= 1.76D-04

 Cycle  10  Pass 1  IDiag  1:
 E= -800.145052526682     Delta-E=        0.000000078573 Rises=F Damp=F
 DIIS: error= 3.05D-05 at cycle   2 NSaved=   2.
 NSaved= 2 IEnMin= 1 EnMin= -800.145052605255     IErMin= 1 ErrMin= 1.63D-05
 ErrMax= 3.05D-05  0.00D+00 EMaxC= 1.00D-01 BMatC= 1.22D-07 BMatP= 3.82D-08
 IDIUse=1 WtCom= 1.00D+00 WtEn= 0.00D+00
 Coeff-Com:  0.646D+00 0.354D+00
 Coeff:      0.646D+00 0.354D+00
 Gap=     0.216 Goal=   None    Shift=    0.000
 RMSDP=2.41D-06 MaxDP=7.90D-05 DE= 7.86D-08 OVMax= 1.23D-04

 Cycle  11  Pass 1  IDiag  1:
 E= -800.145052639565     Delta-E=       -0.000000112883 Rises=F Damp=F
 DIIS: error= 5.89D-06 at cycle   3 NSaved=   3.
 NSaved= 3 IEnMin= 3 EnMin= -800.145052639565     IErMin= 3 ErrMin= 5.89D-06
 ErrMax= 5.89D-06  0.00D+00 EMaxC= 1.00D-01 BMatC= 3.65D-09 BMatP= 3.82D-08
 IDIUse=1 WtCom= 1.00D+00 WtEn= 0.00D+00
 Coeff-Com:  0.332D+00 0.214D+00 0.454D+00
 Coeff:      0.332D+00 0.214D+00 0.454D+00
 Gap=     0.216 Goal=   None    Shift=    0.000
 RMSDP=5.04D-07 MaxDP=1.76D-05 DE=-1.13D-07 OVMax= 2.14D-05

 Cycle  12  Pass 1  IDiag  1:
 E= -800.145052642327     Delta-E=       -0.000000002763 Rises=F Damp=F
 DIIS: error= 2.54D-06 at cycle   4 NSaved=   4.
 NSaved= 4 IEnMin= 4 EnMin= -800.145052642327     IErMin= 4 ErrMin= 2.54D-06
 ErrMax= 2.54D-06  0.00D+00 EMaxC= 1.00D-01 BMatC= 6.25D-10 BMatP= 3.65D-09
 IDIUse=1 WtCom= 1.00D+00 WtEn= 0.00D+00
 Coeff-Com:  0.784D-01 0.641D-01 0.306D+00 0.552D+00
 Coeff:      0.784D-01 0.641D-01 0.306D+00 0.552D+00
 Gap=     0.216 Goal=   None    Shift=    0.000
 RMSDP=2.08D-07 MaxDP=4.13D-06 DE=-2.76D-09 OVMax= 1.03D-05

 Cycle  13  Pass 1  IDiag  1:
 E= -800.145052642843     Delta-E=       -0.000000000516 Rises=F Damp=F
 DIIS: error= 8.71D-07 at cycle   5 NSaved=   5.
 NSaved= 5 IEnMin= 5 EnMin= -800.145052642843     IErMin= 5 ErrMin= 8.71D-07
 ErrMax= 8.71D-07  0.00D+00 EMaxC= 1.00D-01 BMatC= 9.81D-11 BMatP= 6.25D-10
 IDIUse=1 WtCom= 1.00D+00 WtEn= 0.00D+00
 Coeff-Com: -0.178D-02 0.728D-02 0.125D+00 0.352D+00 0.517D+00
 Coeff:     -0.178D-02 0.728D-02 0.125D+00 0.352D+00 0.517D+00
 Gap=     0.216 Goal=   None    Shift=    0.000
 RMSDP=8.18D-08 MaxDP=1.70D-06 DE=-5.16D-10 OVMax= 3.58D-06

 Cycle  14  Pass 1  IDiag  1:
 E= -800.145052642944     Delta-E=       -0.000000000100 Rises=F Damp=F
 DIIS: error= 1.99D-07 at cycle   6 NSaved=   6.
 NSaved= 6 IEnMin= 6 EnMin= -800.145052642944     IErMin= 6 ErrMin= 1.99D-07
 ErrMax= 1.99D-07  0.00D+00 EMaxC= 1.00D-01 BMatC= 5.80D-12 BMatP= 9.81D-11
 IDIUse=1 WtCom= 1.00D+00 WtEn= 0.00D+00
 Coeff-Com: -0.683D-02-0.962D-03 0.447D-01 0.148D+00 0.279D+00 0.536D+00
 Coeff:     -0.683D-02-0.962D-03 0.447D-01 0.148D+00 0.279D+00 0.536D+00
 Gap=     0.216 Goal=   None    Shift=    0.000
 RMSDP=2.12D-08 MaxDP=5.94D-07 DE=-1.00D-10 OVMax= 7.63D-07

 Cycle  15  Pass 1  IDiag  1:
 E= -800.145052642949     Delta-E=       -0.000000000005 Rises=F Damp=F
 DIIS: error= 8.00D-08 at cycle   7 NSaved=   7.
 NSaved= 7 IEnMin= 7 EnMin= -800.145052642949     IErMin= 7 ErrMin= 8.00D-08
 ErrMax= 8.00D-08  0.00D+00 EMaxC= 1.00D-01 BMatC= 8.19D-13 BMatP= 5.80D-12
 IDIUse=1 WtCom= 1.00D+00 WtEn= 0.00D+00
 Coeff-Com: -0.373D-02-0.112D-02 0.146D-01 0.527D-01 0.115D+00 0.321D+00
 Coeff-Com:  0.502D+00
 Coeff:     -0.373D-02-0.112D-02 0.146D-01 0.527D-01 0.115D+00 0.321D+00
 Coeff:      0.502D+00
 Gap=     0.216 Goal=   None    Shift=    0.000
 RMSDP=7.81D-09 MaxDP=2.42D-07 DE=-5.23D-12 OVMax= 4.36D-07

 SCF Done:  E(RB3LYP) =  -800.145052643     A.U. after   15 cycles
            NFock= 15  Conv=0.78D-08     -V/T= 2.0054
 KE= 7.958302225057D+02 PE=-2.754287501254D+03 EE= 7.222171309578D+02
 Leave Link  502 at Tue Sep 17 09:54:54 2024, MaxMem=  1342177280 cpu:              24.6 elap:               4.5
 (Enter /groups/ReismanLab/Software/Gaussian16_RevC/Linux_Binary_AVX2-enabled-CPU/g16/l508.exe)
 QCSCF skips out because SCF is already converged.
 Leave Link  508 at Tue Sep 17 09:54:54 2024, MaxMem=  1342177280 cpu:               0.0 elap:               0.0
 (Enter /groups/ReismanLab/Software/Gaussian16_RevC/Linux_Binary_AVX2-enabled-CPU/g16/l601.exe)
 Copying SCF densities to generalized density rwf, IOpCl= 0 IROHF=0.

 **********************************************************************

            Population analysis using the SCF Density.

 **********************************************************************

 Orbital symmetries:
       Occupied  (A) (A) (A) (A) (A) (A) (A) (A) (A) (A) (A) (A)
                 (A) (A) (A) (A) (A) (A) (A) (A) (A) (A) (A) (A)
                 (A) (A) (A) (A) (A) (A) (A) (A) (A) (A) (A)
       Virtual   (A) (A) (A) (A) (A) (A) (A) (A) (A) (A) (A) (A)
                 (A) (A) (A) (A) (A) (A) (A) (A) (A) (A) (A) (A)
                 (A) (A) (A) (A) (A) (A) (A) (A) (A) (A) (A) (A)
                 (A) (A) (A) (A) (A) (A) (A) (A) (A) (A) (A) (A)
                 (A) (A) (A) (A) (A) (A) (A) (A) (A) (A) (A) (A)
                 (A) (A) (A) (A) (A) (A) (A) (A) (A) (A) (A) (A)
                 (A) (A) (A) (A) (A) (A) (A) (A) (A) (A) (A) (A)
                 (A) (A) (A) (A) (A) (A) (A) (A) (A) (A) (A) (A)
                 (A) (A) (A) (A) (A) (A) (A) (A) (A) (A) (A) (A)
                 (A) (A) (A) (A) (A) (A) (A) (A) (A) (A) (A)
 The electronic state is 1-A.
 Alpha  occ. eigenvalues -- -101.58176 -14.36495 -14.34693 -10.29615 -10.28576
 Alpha  occ. eigenvalues --  -10.25858 -10.24327 -10.23836 -10.23539  -9.49847
 Alpha  occ. eigenvalues --   -7.26253  -7.25276  -7.25217  -0.99524  -0.92227
 Alpha  occ. eigenvalues --   -0.91639  -0.81931  -0.81270  -0.70004  -0.66499
 Alpha  occ. eigenvalues --   -0.57750  -0.54158  -0.52872  -0.48174  -0.45738
 Alpha  occ. eigenvalues --   -0.45403  -0.42513  -0.39770  -0.37178  -0.36237
 Alpha  occ. eigenvalues --   -0.35182  -0.34282  -0.30060  -0.29305  -0.29265
 Alpha virt. eigenvalues --   -0.07664  -0.05412   0.00372   0.03464   0.06148
 Alpha virt. eigenvalues --    0.11145   0.11983   0.14746   0.15023   0.18479
 Alpha virt. eigenvalues --    0.21807   0.24605   0.28948   0.29553   0.35308
 Alpha virt. eigenvalues --    0.37616   0.39481   0.39653   0.41490   0.43252
 Alpha virt. eigenvalues --    0.48470   0.50380   0.50993   0.52213   0.56173
 Alpha virt. eigenvalues --    0.56687   0.57205   0.57540   0.60509   0.60558
 Alpha virt. eigenvalues --    0.63915   0.64849   0.66070   0.67901   0.70823
 Alpha virt. eigenvalues --    0.72772   0.77528   0.78439   0.79924   0.81893
 Alpha virt. eigenvalues --    0.82054   0.83495   0.84278   0.84507   0.86458
 Alpha virt. eigenvalues --    0.89004   0.89743   0.94714   0.96179   0.97217
 Alpha virt. eigenvalues --    1.05979   1.07637   1.11948   1.17883   1.19830
 Alpha virt. eigenvalues --    1.22930   1.27449   1.29216   1.31238   1.33878
 Alpha virt. eigenvalues --    1.37061   1.39598   1.42535   1.44304   1.49583
 Alpha virt. eigenvalues --    1.52006   1.53890   1.58689   1.66829   1.72559
 Alpha virt. eigenvalues --    1.77293   1.79145   1.80689   1.87055   1.89426
 Alpha virt. eigenvalues --    1.95329   1.95718   1.96262   1.99249   1.99760
 Alpha virt. eigenvalues --    2.03395   2.04134   2.13467   2.14996   2.15065
 Alpha virt. eigenvalues --    2.27434   2.29945   2.33270   2.39353   2.40448
 Alpha virt. eigenvalues --    2.41682   2.46945   2.49845   2.53439   2.56089
 Alpha virt. eigenvalues --    2.61696   2.64934   2.67431   2.67844   2.79350
 Alpha virt. eigenvalues --    2.82847   2.84977   2.91441   3.03633   3.18440
 Alpha virt. eigenvalues --    3.22736   3.25554   3.32497   3.46476   3.72258
 Alpha virt. eigenvalues --    4.03815   4.04747   4.12301   4.16632   4.25612
 Alpha virt. eigenvalues --    4.30021   4.35815   4.55566   4.74741
          Condensed to atoms (all electrons):
               1          2          3          4          5          6
     1  N    6.670228   0.896989  -0.105175  -0.001988  -0.000082  -0.000000
     2  C    0.896989   4.752089   0.210128  -0.078142   0.003632  -0.000147
     3  C   -0.105175   0.210128   4.792829   0.484812  -0.026676   0.004915
     4  C   -0.001988  -0.078142   0.484812   4.980265   0.497307  -0.072217
     5  C   -0.000082   0.003632  -0.026676   0.497307   4.965044   0.257978
     6  Cl  -0.000000  -0.000147   0.004915  -0.072217   0.257978  16.845627
     7  C    0.000009   0.001097  -0.035531  -0.041159   0.520906  -0.072299
     8  C   -0.000084   0.005371  -0.055486  -0.042815  -0.028239   0.004419
     9  N   -0.002308  -0.080566   0.470660  -0.043558  -0.044168  -0.000120
    10  H    0.000465  -0.003482  -0.030038   0.370446  -0.040608  -0.001863
    11  H   -0.000000   0.000015   0.000370   0.005048  -0.041722  -0.001469
    12  H    0.000001  -0.000285   0.004990   0.000831   0.003370  -0.000159
               7          8          9         10         11         12
     1  N    0.000009  -0.000084  -0.002308   0.000465  -0.000000   0.000001
     2  C    0.001097   0.005371  -0.080566  -0.003482   0.000015  -0.000285
     3  C   -0.035531  -0.055486   0.470660  -0.030038   0.000370   0.004990
     4  C   -0.041159  -0.042815  -0.043558   0.370446   0.005048   0.000831
     5  C    0.520906  -0.028239  -0.044168  -0.040608  -0.041722   0.003370
     6  Cl  -0.072299   0.004419  -0.000120  -0.001863  -0.001469  -0.000159
     7  C    4.960974   0.472951  -0.032023   0.004687   0.367816  -0.063239
     8  C    0.472951   4.686298   0.480582   0.000094  -0.028826   0.390856
     9  N   -0.032023   0.480582   6.742728   0.004527   0.004727  -0.049672
    10  H    0.004687   0.000094   0.004527   0.554649  -0.000108   0.000027
    11  H    0.367816  -0.028826   0.004727  -0.000108   0.568991  -0.002484
    12  H   -0.063239   0.390856  -0.049672   0.000027  -0.002484   0.593713
 Mulliken charges:
               1
     1  N   -0.458056
     2  C    0.293303
     3  C    0.284201
     4  C   -0.058828
     5  C   -0.066742
     6  Cl   0.035336
     7  C   -0.084187
     8  C    0.114880
     9  N   -0.450809
    10  H    0.141206
    11  H    0.127644
    12  H    0.122051
 Sum of Mulliken charges =  -0.00000
 Mulliken charges with hydrogens summed into heavy atoms:
               1
     1  N   -0.458056
     2  C    0.293303
     3  C    0.284201
     4  C    0.082378
     5  C   -0.066742
     6  Cl   0.035336
     7  C    0.043457
     8  C    0.236931
     9  N   -0.450809
 Electronic spatial extent (au):  <R**2>=           1470.2572
 Charge=             -0.0000 electrons
 Dipole moment (field-independent basis, Debye):
    X=             -4.1669    Y=              1.5593    Z=             -0.0003  Tot=              4.4491
 Quadrupole moment (field-independent basis, Debye-Ang):
   XX=            -72.8033   YY=            -53.3104   ZZ=            -57.2865
   XY=              1.2979   XZ=             -0.0013   YZ=              0.0009
 Traceless Quadrupole moment (field-independent basis, Debye-Ang):
   XX=            -11.6699   YY=              7.8230   ZZ=              3.8469
   XY=              1.2979   XZ=             -0.0013   YZ=              0.0009
 Octapole moment (field-independent basis, Debye-Ang**2):
  XXX=            -77.9593  YYY=             10.4384  ZZZ=             -0.0001  XYY=            -19.8718
  XXY=             20.0008  XXZ=             -0.0050  XZZ=             -1.7760  YZZ=             -1.6033
  YYZ=              0.0002  XYZ=              0.0016
 Hexadecapole moment (field-independent basis, Debye-Ang**3):
 XXXX=          -1599.3994 YYYY=           -452.1341 ZZZZ=            -56.7381 XXXY=             98.6583
 XXXZ=             -0.0135 YYYX=             14.5762 YYYZ=              0.0037 ZZZX=              0.0009
 ZZZY=             -0.0008 XXYY=           -346.8570 XXZZ=           -239.2952 YYZZ=            -95.8292
 XXYZ=              0.0078 YYXZ=             -0.0011 ZZXY=              3.4346
 N-N= 4.360950951477D+02 E-N=-2.754287499687D+03  KE= 7.958302225057D+02
 No NMR shielding tensors so no spin-rotation constants.
 Leave Link  601 at Tue Sep 17 09:54:54 2024, MaxMem=  1342177280 cpu:               0.4 elap:               0.1
 (Enter /groups/ReismanLab/Software/Gaussian16_RevC/Linux_Binary_AVX2-enabled-CPU/g16/l701.exe)
 ... and contract with generalized density number  0.
 Compute integral first derivatives.
 R6Disp: Adding Grimme-D3(BJ) dispersion energy 1st derivatives to the gradient.
 Leave Link  701 at Tue Sep 17 09:54:54 2024, MaxMem=  1342177280 cpu:               0.4 elap:               0.1
 (Enter /groups/ReismanLab/Software/Gaussian16_RevC/Linux_Binary_AVX2-enabled-CPU/g16/l702.exe)
 L702 exits ... SP integral derivatives will be done elsewhere.
 Leave Link  702 at Tue Sep 17 09:54:54 2024, MaxMem=  1342177280 cpu:               0.0 elap:               0.0
 (Enter /groups/ReismanLab/Software/Gaussian16_RevC/Linux_Binary_AVX2-enabled-CPU/g16/l703.exe)
 Integral derivatives from FoFJK, PRISM(SPDF).
 Compute integral first derivatives, UseDBF=F ICtDFT=           0.
 Calling FoFJK, ICntrl=      2127 FMM=F ISym2X=0 I1Cent= 0 IOpClX= 0 NMat=1 NMatS=1 NMatT=0.
 FoFJK:  IHMeth= 1 ICntrl=    2127 DoSepK=F KAlg= 0 I1Cent=           0 FoldK=F
 IRaf=         0 NMat=       1 IRICut=       1 DoRegI=T DoRafI=F ISym2E= 0 IDoP0=0 IntGTp=1.
 FoFCou: FMM=F IPFlag=           0 FMFlag=      100000 FMFlg1=         800
         NFxFlg=           0 DoJE=F BraDBF=F KetDBF=F FulRan=T
         wScrn=  0.000000 ICntrl=      2127 IOpCl=  0 I1Cent=           0 NGrid=           0
         NMat0=    1 NMatS0=      1 NMatT0=    0 NMatD0=    1 NMtDS0=    0 NMtDT0=    0
 Symmetry not used in FoFCou.
 Leave Link  703 at Tue Sep 17 09:54:55 2024, MaxMem=  1342177280 cpu:              10.0 elap:               1.3
 (Enter /groups/ReismanLab/Software/Gaussian16_RevC/Linux_Binary_AVX2-enabled-CPU/g16/l716.exe)
 Dipole        =-1.63938672D+00 6.13466674D-01-1.20596333D-04
 ***** Axes restored to original set *****
 -------------------------------------------------------------------
 Center     Atomic                   Forces (Hartrees/Bohr)
 Number     Number              X              Y              Z
 -------------------------------------------------------------------
      1        7           0.036834153   -0.022509998    0.000001852
      2        6          -0.024070277    0.015516518   -0.000000168
      3        6          -0.010998011   -0.003462329    0.000011782
      4        6           0.000748728   -0.003356044    0.000001229
      5        6           0.003646896    0.003046077   -0.000024474
      6       17          -0.008635785   -0.004718268    0.000006466
      7        6          -0.004302003    0.000632578    0.000009704
      8        6          -0.007351124    0.006654542    0.000002948
      9        7           0.020228445    0.004753436   -0.000007168
     10        1          -0.000237405   -0.003296140   -0.000000650
     11        1          -0.003659730    0.002185330    0.000001199
     12        1          -0.002203887    0.004554298   -0.000002719
 -------------------------------------------------------------------
 Cartesian Forces:  Max     0.036834153 RMS     0.009932389
 Leave Link  716 at Tue Sep 17 09:54:55 2024, MaxMem=  1342177280 cpu:               0.0 elap:               0.0
 (Enter /groups/ReismanLab/Software/Gaussian16_RevC/Linux_Binary_AVX2-enabled-CPU/g16/l103.exe)

 GradGradGradGradGradGradGradGradGradGradGradGradGradGradGradGradGradGrad
 Berny optimization.
 FormGI is forming the generalized inverse of G from B-inverse, IUseBI=4.
 Internal  Forces:  Max     0.043167666 RMS     0.007719300
 Search for a local minimum.
 Step number   1 out of a maximum of   60
 All quantities printed in internal units (Hartrees-Bohrs-Radians)
 RMS Force = .77193D-02 SwitMx=.10000D-02 MixMth= 1
 Mixed Optimization -- RFO/linear search
 Second derivative matrix not updated -- first step.
 ITU=  0
     Eigenvalues ---    0.01775   0.01775   0.02191   0.02226   0.02236
     Eigenvalues ---    0.02253   0.02265   0.02310   0.02409   0.02611
     Eigenvalues ---    0.16000   0.16000   0.16000   0.22323   0.23501
     Eigenvalues ---    0.24561   0.25000   0.25000   0.33171   0.35836
     Eigenvalues ---    0.36208   0.36309   0.41908   0.42844   0.45454
     Eigenvalues ---    0.46817   0.47666   0.57901   0.61247   1.38453
 RFO step:  Lambda=-3.67754987D-03 EMin= 1.77528358D-02
 Linear search not attempted -- first point.
 Iteration  1 RMS(Cart)=  0.01826196 RMS(Int)=  0.00006183
 Iteration  2 RMS(Cart)=  0.00007042 RMS(Int)=  0.00001062
 Iteration  3 RMS(Cart)=  0.00000000 RMS(Int)=  0.00001062
 ITry= 1 IFail=0 DXMaxC= 6.36D-02 DCOld= 1.00D+10 DXMaxT= 3.00D-01 DXLimC= 3.00D+00 Rises=F
 Variable       Old X    -DE/DX   Delta X   Delta X   Delta X     New X
                                 (Linear)    (Quad)   (Total)
    R1        2.16291   0.04317   0.00000   0.03110   0.03110   2.19401
    R2        2.69040   0.01455   0.00000   0.03442   0.03442   2.72482
    R3        2.63891   0.00588   0.00000   0.01235   0.01235   2.65126
    R4        2.51185   0.01354   0.00000   0.02338   0.02339   2.53524
    R5        2.62048   0.00669   0.00000   0.01248   0.01247   2.63295
    R6        2.03758   0.00329   0.00000   0.00901   0.00901   2.04659
    R7        3.25753   0.00984   0.00000   0.02934   0.02934   3.28687
    R8        2.62386   0.00534   0.00000   0.01008   0.01006   2.63392
    R9        2.62535   0.00773   0.00000   0.01656   0.01656   2.64191
   R10        2.03601   0.00426   0.00000   0.01161   0.01161   2.04762
   R11        2.48701   0.01898   0.00000   0.03104   0.03105   2.51807
   R12        2.04338   0.00435   0.00000   0.01203   0.01203   2.05541
    A1        2.07665  -0.00020   0.00000  -0.00130  -0.00131   2.07534
    A2        2.04949  -0.00095   0.00000  -0.00424  -0.00424   2.04525
    A3        2.15704   0.00115   0.00000   0.00554   0.00556   2.16260
    A4        2.04827   0.00127   0.00000   0.00142   0.00140   2.04967
    A5        2.11145  -0.00037   0.00000   0.00090   0.00091   2.11236
    A6        2.12346  -0.00090   0.00000  -0.00232  -0.00231   2.12115
    A7        2.09597  -0.00095   0.00000  -0.00115  -0.00113   2.09484
    A8        2.08519   0.00187   0.00000   0.00220   0.00217   2.08736
    A9        2.10202  -0.00092   0.00000  -0.00106  -0.00104   2.10098
   A10        2.05675   0.00041   0.00000  -0.00026  -0.00028   2.05647
   A11        2.11194  -0.00035   0.00000  -0.00079  -0.00078   2.11116
   A12        2.11449  -0.00005   0.00000   0.00105   0.00106   2.11555
   A13        2.15957   0.00020   0.00000   0.00409   0.00410   2.16367
   A14        2.10848  -0.00273   0.00000  -0.01813  -0.01813   2.09034
   A15        2.01514   0.00253   0.00000   0.01404   0.01403   2.02917
   A16        2.05954  -0.00490   0.00000  -0.01299  -0.01295   2.04659
   A17        3.10991   0.00009   0.00000   0.00424   0.00424   3.11415
   A18        3.14133   0.00002   0.00000   0.00071   0.00071   3.14204
    D1        3.14145   0.00001   0.00000   0.00019   0.00019  -3.14155
    D2       -0.00014   0.00001   0.00000   0.00020   0.00020   0.00006
    D3        0.00007  -0.00000   0.00000  -0.00012  -0.00012  -0.00005
    D4       -3.14152  -0.00000   0.00000  -0.00011  -0.00011   3.14156
    D5       -3.14150  -0.00000   0.00000  -0.00011  -0.00011   3.14158
    D6       -0.00012   0.00001   0.00000   0.00020   0.00020   0.00008
    D7        3.14141   0.00001   0.00000   0.00023   0.00023  -3.14155
    D8        0.00008  -0.00000   0.00000  -0.00009  -0.00009  -0.00002
    D9       -0.00019   0.00001   0.00000   0.00023   0.00023   0.00003
   D10       -3.14152  -0.00000   0.00000  -0.00010  -0.00010   3.14156
   D11       -0.00016   0.00001   0.00000   0.00021   0.00021   0.00005
   D12        3.14148   0.00000   0.00000   0.00013   0.00013  -3.14157
   D13       -3.14149  -0.00000   0.00000  -0.00012  -0.00012   3.14158
   D14        0.00015  -0.00001   0.00000  -0.00020  -0.00020  -0.00004
   D15        0.00012  -0.00000   0.00000  -0.00014  -0.00014  -0.00002
   D16       -3.14144  -0.00000   0.00000  -0.00017  -0.00017   3.14158
   D17       -3.14153  -0.00000   0.00000  -0.00006  -0.00006  -3.14158
   D18        0.00010  -0.00000   0.00000  -0.00009  -0.00009   0.00001
   D19        0.00002  -0.00000   0.00000  -0.00007  -0.00007  -0.00005
   D20        3.14158  -0.00000   0.00000  -0.00004  -0.00003   3.14154
         Item               Value     Threshold  Converged?
 Maximum Force            0.043168     0.000450     NO 
 RMS     Force            0.007719     0.000300     NO 
 Maximum Displacement     0.063624     0.001800     NO 
 RMS     Displacement     0.018243     0.001200     NO 
 Predicted change in Energy=-1.850257D-03
 Lowest energy point so far.  Saving SCF results.
 GradGradGradGradGradGradGradGradGradGradGradGradGradGradGradGradGradGrad

 Leave Link  103 at Tue Sep 17 09:54:55 2024, MaxMem=  1342177280 cpu:               0.1 elap:               0.0
 (Enter /groups/ReismanLab/Software/Gaussian16_RevC/Linux_Binary_AVX2-enabled-CPU/g16/l202.exe)
                          Input orientation:                          
 ---------------------------------------------------------------------
 Center     Atomic      Atomic             Coordinates (Angstroms)
 Number     Number       Type             X           Y           Z
 ---------------------------------------------------------------------
      1          7           0        3.551348   -1.307196   -0.000293
      2          6           0        2.560850   -0.701491    0.000128
      3          6           0        1.310537    0.016722    0.000118
      4          6           0        0.110696   -0.710434    0.000042
      5          6           0       -1.079252    0.014337   -0.000025
      6         17           0       -2.605927   -0.819060   -0.000051
      7          6           0       -1.036742    1.407501    0.000007
      8          6           0        0.218955    2.022105    0.000047
      9          7           0        1.373503    1.356835    0.000074
     10          1           0        0.114258   -1.793435    0.000047
     11          1           0       -1.948482    1.993009   -0.000023
     12          1           0        0.288925    3.107529    0.000059
 ---------------------------------------------------------------------
                    Distance matrix (angstroms):
                    1          2          3          4          5
     1  N    0.000000
     2  C    1.161018   0.000000
     3  C    2.602689   1.441913   0.000000
     4  C    3.492021   2.450170   1.402988   0.000000
     5  C    4.815486   3.709819   2.389791   1.393295   0.000000
     6  Cl   6.176593   5.168114   4.004650   2.718794   1.739335
     7  C    5.331055   4.170194   2.728367   2.408788   1.393812
     8  C    4.710529   3.591998   2.283224   2.734683   2.390915
     9  N    3.440940   2.376237   1.341592   2.422454   2.796124
    10  H    3.471313   2.679207   2.169735   1.083007   2.166219
    11  H    6.414007   5.253038   3.811420   3.398355   2.161181
    12  H    5.489371   4.435119   3.255270   3.822120   3.382269
                    6          7          8          9         10
     6  Cl   0.000000
     7  C    2.723952   0.000000
     8  C    4.006517   1.398040   0.000000
     9  N    4.535459   2.410778   1.332503   0.000000
    10  H    2.889431   3.401586   3.816976   3.392624   0.000000
    11  H    2.887900   1.083555   2.167633   3.382352   4.311850
    12  H    4.878346   2.155803   1.087676   2.059427   4.904075
                   11         12
    11  H    0.000000
    12  H    2.499629   0.000000
 Stoichiometry    C6H3ClN2
 Framework group  C1[X(C6H3ClN2)]
 Deg. of freedom    30
 Full point group                 C1      NOp   1
 RotChk:  IX=0 Diff= 4.31D-03
 Largest Abelian subgroup         C1      NOp   1
 Largest concise Abelian subgroup C1      NOp   1
                         Standard orientation:                         
 ---------------------------------------------------------------------
 Center     Atomic      Atomic             Coordinates (Angstroms)
 Number     Number       Type             X           Y           Z
 ---------------------------------------------------------------------
      1          7           0        3.560574   -1.266614   -0.000288
      2          6           0        2.558405   -0.680422    0.000134
      3          6           0        1.294268    0.013169    0.000124
      4          6           0        0.108896   -0.737343    0.000048
      5          6           0       -1.095017   -0.036013   -0.000019
      6         17           0       -2.605078   -0.899146   -0.000045
      7          6           0       -1.079796    1.357716    0.000013
      8          6           0        0.163625    1.996792    0.000052
      9          7           0        1.330979    1.354259    0.000080
     10          1           0        0.133665   -1.820066    0.000053
     11          1           0       -2.002827    1.925258   -0.000017
     12          1           0        0.212326    3.083378    0.000065
 ---------------------------------------------------------------------
 Rotational constants (GHZ):           2.8888755           0.8845829           0.6772169
 Leave Link  202 at Tue Sep 17 09:54:55 2024, MaxMem=  1342177280 cpu:               0.0 elap:               0.0
 (Enter /groups/ReismanLab/Software/Gaussian16_RevC/Linux_Binary_AVX2-enabled-CPU/g16/l301.exe)
 Standard basis: 6-31G(d,p) (6D, 7F)
 Ernie: Thresh=  0.10000D-02 Tol=  0.10000D-05 Strict=F.
 There are   154 symmetry adapted cartesian basis functions of A   symmetry.
 There are   154 symmetry adapted basis functions of A   symmetry.
   154 basis functions,   297 primitive gaussians,   154 cartesian basis functions
    35 alpha electrons       35 beta electrons
       nuclear repulsion energy       432.6017164293 Hartrees.
 IExCor=  402 DFT=T Ex+Corr=B3LYP ExCW=0 ScaHFX=  0.200000
 ScaDFX=  0.800000  0.720000  1.000000  0.810000 ScalE2=  1.000000  1.000000
 IRadAn=      5 IRanWt=     -1 IRanGd=            0 ICorTp=0 IEmpDi=141
 NAtoms=   12 NActive=   12 NUniq=   12 SFac= 1.00D+00 NAtFMM=   60 NAOKFM=F Big=F
 Integral buffers will be    131072 words long.
 Raffenetti 2 integral format.
 Two-electron integral symmetry is turned on.
 R6Disp:  Grimme-D3(BJ) Dispersion energy=       -0.0251214216 Hartrees.
 Nuclear repulsion after empirical dispersion term =      432.5765950076 Hartrees.
 Leave Link  301 at Tue Sep 17 09:54:55 2024, MaxMem=  1342177280 cpu:               0.1 elap:               0.1
 (Enter /groups/ReismanLab/Software/Gaussian16_RevC/Linux_Binary_AVX2-enabled-CPU/g16/l302.exe)
 NPDir=0 NMtPBC=     1 NCelOv=     1 NCel=       1 NClECP=     1 NCelD=      1
         NCelK=      1 NCelE2=     1 NClLst=     1 CellRange=     0.0.
 One-electron integrals computed using PRISM.
 One-electron integral symmetry used in STVInt
 NBasis=   154 RedAO= T EigKep=  7.97D-04  NBF=   154
 NBsUse=   154 1.00D-06 EigRej= -1.00D+00 NBFU=   154
 Precomputing XC quadrature grid using
 IXCGrd= 4 IRadAn=           5 IRanWt=          -1 IRanGd=           0 AccXCQ= 0.00D+00.
 Generated NRdTot=       0 NPtTot=           0 NUsed=           0 NTot=          32
 NSgBfM=   154   154   154   154   154 MxSgAt=    12 MxSgA2=    12.
 Leave Link  302 at Tue Sep 17 09:54:56 2024, MaxMem=  1342177280 cpu:               0.5 elap:               0.1
 (Enter /groups/ReismanLab/Software/Gaussian16_RevC/Linux_Binary_AVX2-enabled-CPU/g16/l303.exe)
 DipDrv:  MaxL=1.
 Leave Link  303 at Tue Sep 17 09:54:56 2024, MaxMem=  1342177280 cpu:               0.0 elap:               0.0
 (Enter /groups/ReismanLab/Software/Gaussian16_RevC/Linux_Binary_AVX2-enabled-CPU/g16/l401.exe)
 Initial guess from the checkpoint file:  "smiles_00057_conf_0.chk"
 B after Tr=    -0.000000   -0.000000   -0.000000
         Rot=    1.000000   -0.000020   -0.000002   -0.000977 Ang=  -0.11 deg.
 Guess basis will be translated and rotated to current coordinates.
 JPrj=2 DoOrth=T DoCkMO=T.
 Generating alternative initial guess.
 ExpMin= 1.43D-01 ExpMax= 2.52D+04 ExpMxC= 3.78D+03 IAcc=3 IRadAn=         5 AccDes= 0.00D+00
 Harris functional with IExCor=  402 and IRadAn=       5 diagonalized for initial guess.
 HarFok:  IExCor=  402 AccDes= 0.00D+00 IRadAn=         5 IDoV= 1 UseB2=F ITyADJ=14
 ICtDFT=  3500011 ScaDFX=  1.000000  1.000000  1.000000  1.000000
 FoFCou: FMM=F IPFlag=           0 FMFlag=      100000 FMFlg1=           0
         NFxFlg=           0 DoJE=T BraDBF=F KetDBF=T FulRan=T
         wScrn=  0.000000 ICntrl=       500 IOpCl=  0 I1Cent=   200000004 NGrid=           0
         NMat0=    1 NMatS0=      1 NMatT0=    0 NMatD0=    1 NMtDS0=    0 NMtDT0=    0
 Petite list used in FoFCou.
 Harris En= -800.053433055208    
 Leave Link  401 at Tue Sep 17 09:54:56 2024, MaxMem=  1342177280 cpu:               2.2 elap:               0.4
 (Enter /groups/ReismanLab/Software/Gaussian16_RevC/Linux_Binary_AVX2-enabled-CPU/g16/l502.exe)
 Keep R1 ints in memory in canonical form, NReq=79073604.
 FoFCou: FMM=F IPFlag=           0 FMFlag=           0 FMFlg1=           0
         NFxFlg=           0 DoJE=F BraDBF=F KetDBF=F FulRan=T
         wScrn=  0.000000 ICntrl=       600 IOpCl=  0 I1Cent=           0 NGrid=           0
         NMat0=    1 NMatS0=  11935 NMatT0=    0 NMatD0=    1 NMtDS0=    0 NMtDT0=    0
 Symmetry not used in FoFCou.
 Two-electron integral symmetry not used.
 Closed shell SCF:
 Using DIIS extrapolation, IDIIS=  1040.
 NGot=  1342177280 LenX=  1270898622 LenY=  1270874465
 Requested convergence on RMS density matrix=1.00D-08 within  32 cycles.
 Requested convergence on MAX density matrix=1.00D-06.
 Requested convergence on             energy=1.00D-06.
 No special actions if energy rises.
 Integral accuracy reduced to 1.0D-05 until final iterations.

 Cycle   1  Pass 0  IDiag  1:
 E= -800.146366697268    
 DIIS: error= 1.53D-03 at cycle   1 NSaved=   1.
 NSaved= 1 IEnMin= 1 EnMin= -800.146366697268     IErMin= 1 ErrMin= 1.53D-03
 ErrMax= 1.53D-03  0.00D+00 EMaxC= 1.00D-01 BMatC= 4.01D-04 BMatP= 4.01D-04
 IDIUse=3 WtCom= 9.85D-01 WtEn= 1.53D-02
 Coeff-Com:  0.100D+01
 Coeff-En:   0.100D+01
 Coeff:      0.100D+01
 Gap=     1.640 Goal=   None    Shift=    0.000
 GapD=    1.640 DampG=2.000 DampE=1.000 DampFc=2.0000 IDamp=-1.
 RMSDP=3.44D-04 MaxDP=8.22D-03              OVMax= 5.36D-03

 Cycle   2  Pass 0  IDiag  1:
 E= -800.146820814041     Delta-E=       -0.000454116773 Rises=F Damp=F
 DIIS: error= 8.06D-04 at cycle   2 NSaved=   2.
 NSaved= 2 IEnMin= 2 EnMin= -800.146820814041     IErMin= 2 ErrMin= 8.06D-04
 ErrMax= 8.06D-04  0.00D+00 EMaxC= 1.00D-01 BMatC= 8.52D-05 BMatP= 4.01D-04
 IDIUse=3 WtCom= 9.92D-01 WtEn= 8.06D-03
 Coeff-Com:  0.262D+00 0.738D+00
 Coeff-En:   0.000D+00 0.100D+01
 Coeff:      0.260D+00 0.740D+00
 Gap=     0.213 Goal=   None    Shift=    0.000
 RMSDP=1.33D-04 MaxDP=4.84D-03 DE=-4.54D-04 OVMax= 3.97D-03

 Cycle   3  Pass 0  IDiag  1:
 E= -800.146880982563     Delta-E=       -0.000060168522 Rises=F Damp=F
 DIIS: error= 3.28D-04 at cycle   3 NSaved=   3.
 NSaved= 3 IEnMin= 3 EnMin= -800.146880982563     IErMin= 3 ErrMin= 3.28D-04
 ErrMax= 3.28D-04  0.00D+00 EMaxC= 1.00D-01 BMatC= 2.61D-05 BMatP= 8.52D-05
 IDIUse=3 WtCom= 9.97D-01 WtEn= 3.28D-03
 Coeff-Com:  0.208D-01 0.352D+00 0.628D+00
 Coeff-En:   0.000D+00 0.206D+00 0.794D+00
 Coeff:      0.207D-01 0.351D+00 0.628D+00
 Gap=     0.214 Goal=   None    Shift=    0.000
 RMSDP=5.32D-05 MaxDP=1.14D-03 DE=-6.02D-05 OVMax= 2.29D-03

 Cycle   4  Pass 0  IDiag  1:
 E= -800.146903611965     Delta-E=       -0.000022629402 Rises=F Damp=F
 DIIS: error= 1.86D-04 at cycle   4 NSaved=   4.
 NSaved= 4 IEnMin= 4 EnMin= -800.146903611965     IErMin= 4 ErrMin= 1.86D-04
 ErrMax= 1.86D-04  0.00D+00 EMaxC= 1.00D-01 BMatC= 5.52D-06 BMatP= 2.61D-05
 IDIUse=3 WtCom= 9.98D-01 WtEn= 1.86D-03
 Coeff-Com: -0.762D-02 0.147D+00 0.387D+00 0.474D+00
 Coeff-En:   0.000D+00 0.000D+00 0.117D+00 0.883D+00
 Coeff:     -0.761D-02 0.147D+00 0.386D+00 0.474D+00
 Gap=     0.214 Goal=   None    Shift=    0.000
 RMSDP=1.72D-05 MaxDP=4.37D-04 DE=-2.26D-05 OVMax= 7.67D-04

 Cycle   5  Pass 0  IDiag  1:
 E= -800.146908370980     Delta-E=       -0.000004759015 Rises=F Damp=F
 DIIS: error= 6.20D-05 at cycle   5 NSaved=   5.
 NSaved= 5 IEnMin= 5 EnMin= -800.146908370980     IErMin= 5 ErrMin= 6.20D-05
 ErrMax= 6.20D-05  0.00D+00 EMaxC= 1.00D-01 BMatC= 6.55D-07 BMatP= 5.52D-06
 IDIUse=1 WtCom= 1.00D+00 WtEn= 0.00D+00
 Coeff-Com: -0.676D-02 0.666D-01 0.204D+00 0.310D+00 0.427D+00
 Coeff:     -0.676D-02 0.666D-01 0.204D+00 0.310D+00 0.427D+00
 Gap=     0.213 Goal=   None    Shift=    0.000
 RMSDP=6.26D-06 MaxDP=1.51D-04 DE=-4.76D-06 OVMax= 2.22D-04

 Initial convergence to 1.0D-05 achieved.  Increase integral accuracy.
 Cycle   6  Pass 1  IDiag  1:
 E= -800.146904775629     Delta-E=        0.000003595351 Rises=F Damp=F
 DIIS: error= 2.27D-05 at cycle   1 NSaved=   1.
 NSaved= 1 IEnMin= 1 EnMin= -800.146904775629     IErMin= 1 ErrMin= 2.27D-05
 ErrMax= 2.27D-05  0.00D+00 EMaxC= 1.00D-01 BMatC= 6.22D-08 BMatP= 6.22D-08
 IDIUse=1 WtCom= 1.00D+00 WtEn= 0.00D+00
 Coeff-Com:  0.100D+01
 Coeff:      0.100D+01
 Gap=     0.214 Goal=   None    Shift=    0.000
 RMSDP=6.26D-06 MaxDP=1.51D-04 DE= 3.60D-06 OVMax= 2.27D-04

 Cycle   7  Pass 1  IDiag  1:
 E= -800.146904511070     Delta-E=        0.000000264559 Rises=F Damp=F
 DIIS: error= 5.99D-05 at cycle   2 NSaved=   2.
 NSaved= 2 IEnMin= 1 EnMin= -800.146904775629     IErMin= 1 ErrMin= 2.27D-05
 ErrMax= 5.99D-05  0.00D+00 EMaxC= 1.00D-01 BMatC= 3.63D-07 BMatP= 6.22D-08
 IDIUse=1 WtCom= 1.00D+00 WtEn= 0.00D+00
 Coeff-Com:  0.712D+00 0.288D+00
 Coeff:      0.712D+00 0.288D+00
 Gap=     0.214 Goal=   None    Shift=    0.000
 RMSDP=3.63D-06 MaxDP=1.30D-04 DE= 2.65D-07 OVMax= 1.76D-04

 Cycle   8  Pass 1  IDiag  1:
 E= -800.146904828736     Delta-E=       -0.000000317666 Rises=F Damp=F
 DIIS: error= 7.43D-06 at cycle   3 NSaved=   3.
 NSaved= 3 IEnMin= 3 EnMin= -800.146904828736     IErMin= 3 ErrMin= 7.43D-06
 ErrMax= 7.43D-06  0.00D+00 EMaxC= 1.00D-01 BMatC= 4.11D-09 BMatP= 6.22D-08
 IDIUse=1 WtCom= 1.00D+00 WtEn= 0.00D+00
 Coeff-Com:  0.337D+00 0.158D+00 0.504D+00
 Coeff:      0.337D+00 0.158D+00 0.504D+00
 Gap=     0.214 Goal=   None    Shift=    0.000
 RMSDP=4.31D-07 MaxDP=1.34D-05 DE=-3.18D-07 OVMax= 1.92D-05

 Cycle   9  Pass 1  IDiag  1:
 E= -800.146904832307     Delta-E=       -0.000000003571 Rises=F Damp=F
 DIIS: error= 1.12D-06 at cycle   4 NSaved=   4.
 NSaved= 4 IEnMin= 4 EnMin= -800.146904832307     IErMin= 4 ErrMin= 1.12D-06
 ErrMax= 1.12D-06  0.00D+00 EMaxC= 1.00D-01 BMatC= 3.36D-10 BMatP= 4.11D-09
 IDIUse=1 WtCom= 1.00D+00 WtEn= 0.00D+00
 Coeff-Com:  0.846D-01 0.452D-01 0.260D+00 0.610D+00
 Coeff:      0.846D-01 0.452D-01 0.260D+00 0.610D+00
 Gap=     0.214 Goal=   None    Shift=    0.000
 RMSDP=1.65D-07 MaxDP=5.43D-06 DE=-3.57D-09 OVMax= 5.55D-06

 Cycle  10  Pass 1  IDiag  1:
 E= -800.146904832589     Delta-E=       -0.000000000283 Rises=F Damp=F
 DIIS: error= 3.91D-07 at cycle   5 NSaved=   5.
 NSaved= 5 IEnMin= 5 EnMin= -800.146904832589     IErMin= 5 ErrMin= 3.91D-07
 ErrMax= 3.91D-07  0.00D+00 EMaxC= 1.00D-01 BMatC= 4.31D-11 BMatP= 3.36D-10
 IDIUse=1 WtCom= 1.00D+00 WtEn= 0.00D+00
 Coeff-Com: -0.268D-02 0.909D-03 0.671D-01 0.321D+00 0.614D+00
 Coeff:     -0.268D-02 0.909D-03 0.671D-01 0.321D+00 0.614D+00
 Gap=     0.214 Goal=   None    Shift=    0.000
 RMSDP=6.15D-08 MaxDP=1.22D-06 DE=-2.83D-10 OVMax= 2.41D-06

 Cycle  11  Pass 1  IDiag  1:
 E= -800.146904832625     Delta-E=       -0.000000000035 Rises=F Damp=F
 DIIS: error= 2.20D-07 at cycle   6 NSaved=   6.
 NSaved= 6 IEnMin= 6 EnMin= -800.146904832625     IErMin= 6 ErrMin= 2.20D-07
 ErrMax= 2.20D-07  0.00D+00 EMaxC= 1.00D-01 BMatC= 6.34D-12 BMatP= 4.31D-11
 IDIUse=1 WtCom= 1.00D+00 WtEn= 0.00D+00
 Coeff-Com: -0.491D-02-0.134D-02 0.317D-01 0.179D+00 0.391D+00 0.404D+00
 Coeff:     -0.491D-02-0.134D-02 0.317D-01 0.179D+00 0.391D+00 0.404D+00
 Gap=     0.214 Goal=   None    Shift=    0.000
 RMSDP=1.99D-08 MaxDP=5.11D-07 DE=-3.52D-11 OVMax= 1.18D-06

 Cycle  12  Pass 1  IDiag  1:
 E= -800.146904832639     Delta-E=       -0.000000000015 Rises=F Damp=F
 DIIS: error= 3.53D-08 at cycle   7 NSaved=   7.
 NSaved= 7 IEnMin= 7 EnMin= -800.146904832639     IErMin= 7 ErrMin= 3.53D-08
 ErrMax= 3.53D-08  0.00D+00 EMaxC= 1.00D-01 BMatC= 2.75D-13 BMatP= 6.34D-12
 IDIUse=1 WtCom= 1.00D+00 WtEn= 0.00D+00
 Coeff-Com: -0.242D-02-0.949D-03 0.892D-02 0.578D-01 0.131D+00 0.203D+00
 Coeff-Com:  0.603D+00
 Coeff:     -0.242D-02-0.949D-03 0.892D-02 0.578D-01 0.131D+00 0.203D+00
 Coeff:      0.603D+00
 Gap=     0.214 Goal=   None    Shift=    0.000
 RMSDP=4.28D-09 MaxDP=1.54D-07 DE=-1.46D-11 OVMax= 2.49D-07

 SCF Done:  E(RB3LYP) =  -800.146904833     A.U. after   12 cycles
            NFock= 12  Conv=0.43D-08     -V/T= 2.0058
 KE= 7.955057349815D+02 PE=-2.746988558000D+03 EE= 7.187593231783D+02
 Leave Link  502 at Tue Sep 17 09:55:00 2024, MaxMem=  1342177280 cpu:              21.8 elap:               3.8
 (Enter /groups/ReismanLab/Software/Gaussian16_RevC/Linux_Binary_AVX2-enabled-CPU/g16/l508.exe)
 QCSCF skips out because SCF is already converged.
 Leave Link  508 at Tue Sep 17 09:55:00 2024, MaxMem=  1342177280 cpu:               0.0 elap:               0.0
 (Enter /groups/ReismanLab/Software/Gaussian16_RevC/Linux_Binary_AVX2-enabled-CPU/g16/l701.exe)
 ... and contract with generalized density number  0.
 Compute integral first derivatives.
 R6Disp: Adding Grimme-D3(BJ) dispersion energy 1st derivatives to the gradient.
 Leave Link  701 at Tue Sep 17 09:55:00 2024, MaxMem=  1342177280 cpu:               0.4 elap:               0.1
 (Enter /groups/ReismanLab/Software/Gaussian16_RevC/Linux_Binary_AVX2-enabled-CPU/g16/l702.exe)
 L702 exits ... SP integral derivatives will be done elsewhere.
 Leave Link  702 at Tue Sep 17 09:55:00 2024, MaxMem=  1342177280 cpu:               0.0 elap:               0.0
 (Enter /groups/ReismanLab/Software/Gaussian16_RevC/Linux_Binary_AVX2-enabled-CPU/g16/l703.exe)
 Integral derivatives from FoFJK, PRISM(SPDF).
 Compute integral first derivatives, UseDBF=F ICtDFT=           0.
 Calling FoFJK, ICntrl=      2127 FMM=F ISym2X=0 I1Cent= 0 IOpClX= 0 NMat=1 NMatS=1 NMatT=0.
 FoFJK:  IHMeth= 1 ICntrl=    2127 DoSepK=F KAlg= 0 I1Cent=           0 FoldK=F
 IRaf=         0 NMat=       1 IRICut=       1 DoRegI=T DoRafI=F ISym2E= 0 IDoP0=0 IntGTp=1.
 FoFCou: FMM=F IPFlag=           0 FMFlag=      100000 FMFlg1=         800
         NFxFlg=           0 DoJE=F BraDBF=F KetDBF=F FulRan=T
         wScrn=  0.000000 ICntrl=      2127 IOpCl=  0 I1Cent=           0 NGrid=           0
         NMat0=    1 NMatS0=      1 NMatT0=    0 NMatD0=    1 NMtDS0=    0 NMtDT0=    0
 Symmetry not used in FoFCou.
 Leave Link  703 at Tue Sep 17 09:55:01 2024, MaxMem=  1342177280 cpu:               9.9 elap:               1.3
 (Enter /groups/ReismanLab/Software/Gaussian16_RevC/Linux_Binary_AVX2-enabled-CPU/g16/l716.exe)
 Dipole        =-1.65305416D+00 6.23347754D-01 2.24877704D-04
 ***** Axes restored to original set *****
 -------------------------------------------------------------------
 Center     Atomic                   Forces (Hartrees/Bohr)
 Number     Number              X              Y              Z
 -------------------------------------------------------------------
      1        7           0.001082281   -0.000838654    0.000014029
      2        6          -0.000877769    0.001329802   -0.000025411
      3        6          -0.004705092   -0.000428561    0.000002010
      4        6           0.000465942   -0.000140323    0.000002742
      5        6           0.003762581    0.002199170    0.000004884
      6       17          -0.001489469   -0.000918821   -0.000001722
      7        6          -0.000099428   -0.000660471   -0.000002754
      8        6          -0.002251385   -0.001065469   -0.000001951
      9        7           0.003666944    0.000857580    0.000008335
     10        1           0.000015370    0.000176552    0.000000192
     11        1           0.000275419    0.000015553    0.000000676
     12        1           0.000154606   -0.000526358   -0.000001030
 -------------------------------------------------------------------
 Cartesian Forces:  Max     0.004705092 RMS     0.001397114
 Leave Link  716 at Tue Sep 17 09:55:01 2024, MaxMem=  1342177280 cpu:               0.0 elap:               0.0
 (Enter /groups/ReismanLab/Software/Gaussian16_RevC/Linux_Binary_AVX2-enabled-CPU/g16/l103.exe)

 GradGradGradGradGradGradGradGradGradGradGradGradGradGradGradGradGradGrad
 Berny optimization.
 Using GEDIIS/GDIIS optimizer.
 FormGI is forming the generalized inverse of G from B-inverse, IUseBI=4.
 Internal  Forces:  Max     0.002339286 RMS     0.000755915
 Search for a local minimum.
 Step number   2 out of a maximum of   60
 All quantities printed in internal units (Hartrees-Bohrs-Radians)
 RMS Force = .75591D-03 SwitMx=.10000D-02 MixMth= 2
 Mixed Optimization -- En-DIIS/RFO-DIIS
 Update second derivatives using D2CorX and points    1    2
 DE= -1.85D-03 DEPred=-1.85D-03 R= 1.00D+00
 TightC=F SS=  1.41D+00  RLast= 7.98D-02 DXNew= 5.0454D-01 2.3935D-01
 Trust test= 1.00D+00 RLast= 7.98D-02 DXMaxT set to 3.00D-01
 ITU=  1  0
 Use linear search instead of GDIIS.
     Eigenvalues ---    0.01775   0.01777   0.02191   0.02226   0.02236
     Eigenvalues ---    0.02253   0.02265   0.02310   0.02414   0.02609
     Eigenvalues ---    0.15992   0.16000   0.16068   0.22211   0.23293
     Eigenvalues ---    0.24054   0.24986   0.25000   0.32397   0.35924
     Eigenvalues ---    0.36232   0.36408   0.41839   0.42962   0.45648
     Eigenvalues ---    0.47467   0.48575   0.58548   0.61152   1.36685
 RFO step:  Lambda=-9.54051249D-05 EMin= 1.77528088D-02
 Quartic linear search produced a step of  0.02355.
 Iteration  1 RMS(Cart)=  0.00519617 RMS(Int)=  0.00004461
 Iteration  2 RMS(Cart)=  0.00004701 RMS(Int)=  0.00000228
 Iteration  3 RMS(Cart)=  0.00000000 RMS(Int)=  0.00000228
 ITry= 1 IFail=0 DXMaxC= 2.03D-02 DCOld= 1.00D+10 DXMaxT= 3.00D-01 DXLimC= 3.00D+00 Rises=F
 Variable       Old X    -DE/DX   Delta X   Delta X   Delta X     New X
                                 (Linear)    (Quad)   (Total)
    R1        2.19401   0.00136   0.00073   0.00109   0.00183   2.19583
    R2        2.72482  -0.00007   0.00081  -0.00004   0.00077   2.72559
    R3        2.65126  -0.00188   0.00029  -0.00415  -0.00385   2.64741
    R4        2.53524   0.00012   0.00055   0.00039   0.00094   2.53618
    R5        2.63295  -0.00157   0.00029  -0.00347  -0.00318   2.62977
    R6        2.04659  -0.00018   0.00021  -0.00046  -0.00025   2.04633
    R7        3.28687   0.00175   0.00069   0.00551   0.00620   3.29307
    R8        2.63392  -0.00141   0.00024  -0.00313  -0.00289   2.63103
    R9        2.64191  -0.00095   0.00039  -0.00194  -0.00155   2.64036
   R10        2.04762  -0.00022   0.00027  -0.00058  -0.00031   2.04731
   R11        2.51807   0.00081   0.00073   0.00153   0.00226   2.52033
   R12        2.05541  -0.00052   0.00028  -0.00142  -0.00114   2.05427
    A1        2.07534  -0.00038  -0.00003  -0.00164  -0.00167   2.07367
    A2        2.04525  -0.00149  -0.00010  -0.00620  -0.00630   2.03895
    A3        2.16260   0.00187   0.00013   0.00784   0.00797   2.17057
    A4        2.04967  -0.00069   0.00003  -0.00367  -0.00364   2.04603
    A5        2.11236   0.00033   0.00002   0.00174   0.00176   2.11412
    A6        2.12115   0.00036  -0.00005   0.00193   0.00188   2.12303
    A7        2.09484  -0.00047  -0.00003  -0.00163  -0.00165   2.09319
    A8        2.08736   0.00063   0.00005   0.00201   0.00205   2.08941
    A9        2.10098  -0.00016  -0.00002  -0.00037  -0.00040   2.10059
   A10        2.05647  -0.00018  -0.00001  -0.00107  -0.00108   2.05539
   A11        2.11116   0.00026  -0.00002   0.00159   0.00157   2.11273
   A12        2.11555  -0.00007   0.00003  -0.00052  -0.00049   2.11507
   A13        2.16367   0.00072   0.00010   0.00375   0.00385   2.16752
   A14        2.09034  -0.00017  -0.00043  -0.00073  -0.00116   2.08918
   A15        2.02917  -0.00055   0.00033  -0.00302  -0.00269   2.02648
   A16        2.04659  -0.00234  -0.00030  -0.00885  -0.00915   2.03744
   A17        3.11415  -0.00033   0.00010  -0.01875  -0.01865   3.09550
   A18        3.14204  -0.00003   0.00002  -0.00149  -0.00147   3.14057
    D1       -3.14155  -0.00000   0.00000  -0.00001  -0.00001  -3.14155
    D2        0.00006  -0.00000   0.00000  -0.00005  -0.00004   0.00002
    D3       -0.00005   0.00000  -0.00000   0.00010   0.00010   0.00005
    D4        3.14156   0.00000  -0.00000   0.00007   0.00007  -3.14156
    D5        3.14158  -0.00000  -0.00000  -0.00003  -0.00003   3.14155
    D6        0.00008  -0.00000   0.00000  -0.00014  -0.00014  -0.00006
    D7       -3.14155  -0.00000   0.00001  -0.00008  -0.00007   3.14157
    D8       -0.00002   0.00000  -0.00000   0.00001   0.00000  -0.00001
    D9        0.00003  -0.00000   0.00001  -0.00005  -0.00004  -0.00001
   D10        3.14156   0.00000  -0.00000   0.00004   0.00003  -3.14159
   D11        0.00005  -0.00000   0.00000  -0.00006  -0.00006  -0.00001
   D12       -3.14157  -0.00000   0.00000  -0.00003  -0.00002   3.14159
   D13        3.14158   0.00000  -0.00000   0.00002   0.00002  -3.14159
   D14       -0.00004   0.00000  -0.00000   0.00006   0.00005   0.00001
   D15       -0.00002   0.00000  -0.00000   0.00002   0.00002   0.00000
   D16        3.14158   0.00000  -0.00000   0.00002   0.00002  -3.14159
   D17       -3.14158  -0.00000  -0.00000  -0.00001  -0.00001   3.14159
   D18        0.00001  -0.00000  -0.00000  -0.00002  -0.00002  -0.00000
   D19       -0.00005   0.00000  -0.00000   0.00008   0.00007   0.00003
   D20        3.14154   0.00000  -0.00000   0.00008   0.00008  -3.14156
         Item               Value     Threshold  Converged?
 Maximum Force            0.002339     0.000450     NO 
 RMS     Force            0.000756     0.000300     NO 
 Maximum Displacement     0.020302     0.001800     NO 
 RMS     Displacement     0.005208     0.001200     NO 
 Predicted change in Energy=-4.854277D-05
 Lowest energy point so far.  Saving SCF results.
 GradGradGradGradGradGradGradGradGradGradGradGradGradGradGradGradGradGrad

 Leave Link  103 at Tue Sep 17 09:55:01 2024, MaxMem=  1342177280 cpu:               0.1 elap:               0.0
 (Enter /groups/ReismanLab/Software/Gaussian16_RevC/Linux_Binary_AVX2-enabled-CPU/g16/l202.exe)
                          Input orientation:                          
 ---------------------------------------------------------------------
 Center     Atomic      Atomic             Coordinates (Angstroms)
 Number     Number       Type             X           Y           Z
 ---------------------------------------------------------------------
      1          7           0        3.541163   -1.317939    0.000492
      2          6           0        2.560178   -0.695142   -0.000356
      3          6           0        1.308197    0.020981   -0.000176
      4          6           0        0.112650   -0.709310   -0.000099
      5          6           0       -1.075764    0.014751    0.000028
      6         17           0       -2.604050   -0.822537    0.000091
      7          6           0       -1.035962    1.406463    0.000089
      8          6           0        0.218488    2.021751    0.000032
      9          7           0        1.377178    1.361297   -0.000081
     10          1           0        0.118098   -1.792170   -0.000154
     11          1           0       -1.947764    1.991570    0.000184
     12          1           0        0.286257    3.106709    0.000080
 ---------------------------------------------------------------------
                    Distance matrix (angstroms):
                    1          2          3          4          5
     1  N    0.000000
     2  C    1.161984   0.000000
     3  C    2.603622   1.442321   0.000000
     4  C    3.482116   2.447570   1.400949   0.000000
     5  C    4.805421   3.704595   2.383968   1.391614   0.000000
     6  Cl   6.165149   5.165799   4.002148   2.719058   1.742616
     7  C    5.326578   4.165209   2.722983   2.407447   1.392281
     8  C    4.711019   3.586784   2.278277   2.733111   2.388124
     9  N    3.444000   2.372432   1.342090   2.426199   2.798233
    10  H    3.455759   2.677167   2.168836   1.082873   2.165703
    11  H    6.409459   5.247854   3.805851   3.397066   2.160601
    12  H    5.492898   4.429988   3.250550   3.819966   3.378654
                    6          7          8          9         10
     6  Cl   0.000000
     7  C    2.725315   0.000000
     8  C    4.007081   1.397220   0.000000
     9  N    4.540848   2.413562   1.333702   0.000000
    10  H    2.889684   3.400456   3.815242   3.395531   0.000000
    11  H    2.889621   1.083390   2.166463   3.384151   4.310971
    12  H    4.877791   2.153857   1.087072   2.058293   4.901764
                   11         12
    11  H    0.000000
    12  H    2.496875   0.000000
 Stoichiometry    C6H3ClN2
 Framework group  C1[X(C6H3ClN2)]
 Deg. of freedom    30
 Full point group                 C1      NOp   1
 RotChk:  IX=2 Diff= 1.00D-03
 Largest Abelian subgroup         C1      NOp   1
 Largest concise Abelian subgroup C1      NOp   1
                         Standard orientation:                         
 ---------------------------------------------------------------------
 Center     Atomic      Atomic             Coordinates (Angstroms)
 Number     Number       Type             X           Y           Z
 ---------------------------------------------------------------------
      1          7           0        3.549619   -1.279503    0.000469
      2          6           0        2.557054   -0.675333   -0.000379
      3          6           0        1.291779    0.017031   -0.000200
      4          6           0        0.110229   -0.735695   -0.000122
      5          6           0       -1.091639   -0.034194    0.000004
      6         17           0       -2.603849   -0.900180    0.000067
      7          6           0       -1.078113    1.358020    0.000065
      8          6           0        0.164500    1.996877    0.000008
      9          7           0        1.335449    1.358411   -0.000104
     10          1           0        0.136115   -1.818259   -0.000177
     11          1           0       -2.000796    1.925813    0.000161
     12          1           0        0.211778    3.082920    0.000057
 ---------------------------------------------------------------------
 Rotational constants (GHZ):           2.8793916           0.8868189           0.6780022
 Leave Link  202 at Tue Sep 17 09:55:01 2024, MaxMem=  1342177280 cpu:               0.0 elap:               0.0
 (Enter /groups/ReismanLab/Software/Gaussian16_RevC/Linux_Binary_AVX2-enabled-CPU/g16/l301.exe)
 Standard basis: 6-31G(d,p) (6D, 7F)
 Ernie: Thresh=  0.10000D-02 Tol=  0.10000D-05 Strict=F.
 There are   154 symmetry adapted cartesian basis functions of A   symmetry.
 There are   154 symmetry adapted basis functions of A   symmetry.
   154 basis functions,   297 primitive gaussians,   154 cartesian basis functions
    35 alpha electrons       35 beta electrons
       nuclear repulsion energy       432.6826813601 Hartrees.
 IExCor=  402 DFT=T Ex+Corr=B3LYP ExCW=0 ScaHFX=  0.200000
 ScaDFX=  0.800000  0.720000  1.000000  0.810000 ScalE2=  1.000000  1.000000
 IRadAn=      5 IRanWt=     -1 IRanGd=            0 ICorTp=0 IEmpDi=141
 NAtoms=   12 NActive=   12 NUniq=   12 SFac= 1.00D+00 NAtFMM=   60 NAOKFM=F Big=F
 Integral buffers will be    131072 words long.
 Raffenetti 2 integral format.
 Two-electron integral symmetry is turned on.
 R6Disp:  Grimme-D3(BJ) Dispersion energy=       -0.0251291509 Hartrees.
 Nuclear repulsion after empirical dispersion term =      432.6575522091 Hartrees.
 Leave Link  301 at Tue Sep 17 09:55:01 2024, MaxMem=  1342177280 cpu:               0.1 elap:               0.1
 (Enter /groups/ReismanLab/Software/Gaussian16_RevC/Linux_Binary_AVX2-enabled-CPU/g16/l302.exe)
 NPDir=0 NMtPBC=     1 NCelOv=     1 NCel=       1 NClECP=     1 NCelD=      1
         NCelK=      1 NCelE2=     1 NClLst=     1 CellRange=     0.0.
 One-electron integrals computed using PRISM.
 One-electron integral symmetry used in STVInt
 NBasis=   154 RedAO= T EigKep=  7.98D-04  NBF=   154
 NBsUse=   154 1.00D-06 EigRej= -1.00D+00 NBFU=   154
 Precomputing XC quadrature grid using
 IXCGrd= 4 IRadAn=           5 IRanWt=          -1 IRanGd=           0 AccXCQ= 0.00D+00.
 Generated NRdTot=       0 NPtTot=           0 NUsed=           0 NTot=          32
 NSgBfM=   154   154   154   154   154 MxSgAt=    12 MxSgA2=    12.
 Leave Link  302 at Tue Sep 17 09:55:02 2024, MaxMem=  1342177280 cpu:               0.5 elap:               0.1
 (Enter /groups/ReismanLab/Software/Gaussian16_RevC/Linux_Binary_AVX2-enabled-CPU/g16/l303.exe)
 DipDrv:  MaxL=1.
 Leave Link  303 at Tue Sep 17 09:55:02 2024, MaxMem=  1342177280 cpu:               0.1 elap:               0.0
 (Enter /groups/ReismanLab/Software/Gaussian16_RevC/Linux_Binary_AVX2-enabled-CPU/g16/l401.exe)
 Initial guess from the checkpoint file:  "smiles_00057_conf_0.chk"
[...]
 SCF Done:  E(RM062X) =  -800.117088904     A.U. after    1 cycles
            NFock=  1  Conv=0.36D-08     -V/T= 2.0028
 KE= 7.978855277929D+02 PE=-2.749238936470D+03 EE= 7.185992885354D+02
 SMD-CDS (non-electrostatic) energy       (kcal/mol) =       0.53
 (included in total energy above)
 Leave Link  502 at Tue Sep 17 10:04:08 2024, MaxMem=  1342177280 cpu:              45.0 elap:              45.2
 (Enter /groups/ReismanLab/Software/Gaussian16_RevC/Linux_Binary_AVX2-enabled-CPU/g16/l508.exe)
 QCSCF skips out because SCF is already converged.
 Leave Link  508 at Tue Sep 17 10:04:08 2024, MaxMem=  1342177280 cpu:               0.0 elap:               0.0
 (Enter /groups/ReismanLab/Software/Gaussian16_RevC/Linux_Binary_AVX2-enabled-CPU/g16/l801.exe)
 DoSCS=F DFT=T ScalE2(SS,OS)=  1.000000  1.000000
 Range of M.O.s used for correlation:     1   303
 NBasis=   303 NAE=    35 NBE=    35 NFC=     0 NFV=     0
 NROrb=    303 NOA=    35 NOB=    35 NVA=   268 NVB=   268

 **** Warning!!: The largest alpha MO coefficient is  0.34701649D+02

 Leave Link  801 at Tue Sep 17 10:04:08 2024, MaxMem=  1342177280 cpu:               0.0 elap:               0.0
 (Enter /groups/ReismanLab/Software/Gaussian16_RevC/Linux_Binary_AVX2-enabled-CPU/g16/l1002.exe)
 Minotr:  Closed shell wavefunction.
 NEqPCM:  Using equilibrium solvation (IEInf=0, Eps=   2.2099, EpsInf=   2.0232)
          Direct CPHF calculation.
          Differentiating once with respect to magnetic field using GIAOs.
          Electric field/nuclear overlap derivatives assumed to be zero.
          Requested convergence is 1.0D-08 RMS, and 1.0D-07 maximum.
          Secondary convergence is 1.0D-12 RMS, and 1.0D-12 maximum.
          NewPWx=T KeepS1=F KeepF1=F KeepIn=T MapXYZ=F SortEE=F KeepMc=T.
         3556 words used for storage of precomputed grid.
 Keep R3 ints in memory in canonical form, NReq=1081861871.
 FoFCou: FMM=F IPFlag=           0 FMFlag=           0 FMFlg1=           0
         NFxFlg=           0 DoJE=F BraDBF=F KetDBF=F FulRan=T
         wScrn=  0.000000 ICntrl=       600 IOpCl=  0 I1Cent=           0 NGrid=           0
         NMat0=    1 NMatS0=  46056 NMatT0=    0 NMatD0=    1 NMtDS0=    0 NMtDT0=    0
 Symmetry not used in FoFCou.
 Two-electron integral symmetry not used.
          MDV=    1342177280 using IRadAn=       1.
          Solving linear equations simultaneously, MaxMat=       0.
   1 Symmetry operations used in ECPInt.
 ECPInt:  NShTT=    6441 NPrTT=   21336 LenC2=    6442 LenP2D=   21336.
 LDataN:  DoStor=T MaxTD1= 7 Len=  274
 FoFJK:  IHMeth= 1 ICntrl=    6127 DoSepK=F KAlg= 0 I1Cent=           0 FoldK=F
 IRaf=         1 NMat=       1 IRICut=       1 DoRegI=T DoRafI=F ISym2E= 0 IDoP0=0 IntGTp=1.
          There are     3 degrees of freedom in the 1st order CPHF.  IDoFFX=0 NUNeed=     3.
      3 vectors produced by pass  0 Test12= 3.13D-13 3.33D-08 XBig12= 5.62D+00 6.16D-01.
 AX will form     3 AO Fock derivatives at one time.
      3 vectors produced by pass  1 Test12= 3.13D-13 3.33D-08 XBig12= 5.12D-02 8.72D-02.
      3 vectors produced by pass  2 Test12= 3.13D-13 3.33D-08 XBig12= 9.04D-04 9.26D-03.
      3 vectors produced by pass  3 Test12= 3.13D-13 3.33D-08 XBig12= 1.09D-05 8.13D-04.
      3 vectors produced by pass  4 Test12= 3.13D-13 3.33D-08 XBig12= 1.70D-07 1.31D-04.
      3 vectors produced by pass  5 Test12= 3.13D-13 3.33D-08 XBig12= 3.93D-09 2.18D-05.
      3 vectors produced by pass  6 Test12= 3.13D-13 3.33D-08 XBig12= 5.46D-11 1.95D-06.
      3 vectors produced by pass  7 Test12= 3.13D-13 3.33D-08 XBig12= 6.04D-13 1.55D-07.
 InvSVY:  IOpt=1 It=  1 EMax= 1.33D-15
 Solved reduced A of dimension    24 with     3 vectors.
 Calculating GIAO nuclear magnetic shielding tensors.
 SCF GIAO Magnetic shielding tensor (ppm):
      1  N    Isotropic =   -78.8359   Anisotropy =   478.4243
   XX=   117.1884   YX=  -214.7381   ZX=     0.1963
   XY=  -200.8880   YY=  -111.2082   ZY=    -0.1154
   XZ=     0.0519   YZ=    -0.0384   ZZ=  -242.4880
   Eigenvalues:  -242.4880  -234.1333   240.1136
      2  C    Isotropic =    50.9069   Anisotropy =   371.0268
   XX=   204.8630   YX=  -157.5973   ZX=     0.1288
   XY=  -159.7246   YY=    28.7221   ZY=    -0.0755
   XZ=     0.2187   YZ=    -0.1211   ZZ=   -80.8645
   Eigenvalues:   -80.8646   -64.6728   298.2581
      3  C    Isotropic =    25.8591   Anisotropy =   164.0982
   XX=   -60.8094   YX=    55.4379   ZX=     0.0414
   XY=    89.0171   YY=     3.1289   ZY=    -0.0322
   XZ=     0.0250   YZ=    -0.0158   ZZ=   135.2580
   Eigenvalues:  -107.8266    50.1461   135.2580
      4  C    Isotropic =    32.4880   Anisotropy =   187.2433
   XX=    25.4596   YX=    -4.5124   ZX=     0.0105
   XY=     1.0458   YY=   -85.3125   ZY=    -0.0121
   XZ=     0.0219   YZ=    -0.0224   ZZ=   157.3169
   Eigenvalues:   -85.3396    25.4867   157.3169
      5  C    Isotropic =     8.2635   Anisotropy =   182.6757
   XX=   -83.1394   YX=   -48.6504   ZX=     0.0081
   XY=   -53.0823   YY=   -22.1174   ZY=    -0.0039
   XZ=     0.0054   YZ=    -0.0089   ZZ=   130.0473
   Eigenvalues:  -111.9437     6.6869   130.0473
      6  Cl   Isotropic =   652.6981   Anisotropy =   487.0856
   XX=   848.5793   YX=   227.4923   ZX=    -0.0092
   XY=   226.5121   YY=   577.4763   ZY=    -0.0116
   XZ=    -0.0100   YZ=    -0.0251   ZZ=   532.0387
   Eigenvalues:   448.6337   532.0387   977.4218
      7  C    Isotropic =    36.4025   Anisotropy =   187.6619
   XX=   -62.8539   YX=    54.1445   ZX=     0.0146
   XY=    33.0539   YY=    10.5510   ZY=    -0.0084
   XZ=     0.0092   YZ=    -0.0091   ZZ=   161.5104
   Eigenvalues:   -83.1423    30.8395   161.5104
      8  C    Isotropic =     8.9902   Anisotropy =   207.1193
   XX=    -6.0878   YX=    24.5408   ZX=     0.0096
   XY=     4.2089   YY=  -114.0113   ZY=    -0.0098
   XZ=     0.0145   YZ=    -0.0025   ZZ=   147.0698
   Eigenvalues:  -115.8931    -4.2060   147.0698
      9  N    Isotropic =  -145.1001   Anisotropy =   665.3573
   XX=  -302.5229   YX=   122.0577   ZX=     0.0625
   XY=   130.8631   YY=  -431.2488   ZY=    -0.0520
   XZ=     0.0635   YZ=    -0.0376   ZZ=   298.4715
   Eigenvalues:  -508.7831  -224.9886   298.4715
     10  H    Isotropic =    23.2881   Anisotropy =    10.6068
   XX=    30.3178   YX=    -0.7913   ZX=    -0.0008
   XY=    -0.5512   YY=    19.5022   ZY=     0.0001
   XZ=    -0.0003   YZ=    -0.0001   ZZ=    20.0442
   Eigenvalues:    19.4607    20.0442    30.3593
     11  H    Isotropic =    23.5344   Anisotropy =     9.2930
   XX=    21.4127   YX=     3.8785   ZX=     0.0001
   XY=     2.4600   YY=    28.5221   ZY=     0.0002
   XZ=     0.0002   YZ=     0.0001   ZZ=    20.6685
   Eigenvalues:    20.2051    20.6685    29.7298
     12  H    Isotropic =    22.2962   Anisotropy =     7.1115
   XX=    26.7254   YX=     1.0095   ZX=    -0.0005
   XY=     1.7134   YY=    21.0910   ZY=     0.0001
   XZ=    -0.0002   YZ=     0.0003   ZZ=    19.0722
   Eigenvalues:    19.0722    20.7792    27.0372
 End of Minotr F.D. properties file   721 does not exist.
 End of Minotr F.D. properties file   722 does not exist.
 End of Minotr F.D. properties file   788 does not exist.
 Leave Link 1002 at Tue Sep 17 10:07:16 2024, MaxMem=  1342177280 cpu:             186.7 elap:             187.4
 (Enter /groups/ReismanLab/Software/Gaussian16_RevC/Linux_Binary_AVX2-enabled-CPU/g16/l601.exe)
 Copying SCF densities to generalized density rwf, IOpCl= 0 IROHF=0.

 **********************************************************************

            Population analysis using the SCF Density.

 **********************************************************************

 Orbital symmetries:
       Occupied  (A) (A) (A) (A) (A) (A) (A) (A) (A) (A) (A) (A)
                 (A) (A) (A) (A) (A) (A) (A) (A) (A) (A) (A) (A)
                 (A) (A) (A) (A) (A) (A) (A) (A) (A) (A) (A)
       Virtual   (A) (A) (A) (A) (A) (A) (A) (A) (A) (A) (A) (A)
                 (A) (A) (A) (A) (A) (A) (A) (A) (A) (A) (A) (A)
                 (A) (A) (A) (A) (A) (A) (A) (A) (A) (A) (A) (A)
                 (A) (A) (A) (A) (A) (A) (A) (A) (A) (A) (A) (A)
                 (A) (A) (A) (A) (A) (A) (A) (A) (A) (A) (A) (A)
                 (A) (A) (A) (A) (A) (A) (A) (A) (A) (A) (A) (A)
                 (A) (A) (A) (A) (A) (A) (A) (A) (A) (A) (A) (A)
                 (A) (A) (A) (A) (A) (A) (A) (A) (A) (A) (A) (A)
                 (A) (A) (A) (A) (A) (A) (A) (A) (A) (A) (A) (A)
                 (A) (A) (A) (A) (A) (A) (A) (A) (A) (A) (A) (A)
                 (A) (A) (A) (A) (A) (A) (A) (A) (A) (A) (A) (A)
                 (A) (A) (A) (A) (A) (A) (A) (A) (A) (A) (A) (A)
                 (A) (A) (A) (A) (A) (A) (A) (A) (A) (A) (A) (A)
                 (A) (A) (A) (A) (A) (A) (A) (A) (A) (A) (A) (A)
                 (A) (A) (A) (A) (A) (A) (A) (A) (A) (A) (A) (A)
                 (A) (A) (A) (A) (A) (A) (A) (A) (A) (A) (A) (A)
                 (A) (A) (A) (A) (A) (A) (A) (A) (A) (A) (A) (A)
                 (A) (A) (A) (A) (A) (A) (A) (A) (A) (A) (A) (A)
                 (A) (A) (A) (A) (A) (A) (A) (A) (A) (A) (A) (A)
                 (A) (A) (A) (A) (A) (A) (A) (A) (A) (A) (A) (A)
                 (A) (A) (A) (A) (A) (A) (A) (A) (A) (A) (A) (A)
                 (A) (A) (A) (A) (A) (A) (A) (A) (A) (A) (A) (A)
                 (A) (A) (A) (A)
 The electronic state is 1-A.
 Alpha  occ. eigenvalues -- -102.67280 -14.78656 -14.77404 -10.64712 -10.64134
 Alpha  occ. eigenvalues --  -10.60911 -10.59690 -10.59281 -10.58597  -9.83520
 Alpha  occ. eigenvalues --   -7.55724  -7.55204  -7.55176  -1.09661  -1.02801
 Alpha  occ. eigenvalues --   -1.00606  -0.90974  -0.90233  -0.77898  -0.74232
 Alpha  occ. eigenvalues --   -0.64744  -0.60605  -0.59466  -0.54205  -0.52765
 Alpha  occ. eigenvalues --   -0.50825  -0.48348  -0.46137  -0.46056  -0.42880
 Alpha  occ. eigenvalues --   -0.42315  -0.40336  -0.36773  -0.35346  -0.34474
 Alpha virt. eigenvalues --   -0.04871  -0.02450   0.03950   0.06433   0.08773
 Alpha virt. eigenvalues --    0.09502   0.10100   0.11760   0.12945   0.13654
 Alpha virt. eigenvalues --    0.16825   0.18843   0.19739   0.21694   0.22540
 Alpha virt. eigenvalues --    0.24013   0.24918   0.25656   0.25824   0.27667
 Alpha virt. eigenvalues --    0.28337   0.30370   0.30584   0.31490   0.33826
 Alpha virt. eigenvalues --    0.33873   0.34309   0.36102   0.38034   0.38795
 Alpha virt. eigenvalues --    0.39891   0.40010   0.40850   0.41387   0.42687
 Alpha virt. eigenvalues --    0.44487   0.45417   0.45752   0.47303   0.49432
 Alpha virt. eigenvalues --    0.50379   0.50990   0.53924   0.54212   0.55965
 Alpha virt. eigenvalues --    0.56137   0.58581   0.59912   0.61585   0.62526
 Alpha virt. eigenvalues --    0.63505   0.64710   0.65619   0.66068   0.69339
 Alpha virt. eigenvalues --    0.70373   0.72700   0.74036   0.75125   0.75548
 Alpha virt. eigenvalues --    0.76835   0.77771   0.78474   0.83968   0.85544
 Alpha virt. eigenvalues --    0.85883   0.92463   0.93658   0.94414   0.97168
 Alpha virt. eigenvalues --    0.98640   1.01107   1.04904   1.06537   1.09349
 Alpha virt. eigenvalues --    1.13892   1.15901   1.17324   1.21076   1.21290
 Alpha virt. eigenvalues --    1.21482   1.25286   1.25507   1.26257   1.29464
 Alpha virt. eigenvalues --    1.31432   1.33217   1.33219   1.36134   1.38602
 Alpha virt. eigenvalues --    1.39618   1.42369   1.42923   1.47156   1.48786
 Alpha virt. eigenvalues --    1.49795   1.51630   1.53501   1.56171   1.57215
 Alpha virt. eigenvalues --    1.59463   1.60061   1.67156   1.68323   1.70723
 Alpha virt. eigenvalues --    1.72946   1.75304   1.75466   1.77192   1.77912
 Alpha virt. eigenvalues --    1.80549   1.82649   1.85035   1.86613   1.87333
 Alpha virt. eigenvalues --    1.87680   1.90477   1.92131   1.92455   1.95285
 Alpha virt. eigenvalues --    1.99368   2.00566   2.01223   2.05915   2.07217
 Alpha virt. eigenvalues --    2.10312   2.11445   2.13105   2.13818   2.17915
 Alpha virt. eigenvalues --    2.21241   2.21712   2.22724   2.24441   2.24965
 Alpha virt. eigenvalues --    2.28427   2.28712   2.30075   2.32351   2.33766
 Alpha virt. eigenvalues --    2.41020   2.41924   2.44286   2.45878   2.46471
 Alpha virt. eigenvalues --    2.54178   2.55829   2.56443   2.60638   2.61350
 Alpha virt. eigenvalues --    2.62715   2.64192   2.65485   2.68862   2.70586
 Alpha virt. eigenvalues --    2.72080   2.73046   2.76214   2.77962   2.80727
 Alpha virt. eigenvalues --    2.83140   2.85163   2.86333   2.89759   2.90268
 Alpha virt. eigenvalues --    2.91155   2.93922   2.98075   2.98415   3.01419
 Alpha virt. eigenvalues --    3.02213   3.03115   3.03619   3.05279   3.07654
 Alpha virt. eigenvalues --    3.08625   3.10567   3.13162   3.13946   3.15351
 Alpha virt. eigenvalues --    3.15917   3.18945   3.20931   3.21251   3.24301
 Alpha virt. eigenvalues --    3.27268   3.30601   3.31599   3.32375   3.33366
 Alpha virt. eigenvalues --    3.33949   3.35750   3.38227   3.39101   3.41747
 Alpha virt. eigenvalues --    3.45168   3.46448   3.48681   3.54589   3.55213
 Alpha virt. eigenvalues --    3.58250   3.65131   3.67801   3.74753   3.78765
 Alpha virt. eigenvalues --    3.87148   3.87920   3.89546   3.92953   3.96135
 Alpha virt. eigenvalues --    3.96221   3.96751   4.00720   4.02725   4.05751
 Alpha virt. eigenvalues --    4.08697   4.08958   4.10555   4.14741   4.22031
 Alpha virt. eigenvalues --    4.25567   4.30727   4.31973   4.35172   4.40711
 Alpha virt. eigenvalues --    4.44212   4.49188   4.54709   4.55898   4.60111
 Alpha virt. eigenvalues --    4.65932   4.66908   4.67961   4.73322   4.78335
 Alpha virt. eigenvalues --    4.86359   4.89148   4.90122   4.93604   4.98599
 Alpha virt. eigenvalues --    5.05655   5.12328   5.12683   5.15979   5.19316
 Alpha virt. eigenvalues --    5.24686   5.33215   5.35230   5.48492   5.52673
 Alpha virt. eigenvalues --    5.61139   5.61568   5.70260   5.78780   6.01085
 Alpha virt. eigenvalues --    6.12938  10.79276  10.86152  11.39021  22.32773
 Alpha virt. eigenvalues --   22.72809  22.73327  22.92998  23.13369  23.57852
 Alpha virt. eigenvalues --   26.00519  32.19582  32.59270
          Condensed to atoms (all electrons):
               1          2          3          4          5          6
     1  N    6.137216   0.923843  -0.039476   0.001193   0.000090   0.000001
     2  C    0.923843   5.149555   0.202542  -0.021935  -0.009369  -0.000990
     3  C   -0.039476   0.202542   4.783533   0.506961  -0.031338   0.010534
     4  C    0.001193  -0.021935   0.506961   5.045722   0.428893  -0.071141
     5  C    0.000090  -0.009369  -0.031338   0.428893   4.858824   0.359149
     6  Cl   0.000001  -0.000990   0.010534  -0.071141   0.359149  16.814115
     7  C   -0.000092   0.003764  -0.045122  -0.002615   0.439801  -0.065527
     8  C   -0.000098  -0.003790  -0.086404  -0.046508  -0.007240   0.008272
     9  N   -0.000763  -0.046279   0.448448  -0.055775  -0.035101  -0.000515
    10  H    0.000864   0.003726  -0.019993   0.397497  -0.041925  -0.001468
    11  H   -0.000001   0.000128  -0.002572   0.014014  -0.055779   0.000327
    12  H    0.000008  -0.000339   0.006146   0.000163   0.002638  -0.000268
               7          8          9         10         11         12
     1  N   -0.000092  -0.000098  -0.000763   0.000864  -0.000001   0.000008
     2  C    0.003764  -0.003790  -0.046279   0.003726   0.000128  -0.000339
     3  C   -0.045122  -0.086404   0.448448  -0.019993  -0.002572   0.006146
     4  C   -0.002615  -0.046508  -0.055775   0.397497   0.014014   0.000163
     5  C    0.439801  -0.007240  -0.035101  -0.041925  -0.055779   0.002638
     6  Cl  -0.065527   0.008272  -0.000515  -0.001468   0.000327  -0.000268
     7  C    5.031258   0.474877  -0.057787   0.010250   0.413187  -0.059799
     8  C    0.474877   4.802215   0.518356  -0.002482  -0.025303   0.428621
     9  N   -0.057787   0.518356   6.499858   0.004956   0.005256  -0.031921
    10  H    0.010250  -0.002482   0.004956   0.445318   0.000143   0.000085
    11  H    0.413187  -0.025303   0.005256   0.000143   0.465103  -0.000793
    12  H   -0.059799   0.428621  -0.031921   0.000085  -0.000793   0.478834
 Mulliken charges:
               1
     1  N   -0.022785
     2  C   -0.200854
     3  C    0.266741
     4  C   -0.196469
     5  C    0.091357
     6  Cl  -0.052488
     7  C   -0.142194
     8  C   -0.060517
     9  N   -0.248733
    10  H    0.203028
    11  H    0.186290
    12  H    0.176625
 Sum of Mulliken charges =  -0.00000
 Mulliken charges with hydrogens summed into heavy atoms:
               1
     1  N   -0.022785
     2  C   -0.200854
     3  C    0.266741
     4  C    0.006559
     5  C    0.091357
     6  Cl  -0.052488
     7  C    0.044095
     8  C    0.116108
     9  N   -0.248733
 Electronic spatial extent (au):  <R**2>=           1495.4553
 Charge=             -0.0000 electrons
 Dipole moment (field-independent basis, Debye):
    X=             -5.1343    Y=              1.9057    Z=             -0.0008  Tot=              5.4766
 Quadrupole moment (field-independent basis, Debye-Ang):
   XX=            -76.4521   YY=            -53.3333   ZZ=            -58.8511
   XY=              1.3743   XZ=             -0.0032   YZ=              0.0017
 Traceless Quadrupole moment (field-independent basis, Debye-Ang):
   XX=            -13.5732   YY=              9.5455   ZZ=              4.0277
   XY=              1.3743   XZ=             -0.0032   YZ=              0.0017
 Octapole moment (field-independent basis, Debye-Ang**2):
  XXX=            -94.6050  YYY=             14.8600  ZZZ=              0.0005  XYY=            -24.4042
  XXY=             23.2609  XXZ=             -0.0094  XZZ=             -3.6972  YZZ=             -1.7364
  YYZ=             -0.0003  XYZ=              0.0037
 Hexadecapole moment (field-independent basis, Debye-Ang**3):
 XXXX=          -1702.7194 YYYY=           -456.7801 ZZZZ=            -63.3085 XXXY=            110.6855
 XXXZ=             -0.0373 YYYX=             16.8746 YYYZ=              0.0093 ZZZX=              0.0010
 ZZZY=              0.0037 XXYY=           -365.5643 XXZZ=           -252.4509 YYZZ=           -101.1998
 XXYZ=              0.0159 YYXZ=             -0.0049 ZZXY=              5.0876
 N-N= 4.326370312381D+02 E-N=-2.749238933524D+03  KE= 7.978855277929D+02
 Calculating spin-rotation constants.
 Leave Link  601 at Tue Sep 17 10:07:18 2024, MaxMem=  1342177280 cpu:               1.5 elap:               1.8
 (Enter /groups/ReismanLab/Software/Gaussian16_RevC/Linux_Binary_AVX2-enabled-CPU/g16/l9999.exe)
 Unable to Open any file for archive entry.
 1\1\GINC-HPC-20-25\SP\RM062X\def2TZVP\C6H3Cl1N2\MANTIND\17-Sep-2024\0\
 \#p M062X/def2tzvp geom=check guess=read scf(xqc,tight) integral(grid=
 ultrafine) scrf(SMD, solvent=1,4-Dioxane) nmr=giao\\spe\\0,1\N,0,3.548
 3310417,-1.3068332143,0.0003825358\C,0,2.558448114,-0.6990204662,-0.00
 02945748\C,0,1.3065671904,0.0177768641,-0.0001166444\C,0,0.1106555267,
 -0.711039224,-0.000077672\C,0,-1.0762790396,0.0153933754,0.0000189071\
 Cl,0,-2.6067278481,-0.8206289666,0.0000676745\C,0,-1.0358652564,1.4067
 299359,0.0000780822\C,0,0.2188250852,2.020596235,0.000031041\N,0,1.377
 2873072,1.3585119793,-0.0000563854\H,0,0.1152785484,-1.7935845042,-0.0
 001343311\H,0,-1.9464663559,1.9932055985,0.0001581651\H,0,0.2886144004
 ,3.1053158576,0.0000741571\\Version=ES64L-G16RevC.02\State=1-A\HF=-800
 .1170889\RMSD=3.597e-09\Dipole=-2.0058549,0.7868107,-0.0003265\Quadrup
 ole=-10.0479669,7.0534459,2.994521,1.3372228,-0.0023293,0.0013206\PG=C
 01 [X(C6H3Cl1N2)]\\@
 The archive entry for this job was punched.


 NECESSARY EVIL: ONE WE LIKE TOO MUCH TO RELINQUISH.
 Job cpu time:       0 days  0 hours  3 minutes 54.3 seconds.
 Elapsed time:       0 days  0 hours  3 minutes 56.0 seconds.
 File lengths (MBytes):  RWF=    184 Int=      0 D2E=      0 Chk=     24 Scr=     16
 Normal termination of Gaussian 16 at Tue Sep 17 10:07:18 2024.
