 Entering Gaussian System, Link 0=g16
 Input=smiles_00023_conf_2.gjf
 Output=smiles_00023_conf_2.log
 Initial command:
 /groups/ReismanLab/Software/Gaussian16_RevC/Linux_Binary_AVX2-enabled-CPU/g16/l1.exe "/central/groups/ReismanLab/DM/dft_final/smiles_00023/Gau-868251.inp" -scrdir="/central/groups/ReismanLab/DM/dft_final/smiles_00023/"
 Entering Link 1 = /groups/ReismanLab/Software/Gaussian16_RevC/Linux_Binary_AVX2-enabled-CPU/g16/l1.exe PID=    868255.
  
 Copyright (c) 1988-2021, Gaussian, Inc.  All Rights Reserved.
  
 This is part of the Gaussian(R) 16 program.  It is based on
 the Gaussian(R) 09 system (copyright 2009, Gaussian, Inc.),
 the Gaussian(R) 03 system (copyright 2003, Gaussian, Inc.),
 the Gaussian(R) 98 system (copyright 1998, Gaussian, Inc.),
 the Gaussian(R) 94 system (copyright 1995, Gaussian, Inc.),
 the Gaussian 92(TM) system (copyright 1992, Gaussian, Inc.),
 the Gaussian 90(TM) system (copyright 1990, Gaussian, Inc.),
 the Gaussian 88(TM) system (copyright 1988, Gaussian, Inc.),
 the Gaussian 86(TM) system (copyright 1986, Carnegie Mellon
 University), and the Gaussian 82(TM) system (copyright 1983,
 Carnegie Mellon University). Gaussian is a federally registered
 trademark of Gaussian, Inc.
  
 This software contains proprietary and confidential information,
 including trade secrets, belonging to Gaussian, Inc.
  
 This software is provided under written license and may be
 used, copied, transmitted, or stored only in accord with that
 written license.
  
 The following legend is applicable only to US Government
 contracts under FAR:
  
                    RESTRICTED RIGHTS LEGEND
  
 Use, reproduction and disclosure by the US Government is
 subject to restrictions as set forth in subparagraphs (a)
 and (c) of the Commercial Computer Software - Restricted
 Rights clause in FAR 52.227-19.
  
 Gaussian, Inc.
 340 Quinnipiac St., Bldg. 40, Wallingford CT 06492
  
  
 ---------------------------------------------------------------
 Warning -- This program may not be used in any manner that
 competes with the business of Gaussian, Inc. or will provide
 assistance to any competitor of Gaussian, Inc.  The licensee
 of this program is prohibited from giving any competitor of
 Gaussian, Inc. access to this program.  By using this program,
 the user acknowledges that Gaussian, Inc. is engaged in the
 business of creating and licensing software in the field of
 computational chemistry and represents and warrants to the
 licensee that it is not a competitor of Gaussian, Inc. and that
 it will not use this program in any manner prohibited above.
 ---------------------------------------------------------------
  

 Cite this work as:
 Gaussian 16, Revision C.02,
 M. J. Frisch, G. W. Trucks, H. B. Schlegel, G. E. Scuseria, 
 M. A. Robb, J. R. Cheeseman, G. Scalmani, V. Barone, 
 G. A. Petersson, H. Nakatsuji, X. Li, M. Caricato, A. V. Marenich, 
 J. Bloino, B. G. Janesko, R. Gomperts, B. Mennucci, H. P. Hratchian, 
 J. V. Ortiz, A. F. Izmaylov, J. L. Sonnenberg, D. Williams-Young, 
 F. Ding, F. Lipparini, F. Egidi, J. Goings, B. Peng, A. Petrone, 
 T. Henderson, D. Ranasinghe, V. G. Zakrzewski, J. Gao, N. Rega, 
 G. Zheng, W. Liang, M. Hada, M. Ehara, K. Toyota, R. Fukuda, 
 J. Hasegawa, M. Ishida, T. Nakajima, Y. Honda, O. Kitao, H. Nakai, 
 T. Vreven, K. Throssell, J. A. Montgomery, Jr., J. E. Peralta, 
 F. Ogliaro, M. J. Bearpark, J. J. Heyd, E. N. Brothers, K. N. Kudin, 
 V. N. Staroverov, T. A. Keith, R. Kobayashi, J. Normand, 
 K. Raghavachari, A. P. Rendell, J. C. Burant, S. S. Iyengar, 
 J. Tomasi, M. Cossi, J. M. Millam, M. Klene, C. Adamo, R. Cammi, 
 J. W. Ochterski, R. L. Martin, K. Morokuma, O. Farkas, 
 J. B. Foresman, and D. J. Fox, Gaussian, Inc., Wallingford CT, 2019.
 
 ******************************************
 Gaussian 16:  ES64L-G16RevC.02  7-Dec-2021
                17-Sep-2024 
 ******************************************
 %nprocshared=8
 Will use up to    8 processors via shared memory.
 %Mem=10GB
 %Chk=smiles_00023_conf_2.chk
 ----------------------------------------------------------------------
 #p B3LYP/6-31G(d,p) EmpiricalDispersion=GD3BJ opt freq scf(xqc,tight) 
 integral(grid=ultrafine)
 ----------------------------------------------------------------------
 1/18=20,19=15,26=4,38=1/1,3;
 2/9=110,12=2,17=6,18=5,40=1/2;
 3/5=1,6=6,7=101,11=2,25=1,30=1,71=1,74=-5,75=-5,124=41/1,2,3;
 4//1;
 5/5=2,8=3,13=1,32=2,38=5/2,8;
 6/7=2,8=2,9=2,10=2,28=1/1;
 7//1,2,3,16;
 1/18=20,19=15,26=4/3(2);
 2/9=110/2;
 99//99;
 2/9=110/2;
 3/5=1,6=6,7=101,11=2,25=1,30=1,71=1,74=-5,75=-5,124=41/1,2,3;
 4/5=5,16=3,69=1/1;
 5/5=2,8=3,13=1,32=2,38=5/2,8;
 7//1,2,3,16;
 1/18=20,19=15,26=4/3(-5);
 2/9=110/2;
 6/7=2,8=2,9=2,10=2,19=2,28=1/1;
 99/9=1/99;
 Leave Link    1 at Tue Sep 17 09:52:15 2024, MaxMem=  1342177280 cpu:               0.1 elap:               0.9
 (Enter /groups/ReismanLab/Software/Gaussian16_RevC/Linux_Binary_AVX2-enabled-CPU/g16/l101.exe)
 ----------------------------------
 opt-freq conformers_unique/conf_ac
 ----------------------------------
 Symbolic Z-matrix:
 Charge =  0 Multiplicity = 1
 Br                    3.16867  -1.38192   0.00064 
 C                     2.10521   0.19905   0.00021 
 C                     2.72759   1.43649   0.00113 
 C                     1.94756   2.58267   0.00078 
 C                     0.56918   2.49403  -0.00031 
 C                    -0.04431   1.24101  -0.00098 
 C                    -1.48639   1.15629  -0.00142 
 N                    -2.32649   2.14617  -0.00186 
 N                    -3.56194   1.62275  -0.00146 
 C                    -3.4318    0.33151  -0.00098 
 C                    -4.5047   -0.64869  -0.00005 
 C                    -4.31508  -1.94717   0.74553 
 C                    -4.31541  -1.94867  -0.74305 
 O                    -2.13139  -0.03839  -0.00081 
 C                     0.72852   0.082    -0.00081 
 H                     3.80468   1.50139   0.00202 
 H                     2.42675   3.5495    0.00148 
 H                    -0.05397   3.37336  -0.00042 
 H                    -5.48027  -0.18405  -0.00027 
 H                    -5.16938  -2.34757   1.26833 
 H                    -3.3761   -2.09527   1.25703 
 H                    -5.17002  -2.3501   -1.26458 
 H                    -3.37669  -2.0979   -1.25466 
 H                     0.25736  -0.88899  -0.0014 
 
 ITRead=  0  0  0  0  0  0  0  0  0  0  0  0  0  0  0  0  0  0  0  0
 ITRead=  0  0  0  0
 MicOpt= -1 -1 -1 -1 -1 -1 -1 -1 -1 -1 -1 -1 -1 -1 -1 -1 -1 -1 -1 -1
 MicOpt= -1 -1 -1 -1
 NAtoms=     24 NQM=       24 NQMF=       0 NMMI=      0 NMMIF=      0
                NMic=       0 NMicF=      0.
                    Isotopes and Nuclear Properties:
 (Nuclear quadrupole moments (NQMom) in fm**2, nuclear magnetic moments (NMagM)
  in nuclear magnetons)

  Atom         1           2           3           4           5           6           7           8           9          10
 IAtWgt=          79          12          12          12          12          12          12          14          14          12
 AtmWgt=  78.9183361  12.0000000  12.0000000  12.0000000  12.0000000  12.0000000  12.0000000  14.0030740  14.0030740  12.0000000
 NucSpn=           3           0           0           0           0           0           0           2           2           0
 AtZEff=  -0.0000000  -0.0000000  -0.0000000  -0.0000000  -0.0000000  -0.0000000  -0.0000000  -0.0000000  -0.0000000  -0.0000000
 NQMom=   31.3000000   0.0000000   0.0000000   0.0000000   0.0000000   0.0000000   0.0000000   2.0440000   2.0440000   0.0000000
 NMagM=    2.1063990   0.0000000   0.0000000   0.0000000   0.0000000   0.0000000   0.0000000   0.4037610   0.4037610   0.0000000
 AtZNuc=  35.0000000   6.0000000   6.0000000   6.0000000   6.0000000   6.0000000   6.0000000   7.0000000   7.0000000   6.0000000

  Atom        11          12          13          14          15          16          17          18          19          20
 IAtWgt=          12          12          12          16          12           1           1           1           1           1
 AtmWgt=  12.0000000  12.0000000  12.0000000  15.9949146  12.0000000   1.0078250   1.0078250   1.0078250   1.0078250   1.0078250
 NucSpn=           0           0           0           0           0           1           1           1           1           1
 AtZEff=  -0.0000000  -0.0000000  -0.0000000  -0.0000000  -0.0000000  -0.0000000  -0.0000000  -0.0000000  -0.0000000  -0.0000000
 NQMom=    0.0000000   0.0000000   0.0000000   0.0000000   0.0000000   0.0000000   0.0000000   0.0000000   0.0000000   0.0000000
 NMagM=    0.0000000   0.0000000   0.0000000   0.0000000   0.0000000   2.7928460   2.7928460   2.7928460   2.7928460   2.7928460
 AtZNuc=   6.0000000   6.0000000   6.0000000   8.0000000   6.0000000   1.0000000   1.0000000   1.0000000   1.0000000   1.0000000

  Atom        21          22          23          24
 IAtWgt=           1           1           1           1
 AtmWgt=   1.0078250   1.0078250   1.0078250   1.0078250
 NucSpn=           1           1           1           1
 AtZEff=  -0.0000000  -0.0000000  -0.0000000  -0.0000000
 NQMom=    0.0000000   0.0000000   0.0000000   0.0000000
 NMagM=    2.7928460   2.7928460   2.7928460   2.7928460
 AtZNuc=   1.0000000   1.0000000   1.0000000   1.0000000
 Leave Link  101 at Tue Sep 17 09:52:15 2024, MaxMem=  1342177280 cpu:               0.2 elap:               0.2
 (Enter /groups/ReismanLab/Software/Gaussian16_RevC/Linux_Binary_AVX2-enabled-CPU/g16/l103.exe)

 GradGradGradGradGradGradGradGradGradGradGradGradGradGradGradGradGradGrad
 Berny optimization.
 Initialization pass.
                           ----------------------------
                           !    Initial Parameters    !
                           ! (Angstroms and Degrees)  !
 --------------------------                            --------------------------
 ! Name  Definition              Value          Derivative Info.                !
 --------------------------------------------------------------------------------
 ! R1    R(1,2)                  1.9054         estimate D2E/DX2                !
 ! R2    R(2,3)                  1.3851         estimate D2E/DX2                !
 ! R3    R(2,15)                 1.3817         estimate D2E/DX2                !
 ! R4    R(3,4)                  1.3864         estimate D2E/DX2                !
 ! R5    R(3,16)                 1.079          estimate D2E/DX2                !
 ! R6    R(4,5)                  1.3812         estimate D2E/DX2                !
 ! R7    R(4,17)                 1.0791         estimate D2E/DX2                !
 ! R8    R(5,6)                  1.3951         estimate D2E/DX2                !
 ! R9    R(5,18)                 1.0777         estimate D2E/DX2                !
 ! R10   R(6,7)                  1.4446         estimate D2E/DX2                !
 ! R11   R(6,15)                 1.393          estimate D2E/DX2                !
 ! R12   R(7,8)                  1.2983         estimate D2E/DX2                !
 ! R13   R(7,14)                 1.3577         estimate D2E/DX2                !
 ! R14   R(8,9)                  1.3418         estimate D2E/DX2                !
 ! R15   R(9,10)                 1.2978         estimate D2E/DX2                !
 ! R16   R(10,11)                1.4532         estimate D2E/DX2                !
 ! R17   R(10,14)                1.352          estimate D2E/DX2                !
 ! R18   R(11,12)                1.5093         estimate D2E/DX2                !
 ! R19   R(11,13)                1.5092         estimate D2E/DX2                !
 ! R20   R(11,19)                1.0806         estimate D2E/DX2                !
 ! R21   R(12,13)                1.4886         estimate D2E/DX2                !
 ! R22   R(12,20)                1.0786         estimate D2E/DX2                !
 ! R23   R(12,21)                1.0795         estimate D2E/DX2                !
 ! R24   R(13,22)                1.0787         estimate D2E/DX2                !
 ! R25   R(13,23)                1.0795         estimate D2E/DX2                !
 ! R26   R(15,24)                1.0793         estimate D2E/DX2                !
 ! A1    A(1,2,3)              119.3721         estimate D2E/DX2                !
 ! A2    A(1,2,15)             119.0673         estimate D2E/DX2                !
 ! A3    A(3,2,15)             121.5605         estimate D2E/DX2                !
 ! A4    A(2,3,4)              119.0622         estimate D2E/DX2                !
 ! A5    A(2,3,16)             120.1488         estimate D2E/DX2                !
 ! A6    A(4,3,16)             120.789          estimate D2E/DX2                !
 ! A7    A(3,4,5)              120.5573         estimate D2E/DX2                !
 ! A8    A(3,4,17)             119.3981         estimate D2E/DX2                !
 ! A9    A(5,4,17)             120.0446         estimate D2E/DX2                !
 ! A10   A(4,5,6)              119.7667         estimate D2E/DX2                !
 ! A11   A(4,5,18)             121.6442         estimate D2E/DX2                !
 ! A12   A(6,5,18)             118.5891         estimate D2E/DX2                !
 ! A13   A(5,6,7)              119.4488         estimate D2E/DX2                !
 ! A14   A(5,6,15)             120.2175         estimate D2E/DX2                !
 ! A15   A(7,6,15)             120.3337         estimate D2E/DX2                !
 ! A16   A(6,7,8)              126.9588         estimate D2E/DX2                !
 ! A17   A(6,7,14)             121.726          estimate D2E/DX2                !
 ! A18   A(8,7,14)             111.3152         estimate D2E/DX2                !
 ! A19   A(7,8,9)              107.3598         estimate D2E/DX2                !
 ! A20   A(8,9,10)             107.2055         estimate D2E/DX2                !
 ! A21   A(9,10,11)            126.6593         estimate D2E/DX2                !
 ! A22   A(9,10,14)            111.6336         estimate D2E/DX2                !
 ! A23   A(11,10,14)           121.7071         estimate D2E/DX2                !
 ! A24   A(10,11,12)           119.1992         estimate D2E/DX2                !
 ! A25   A(10,11,13)           119.2131         estimate D2E/DX2                !
 ! A26   A(10,11,19)           112.1177         estimate D2E/DX2                !
 ! A27   A(12,11,19)           118.9128         estimate D2E/DX2                !
 ! A28   A(13,11,19)           118.915          estimate D2E/DX2                !
 ! A29   A(11,12,20)           117.3413         estimate D2E/DX2                !
 ! A30   A(11,12,21)           117.4777         estimate D2E/DX2                !
 ! A31   A(13,12,20)           118.9555         estimate D2E/DX2                !
 ! A32   A(13,12,21)           118.2879         estimate D2E/DX2                !
 ! A33   A(20,12,21)           114.1009         estimate D2E/DX2                !
 ! A34   A(11,13,22)           117.337          estimate D2E/DX2                !
 ! A35   A(11,13,23)           117.4822         estimate D2E/DX2                !
 ! A36   A(12,13,22)           118.9509         estimate D2E/DX2                !
 ! A37   A(12,13,23)           118.2878         estimate D2E/DX2                !
 ! A38   A(22,13,23)           114.1032         estimate D2E/DX2                !
 ! A39   A(7,14,10)            102.4859         estimate D2E/DX2                !
 ! A40   A(2,15,6)             118.8358         estimate D2E/DX2                !
 ! A41   A(2,15,24)            120.7444         estimate D2E/DX2                !
 ! A42   A(6,15,24)            120.4198         estimate D2E/DX2                !
 ! D1    D(1,2,3,4)            179.9982         estimate D2E/DX2                !
 ! D2    D(1,2,3,16)             0.0043         estimate D2E/DX2                !
 ! D3    D(15,2,3,4)            -0.0119         estimate D2E/DX2                !
 ! D4    D(15,2,3,16)          179.9942         estimate D2E/DX2                !
 ! D5    D(1,2,15,6)           179.993          estimate D2E/DX2                !
 ! D6    D(1,2,15,24)           -0.0025         estimate D2E/DX2                !
 ! D7    D(3,2,15,6)             0.0031         estimate D2E/DX2                !
 ! D8    D(3,2,15,24)         -179.9924         estimate D2E/DX2                !
 ! D9    D(2,3,4,5)              0.0087         estimate D2E/DX2                !
 ! D10   D(2,3,4,17)          -179.9995         estimate D2E/DX2                !
 ! D11   D(16,3,4,5)          -179.9975         estimate D2E/DX2                !
 ! D12   D(16,3,4,17)           -0.0056         estimate D2E/DX2                !
 ! D13   D(3,4,5,6)              0.0032         estimate D2E/DX2                !
 ! D14   D(3,4,5,18)           179.9889         estimate D2E/DX2                !
 ! D15   D(17,4,5,6)          -179.9886         estimate D2E/DX2                !
 ! D16   D(17,4,5,18)           -0.0029         estimate D2E/DX2                !
 ! D17   D(4,5,6,7)            179.9686         estimate D2E/DX2                !
 ! D18   D(4,5,6,15)            -0.0121         estimate D2E/DX2                !
 ! D19   D(18,5,6,7)            -0.0176         estimate D2E/DX2                !
 ! D20   D(18,5,6,15)         -179.9982         estimate D2E/DX2                !
 ! D21   D(5,6,7,8)              0.0329         estimate D2E/DX2                !
 ! D22   D(5,6,7,14)          -179.9374         estimate D2E/DX2                !
 ! D23   D(15,6,7,8)          -179.9865         estimate D2E/DX2                !
 ! D24   D(15,6,7,14)            0.0433         estimate D2E/DX2                !
 ! D25   D(5,6,15,2)             0.009          estimate D2E/DX2                !
 ! D26   D(5,6,15,24)         -179.9955         estimate D2E/DX2                !
 ! D27   D(7,6,15,2)          -179.9715         estimate D2E/DX2                !
 ! D28   D(7,6,15,24)            0.024          estimate D2E/DX2                !
 ! D29   D(6,7,8,9)           -179.9688         estimate D2E/DX2                !
 ! D30   D(14,7,8,9)             0.004          estimate D2E/DX2                !
 ! D31   D(6,7,14,10)          179.9768         estimate D2E/DX2                !
 ! D32   D(8,7,14,10)            0.0023         estimate D2E/DX2                !
 ! D33   D(7,8,9,10)            -0.0091         estimate D2E/DX2                !
 ! D34   D(8,9,10,11)          179.9812         estimate D2E/DX2                !
 ! D35   D(8,9,10,14)            0.011          estimate D2E/DX2                !
 ! D36   D(9,10,11,12)        -145.558          estimate D2E/DX2                !
 ! D37   D(9,10,11,13)         145.6411         estimate D2E/DX2                !
 ! D38   D(9,10,11,19)           0.0287         estimate D2E/DX2                !
 ! D39   D(14,10,11,12)         34.4095         estimate D2E/DX2                !
 ! D40   D(14,10,11,13)        -34.3914         estimate D2E/DX2                !
 ! D41   D(14,10,11,19)        179.9962         estimate D2E/DX2                !
 ! D42   D(9,10,14,7)           -0.0083         estimate D2E/DX2                !
 ! D43   D(11,10,14,7)        -179.9802         estimate D2E/DX2                !
 ! D44   D(10,11,12,20)        142.0387         estimate D2E/DX2                !
 ! D45   D(10,11,12,21)          0.1275         estimate D2E/DX2                !
 ! D46   D(19,11,12,20)         -1.2258         estimate D2E/DX2                !
 ! D47   D(19,11,12,21)       -143.137          estimate D2E/DX2                !
 ! D48   D(10,11,13,22)       -142.0651         estimate D2E/DX2                !
 ! D49   D(10,11,13,23)         -0.1493         estimate D2E/DX2                !
 ! D50   D(19,11,13,22)          1.2264         estimate D2E/DX2                !
 ! D51   D(19,11,13,23)        143.1422         estimate D2E/DX2                !
 ! D52   D(20,12,13,22)          0.0026         estimate D2E/DX2                !
 ! D53   D(20,12,13,23)       -145.861          estimate D2E/DX2                !
 ! D54   D(21,12,13,22)        145.8698         estimate D2E/DX2                !
 ! D55   D(21,12,13,23)          0.0062         estimate D2E/DX2                !
 --------------------------------------------------------------------------------
 Trust Radius=3.00D-01 FncErr=1.00D-07 GrdErr=1.00D-06 EigMax=2.50D+02 EigMin=1.00D-04
 Number of steps in this run=    133 maximum allowed number of steps=    144.
 GradGradGradGradGradGradGradGradGradGradGradGradGradGradGradGradGradGrad

 Leave Link  103 at Tue Sep 17 09:52:15 2024, MaxMem=  1342177280 cpu:               0.1 elap:               0.0
 (Enter /groups/ReismanLab/Software/Gaussian16_RevC/Linux_Binary_AVX2-enabled-CPU/g16/l202.exe)
                          Input orientation:                          
 ---------------------------------------------------------------------
 Center     Atomic      Atomic             Coordinates (Angstroms)
 Number     Number       Type             X           Y           Z
 ---------------------------------------------------------------------
      1         35           0        3.168671   -1.381923    0.000640
      2          6           0        2.105209    0.199054    0.000209
      3          6           0        2.727591    1.436490    0.001134
      4          6           0        1.947559    2.582674    0.000775
      5          6           0        0.569180    2.494027   -0.000306
      6          6           0       -0.044312    1.241007   -0.000977
      7          6           0       -1.486395    1.156294   -0.001417
      8          7           0       -2.326486    2.146171   -0.001855
      9          7           0       -3.561942    1.622746   -0.001455
     10          6           0       -3.431799    0.331507   -0.000983
     11          6           0       -4.504703   -0.648692   -0.000052
     12          6           0       -4.315078   -1.947168    0.745526
     13          6           0       -4.315415   -1.948667   -0.743045
     14          8           0       -2.131393   -0.038390   -0.000811
     15          6           0        0.728520    0.082002   -0.000814
     16          1           0        3.804681    1.501388    0.002019
     17          1           0        2.426754    3.549500    0.001483
     18          1           0       -0.053973    3.373357   -0.000423
     19          1           0       -5.480271   -0.184045   -0.000271
     20          1           0       -5.169381   -2.347572    1.268329
     21          1           0       -3.376097   -2.095267    1.257025
     22          1           0       -5.170015   -2.350105   -1.264580
     23          1           0       -3.376691   -2.097898   -1.254661
     24          1           0        0.257356   -0.888991   -0.001404
 ---------------------------------------------------------------------
                    Distance matrix (angstroms):
                    1          2          3          4          5
     1  Br   0.000000
     2  C    1.905372   0.000000
     3  C    2.852719   1.385138   0.000000
     4  C    4.148391   2.388828   1.386430   0.000000
     5  C    4.666941   2.761573   2.403565   1.381227   0.000000
     6  C    4.147653   2.388746   2.778789   2.401588   1.395146
     7  C    5.302093   3.716978   4.223292   3.718414   2.452533
     8  N    6.530253   4.840577   5.103661   4.296278   2.916485
     9  N    7.370834   5.843244   6.292291   5.592502   4.222002
    10  C    6.819241   5.538592   6.257722   5.831402   4.548002
    11  C    7.708326   6.664053   7.526889   7.216191   5.968330
    12  C    7.541939   6.810422   7.848722   7.764969   6.643526
    13  C    7.542268   6.810987   7.849651   7.766026   6.644430
    14  O    5.467701   4.243250   5.077893   4.848487   3.702192
    15  C    2.845596   1.381656   2.414731   2.781981   2.417282
    16  H    2.952625   2.141094   1.079043   2.148972   3.384346
    17  H    4.986920   3.365840   2.134318   1.079064   2.136494
    18  H    5.744400   3.839045   3.389478   2.152049   1.077749
    19  H    8.731501   7.595148   8.366310   7.926374   6.615734
    20  H    8.488971   7.811087   8.847998   8.750134   7.614564
    21  H    6.702340   6.073567   7.162792   7.197403   6.181239
    22  H    8.489514   7.811964   8.849436   8.751760   7.615928
    23  H    6.702997   6.074695   7.164578   7.199411   6.182967
    24  H    2.952752   2.144390   3.392629   3.861250   3.397359
                    6          7          8          9         10
     6  C    0.000000
     7  C    1.444569   0.000000
     8  N    2.455125   1.298310   0.000000
     9  N    3.538283   2.127316   1.341762   0.000000
    10  C    3.507457   2.113024   2.124788   1.297781   0.000000
    11  C    4.844177   3.516839   3.543429   2.459315   1.453242
    12  C    5.381557   4.265073   4.611778   3.724175   2.555350
    13  C    5.382100   4.265460   4.612256   3.724603   2.555509
    14  O    2.448012   1.357679   2.193255   2.192224   1.351991
    15  C    1.393041   2.461697   3.686985   4.558724   4.167794
    16  H    3.857791   5.302318   6.164979   7.367623   7.330434
    17  H    3.381614   4.586957   4.956071   6.291015   6.684170
    18  H    2.132372   2.639545   2.582693   3.920521   4.545609
    19  H    5.619647   4.212786   3.921259   2.635239   2.112353
    20  H    6.383993   5.239629   5.467096   4.467620   3.436248
    21  H    4.879968   3.965766   4.547116   3.929622   2.734029
    22  H    6.384795   5.240179   5.467781   4.468213   3.436439
    23  H    4.881061   3.966561   4.548030   3.930399   2.734365
    24  H    2.151255   2.687724   3.986032   4.571199   3.885805
                   11         12         13         14         15
    11  C    0.000000
    12  C    1.509266   0.000000
    13  C    1.509240   1.488572   0.000000
    14  O    2.450524   2.994817   2.995000   0.000000
    15  C    5.283989   5.487480   5.487787   2.862446   0.000000
    16  H    8.583047   8.853012   8.854036   6.132527   3.387835
    17  H    8.103697   8.730363   8.731609   5.800833   3.861029
    18  H    5.998822   6.857217   6.858230   3.994457   3.383092
    19  H    1.080570   2.241091   2.241092   3.352045   6.214489
    20  H    2.221886   1.078647   2.221263   4.021493   6.503752
    21  H    2.224089   1.079467   2.214518   2.713334   4.813579
    22  H    2.221818   2.221217   1.078653   4.021737   6.504227
    23  H    2.224107   2.214506   1.079455   2.713758   4.814235
    24  H    4.768118   4.752345   4.752176   2.535674   1.079270
                   16         17         18         19         20
    16  H    0.000000
    17  H    2.468489   0.000000
    18  H    4.288762   2.486974   0.000000
    19  H    9.436685   8.744165   6.488438   0.000000
    20  H    9.846411   9.699568   7.778570   2.527220   0.000000
    21  H    8.128625   8.192244   6.521007   3.108232   1.810981
    22  H    9.848017   9.701503   7.780102   2.527162   2.532910
    23  H    8.130572   8.194570   6.522898   3.108275   3.105085
    24  H    4.277551   4.940293   4.273703   5.780771   5.761002
                   21         22         23         24
    21  H    0.000000
    22  H    3.105089   0.000000
    23  H    2.511688   1.810999   0.000000
    24  H    4.029978   5.760800   4.029691   0.000000
 Stoichiometry    C11H9BrN2O
 Framework group  C1[X(C11H9BrN2O)]
 Deg. of freedom    66
 Full point group                 C1      NOp   1
 Largest Abelian subgroup         C1      NOp   1
 Largest concise Abelian subgroup C1      NOp   1
                         Standard orientation:                         
 ---------------------------------------------------------------------
 Center     Atomic      Atomic             Coordinates (Angstroms)
 Number     Number       Type             X           Y           Z
 ---------------------------------------------------------------------
      1         35           0        3.360259   -1.397686   -0.000204
      2          6           0        2.282702    0.173719   -0.000010
      3          6           0        2.893995    1.416670    0.001235
      4          6           0        2.103745    2.555833    0.001330
      5          6           0        0.726214    2.454864    0.000380
      6          6           0        0.123950    1.196410   -0.000618
      7          6           0       -1.317317    1.098805   -0.000918
      8          7           0       -2.166226    2.081131   -0.000945
      9          7           0       -3.396953    1.546679   -0.000568
     10          6           0       -3.255268    0.256655   -0.000520
     11          6           0       -4.319365   -0.733098    0.000223
     12          6           0       -4.118048   -2.030062    0.745367
     13          6           0       -4.118548   -2.031094   -0.743205
     14          8           0       -1.951607   -0.101598   -0.000616
     15          6           0        0.907115    0.044361   -0.000912
     16          1           0        3.970461    1.491196    0.002016
     17          1           0        2.574276    3.526905    0.002289
     18          1           0        0.095223    3.328588    0.000615
     19          1           0       -5.299049   -0.277194    0.000264
     20          1           0       -4.968675   -2.438254    1.268141
     21          1           0       -3.177721   -2.169921    1.256711
     22          1           0       -4.969587   -2.439992   -1.264768
     23          1           0       -3.178588   -2.171762   -1.254976
     24          1           0        0.444652   -0.930806   -0.001755
 ---------------------------------------------------------------------
 Rotational constants (GHZ):           0.8099204           0.2169541           0.1734314
 Leave Link  202 at Tue Sep 17 09:52:15 2024, MaxMem=  1342177280 cpu:               0.0 elap:               0.0
 (Enter /groups/ReismanLab/Software/Gaussian16_RevC/Linux_Binary_AVX2-enabled-CPU/g16/l301.exe)
 Standard basis: 6-31G(d,p) (6D, 7F)
 Ernie: Thresh=  0.10000D-02 Tol=  0.10000D-05 Strict=F.
 There are   285 symmetry adapted cartesian basis functions of A   symmetry.
 There are   285 symmetry adapted basis functions of A   symmetry.
   285 basis functions,   538 primitive gaussians,   285 cartesian basis functions
    66 alpha electrons       66 beta electrons
       nuclear repulsion energy      1191.5597066396 Hartrees.
 IExCor=  402 DFT=T Ex+Corr=B3LYP ExCW=0 ScaHFX=  0.200000
 ScaDFX=  0.800000  0.720000  1.000000  0.810000 ScalE2=  1.000000  1.000000
 IRadAn=      5 IRanWt=     -1 IRanGd=            0 ICorTp=0 IEmpDi=141
 NAtoms=   24 NActive=   24 NUniq=   24 SFac= 1.00D+00 NAtFMM=   60 NAOKFM=F Big=F
 Integral buffers will be    131072 words long.
 Raffenetti 2 integral format.
 Two-electron integral symmetry is turned on.
 R6Disp:  Grimme-D3(BJ) Dispersion energy=       -0.0488518708 Hartrees.
 Nuclear repulsion after empirical dispersion term =     1191.5108547688 Hartrees.
 Leave Link  301 at Tue Sep 17 09:52:16 2024, MaxMem=  1342177280 cpu:               0.1 elap:               0.0
 (Enter /groups/ReismanLab/Software/Gaussian16_RevC/Linux_Binary_AVX2-enabled-CPU/g16/l302.exe)
 NPDir=0 NMtPBC=     1 NCelOv=     1 NCel=       1 NClECP=     1 NCelD=      1
         NCelK=      1 NCelE2=     1 NClLst=     1 CellRange=     0.0.
 One-electron integrals computed using PRISM.
 One-electron integral symmetry used in STVInt
 NBasis=   285 RedAO= T EigKep=  4.17D-04  NBF=   285
 NBsUse=   285 1.00D-06 EigRej= -1.00D+00 NBFU=   285
 Precomputing XC quadrature grid using
 IXCGrd= 4 IRadAn=           5 IRanWt=          -1 IRanGd=           0 AccXCQ= 0.00D+00.
 Generated NRdTot=       0 NPtTot=           0 NUsed=           0 NTot=          32
 NSgBfM=   285   285   285   285   285 MxSgAt=    24 MxSgA2=    24.
 Leave Link  302 at Tue Sep 17 09:52:16 2024, MaxMem=  1342177280 cpu:               1.3 elap:               0.2
 (Enter /groups/ReismanLab/Software/Gaussian16_RevC/Linux_Binary_AVX2-enabled-CPU/g16/l303.exe)
 DipDrv:  MaxL=1.
 Leave Link  303 at Tue Sep 17 09:52:16 2024, MaxMem=  1342177280 cpu:               0.1 elap:               0.0
 (Enter /groups/ReismanLab/Software/Gaussian16_RevC/Linux_Binary_AVX2-enabled-CPU/g16/l401.exe)
 ExpMin= 1.43D-01 ExpMax= 5.74D+05 ExpMxC= 5.74D+03 IAcc=3 IRadAn=         5 AccDes= 0.00D+00
 Harris functional with IExCor=  402 and IRadAn=       5 diagonalized for initial guess.
 HarFok:  IExCor=  402 AccDes= 0.00D+00 IRadAn=         5 IDoV= 1 UseB2=F ITyADJ=14
 ICtDFT=  3500011 ScaDFX=  1.000000  1.000000  1.000000  1.000000
 FoFCou: FMM=F IPFlag=           0 FMFlag=      100000 FMFlg1=           0
         NFxFlg=           0 DoJE=T BraDBF=F KetDBF=T FulRan=T
         wScrn=  0.000000 ICntrl=       500 IOpCl=  0 I1Cent=   200000004 NGrid=           0
         NMat0=    1 NMatS0=      1 NMatT0=    0 NMatD0=    1 NMtDS0=    0 NMtDT0=    0
 Petite list used in FoFCou.
 Harris En= -3181.11250107920    
 JPrj=0 DoOrth=F DoCkMO=F.
 Leave Link  401 at Tue Sep 17 09:52:17 2024, MaxMem=  1342177280 cpu:               6.6 elap:               0.9
 (Enter /groups/ReismanLab/Software/Gaussian16_RevC/Linux_Binary_AVX2-enabled-CPU/g16/l502.exe)
 Integral symmetry usage will be decided dynamically.
 Closed shell SCF:
 Using DIIS extrapolation, IDIIS=  1040.
 NGot=  1342177280 LenX=  1342008998 LenY=  1341927332
 Requested convergence on RMS density matrix=1.00D-08 within  32 cycles.
 Requested convergence on MAX density matrix=1.00D-06.
 Requested convergence on             energy=1.00D-06.
 No special actions if energy rises.
 Fock matrices will be formed incrementally for  20 cycles.
 Integral accuracy reduced to 1.0D-05 until final iterations.

 Cycle   1  Pass 0  IDiag  1:
 FoFJK:  IHMeth= 1 ICntrl=       0 DoSepK=F KAlg= 0 I1Cent=           0 FoldK=F
 IRaf= 780000000 NMat=       1 IRICut=       1 DoRegI=T DoRafI=F ISym2E= 0 IDoP0=0 IntGTp=1.
 FoFCou: FMM=F IPFlag=           0 FMFlag=      100000 FMFlg1=           0
         NFxFlg=           0 DoJE=F BraDBF=F KetDBF=F FulRan=T
         wScrn=  0.000000 ICntrl=         0 IOpCl=  0 I1Cent=           0 NGrid=           0
         NMat0=    1 NMatS0=      1 NMatT0=    0 NMatD0=    1 NMtDS0=    0 NMtDT0=    0
 Symmetry not used in FoFCou.
 E= -3180.75393580143    
 DIIS: error= 1.53D-01 at cycle   1 NSaved=   1.
 NSaved= 1 IEnMin= 1 EnMin= -3180.75393580143     IErMin= 1 ErrMin= 1.53D-01
 ErrMax= 1.53D-01  0.00D+00 EMaxC= 1.00D-01 BMatC= 6.25D-01 BMatP= 6.25D-01
 IDIUse=3 WtCom= 0.00D+00 WtEn= 1.00D+00
 Coeff-Com:  0.100D+01
 Coeff-En:   0.100D+01
 Coeff:      0.100D+01
 Gap=     0.217 Goal=   None    Shift=    0.000
 GapD=    0.217 DampG=1.000 DampE=0.250 DampFc=0.2500 IDamp=-1.
 Damping current iteration by 2.50D-01
 RMSDP=4.47D-03 MaxDP=1.41D-01              OVMax= 1.75D-01

 Cycle   2  Pass 0  IDiag  1:
 RMSU=  1.08D-03    CP:  9.91D-01
 E= -3180.85338634706     Delta-E=       -0.099450545629 Rises=F Damp=T
 DIIS: error= 1.13D-01 at cycle   2 NSaved=   2.
 NSaved= 2 IEnMin= 2 EnMin= -3180.85338634706     IErMin= 2 ErrMin= 1.13D-01
 ErrMax= 1.13D-01  0.00D+00 EMaxC= 1.00D-01 BMatC= 2.64D-01 BMatP= 6.25D-01
 IDIUse=3 WtCom= 0.00D+00 WtEn= 1.00D+00
 Coeff-Com: -0.131D+01 0.231D+01
 Coeff-En:   0.000D+00 0.100D+01
 Coeff:      0.000D+00 0.100D+01
 Gap=     0.183 Goal=   None    Shift=    0.000
 RMSDP=2.33D-03 MaxDP=1.11D-01 DE=-9.95D-02 OVMax= 7.85D-02

 Cycle   3  Pass 0  IDiag  1:
 RMSU=  8.63D-04    CP:  9.66D-01  2.86D+00
 E= -3180.97583730604     Delta-E=       -0.122450958985 Rises=F Damp=F
 DIIS: error= 1.43D-02 at cycle   3 NSaved=   3.
 NSaved= 3 IEnMin= 3 EnMin= -3180.97583730604     IErMin= 3 ErrMin= 1.43D-02
 ErrMax= 1.43D-02  0.00D+00 EMaxC= 1.00D-01 BMatC= 5.79D-02 BMatP= 2.64D-01
 IDIUse=3 WtCom= 8.57D-01 WtEn= 1.43D-01
 Coeff-Com:  0.132D+01-0.165D+01 0.133D+01
 Coeff-En:   0.109D+00 0.000D+00 0.891D+00
 Coeff:      0.114D+01-0.141D+01 0.127D+01
 Gap=     0.179 Goal=   None    Shift=    0.000
 RMSDP=1.16D-03 MaxDP=3.46D-02 DE=-1.22D-01 OVMax= 5.09D-02

 Cycle   4  Pass 0  IDiag  1:
 RMSU=  7.01D-04    CP:  9.68D-01  2.02D+00  1.24D+00
 E= -3181.02038090042     Delta-E=       -0.044543594372 Rises=F Damp=F
 DIIS: error= 8.79D-03 at cycle   4 NSaved=   4.
 NSaved= 4 IEnMin= 4 EnMin= -3181.02038090042     IErMin= 4 ErrMin= 8.79D-03
 ErrMax= 8.79D-03  0.00D+00 EMaxC= 1.00D-01 BMatC= 1.48D-02 BMatP= 5.79D-02
 IDIUse=3 WtCom= 9.12D-01 WtEn= 8.79D-02
 Coeff-Com:  0.849D+00-0.111D+01 0.820D+00 0.437D+00
 Coeff-En:   0.000D+00 0.000D+00 0.819D-01 0.918D+00
 Coeff:      0.775D+00-0.101D+01 0.755D+00 0.479D+00
 Gap=     0.181 Goal=   None    Shift=    0.000
 RMSDP=5.56D-04 MaxDP=2.13D-02 DE=-4.45D-02 OVMax= 3.68D-02

 Cycle   5  Pass 0  IDiag  1:
 RMSU=  2.21D-04    CP:  9.68D-01  2.10D+00  1.27D+00  2.86D-01
 E= -3181.03272923771     Delta-E=       -0.012348337292 Rises=F Damp=F
 DIIS: error= 3.14D-03 at cycle   5 NSaved=   5.
 NSaved= 5 IEnMin= 5 EnMin= -3181.03272923771     IErMin= 5 ErrMin= 3.14D-03
 ErrMax= 3.14D-03  0.00D+00 EMaxC= 1.00D-01 BMatC= 1.82D-03 BMatP= 1.48D-02
 IDIUse=3 WtCom= 9.69D-01 WtEn= 3.14D-02
 Coeff-Com:  0.278D+00-0.365D+00 0.285D+00 0.297D+00 0.504D+00
 Coeff-En:   0.000D+00 0.000D+00 0.000D+00 0.112D+00 0.888D+00
 Coeff:      0.270D+00-0.354D+00 0.276D+00 0.291D+00 0.516D+00
 Gap=     0.178 Goal=   None    Shift=    0.000
 RMSDP=1.83D-04 MaxDP=8.59D-03 DE=-1.23D-02 OVMax= 1.66D-02

 Cycle   6  Pass 0  IDiag  1:
 RMSU=  6.46D-05    CP:  9.68D-01  2.11D+00  1.29D+00  4.12D-01  3.45D-01
 E= -3181.03436502690     Delta-E=       -0.001635789189 Rises=F Damp=F
 DIIS: error= 5.35D-04 at cycle   6 NSaved=   6.
 NSaved= 6 IEnMin= 6 EnMin= -3181.03436502690     IErMin= 6 ErrMin= 5.35D-04
 ErrMax= 5.35D-04  0.00D+00 EMaxC= 1.00D-01 BMatC= 7.25D-05 BMatP= 1.82D-03
 IDIUse=3 WtCom= 9.95D-01 WtEn= 5.35D-03
 Coeff-Com:  0.789D-01-0.104D+00 0.833D-01 0.121D+00 0.280D+00 0.541D+00
 Coeff-En:   0.000D+00 0.000D+00 0.000D+00 0.000D+00 0.000D+00 0.100D+01
 Coeff:      0.784D-01-0.103D+00 0.829D-01 0.120D+00 0.279D+00 0.543D+00
 Gap=     0.178 Goal=   None    Shift=    0.000
 RMSDP=4.65D-05 MaxDP=1.82D-03 DE=-1.64D-03 OVMax= 5.03D-03

 Cycle   7  Pass 0  IDiag  1:
 RMSU=  2.02D-05    CP:  9.68D-01  2.11D+00  1.29D+00  4.22D-01  4.58D-01
                    CP:  4.97D-01
 E= -3181.03443130580     Delta-E=       -0.000066278899 Rises=F Damp=F
 DIIS: error= 2.10D-04 at cycle   7 NSaved=   7.
 NSaved= 7 IEnMin= 7 EnMin= -3181.03443130580     IErMin= 7 ErrMin= 2.10D-04
 ErrMax= 2.10D-04  0.00D+00 EMaxC= 1.00D-01 BMatC= 1.07D-05 BMatP= 7.25D-05
 IDIUse=3 WtCom= 9.98D-01 WtEn= 2.10D-03
 Coeff-Com:  0.260D-01-0.343D-01 0.280D-01 0.505D-01 0.132D+00 0.342D+00
 Coeff-Com:  0.456D+00
 Coeff-En:   0.000D+00 0.000D+00 0.000D+00 0.000D+00 0.000D+00 0.943D-01
 Coeff-En:   0.906D+00
 Coeff:      0.259D-01-0.342D-01 0.279D-01 0.504D-01 0.131D+00 0.342D+00
 Coeff:      0.457D+00
 Gap=     0.178 Goal=   None    Shift=    0.000
 RMSDP=1.37D-05 MaxDP=5.56D-04 DE=-6.63D-05 OVMax= 1.11D-03

 Cycle   8  Pass 0  IDiag  1:
 RMSU=  6.22D-06    CP:  9.68D-01  2.11D+00  1.29D+00  4.22D-01  4.59D-01
                    CP:  5.63D-01  4.43D-01
 E= -3181.03444243677     Delta-E=       -0.000011130976 Rises=F Damp=F
 DIIS: error= 4.87D-05 at cycle   8 NSaved=   8.
 NSaved= 8 IEnMin= 8 EnMin= -3181.03444243677     IErMin= 8 ErrMin= 4.87D-05
 ErrMax= 4.87D-05  0.00D+00 EMaxC= 1.00D-01 BMatC= 6.25D-07 BMatP= 1.07D-05
 IDIUse=1 WtCom= 1.00D+00 WtEn= 0.00D+00
 Coeff-Com:  0.514D-02-0.681D-02 0.564D-02 0.139D-01 0.402D-01 0.129D+00
 Coeff-Com:  0.249D+00 0.564D+00
 Coeff:      0.514D-02-0.681D-02 0.564D-02 0.139D-01 0.402D-01 0.129D+00
 Coeff:      0.249D+00 0.564D+00
 Gap=     0.178 Goal=   None    Shift=    0.000
 RMSDP=3.72D-06 MaxDP=1.77D-04 DE=-1.11D-05 OVMax= 2.91D-04

 Initial convergence to 1.0D-05 achieved.  Increase integral accuracy.
 Cycle   9  Pass 1  IDiag  1:
 E= -3181.03445792512     Delta-E=       -0.000015488346 Rises=F Damp=F
 DIIS: error= 5.30D-05 at cycle   1 NSaved=   1.
 NSaved= 1 IEnMin= 1 EnMin= -3181.03445792512     IErMin= 1 ErrMin= 5.30D-05
 ErrMax= 5.30D-05  0.00D+00 EMaxC= 1.00D-01 BMatC= 4.47D-07 BMatP= 4.47D-07
 IDIUse=1 WtCom= 1.00D+00 WtEn= 0.00D+00
 Coeff-Com:  0.100D+01
 Coeff:      0.100D+01
 Gap=     0.178 Goal=   None    Shift=    0.000
 RMSDP=3.72D-06 MaxDP=1.77D-04 DE=-1.55D-05 OVMax= 2.69D-04

 Cycle  10  Pass 1  IDiag  1:
 RMSU=  2.63D-05    CP:  1.00D+00
 E= -3181.03445805629     Delta-E=       -0.000000131168 Rises=F Damp=F
 DIIS: error= 2.30D-05 at cycle   2 NSaved=   2.
 NSaved= 2 IEnMin= 2 EnMin= -3181.03445805629     IErMin= 2 ErrMin= 2.30D-05
 ErrMax= 2.30D-05  0.00D+00 EMaxC= 1.00D-01 BMatC= 2.24D-07 BMatP= 4.47D-07
 IDIUse=1 WtCom= 1.00D+00 WtEn= 0.00D+00
 Coeff-Com:  0.378D+00 0.622D+00
 Coeff:      0.378D+00 0.622D+00
 Gap=     0.178 Goal=   None    Shift=    0.000
 RMSDP=3.08D-06 MaxDP=1.53D-04 DE=-1.31D-07 OVMax= 2.97D-04

 Cycle  11  Pass 1  IDiag  1:
 RMSU=  3.08D-06    CP:  1.00D+00  1.00D+00
 E= -3181.03445813273     Delta-E=       -0.000000076439 Rises=F Damp=F
 DIIS: error= 2.09D-05 at cycle   3 NSaved=   3.
 NSaved= 3 IEnMin= 3 EnMin= -3181.03445813273     IErMin= 3 ErrMin= 2.09D-05
 ErrMax= 2.09D-05  0.00D+00 EMaxC= 1.00D-01 BMatC= 1.44D-07 BMatP= 2.24D-07
 IDIUse=1 WtCom= 1.00D+00 WtEn= 0.00D+00
 Coeff-Com:  0.126D-01 0.442D+00 0.545D+00
 Coeff:      0.126D-01 0.442D+00 0.545D+00
 Gap=     0.178 Goal=   None    Shift=    0.000
 RMSDP=1.52D-06 MaxDP=5.58D-05 DE=-7.64D-08 OVMax= 1.36D-04

 Cycle  12  Pass 1  IDiag  1:
 RMSU=  4.44D-07    CP:  1.00D+00  1.01D+00  5.35D-01
 E= -3181.03445827459     Delta-E=       -0.000000141865 Rises=F Damp=F
 DIIS: error= 4.51D-06 at cycle   4 NSaved=   4.
 NSaved= 4 IEnMin= 4 EnMin= -3181.03445827459     IErMin= 4 ErrMin= 4.51D-06
 ErrMax= 4.51D-06  0.00D+00 EMaxC= 1.00D-01 BMatC= 6.28D-09 BMatP= 1.44D-07
 IDIUse=1 WtCom= 1.00D+00 WtEn= 0.00D+00
 Coeff-Com: -0.240D-02 0.261D+00 0.344D+00 0.397D+00
 Coeff:     -0.240D-02 0.261D+00 0.344D+00 0.397D+00
 Gap=     0.178 Goal=   None    Shift=    0.000
 RMSDP=2.94D-07 MaxDP=1.29D-05 DE=-1.42D-07 OVMax= 2.72D-05

 Cycle  13  Pass 1  IDiag  1:
 RMSU=  1.03D-07    CP:  1.00D+00  1.01D+00  5.60D-01  4.03D-01
 E= -3181.03445828097     Delta-E=       -0.000000006383 Rises=F Damp=F
 DIIS: error= 6.06D-07 at cycle   5 NSaved=   5.
 NSaved= 5 IEnMin= 5 EnMin= -3181.03445828097     IErMin= 5 ErrMin= 6.06D-07
 ErrMax= 6.06D-07  0.00D+00 EMaxC= 1.00D-01 BMatC= 1.26D-10 BMatP= 6.28D-09
 IDIUse=1 WtCom= 1.00D+00 WtEn= 0.00D+00
 Coeff-Com: -0.177D-02 0.137D+00 0.181D+00 0.230D+00 0.454D+00
 Coeff:     -0.177D-02 0.137D+00 0.181D+00 0.230D+00 0.454D+00
 Gap=     0.178 Goal=   None    Shift=    0.000
 RMSDP=5.25D-08 MaxDP=2.13D-06 DE=-6.38D-09 OVMax= 4.96D-06

 Cycle  14  Pass 1  IDiag  1:
 RMSU=  3.03D-08    CP:  1.00D+00  1.01D+00  5.60D-01  4.35D-01  6.08D-01
 E= -3181.03445828112     Delta-E=       -0.000000000151 Rises=F Damp=F
 DIIS: error= 1.39D-07 at cycle   6 NSaved=   6.
 NSaved= 6 IEnMin= 6 EnMin= -3181.03445828112     IErMin= 6 ErrMin= 1.39D-07
 ErrMax= 1.39D-07  0.00D+00 EMaxC= 1.00D-01 BMatC= 5.21D-12 BMatP= 1.26D-10
 IDIUse=1 WtCom= 1.00D+00 WtEn= 0.00D+00
 Coeff-Com: -0.782D-03 0.563D-01 0.747D-01 0.975D-01 0.236D+00 0.536D+00
 Coeff:     -0.782D-03 0.563D-01 0.747D-01 0.975D-01 0.236D+00 0.536D+00
 Gap=     0.178 Goal=   None    Shift=    0.000
 RMSDP=1.09D-08 MaxDP=5.36D-07 DE=-1.51D-10 OVMax= 8.09D-07

 Cycle  15  Pass 1  IDiag  1:
 RMSU=  9.64D-09    CP:  1.00D+00  1.01D+00  5.60D-01  4.33D-01  6.22D-01
                    CP:  8.45D-01
 E= -3181.03445828110     Delta-E=        0.000000000025 Rises=F Damp=F
 DIIS: error= 9.65D-08 at cycle   7 NSaved=   7.
 NSaved= 7 IEnMin= 6 EnMin= -3181.03445828112     IErMin= 7 ErrMin= 9.65D-08
 ErrMax= 9.65D-08  0.00D+00 EMaxC= 1.00D-01 BMatC= 1.32D-12 BMatP= 5.21D-12
 IDIUse=1 WtCom= 1.00D+00 WtEn= 0.00D+00
 Coeff-Com: -0.246D-03 0.164D-01 0.218D-01 0.294D-01 0.840D-01 0.353D+00
 Coeff-Com:  0.496D+00
 Coeff:     -0.246D-03 0.164D-01 0.218D-01 0.294D-01 0.840D-01 0.353D+00
 Coeff:      0.496D+00
 Gap=     0.178 Goal=   None    Shift=    0.000
 RMSDP=4.63D-09 MaxDP=2.10D-07 DE= 2.55D-11 OVMax= 3.41D-07

 SCF Done:  E(RB3LYP) =  -3181.03445828     A.U. after   15 cycles
            NFock= 15  Conv=0.46D-08     -V/T= 2.0066
 KE= 3.160093218655D+03 PE=-9.931673218201D+03 EE= 2.399034686497D+03
 Leave Link  502 at Tue Sep 17 09:52:34 2024, MaxMem=  1342177280 cpu:             122.5 elap:              16.7
 (Enter /groups/ReismanLab/Software/Gaussian16_RevC/Linux_Binary_AVX2-enabled-CPU/g16/l508.exe)
 QCSCF skips out because SCF is already converged.
 Leave Link  508 at Tue Sep 17 09:52:34 2024, MaxMem=  1342177280 cpu:               0.0 elap:               0.0
 (Enter /groups/ReismanLab/Software/Gaussian16_RevC/Linux_Binary_AVX2-enabled-CPU/g16/l601.exe)
 Copying SCF densities to generalized density rwf, IOpCl= 0 IROHF=0.

 **********************************************************************

            Population analysis using the SCF Density.

 **********************************************************************

 Orbital symmetries:
       Occupied  (A) (A) (A) (A) (A) (A) (A) (A) (A) (A) (A) (A)
                 (A) (A) (A) (A) (A) (A) (A) (A) (A) (A) (A) (A)
                 (A) (A) (A) (A) (A) (A) (A) (A) (A) (A) (A) (A)
                 (A) (A) (A) (A) (A) (A) (A) (A) (A) (A) (A) (A)
                 (A) (A) (A) (A) (A) (A) (A) (A) (A) (A) (A) (A)
                 (A) (A) (A) (A) (A) (A)
       Virtual   (A) (A) (A) (A) (A) (A) (A) (A) (A) (A) (A) (A)
                 (A) (A) (A) (A) (A) (A) (A) (A) (A) (A) (A) (A)
                 (A) (A) (A) (A) (A) (A) (A) (A) (A) (A) (A) (A)
                 (A) (A) (A) (A) (A) (A) (A) (A) (A) (A) (A) (A)
                 (A) (A) (A) (A) (A) (A) (A) (A) (A) (A) (A) (A)
                 (A) (A) (A) (A) (A) (A) (A) (A) (A) (A) (A) (A)
                 (A) (A) (A) (A) (A) (A) (A) (A) (A) (A) (A) (A)
                 (A) (A) (A) (A) (A) (A) (A) (A) (A) (A) (A) (A)
                 (A) (A) (A) (A) (A) (A) (A) (A) (A) (A) (A) (A)
                 (A) (A) (A) (A) (A) (A) (A) (A) (A) (A) (A) (A)
                 (A) (A) (A) (A) (A) (A) (A) (A) (A) (A) (A) (A)
                 (A) (A) (A) (A) (A) (A) (A) (A) (A) (A) (A) (A)
                 (A) (A) (A) (A) (A) (A) (A) (A) (A) (A) (A) (A)
                 (A) (A) (A) (A) (A) (A) (A) (A) (A) (A) (A) (A)
                 (A) (A) (A) (A) (A) (A) (A) (A) (A) (A) (A) (A)
                 (A) (A) (A) (A) (A) (A) (A) (A) (A) (A) (A) (A)
                 (A) (A) (A) (A) (A) (A) (A) (A) (A) (A) (A) (A)
                 (A) (A) (A) (A) (A) (A) (A) (A) (A) (A) (A) (A)
                 (A) (A) (A)
 The electronic state is 1-A.
 Alpha  occ. eigenvalues -- -482.91641 -61.87812 -56.39948 -56.39535 -56.39524
 Alpha  occ. eigenvalues --  -19.24834 -14.35553 -14.35158 -10.28683 -10.28564
 Alpha  occ. eigenvalues --  -10.25532 -10.22574 -10.22404 -10.21387 -10.21127
 Alpha  occ. eigenvalues --  -10.20939 -10.20910 -10.20869 -10.20562  -8.58955
 Alpha  occ. eigenvalues --   -6.54352  -6.53076  -6.53048  -2.65925  -2.65560
 Alpha  occ. eigenvalues --   -2.65540  -2.64521  -2.64521  -1.17509  -0.99668
 Alpha  occ. eigenvalues --   -0.90088  -0.88992  -0.84343  -0.80744  -0.77546
 Alpha  occ. eigenvalues --   -0.73576  -0.68188  -0.67468  -0.62739  -0.62289
 Alpha  occ. eigenvalues --   -0.60291  -0.59019  -0.54632  -0.52156  -0.50756
 Alpha  occ. eigenvalues --   -0.50388  -0.48976  -0.47808  -0.45924  -0.43807
 Alpha  occ. eigenvalues --   -0.42754  -0.40753  -0.40493  -0.38556  -0.37921
 Alpha  occ. eigenvalues --   -0.36340  -0.35523  -0.35154  -0.33675  -0.32232
 Alpha  occ. eigenvalues --   -0.31779  -0.29240  -0.29196  -0.26705  -0.25592
 Alpha  occ. eigenvalues --   -0.23393
 Alpha virt. eigenvalues --   -0.05567  -0.02082   0.00251   0.01423   0.05882
 Alpha virt. eigenvalues --    0.08179   0.09268   0.11176   0.13515   0.14838
 Alpha virt. eigenvalues --    0.14923   0.15746   0.15929   0.16049   0.17201
 Alpha virt. eigenvalues --    0.18238   0.19971   0.21445   0.22401   0.23898
 Alpha virt. eigenvalues --    0.25092   0.25865   0.27914   0.29525   0.30390
 Alpha virt. eigenvalues --    0.30905   0.33263   0.33852   0.36092   0.42609
 Alpha virt. eigenvalues --    0.43200   0.44680   0.45720   0.45862   0.47827
 Alpha virt. eigenvalues --    0.47920   0.49667   0.50781   0.51934   0.52707
 Alpha virt. eigenvalues --    0.53197   0.53773   0.53949   0.54591   0.54956
 Alpha virt. eigenvalues --    0.56203   0.56353   0.58426   0.58488   0.59741
 Alpha virt. eigenvalues --    0.61163   0.61417   0.62051   0.62181   0.63169
 Alpha virt. eigenvalues --    0.64514   0.66306   0.67965   0.68959   0.69290
 Alpha virt. eigenvalues --    0.71135   0.73029   0.73968   0.74273   0.76311
 Alpha virt. eigenvalues --    0.76718   0.78980   0.79134   0.80919   0.81309
 Alpha virt. eigenvalues --    0.81880   0.83091   0.84209   0.85917   0.86013
 Alpha virt. eigenvalues --    0.86423   0.88318   0.89075   0.89614   0.90959
 Alpha virt. eigenvalues --    0.96146   0.96616   0.99180   0.99755   1.01439
 Alpha virt. eigenvalues --    1.02224   1.02950   1.05924   1.12291   1.15037
 Alpha virt. eigenvalues --    1.17584   1.19095   1.21104   1.22657   1.24100
 Alpha virt. eigenvalues --    1.24391   1.27723   1.27826   1.32256   1.34921
 Alpha virt. eigenvalues --    1.35373   1.36208   1.38143   1.39468   1.40383
 Alpha virt. eigenvalues --    1.41180   1.42213   1.44023   1.44464   1.48087
 Alpha virt. eigenvalues --    1.52716   1.54033   1.56141   1.58035   1.58858
 Alpha virt. eigenvalues --    1.62405   1.68438   1.73446   1.73601   1.75481
 Alpha virt. eigenvalues --    1.77432   1.77861   1.79812   1.82002   1.83971
 Alpha virt. eigenvalues --    1.86842   1.87695   1.89012   1.91109   1.93512
 Alpha virt. eigenvalues --    1.96247   1.96480   1.96690   1.99544   2.00312
 Alpha virt. eigenvalues --    2.03928   2.06200   2.07706   2.08196   2.09787
 Alpha virt. eigenvalues --    2.10215   2.11990   2.13447   2.15040   2.17073
 Alpha virt. eigenvalues --    2.20977   2.23773   2.24247   2.27011   2.28439
 Alpha virt. eigenvalues --    2.28487   2.30196   2.33560   2.34403   2.35100
 Alpha virt. eigenvalues --    2.36807   2.37445   2.38450   2.40465   2.41817
 Alpha virt. eigenvalues --    2.43024   2.45782   2.48268   2.50949   2.51758
 Alpha virt. eigenvalues --    2.52483   2.52835   2.56653   2.58872   2.60521
 Alpha virt. eigenvalues --    2.61037   2.62730   2.64868   2.66941   2.68986
 Alpha virt. eigenvalues --    2.69899   2.69989   2.72632   2.75709   2.77192
 Alpha virt. eigenvalues --    2.80699   2.82127   2.82749   2.84471   2.89971
 Alpha virt. eigenvalues --    2.91240   2.95418   2.96619   3.04481   3.06254
 Alpha virt. eigenvalues --    3.10813   3.19828   3.22578   3.24658   3.27716
 Alpha virt. eigenvalues --    3.32845   3.38183   3.40242   3.40854   3.46581
 Alpha virt. eigenvalues --    3.52677   3.58524   3.82760   3.85639   4.09249
 Alpha virt. eigenvalues --    4.10374   4.13382   4.13803   4.21075   4.34429
 Alpha virt. eigenvalues --    4.38040   4.40863   4.50552   4.54046   4.55968
 Alpha virt. eigenvalues --    4.65590   4.82593   8.60225  72.82307
          Condensed to atoms (all electrons):
               1          2          3          4          5          6
     1  Br  34.979802   0.258443  -0.060285   0.005541   0.000478   0.005440
     2  C    0.258443   4.825431   0.529125  -0.018893  -0.037017  -0.006552
     3  C   -0.060285   0.529125   4.878216   0.510715  -0.042625  -0.036772
     4  C    0.005541  -0.018893   0.510715   4.854468   0.504307  -0.010495
     5  C    0.000478  -0.037017  -0.042625   0.504307   4.921905   0.527468
     6  C    0.005440  -0.006552  -0.036772  -0.010495   0.527468   4.853674
     7  C   -0.000207   0.004671   0.001265   0.006582  -0.039485   0.322599
     8  N    0.000000  -0.000168   0.000007   0.000500  -0.010451  -0.069136
     9  N   -0.000000   0.000003   0.000000  -0.000002  -0.000110   0.011144
    10  C   -0.000000   0.000003   0.000000   0.000004   0.000242   0.001033
    11  C   -0.000000  -0.000000   0.000000  -0.000000  -0.000001  -0.000599
    12  C    0.000000  -0.000000   0.000000  -0.000000   0.000000   0.000012
    13  C    0.000000  -0.000000   0.000000  -0.000000   0.000000   0.000012
    14  O   -0.000001   0.000276   0.000003  -0.000070   0.004157  -0.038018
    15  C   -0.058642   0.481300  -0.045462  -0.047495  -0.085125   0.456621
    16  H   -0.003442  -0.042892   0.373599  -0.039892   0.005005   0.000168
    17  H   -0.000154   0.004117  -0.038768   0.368370  -0.033514   0.003035
    18  H    0.000008   0.000402   0.004489  -0.040310   0.370548  -0.034451
    19  H    0.000000  -0.000000   0.000000   0.000000  -0.000000   0.000003
    20  H    0.000000   0.000000  -0.000000  -0.000000  -0.000000  -0.000000
    21  H   -0.000000   0.000000   0.000000   0.000000  -0.000000  -0.000009
    22  H    0.000000   0.000000  -0.000000  -0.000000  -0.000000  -0.000000
    23  H   -0.000000   0.000000   0.000000   0.000000  -0.000000  -0.000009
    24  H   -0.002898  -0.042231   0.005429  -0.000061   0.005455  -0.040750
               7          8          9         10         11         12
     1  Br  -0.000207   0.000000  -0.000000  -0.000000  -0.000000   0.000000
     2  C    0.004671  -0.000168   0.000003   0.000003  -0.000000  -0.000000
     3  C    0.001265   0.000007   0.000000   0.000000   0.000000   0.000000
     4  C    0.006582   0.000500  -0.000002   0.000004  -0.000000  -0.000000
     5  C   -0.039485  -0.010451  -0.000110   0.000242  -0.000001   0.000000
     6  C    0.322599  -0.069136   0.011144   0.001033  -0.000599   0.000012
     7  C    4.732093   0.409492  -0.086762  -0.059206   0.000251   0.000341
     8  N    0.409492   6.920758   0.258431  -0.089509   0.009344  -0.000163
     9  N   -0.086762   0.258431   6.886774   0.424031  -0.065925   0.001813
    10  C   -0.059206  -0.089509   0.424031   4.506652   0.426074  -0.023310
    11  C    0.000251   0.009344  -0.065925   0.426074   5.032591   0.257044
    12  C    0.000341  -0.000163   0.001813  -0.023310   0.257044   5.020200
    13  C    0.000340  -0.000163   0.001824  -0.023246   0.256983   0.247749
    14  O    0.286547  -0.103918  -0.091853   0.310645  -0.057340  -0.001643
    15  C   -0.036123   0.006455   0.000022   0.000222   0.000005  -0.000005
    16  H    0.000001   0.000000   0.000000  -0.000000  -0.000000   0.000000
    17  H   -0.000271  -0.000002   0.000000  -0.000000   0.000000  -0.000000
    18  H   -0.014195   0.014547  -0.000191   0.000064  -0.000001   0.000000
    19  H    0.000161   0.000012  -0.001837  -0.018243   0.383268  -0.026588
    20  H   -0.000006   0.000002  -0.000027   0.001389  -0.017882   0.389462
    21  H   -0.000028   0.000009   0.000137  -0.006057  -0.026658   0.397959
    22  H   -0.000006   0.000002  -0.000027   0.001386  -0.017873  -0.021310
    23  H   -0.000029   0.000009   0.000137  -0.006057  -0.026650  -0.023216
    24  H   -0.011872   0.000252   0.000046   0.000041  -0.000018   0.000005
              13         14         15         16         17         18
     1  Br   0.000000  -0.000001  -0.058642  -0.003442  -0.000154   0.000008
     2  C   -0.000000   0.000276   0.481300  -0.042892   0.004117   0.000402
     3  C    0.000000   0.000003  -0.045462   0.373599  -0.038768   0.004489
     4  C   -0.000000  -0.000070  -0.047495  -0.039892   0.368370  -0.040310
     5  C    0.000000   0.004157  -0.085125   0.005005  -0.033514   0.370548
     6  C    0.000012  -0.038018   0.456621   0.000168   0.003035  -0.034451
     7  C    0.000340   0.286547  -0.036123   0.000001  -0.000271  -0.014195
     8  N   -0.000163  -0.103918   0.006455   0.000000  -0.000002   0.014547
     9  N    0.001824  -0.091853   0.000022   0.000000   0.000000  -0.000191
    10  C   -0.023246   0.310645   0.000222  -0.000000  -0.000000   0.000064
    11  C    0.256983  -0.057340   0.000005  -0.000000   0.000000  -0.000001
    12  C    0.247749  -0.001643  -0.000005   0.000000  -0.000000   0.000000
    13  C    5.020195  -0.001638  -0.000005   0.000000  -0.000000   0.000000
    14  O   -0.001638   8.162927  -0.006870   0.000000   0.000000   0.000185
    15  C   -0.000005  -0.006870   5.062224   0.005851   0.001280   0.005726
    16  H    0.000000   0.000000   0.005851   0.596216  -0.006162  -0.000146
    17  H   -0.000000   0.000000   0.001280  -0.006162   0.603000  -0.005019
    18  H    0.000000   0.000185   0.005726  -0.000146  -0.005019   0.568319
    19  H   -0.026600   0.002960  -0.000000  -0.000000  -0.000000  -0.000000
    20  H   -0.021307   0.000074   0.000000  -0.000000   0.000000  -0.000000
    21  H   -0.023216   0.004251   0.000000  -0.000000  -0.000000  -0.000000
    22  H    0.389454   0.000074   0.000000  -0.000000   0.000000  -0.000000
    23  H    0.397953   0.004246   0.000000  -0.000000  -0.000000  -0.000000
    24  H    0.000005   0.007732   0.371613  -0.000149   0.000018  -0.000149
              19         20         21         22         23         24
     1  Br   0.000000   0.000000  -0.000000   0.000000  -0.000000  -0.002898
     2  C   -0.000000   0.000000   0.000000   0.000000   0.000000  -0.042231
     3  C    0.000000  -0.000000   0.000000  -0.000000   0.000000   0.005429
     4  C    0.000000  -0.000000   0.000000  -0.000000   0.000000  -0.000061
     5  C   -0.000000  -0.000000  -0.000000  -0.000000  -0.000000   0.005455
     6  C    0.000003  -0.000000  -0.000009  -0.000000  -0.000009  -0.040750
     7  C    0.000161  -0.000006  -0.000028  -0.000006  -0.000029  -0.011872
     8  N    0.000012   0.000002   0.000009   0.000002   0.000009   0.000252
     9  N   -0.001837  -0.000027   0.000137  -0.000027   0.000137   0.000046
    10  C   -0.018243   0.001389  -0.006057   0.001386  -0.006057   0.000041
    11  C    0.383268  -0.017882  -0.026658  -0.017873  -0.026650  -0.000018
    12  C   -0.026588   0.389462   0.397959  -0.021310  -0.023216   0.000005
    13  C   -0.026600  -0.021307  -0.023216   0.389454   0.397953   0.000005
    14  O    0.002960   0.000074   0.004251   0.000074   0.004246   0.007732
    15  C   -0.000000   0.000000   0.000000   0.000000   0.000000   0.371613
    16  H   -0.000000  -0.000000  -0.000000  -0.000000  -0.000000  -0.000149
    17  H   -0.000000   0.000000  -0.000000   0.000000  -0.000000   0.000018
    18  H   -0.000000  -0.000000  -0.000000  -0.000000  -0.000000  -0.000149
    19  H    0.557894  -0.004664   0.002116  -0.004663   0.002115  -0.000000
    20  H   -0.004664   0.558204  -0.028537  -0.006399   0.002277  -0.000000
    21  H    0.002116  -0.028537   0.552492   0.002278  -0.006262   0.000059
    22  H   -0.004663  -0.006399   0.002278   0.558212  -0.028537  -0.000000
    23  H    0.002115   0.002277  -0.006262  -0.028537   0.552503   0.000059
    24  H   -0.000000  -0.000000   0.000059  -0.000000   0.000059   0.587507
 Mulliken charges:
               1
     1  Br  -0.124083
     2  C    0.043983
     3  C   -0.078937
     4  C   -0.093266
     5  C   -0.091236
     6  C    0.055585
     7  C    0.483847
     8  N   -0.346311
     9  N   -0.337627
    10  C    0.553842
    11  C   -0.152611
    12  C   -0.218348
    13  C   -0.218338
    14  O   -0.482726
    15  C   -0.111591
    16  H    0.111843
    17  H    0.104071
    18  H    0.130175
    19  H    0.134067
    20  H    0.127413
    21  H    0.131468
    22  H    0.127411
    23  H    0.131458
    24  H    0.119908
 Sum of Mulliken charges =  -0.00000
 Mulliken charges with hydrogens summed into heavy atoms:
               1
     1  Br  -0.124083
     2  C    0.043983
     3  C    0.032906
     4  C    0.010805
     5  C    0.038939
     6  C    0.055585
     7  C    0.483847
     8  N   -0.346311
     9  N   -0.337627
    10  C    0.553842
    11  C   -0.018544
    12  C    0.040534
    13  C    0.040531
    14  O   -0.482726
    15  C    0.008318
 Electronic spatial extent (au):  <R**2>=           5564.6547
 Charge=              0.0000 electrons
 Dipole moment (field-independent basis, Debye):
    X=              0.0125    Y=             -2.0974    Z=              0.0023  Tot=              2.0974
 Quadrupole moment (field-independent basis, Debye-Ang):
   XX=            -91.4348   YY=            -97.7697   ZZ=            -98.6505
   XY=             19.3843   XZ=             -0.0004   YZ=              0.0082
 Traceless Quadrupole moment (field-independent basis, Debye-Ang):
   XX=              4.5169   YY=             -1.8181   ZZ=             -2.6988
   XY=             19.3843   XZ=             -0.0004   YZ=              0.0082
 Octapole moment (field-independent basis, Debye-Ang**2):
  XXX=             56.7502  YYY=            -48.1645  ZZZ=             -0.0061  XYY=             61.9461
  XXY=            -59.5810  XXZ=              0.0444  XZZ=             23.0236  YZZ=            -20.7546
  YYZ=              0.0180  XYZ=              0.0105
 Hexadecapole moment (field-independent basis, Debye-Ang**3):
 XXXX=          -4682.4856 YYYY=          -1498.8928 ZZZZ=           -160.0982 XXXY=            141.7275
 XXXZ=             -0.0611 YYYX=            -60.9476 YYYZ=              0.1207 ZZZX=             -0.0485
 ZZZY=             -0.0144 XXYY=          -1085.2268 XXZZ=           -875.8512 YYZZ=           -284.1931
 XXYZ=              0.0567 YYXZ=              0.0253 ZZXY=            -42.8853
 N-N= 1.191510854769D+03 E-N=-9.931673227341D+03  KE= 3.160093218655D+03
 No NMR shielding tensors so no spin-rotation constants.
 Leave Link  601 at Tue Sep 17 09:52:34 2024, MaxMem=  1342177280 cpu:               0.7 elap:               0.1
 (Enter /groups/ReismanLab/Software/Gaussian16_RevC/Linux_Binary_AVX2-enabled-CPU/g16/l701.exe)
 ... and contract with generalized density number  0.
 Compute integral first derivatives.
 R6Disp: Adding Grimme-D3(BJ) dispersion energy 1st derivatives to the gradient.
 Leave Link  701 at Tue Sep 17 09:52:34 2024, MaxMem=  1342177280 cpu:               0.6 elap:               0.1
 (Enter /groups/ReismanLab/Software/Gaussian16_RevC/Linux_Binary_AVX2-enabled-CPU/g16/l702.exe)
 L702 exits ... SP integral derivatives will be done elsewhere.
 Leave Link  702 at Tue Sep 17 09:52:34 2024, MaxMem=  1342177280 cpu:               0.0 elap:               0.0
 (Enter /groups/ReismanLab/Software/Gaussian16_RevC/Linux_Binary_AVX2-enabled-CPU/g16/l703.exe)
 Integral derivatives from FoFJK, PRISM(SPDF).
 Compute integral first derivatives, UseDBF=F ICtDFT=           0.
 Calling FoFJK, ICntrl=      2127 FMM=F ISym2X=0 I1Cent= 0 IOpClX= 0 NMat=1 NMatS=1 NMatT=0.
 FoFJK:  IHMeth= 1 ICntrl=    2127 DoSepK=F KAlg= 0 I1Cent=           0 FoldK=F
 IRaf=         0 NMat=       1 IRICut=       1 DoRegI=T DoRafI=F ISym2E= 0 IDoP0=0 IntGTp=1.
 FoFCou: FMM=F IPFlag=           0 FMFlag=      100000 FMFlg1=         800
         NFxFlg=           0 DoJE=F BraDBF=F KetDBF=F FulRan=T
         wScrn=  0.000000 ICntrl=      2127 IOpCl=  0 I1Cent=           0 NGrid=           0
         NMat0=    1 NMatS0=      1 NMatT0=    0 NMatD0=    1 NMtDS0=    0 NMtDT0=    0
 Symmetry not used in FoFCou.
 Leave Link  703 at Tue Sep 17 09:52:38 2024, MaxMem=  1342177280 cpu:              35.0 elap:               4.4
 (Enter /groups/ReismanLab/Software/Gaussian16_RevC/Linux_Binary_AVX2-enabled-CPU/g16/l716.exe)
 Dipole        = 4.90393675D-03-8.25175656D-01 9.02514316D-04
 ***** Axes restored to original set *****
 -------------------------------------------------------------------
 Center     Atomic                   Forces (Hartrees/Bohr)
 Number     Number              X              Y              Z
 -------------------------------------------------------------------
      1       35           0.001431069   -0.001870464   -0.000002148
      2        6           0.003558663   -0.005011002    0.000010264
      3        6           0.007213898   -0.001236813   -0.000010102
      4        6           0.000755811    0.003988507    0.000002691
      5        6          -0.003872180    0.003957681    0.000006120
      6        6          -0.001376563   -0.005176322   -0.000000457
      7        6           0.007224523    0.010360906    0.000001107
      8        7           0.025471003    0.017746502   -0.000001010
      9        7          -0.032098509   -0.004215700   -0.000026481
     10        6          -0.014298021    0.001355994    0.000027645
     11        6           0.003345325    0.000467446    0.000002422
     12        6          -0.000542480   -0.003919612    0.004103446
     13        6          -0.000549804   -0.003924520   -0.004089576
     14        8           0.005545900   -0.011365550   -0.000013893
     15        6          -0.001849419   -0.004761042   -0.000003272
     16        1           0.003255933   -0.000140309    0.000004325
     17        1           0.001661942    0.003977605   -0.000000841
     18        1          -0.001936082    0.003749640   -0.000001622
     19        1          -0.001774453    0.000514744   -0.000002127
     20        1          -0.004024445   -0.001272107    0.001646941
     21        1           0.003777122    0.000227728    0.001375323
     22        1          -0.004017953   -0.001274491   -0.001645694
     23        1           0.003783236    0.000225553   -0.001384367
     24        1          -0.000684519   -0.002404372    0.000001304
 -------------------------------------------------------------------
 Cartesian Forces:  Max     0.032098509 RMS     0.006393197
 Leave Link  716 at Tue Sep 17 09:52:38 2024, MaxMem=  1342177280 cpu:               0.0 elap:               0.0
 (Enter /groups/ReismanLab/Software/Gaussian16_RevC/Linux_Binary_AVX2-enabled-CPU/g16/l103.exe)

 GradGradGradGradGradGradGradGradGradGradGradGradGradGradGradGradGradGrad
 Berny optimization.
 FormGI is forming the generalized inverse of G from B-inverse, IUseBI=4.
 Internal  Forces:  Max     0.036270538 RMS     0.004811377
 Search for a local minimum.
 Step number   1 out of a maximum of  133
 All quantities printed in internal units (Hartrees-Bohrs-Radians)
 RMS Force = .48114D-02 SwitMx=.10000D-02 MixMth= 1
 Mixed Optimization -- RFO/linear search
 Second derivative matrix not updated -- first step.
 ITU=  0
     Eigenvalues ---    0.01384   0.01499   0.01864   0.01971   0.02032
     Eigenvalues ---    0.02062   0.02183   0.02241   0.02257   0.02276
     Eigenvalues ---    0.02287   0.02294   0.02308   0.02311   0.02519
     Eigenvalues ---    0.02710   0.02734   0.03191   0.03192   0.03601
     Eigenvalues ---    0.03948   0.10465   0.10472   0.11117   0.16000
     Eigenvalues ---    0.16000   0.16000   0.16000   0.16000   0.16627
     Eigenvalues ---    0.17242   0.17991   0.22000   0.23485   0.23503
     Eigenvalues ---    0.25000   0.25000   0.25000   0.25000   0.25000
     Eigenvalues ---    0.25000   0.27033   0.27673   0.32268   0.35926
     Eigenvalues ---    0.36059   0.36060   0.36083   0.36108   0.36110
     Eigenvalues ---    0.36158   0.36158   0.36268   0.37823   0.38965
     Eigenvalues ---    0.42943   0.43593   0.47068   0.47440   0.48267
     Eigenvalues ---    0.48841   0.49732   0.50763   0.55843   0.62150
     Eigenvalues ---    0.67351
 RFO step:  Lambda=-6.01616313D-03 EMin= 1.38446213D-02
 Linear search not attempted -- first point.
 Iteration  1 RMS(Cart)=  0.03990338 RMS(Int)=  0.00030712
 Iteration  2 RMS(Cart)=  0.00114581 RMS(Int)=  0.00001188
 Iteration  3 RMS(Cart)=  0.00000039 RMS(Int)=  0.00001188
 ITry= 1 IFail=0 DXMaxC= 1.18D-01 DCOld= 1.00D+10 DXMaxT= 3.00D-01 DXLimC= 3.00D+00 Rises=F
 Variable       Old X    -DE/DX   Delta X   Delta X   Delta X     New X
                                 (Linear)    (Quad)   (Total)
    R1        3.60063   0.00235   0.00000   0.01264   0.01264   3.61327
    R2        2.61753   0.00765   0.00000   0.01570   0.01570   2.63323
    R3        2.61095   0.00871   0.00000   0.01754   0.01754   2.62849
    R4        2.61997   0.01042   0.00000   0.02157   0.02157   2.64155
    R5        2.03910   0.00324   0.00000   0.00883   0.00883   2.04793
    R6        2.61014   0.00910   0.00000   0.01847   0.01847   2.62861
    R7        2.03914   0.00430   0.00000   0.01172   0.01172   2.05086
    R8        2.63644   0.00831   0.00000   0.01764   0.01765   2.65409
    R9        2.03665   0.00418   0.00000   0.01133   0.01133   2.04798
   R10        2.72984   0.00786   0.00000   0.01985   0.01985   2.74969
   R11        2.63247   0.00959   0.00000   0.02013   0.02013   2.65259
   R12        2.45345   0.00846   0.00000   0.01274   0.01273   2.46618
   R13        2.56564   0.01188   0.00000   0.02036   0.02035   2.58599
   R14        2.53556   0.03627   0.00000   0.06502   0.06502   2.60059
   R15        2.45245   0.00916   0.00000   0.01397   0.01398   2.46643
   R16        2.74623   0.00604   0.00000   0.01573   0.01573   2.76196
   R17        2.55489   0.01276   0.00000   0.02171   0.02171   2.57661
   R18        2.85210   0.00567   0.00000   0.01668   0.01671   2.86881
   R19        2.85205   0.00567   0.00000   0.01667   0.01670   2.86875
   R20        2.04198   0.00182   0.00000   0.00499   0.00499   2.04697
   R21        2.81299   0.00410   0.00000   0.01393   0.01388   2.82687
   R22        2.03835   0.00446   0.00000   0.01213   0.01213   2.05048
   R23        2.03990   0.00391   0.00000   0.01065   0.01065   2.05055
   R24        2.03836   0.00445   0.00000   0.01211   0.01211   2.05047
   R25        2.03987   0.00392   0.00000   0.01068   0.01068   2.05055
   R26        2.03953   0.00246   0.00000   0.00671   0.00671   2.04624
    A1        2.08344  -0.00020   0.00000  -0.00069  -0.00069   2.08274
    A2        2.07812   0.00031   0.00000   0.00133   0.00133   2.07944
    A3        2.12163  -0.00011   0.00000  -0.00063  -0.00063   2.12100
    A4        2.07803  -0.00081   0.00000  -0.00339  -0.00339   2.07464
    A5        2.09699   0.00006   0.00000  -0.00037  -0.00037   2.09663
    A6        2.10817   0.00075   0.00000   0.00376   0.00376   2.11192
    A7        2.10412   0.00092   0.00000   0.00443   0.00443   2.10855
    A8        2.08389  -0.00018   0.00000  -0.00051  -0.00051   2.08338
    A9        2.09517  -0.00074   0.00000  -0.00392  -0.00392   2.09125
   A10        2.09032  -0.00044   0.00000  -0.00188  -0.00188   2.08844
   A11        2.12309  -0.00038   0.00000  -0.00267  -0.00267   2.12042
   A12        2.06977   0.00082   0.00000   0.00455   0.00455   2.07432
   A13        2.08477  -0.00038   0.00000  -0.00134  -0.00134   2.08343
   A14        2.09819  -0.00064   0.00000  -0.00282  -0.00282   2.09537
   A15        2.10022   0.00103   0.00000   0.00416   0.00416   2.10438
   A16        2.21585   0.00774   0.00000   0.03143   0.03144   2.24729
   A17        2.12452  -0.00558   0.00000  -0.02060  -0.02059   2.10393
   A18        1.94282  -0.00216   0.00000  -0.01084  -0.01085   1.93196
   A19        1.87378  -0.00124   0.00000   0.00150   0.00150   1.87528
   A20        1.87109  -0.00280   0.00000  -0.00378  -0.00376   1.86733
   A21        2.21062   0.00705   0.00000   0.02830   0.02829   2.23891
   A22        1.94837  -0.00181   0.00000  -0.00860  -0.00859   1.93979
   A23        2.12419  -0.00524   0.00000  -0.01970  -0.01970   2.10449
   A24        2.08042   0.00202   0.00000   0.01097   0.01094   2.09135
   A25        2.08066   0.00201   0.00000   0.01082   0.01078   2.09145
   A26        1.95682  -0.00104   0.00000  -0.00601  -0.00598   1.95084
   A27        2.07542  -0.00097   0.00000  -0.00562  -0.00562   2.06980
   A28        2.07546  -0.00096   0.00000  -0.00562  -0.00563   2.06983
   A29        2.04799   0.00003   0.00000  -0.00252  -0.00253   2.04547
   A30        2.05037  -0.00089   0.00000  -0.00641  -0.00642   2.04395
   A31        2.07616  -0.00091   0.00000  -0.00223  -0.00224   2.07392
   A32        2.06451   0.00035   0.00000   0.00090   0.00090   2.06541
   A33        1.99144   0.00073   0.00000   0.00580   0.00579   1.99722
   A34        2.04792   0.00003   0.00000  -0.00250  -0.00251   2.04541
   A35        2.05045  -0.00088   0.00000  -0.00644  -0.00645   2.04400
   A36        2.07608  -0.00092   0.00000  -0.00221  -0.00222   2.07387
   A37        2.06451   0.00036   0.00000   0.00093   0.00093   2.06544
   A38        1.99148   0.00073   0.00000   0.00577   0.00576   1.99723
   A39        1.78872   0.00801   0.00000   0.02172   0.02170   1.81042
   A40        2.07408   0.00108   0.00000   0.00429   0.00429   2.07837
   A41        2.10739  -0.00098   0.00000  -0.00481  -0.00481   2.10258
   A42        2.10172  -0.00010   0.00000   0.00052   0.00052   2.10224
    D1        3.14156  -0.00000   0.00000  -0.00002  -0.00002   3.14154
    D2        0.00008  -0.00000   0.00000  -0.00011  -0.00011  -0.00004
    D3       -0.00021   0.00001   0.00000   0.00019   0.00019  -0.00002
    D4        3.14149   0.00000   0.00000   0.00009   0.00009   3.14158
    D5        3.14147   0.00000   0.00000   0.00014   0.00014  -3.14158
    D6       -0.00004   0.00000   0.00000   0.00003   0.00003  -0.00001
    D7        0.00005  -0.00000   0.00000  -0.00007  -0.00007  -0.00001
    D8       -3.14146  -0.00000   0.00000  -0.00017  -0.00017   3.14156
    D9        0.00015  -0.00000   0.00000  -0.00012  -0.00012   0.00004
   D10       -3.14158  -0.00000   0.00000  -0.00000  -0.00000  -3.14159
   D11       -3.14155  -0.00000   0.00000  -0.00002  -0.00002  -3.14157
   D12       -0.00010   0.00000   0.00000   0.00010   0.00010  -0.00000
   D13        0.00006  -0.00000   0.00000  -0.00007  -0.00007  -0.00002
   D14        3.14140   0.00001   0.00000   0.00018   0.00018   3.14157
   D15       -3.14139  -0.00001   0.00000  -0.00018  -0.00018  -3.14158
   D16       -0.00005   0.00000   0.00000   0.00006   0.00006   0.00001
   D17        3.14104   0.00001   0.00000   0.00044   0.00044   3.14149
   D18       -0.00021   0.00001   0.00000   0.00019   0.00019  -0.00002
   D19       -0.00031   0.00001   0.00000   0.00021   0.00020  -0.00010
   D20       -3.14156  -0.00000   0.00000  -0.00005  -0.00005   3.14158
   D21        0.00057  -0.00000   0.00000  -0.00008  -0.00008   0.00050
   D22       -3.14050  -0.00001   0.00000  -0.00049  -0.00049  -3.14099
   D23       -3.14136   0.00001   0.00000   0.00017   0.00017  -3.14118
   D24        0.00076  -0.00001   0.00000  -0.00024  -0.00024   0.00051
   D25        0.00016  -0.00000   0.00000  -0.00012  -0.00013   0.00003
   D26       -3.14151  -0.00000   0.00000  -0.00002  -0.00002  -3.14154
   D27       -3.14110  -0.00001   0.00000  -0.00038  -0.00038  -3.14147
   D28        0.00042  -0.00001   0.00000  -0.00027  -0.00027   0.00014
   D29       -3.14105  -0.00001   0.00000  -0.00048  -0.00048  -3.14153
   D30        0.00007  -0.00000   0.00000  -0.00010  -0.00010  -0.00003
   D31        3.14119   0.00001   0.00000   0.00027   0.00027   3.14145
   D32        0.00004  -0.00000   0.00000  -0.00010  -0.00009  -0.00005
   D33       -0.00016   0.00001   0.00000   0.00027   0.00027   0.00011
   D34        3.14126  -0.00000   0.00000   0.00010   0.00011   3.14137
   D35        0.00019  -0.00001   0.00000  -0.00034  -0.00034  -0.00015
   D36       -2.54047   0.00040   0.00000   0.00326   0.00330  -2.53716
   D37        2.54192  -0.00041   0.00000  -0.00385  -0.00389   2.53803
   D38        0.00050  -0.00000   0.00000  -0.00017  -0.00017   0.00033
   D39        0.60056   0.00041   0.00000   0.00375   0.00379   0.60435
   D40       -0.60024  -0.00040   0.00000  -0.00336  -0.00340  -0.60364
   D41        3.14153   0.00001   0.00000   0.00032   0.00032  -3.14134
   D42       -0.00014   0.00001   0.00000   0.00027   0.00027   0.00013
   D43       -3.14125  -0.00001   0.00000  -0.00016  -0.00015  -3.14140
   D44        2.47904  -0.00033   0.00000  -0.00657  -0.00659   2.47246
   D45        0.00223  -0.00043   0.00000  -0.00404  -0.00406  -0.00183
   D46       -0.02139   0.00002   0.00000  -0.00332  -0.00331  -0.02470
   D47       -2.49821  -0.00007   0.00000  -0.00079  -0.00078  -2.49899
   D48       -2.47950   0.00034   0.00000   0.00685   0.00687  -2.47264
   D49       -0.00261   0.00043   0.00000   0.00424   0.00426   0.00165
   D50        0.02141  -0.00002   0.00000   0.00334   0.00332   0.02473
   D51        2.49830   0.00007   0.00000   0.00073   0.00072   2.49902
   D52        0.00005  -0.00000   0.00000  -0.00001  -0.00001   0.00004
   D53       -2.54576  -0.00056   0.00000  -0.00994  -0.00994  -2.55569
   D54        2.54591   0.00056   0.00000   0.00988   0.00988   2.55579
   D55        0.00011  -0.00000   0.00000  -0.00005  -0.00005   0.00006
         Item               Value     Threshold  Converged?
 Maximum Force            0.036271     0.000450     NO 
 RMS     Force            0.004811     0.000300     NO 
 Maximum Displacement     0.118455     0.001800     NO 
 RMS     Displacement     0.040537     0.001200     NO 
 Predicted change in Energy=-3.051441D-03
 Lowest energy point so far.  Saving SCF results.
 GradGradGradGradGradGradGradGradGradGradGradGradGradGradGradGradGradGrad

 Leave Link  103 at Tue Sep 17 09:52:38 2024, MaxMem=  1342177280 cpu:               0.1 elap:               0.0
 (Enter /groups/ReismanLab/Software/Gaussian16_RevC/Linux_Binary_AVX2-enabled-CPU/g16/l202.exe)
                          Input orientation:                          
 ---------------------------------------------------------------------
 Center     Atomic      Atomic             Coordinates (Angstroms)
 Number     Number       Type             X           Y           Z
 ---------------------------------------------------------------------
      1         35           0        3.127547   -1.430117    0.000560
      2          6           0        2.092813    0.177773    0.000310
      3          6           0        2.744951    1.409197    0.000605
      4          6           0        1.978984    2.578501    0.000360
      5          6           0        0.589219    2.519861   -0.000127
      6          6           0       -0.053704    1.271172   -0.000395
      7          6           0       -1.507774    1.217119   -0.000771
      8          7           0       -2.362055    2.203705   -0.001413
      9          7           0       -3.624626    1.656197   -0.001452
     10          6           0       -3.477930    0.359288   -0.000693
     11          6           0       -4.516206   -0.669378   -0.000151
     12          6           0       -4.289917   -1.970190    0.749070
     13          6           0       -4.289512   -1.971535   -0.746844
     14          8           0       -2.159007    0.013567   -0.000332
     15          6           0        0.704650    0.089965   -0.000194
     16          1           0        3.827851    1.451233    0.001010
     17          1           0        2.478489    3.541982    0.000582
     18          1           0       -0.015351    3.419306   -0.000304
     19          1           0       -5.509641   -0.237598   -0.000788
     20          1           0       -5.140016   -2.395416    1.272406
     21          1           0       -3.342043   -2.085497    1.264523
     22          1           0       -5.139368   -2.397685   -1.269822
     23          1           0       -3.341381   -2.087824   -1.261604
     24          1           0        0.215598   -0.876126   -0.000451
 ---------------------------------------------------------------------
                    Distance matrix (angstroms):
                    1          2          3          4          5
     1  Br   0.000000
     2  C    1.912062   0.000000
     3  C    2.864975   1.393446   0.000000
     4  C    4.169917   2.403425   1.397847   0.000000
     5  C    4.695256   2.783195   2.425027   1.391002   0.000000
     6  C    4.173406   2.408953   2.802056   2.416802   1.404483
     7  C    5.337983   3.747595   4.257060   3.743106   2.468707
     8  N    6.583342   4.893899   5.168438   4.357189   2.968160
     9  N    7.424094   5.905493   6.374364   5.679004   4.301442
    10  C    6.843559   5.573700   6.310829   5.890910   4.605407
[...]
 Alpha virt. eigenvalues --   -0.03325  -0.00065   0.02958   0.04425   0.07153
 Alpha virt. eigenvalues --    0.08386   0.08730   0.09709   0.10718   0.10880
 Alpha virt. eigenvalues --    0.12071   0.13073   0.13557   0.14747   0.16228
 Alpha virt. eigenvalues --    0.16483   0.16977   0.17198   0.17947   0.18310
 Alpha virt. eigenvalues --    0.19182   0.20008   0.21685   0.21731   0.22635
 Alpha virt. eigenvalues --    0.22899   0.23080   0.24320   0.24568   0.24908
 Alpha virt. eigenvalues --    0.25182   0.26466   0.26610   0.27339   0.27794
 Alpha virt. eigenvalues --    0.28789   0.29352   0.29974   0.30520   0.30788
 Alpha virt. eigenvalues --    0.31138   0.32534   0.32736   0.33400   0.33993
 Alpha virt. eigenvalues --    0.35206   0.36584   0.36799   0.37585   0.38429
 Alpha virt. eigenvalues --    0.38856   0.39243   0.39519   0.39917   0.40871
 Alpha virt. eigenvalues --    0.41640   0.42969   0.43002   0.43793   0.44384
 Alpha virt. eigenvalues --    0.44703   0.45551   0.45616   0.46057   0.46905
 Alpha virt. eigenvalues --    0.47960   0.48096   0.49348   0.49879   0.50041
 Alpha virt. eigenvalues --    0.51002   0.51573   0.52122   0.53103   0.54723
 Alpha virt. eigenvalues --    0.55044   0.55447   0.56400   0.56761   0.57499
 Alpha virt. eigenvalues --    0.58030   0.58758   0.58831   0.60897   0.61153
 Alpha virt. eigenvalues --    0.62161   0.63775   0.65617   0.66401   0.67315
 Alpha virt. eigenvalues --    0.67446   0.68696   0.69511   0.71276   0.72099
 Alpha virt. eigenvalues --    0.72678   0.74280   0.74342   0.76344   0.76801
 Alpha virt. eigenvalues --    0.78124   0.79762   0.79862   0.81041   0.81335
 Alpha virt. eigenvalues --    0.82873   0.83756   0.86231   0.87984   0.88294
 Alpha virt. eigenvalues --    0.88564   0.91345   0.91436   0.92849   0.93531
 Alpha virt. eigenvalues --    0.94408   0.95395   0.95961   0.97115   0.99047
 Alpha virt. eigenvalues --    0.99382   1.00792   1.00978   1.03304   1.03749
 Alpha virt. eigenvalues --    1.05633   1.06603   1.07908   1.08009   1.09493
 Alpha virt. eigenvalues --    1.09526   1.11183   1.12811   1.13208   1.13671
 Alpha virt. eigenvalues --    1.15717   1.18013   1.19207   1.19291   1.20262
 Alpha virt. eigenvalues --    1.21930   1.22879   1.23397   1.24294   1.25272
 Alpha virt. eigenvalues --    1.26798   1.27463   1.29468   1.29875   1.31581
 Alpha virt. eigenvalues --    1.33026   1.34891   1.37944   1.37975   1.38725
 Alpha virt. eigenvalues --    1.39608   1.40458   1.41480   1.41785   1.44625
 Alpha virt. eigenvalues --    1.45201   1.46568   1.47609   1.48310   1.49709
 Alpha virt. eigenvalues --    1.49749   1.50145   1.52237   1.53317   1.53701
 Alpha virt. eigenvalues --    1.54665   1.56383   1.57194   1.57859   1.58070
 Alpha virt. eigenvalues --    1.59475   1.59825   1.61045   1.62630   1.64103
 Alpha virt. eigenvalues --    1.65035   1.65800   1.66100   1.66495   1.66575
 Alpha virt. eigenvalues --    1.69513   1.69572   1.71039   1.72047   1.72508
 Alpha virt. eigenvalues --    1.73214   1.73625   1.73754   1.74340   1.75525
 Alpha virt. eigenvalues --    1.77967   1.78190   1.78774   1.79047   1.83112
 Alpha virt. eigenvalues --    1.83995   1.84785   1.85783   1.87910   1.88586
 Alpha virt. eigenvalues --    1.88783   1.89721   1.90904   1.91366   1.92312
 Alpha virt. eigenvalues --    1.93057   1.95002   1.96789   1.98638   1.98942
 Alpha virt. eigenvalues --    2.01268   2.02831   2.04917   2.06727   2.07648
 Alpha virt. eigenvalues --    2.10918   2.12565   2.12660   2.14569   2.15601
 Alpha virt. eigenvalues --    2.16389   2.18850   2.19982   2.21531   2.24118
 Alpha virt. eigenvalues --    2.24689   2.27315   2.29377   2.30740   2.31038
 Alpha virt. eigenvalues --    2.32550   2.36115   2.37200   2.37249   2.38523
 Alpha virt. eigenvalues --    2.40443   2.42061   2.43044   2.44557   2.45645
 Alpha virt. eigenvalues --    2.47012   2.48356   2.49265   2.50413   2.52213
 Alpha virt. eigenvalues --    2.53896   2.54334   2.57104   2.57953   2.60340
 Alpha virt. eigenvalues --    2.60347   2.61436   2.61594   2.62098   2.62430
 Alpha virt. eigenvalues --    2.63037   2.65840   2.66409   2.66744   2.66821
 Alpha virt. eigenvalues --    2.67882   2.69551   2.71412   2.71802   2.74412
 Alpha virt. eigenvalues --    2.75532   2.75726   2.77105   2.77167   2.79718
 Alpha virt. eigenvalues --    2.79922   2.81164   2.82242   2.83133   2.83360
 Alpha virt. eigenvalues --    2.86173   2.90098   2.90399   2.91372   2.92593
 Alpha virt. eigenvalues --    2.92950   2.94209   2.94577   2.95003   2.96098
 Alpha virt. eigenvalues --    2.97353   2.99222   3.00400   3.01177   3.02542
 Alpha virt. eigenvalues --    3.04383   3.05064   3.05673   3.07069   3.08521
 Alpha virt. eigenvalues --    3.08827   3.10713   3.10717   3.11355   3.13066
 Alpha virt. eigenvalues --    3.14332   3.14466   3.16634   3.16708   3.17842
 Alpha virt. eigenvalues --    3.17914   3.18438   3.20128   3.21177   3.22004
 Alpha virt. eigenvalues --    3.23025   3.23567   3.25716   3.26353   3.27363
 Alpha virt. eigenvalues --    3.29659   3.30169   3.31705   3.34807   3.35646
 Alpha virt. eigenvalues --    3.36413   3.36479   3.37629   3.38120   3.39648
 Alpha virt. eigenvalues --    3.40217   3.40305   3.41819   3.43117   3.43195
 Alpha virt. eigenvalues --    3.44137   3.47414   3.48423   3.50456   3.50479
 Alpha virt. eigenvalues --    3.51963   3.52411   3.54250   3.54833   3.56609
 Alpha virt. eigenvalues --    3.59867   3.60148   3.62143   3.63624   3.65176
 Alpha virt. eigenvalues --    3.65491   3.68338   3.69448   3.71220   3.74166
 Alpha virt. eigenvalues --    3.74547   3.76778   3.76911   3.78462   3.82864
 Alpha virt. eigenvalues --    3.83388   3.86881   3.87923   3.88702   3.91258
 Alpha virt. eigenvalues --    3.93496   3.96475   3.97573   3.97968   3.98419
 Alpha virt. eigenvalues --    4.01507   4.01893   4.03476   4.04646   4.05771
 Alpha virt. eigenvalues --    4.07467   4.08982   4.10744   4.12565   4.13916
 Alpha virt. eigenvalues --    4.13984   4.15080   4.15511   4.16026   4.16103
 Alpha virt. eigenvalues --    4.17622   4.20721   4.21618   4.22934   4.23844
 Alpha virt. eigenvalues --    4.25004   4.26322   4.29802   4.33193   4.36739
 Alpha virt. eigenvalues --    4.41772   4.43089   4.43383   4.43890   4.51710
 Alpha virt. eigenvalues --    4.52385   4.52658   4.54367   4.57012   4.57495
 Alpha virt. eigenvalues --    4.60013   4.66096   4.66520   4.68102   4.70571
 Alpha virt. eigenvalues --    4.73260   4.75607   4.77393   4.80340   4.81036
 Alpha virt. eigenvalues --    4.81233   4.84954   4.87259   4.89910   4.91102
 Alpha virt. eigenvalues --    4.96417   5.01171   5.01786   5.09606   5.10458
 Alpha virt. eigenvalues --    5.14044   5.15011   5.15872   5.18504   5.24348
 Alpha virt. eigenvalues --    5.30056   5.30365   5.31533   5.33853   5.44321
 Alpha virt. eigenvalues --    5.44959   5.46314   5.47138   5.51077   5.56391
 Alpha virt. eigenvalues --    5.65231   5.69610   5.79438   5.83521   5.87960
 Alpha virt. eigenvalues --    5.93986   6.03388   6.32287   6.61710   6.64809
 Alpha virt. eigenvalues --    6.76914   6.82445   6.84038   7.29759   7.35298
 Alpha virt. eigenvalues --    7.85931  22.29756  22.47941  22.51522  22.68858
 Alpha virt. eigenvalues --   22.73397  22.75122  22.84059  22.94597  23.12962
 Alpha virt. eigenvalues --   23.26899  23.72330  32.28984  32.49093  44.32337
          Condensed to atoms (all electrons):
               1          2          3          4          5          6
     1  Br  34.908833   0.374015  -0.098241   0.020761  -0.002248   0.019473
     2  C    0.374015   4.881129   0.426683   0.006648  -0.044518  -0.004883
     3  C   -0.098241   0.426683   5.093687   0.408257  -0.000904  -0.077880
     4  C    0.020761   0.006648   0.408257   4.990115   0.466375  -0.017850
     5  C   -0.002248  -0.044518  -0.000904   0.466375   5.079597   0.441827
     6  C    0.019473  -0.004883  -0.077880  -0.017850   0.441827   5.109026
     7  C   -0.002768  -0.014249   0.001870  -0.002674  -0.088521   0.279801
     8  N    0.000007  -0.000178   0.000256  -0.001526   0.011265  -0.082940
     9  N   -0.000001   0.000065   0.000012  -0.000037   0.000095   0.012135
    10  C   -0.000011  -0.000329   0.000039  -0.000073   0.001305  -0.014295
    11  C   -0.000004  -0.000024  -0.000003   0.000005  -0.000379  -0.005415
    12  C    0.000000  -0.000003   0.000000  -0.000000   0.000020   0.000135
    13  C    0.000000  -0.000003   0.000000  -0.000000   0.000020   0.000135
    14  O   -0.000009   0.000782   0.000160  -0.000481   0.008461  -0.061797
    15  C   -0.104546   0.396511   0.004602  -0.073105  -0.058494   0.399227
    16  H   -0.006637  -0.045041   0.419329  -0.034153   0.003382  -0.000789
    17  H   -0.000234   0.002724  -0.031476   0.413019  -0.031441   0.005216
    18  H    0.000034  -0.000424   0.003925  -0.029733   0.404945  -0.027512
    19  H   -0.000000  -0.000000  -0.000000   0.000000  -0.000010   0.000001
    20  H    0.000000   0.000000  -0.000000   0.000000  -0.000000   0.000002
    21  H    0.000002   0.000006  -0.000000   0.000000   0.000003   0.000153
    22  H    0.000000   0.000000  -0.000000   0.000000  -0.000000   0.000002
    23  H    0.000002   0.000006  -0.000000   0.000000   0.000003   0.000153
    24  H   -0.005712  -0.038410   0.010287  -0.003049   0.007307  -0.029060
               7          8          9         10         11         12
     1  Br  -0.002768   0.000007  -0.000001  -0.000011  -0.000004   0.000000
     2  C   -0.014249  -0.000178   0.000065  -0.000329  -0.000024  -0.000003
     3  C    0.001870   0.000256   0.000012   0.000039  -0.000003   0.000000
     4  C   -0.002674  -0.001526  -0.000037  -0.000073   0.000005  -0.000000
     5  C   -0.088521   0.011265   0.000095   0.001305  -0.000379   0.000020
     6  C    0.279801  -0.082940   0.012135  -0.014295  -0.005415   0.000135
     7  C    4.827882   0.631417  -0.108956  -0.079635  -0.007887   0.001201
     8  N    0.631417   6.544982   0.241561  -0.107660   0.013626  -0.000500
     9  N   -0.108956   0.241561   6.531524   0.638548  -0.041044   0.000406
    10  C   -0.079635  -0.107660   0.638548   4.778969   0.275585  -0.029624
    11  C   -0.007887   0.013626  -0.041044   0.275585   5.352358   0.198726
    12  C    0.001201  -0.000500   0.000406  -0.029624   0.198726   5.200474
    13  C    0.001199  -0.000499   0.000408  -0.029651   0.198752   0.136502
    14  O    0.324121  -0.078311  -0.078669   0.310453  -0.029745  -0.004316
    15  C   -0.061383   0.005990   0.000160  -0.000615   0.000713  -0.000129
    16  H    0.000418  -0.000001   0.000000   0.000001   0.000000  -0.000000
    17  H    0.000189  -0.000053  -0.000000   0.000001   0.000000  -0.000000
    18  H   -0.008489   0.016578  -0.000430   0.000047  -0.000032   0.000001
    19  H    0.000311   0.000083   0.006094  -0.041406   0.425310  -0.028484
    20  H    0.000018   0.000008   0.000035   0.005381  -0.037359   0.422497
    21  H    0.000371  -0.000062   0.000595  -0.000366  -0.030889   0.420853
    22  H    0.000018   0.000008   0.000035   0.005382  -0.037363  -0.022621
    23  H    0.000372  -0.000062   0.000595  -0.000366  -0.030888  -0.035281
    24  H    0.004363   0.000391   0.000096   0.000896   0.000316  -0.000049
              13         14         15         16         17         18
     1  Br   0.000000  -0.000009  -0.104546  -0.006637  -0.000234   0.000034
     2  C   -0.000003   0.000782   0.396511  -0.045041   0.002724  -0.000424
     3  C    0.000000   0.000160   0.004602   0.419329  -0.031476   0.003925
     4  C   -0.000000  -0.000481  -0.073105  -0.034153   0.413019  -0.029733
     5  C    0.000020   0.008461  -0.058494   0.003382  -0.031441   0.404945
     6  C    0.000135  -0.061797   0.399227  -0.000789   0.005216  -0.027512
     7  C    0.001199   0.324121  -0.061383   0.000418   0.000189  -0.008489
     8  N   -0.000499  -0.078311   0.005990  -0.000001  -0.000053   0.016578
     9  N    0.000408  -0.078669   0.000160   0.000000  -0.000000  -0.000430
    10  C   -0.029651   0.310453  -0.000615   0.000001   0.000001   0.000047
    11  C    0.198752  -0.029745   0.000713   0.000000   0.000000  -0.000032
    12  C    0.136502  -0.004316  -0.000129  -0.000000  -0.000000   0.000001
    13  C    5.200465  -0.004314  -0.000129  -0.000000  -0.000000   0.000001
    14  O   -0.004314   7.860809   0.009855  -0.000000   0.000001   0.000549
    15  C   -0.000129   0.009855   5.290796   0.011962   0.000626   0.006717
    16  H   -0.000000  -0.000000   0.011962   0.470481  -0.003101  -0.000140
    17  H   -0.000000   0.000001   0.000626  -0.003101   0.474287  -0.003063
    18  H    0.000001   0.000549   0.006717  -0.000140  -0.003063   0.446630
    19  H   -0.028482   0.004257   0.000006  -0.000000   0.000000  -0.000001
    20  H   -0.022622   0.000216   0.000002  -0.000000   0.000000  -0.000000
    21  H   -0.035280   0.004160   0.000080  -0.000000   0.000000  -0.000000
    22  H    0.422500   0.000216   0.000002  -0.000000   0.000000  -0.000000
    23  H    0.420853   0.004159   0.000080  -0.000000   0.000000  -0.000000
    24  H   -0.000049   0.007951   0.396668   0.000003   0.000048  -0.000156
              19         20         21         22         23         24
     1  Br  -0.000000   0.000000   0.000002   0.000000   0.000002  -0.005712
     2  C   -0.000000   0.000000   0.000006   0.000000   0.000006  -0.038410
     3  C   -0.000000  -0.000000  -0.000000  -0.000000  -0.000000   0.010287
     4  C    0.000000   0.000000   0.000000   0.000000   0.000000  -0.003049
     5  C   -0.000010  -0.000000   0.000003  -0.000000   0.000003   0.007307
     6  C    0.000001   0.000002   0.000153   0.000002   0.000153  -0.029060
     7  C    0.000311   0.000018   0.000371   0.000018   0.000372   0.004363
     8  N    0.000083   0.000008  -0.000062   0.000008  -0.000062   0.000391
     9  N    0.006094   0.000035   0.000595   0.000035   0.000595   0.000096
    10  C   -0.041406   0.005381  -0.000366   0.005382  -0.000366   0.000896
    11  C    0.425310  -0.037359  -0.030889  -0.037363  -0.030888   0.000316
    12  C   -0.028484   0.422497   0.420853  -0.022621  -0.035281  -0.000049
    13  C   -0.028482  -0.022622  -0.035280   0.422500   0.420853  -0.000049
    14  O    0.004257   0.000216   0.004160   0.000216   0.004159   0.007951
    15  C    0.000006   0.000002   0.000080   0.000002   0.000080   0.396668
    16  H   -0.000000  -0.000000  -0.000000  -0.000000  -0.000000   0.000003
    17  H    0.000000   0.000000   0.000000   0.000000   0.000000   0.000048
    18  H   -0.000001  -0.000000  -0.000000  -0.000000  -0.000000  -0.000156
    19  H    0.495355  -0.004982   0.002481  -0.004982   0.002481   0.000001
    20  H   -0.004982   0.490353  -0.011713  -0.003818   0.000674   0.000001
    21  H    0.002481  -0.011713   0.488411   0.000674  -0.004406   0.000097
    22  H   -0.004982  -0.003818   0.000674   0.490354  -0.011713   0.000001
    23  H    0.002481   0.000674  -0.004406  -0.011713   0.488417   0.000097
    24  H    0.000001   0.000001   0.000097   0.000001   0.000097   0.453767
 Mulliken charges:
               1
     1  Br  -0.102715
     2  C    0.059495
     3  C   -0.160606
     4  C   -0.142499
     5  C   -0.198089
     6  C    0.055135
     7  C    0.301012
     8  N   -0.194381
     9  N   -0.203226
    10  C    0.287426
    11  C   -0.244359
    12  C   -0.259809
    13  C   -0.259804
    14  O   -0.278508
    15  C   -0.225598
    16  H    0.184285
    17  H    0.173256
    18  H    0.190554
    19  H    0.171967
    20  H    0.161307
    21  H    0.164829
    22  H    0.161306
    23  H    0.164825
    24  H    0.194196
 Sum of Mulliken charges =  -0.00000
 Mulliken charges with hydrogens summed into heavy atoms:
               1
     1  Br  -0.102715
     2  C    0.059495
     3  C    0.023679
     4  C    0.030757
     5  C   -0.007535
     6  C    0.055135
     7  C    0.301012
     8  N   -0.194381
     9  N   -0.203226
    10  C    0.287426
    11  C   -0.072392
    12  C    0.066328
    13  C    0.066327
    14  O   -0.278508
    15  C   -0.031402
 Electronic spatial extent (au):  <R**2>=           5546.8531
 Charge=             -0.0000 electrons
 Dipole moment (field-independent basis, Debye):
    X=              0.4959    Y=             -2.5238    Z=              0.0006  Tot=              2.5721
 Quadrupole moment (field-independent basis, Debye-Ang):
   XX=            -92.7853   YY=            -98.6831   ZZ=           -101.3183
   XY=             24.2096   XZ=             -0.0008   YZ=              0.0017
 Traceless Quadrupole moment (field-independent basis, Debye-Ang):
   XX=              4.8103   YY=             -1.0875   ZZ=             -3.7228
   XY=             24.2096   XZ=             -0.0008   YZ=              0.0017
 Octapole moment (field-independent basis, Debye-Ang**2):
  XXX=             61.3025  YYY=            -48.5926  ZZZ=             -0.0007  XYY=             64.8106
  XXY=            -70.1525  XXZ=              0.0069  XZZ=             22.6686  YZZ=            -23.6109
  YYZ=              0.0027  XYZ=             -0.0003
 Hexadecapole moment (field-independent basis, Debye-Ang**3):
 XXXX=          -4676.7957 YYYY=          -1577.4184 ZZZZ=           -174.8471 XXXY=            233.0379
 XXXZ=             -0.0118 YYYX=            -22.8328 YYYZ=              0.0268 ZZZX=             -0.0128
 ZZZY=             -0.0033 XXYY=          -1091.2944 XXZZ=           -886.3017 YYZZ=           -304.4554
 XXYZ=              0.0150 YYXZ=              0.0017 ZZXY=            -39.7328
 N-N= 1.186404689685D+03 E-N=-9.942187502310D+03  KE= 3.176846849494D+03
 Calculating spin-rotation constants.
 Leave Link  601 at Tue Sep 17 11:20:05 2024, MaxMem=  1342177280 cpu:               6.3 elap:               6.4
 (Enter /groups/ReismanLab/Software/Gaussian16_RevC/Linux_Binary_AVX2-enabled-CPU/g16/l9999.exe)
 Unable to Open any file for archive entry.
 1\1\GINC-HPC-52-36\SP\RM062X\def2TZVP\C11H9Br1N2O1\MANTIND\17-Sep-2024
 \0\\#p M062X/def2tzvp geom=check guess=read scf(xqc,tight) integral(gr
 id=ultrafine) scrf(SMD, solvent=1,4-Dioxane) nmr=giao\\spe\\0,1\Br,0,3
 .0857163657,-1.4477149222,0.0013150275\C,0,2.0661008704,0.1672856205,0
 .0006119429\C,0,2.729373699,1.3920139559,0.0003431772\C,0,1.9741779312
 ,2.5670004686,-0.0001706643\C,0,0.584914498,2.5185629449,-0.0004079305
 \C,0,-0.0673220001,1.2760463471,-0.0001360326\C,0,-1.5221610446,1.2358
 146181,-0.0003907998\N,0,-2.3633569959,2.2252060132,-0.0009156427\N,0,
 -3.6436790074,1.6665622169,-0.0010284735\C,0,-3.4831157743,0.377443663
 4,-0.0003443078\C,0,-4.5024442794,-0.6684208795,-0.000025381\C,0,-4.25
 89152694,-1.9673835901,0.7495979533\C,0,-4.258510342,-1.9682426155,-0.
 7480113697\O,0,-2.1616155525,0.0219013636,0.0000080818\C,0,0.678219417
 8,0.0893443945,0.0003789701\H,0,3.812259418,1.4241713702,0.0005328142\
 H,0,2.4810739416,3.5264134235,-0.0003804134\H,0,-0.010394891,3.4240447
 962,-0.0008011506\H,0,-5.5070030059,-0.2621317628,-0.0005263807\H,0,-5
 .1058875414,-2.396908444,1.2736259112\H,0,-3.3066097546,-2.0705979718,
 1.2584970914\H,0,-5.10520125,-2.3983681414,-1.2720015489\H,0,-3.305931
 7058,-2.0720499616,-1.2562785412\H,0,0.1818816604,-0.8724919578,0.0005
 930784\\Version=ES64L-G16RevC.02\State=1-A\HF=-3183.4586882\RMSD=3.331
 e-09\Dipole=0.1731577,-0.9970002,0.0006397\Quadrupole=4.3677802,-1.599
 9872,-2.7677931,17.8851054,-0.0066464,0.0032464\PG=C01 [X(C11H9Br1N2O1
 )]\\@
 The archive entry for this job was punched.


 IF OTHER PEOPLE ARE GOING TO TALK, CONVERSATION IS SIMPLY IMPOSSIBLE.

                                               -- WHISTLER'S PRINCIPLE
 Job cpu time:       0 days  0 hours 22 minutes 20.4 seconds.
 Elapsed time:       0 days  0 hours 22 minutes 24.0 seconds.
 File lengths (MBytes):  RWF=    360 Int=      0 D2E=      0 Chk=     40 Scr=     16
 Normal termination of Gaussian 16 at Tue Sep 17 11:20:06 2024.
