 Entering Gaussian System, Link 0=g16
 Input=smiles_00090_conf_0.gjf
 Output=smiles_00090_conf_0.log
 Initial command:
 /groups/ReismanLab/Software/Gaussian16_RevC/Linux_Binary_AVX2-enabled-CPU/g16/l1.exe "/central/groups/ReismanLab/DM/dft_final/smiles_00090/Gau-110618.inp" -scrdir="/central/groups/ReismanLab/DM/dft_final/smiles_00090/"
 Entering Link 1 = /groups/ReismanLab/Software/Gaussian16_RevC/Linux_Binary_AVX2-enabled-CPU/g16/l1.exe PID=    110621.
  
 Copyright (c) 1988-2021, Gaussian, Inc.  All Rights Reserved.
  
 This is part of the Gaussian(R) 16 program.  It is based on
 the Gaussian(R) 09 system (copyright 2009, Gaussian, Inc.),
 the Gaussian(R) 03 system (copyright 2003, Gaussian, Inc.),
 the Gaussian(R) 98 system (copyright 1998, Gaussian, Inc.),
 the Gaussian(R) 94 system (copyright 1995, Gaussian, Inc.),
 the Gaussian 92(TM) system (copyright 1992, Gaussian, Inc.),
 the Gaussian 90(TM) system (copyright 1990, Gaussian, Inc.),
 the Gaussian 88(TM) system (copyright 1988, Gaussian, Inc.),
 the Gaussian 86(TM) system (copyright 1986, Carnegie Mellon
 University), and the Gaussian 82(TM) system (copyright 1983,
 Carnegie Mellon University). Gaussian is a federally registered
 trademark of Gaussian, Inc.
  
 This software contains proprietary and confidential information,
 including trade secrets, belonging to Gaussian, Inc.
  
 This software is provided under written license and may be
 used, copied, transmitted, or stored only in accord with that
 written license.
  
 The following legend is applicable only to US Government
 contracts under FAR:
  
                    RESTRICTED RIGHTS LEGEND
  
 Use, reproduction and disclosure by the US Government is
 subject to restrictions as set forth in subparagraphs (a)
 and (c) of the Commercial Computer Software - Restricted
 Rights clause in FAR 52.227-19.
  
 Gaussian, Inc.
 340 Quinnipiac St., Bldg. 40, Wallingford CT 06492
  
  
 ---------------------------------------------------------------
 Warning -- This program may not be used in any manner that
 competes with the business of Gaussian, Inc. or will provide
 assistance to any competitor of Gaussian, Inc.  The licensee
 of this program is prohibited from giving any competitor of
 Gaussian, Inc. access to this program.  By using this program,
 the user acknowledges that Gaussian, Inc. is engaged in the
 business of creating and licensing software in the field of
 computational chemistry and represents and warrants to the
 licensee that it is not a competitor of Gaussian, Inc. and that
 it will not use this program in any manner prohibited above.
 ---------------------------------------------------------------
  

 Cite this work as:
 Gaussian 16, Revision C.02,
 M. J. Frisch, G. W. Trucks, H. B. Schlegel, G. E. Scuseria, 
 M. A. Robb, J. R. Cheeseman, G. Scalmani, V. Barone, 
 G. A. Petersson, H. Nakatsuji, X. Li, M. Caricato, A. V. Marenich, 
 J. Bloino, B. G. Janesko, R. Gomperts, B. Mennucci, H. P. Hratchian, 
 J. V. Ortiz, A. F. Izmaylov, J. L. Sonnenberg, D. Williams-Young, 
 F. Ding, F. Lipparini, F. Egidi, J. Goings, B. Peng, A. Petrone, 
 T. Henderson, D. Ranasinghe, V. G. Zakrzewski, J. Gao, N. Rega, 
 G. Zheng, W. Liang, M. Hada, M. Ehara, K. Toyota, R. Fukuda, 
 J. Hasegawa, M. Ishida, T. Nakajima, Y. Honda, O. Kitao, H. Nakai, 
 T. Vreven, K. Throssell, J. A. Montgomery, Jr., J. E. Peralta, 
 F. Ogliaro, M. J. Bearpark, J. J. Heyd, E. N. Brothers, K. N. Kudin, 
 V. N. Staroverov, T. A. Keith, R. Kobayashi, J. Normand, 
 K. Raghavachari, A. P. Rendell, J. C. Burant, S. S. Iyengar, 
 J. Tomasi, M. Cossi, J. M. Millam, M. Klene, C. Adamo, R. Cammi, 
 J. W. Ochterski, R. L. Martin, K. Morokuma, O. Farkas, 
 J. B. Foresman, and D. J. Fox, Gaussian, Inc., Wallingford CT, 2019.
 
 ******************************************
 Gaussian 16:  ES64L-G16RevC.02  7-Dec-2021
                17-Sep-2024 
 ******************************************
 %nprocshared=8
 Will use up to    8 processors via shared memory.
 %Mem=10GB
 %Chk=smiles_00090_conf_0.chk
 ----------------------------------------------------------------------
 #p B3LYP/6-31G(d,p) EmpiricalDispersion=GD3BJ opt freq scf(xqc,tight) 
 integral(grid=ultrafine)
 ----------------------------------------------------------------------
 1/18=20,19=15,26=4,38=1/1,3;
 2/9=110,12=2,17=6,18=5,40=1/2;
 3/5=1,6=6,7=101,11=2,25=1,30=1,71=1,74=-5,75=-5,124=41/1,2,3;
 4//1;
 5/5=2,8=3,13=1,32=2,38=5/2,8;
 6/7=2,8=2,9=2,10=2,28=1/1;
 7//1,2,3,16;
 1/18=20,19=15,26=4/3(2);
 2/9=110/2;
 99//99;
 2/9=110/2;
 3/5=1,6=6,7=101,11=2,25=1,30=1,71=1,74=-5,75=-5,124=41/1,2,3;
 4/5=5,16=3,69=1/1;
 5/5=2,8=3,13=1,32=2,38=5/2,8;
 7//1,2,3,16;
 1/18=20,19=15,26=4/3(-5);
 2/9=110/2;
 6/7=2,8=2,9=2,10=2,19=2,28=1/1;
 99/9=1/99;
 Leave Link    1 at Tue Sep 17 09:46:07 2024, MaxMem=  1342177280 cpu:               0.1 elap:               0.6
 (Enter /groups/ReismanLab/Software/Gaussian16_RevC/Linux_Binary_AVX2-enabled-CPU/g16/l101.exe)
 ----------------------------------
 opt-freq conformers_unique/conf_aa
 ----------------------------------
 Symbolic Z-matrix:
 Charge =  0 Multiplicity = 1
 Cl                   -4.83925  -0.25948  -0.00051 
 C                    -3.17941   0.09159   0.00012 
 N                    -2.86788   1.39732  -0.00022 
 C                    -1.60246   1.70375   0.00024 
 C                    -0.59047   0.71767   0.0007 
 C                     0.79343   0.96363   0.00055 
 C                     1.6301   -0.12206   0.00016 
 Br                    3.51291   0.09864  -0.00023 
 C                     1.08744  -1.42631  -0.00007 
 N                    -0.18695  -1.67081   0.00032 
 C                    -1.04457  -0.6365    0.00056 
 N                    -2.35646  -0.9164    0.00054 
 H                    -1.35793   2.75891  -0.00011 
 H                     1.16886   1.9769    0.00074 
 H                     1.74462  -2.28635  -0.00026 
 
 ITRead=  0  0  0  0  0  0  0  0  0  0  0  0  0  0  0
 MicOpt= -1 -1 -1 -1 -1 -1 -1 -1 -1 -1 -1 -1 -1 -1 -1
 NAtoms=     15 NQM=       15 NQMF=       0 NMMI=      0 NMMIF=      0
                NMic=       0 NMicF=      0.
                    Isotopes and Nuclear Properties:
 (Nuclear quadrupole moments (NQMom) in fm**2, nuclear magnetic moments (NMagM)
  in nuclear magnetons)

  Atom         1           2           3           4           5           6           7           8           9          10
 IAtWgt=          35          12          14          12          12          12          12          79          12          14
 AtmWgt=  34.9688527  12.0000000  14.0030740  12.0000000  12.0000000  12.0000000  12.0000000  78.9183361  12.0000000  14.0030740
 NucSpn=           3           0           2           0           0           0           0           3           0           2
 AtZEff=  -0.0000000  -0.0000000  -0.0000000  -0.0000000  -0.0000000  -0.0000000  -0.0000000  -0.0000000  -0.0000000  -0.0000000
 NQMom=   -8.1650000   0.0000000   2.0440000   0.0000000   0.0000000   0.0000000   0.0000000  31.3000000   0.0000000   2.0440000
 NMagM=    0.8218740   0.0000000   0.4037610   0.0000000   0.0000000   0.0000000   0.0000000   2.1063990   0.0000000   0.4037610
 AtZNuc=  17.0000000   6.0000000   7.0000000   6.0000000   6.0000000   6.0000000   6.0000000  35.0000000   6.0000000   7.0000000

  Atom        11          12          13          14          15
 IAtWgt=          12          14           1           1           1
 AtmWgt=  12.0000000  14.0030740   1.0078250   1.0078250   1.0078250
 NucSpn=           0           2           1           1           1
 AtZEff=  -0.0000000  -0.0000000  -0.0000000  -0.0000000  -0.0000000
 NQMom=    0.0000000   2.0440000   0.0000000   0.0000000   0.0000000
 NMagM=    0.0000000   0.4037610   2.7928460   2.7928460   2.7928460
 AtZNuc=   6.0000000   7.0000000   1.0000000   1.0000000   1.0000000
 Leave Link  101 at Tue Sep 17 09:46:07 2024, MaxMem=  1342177280 cpu:               0.2 elap:               0.3
 (Enter /groups/ReismanLab/Software/Gaussian16_RevC/Linux_Binary_AVX2-enabled-CPU/g16/l103.exe)

 GradGradGradGradGradGradGradGradGradGradGradGradGradGradGradGradGradGrad
 Berny optimization.
 Initialization pass.
                           ----------------------------
                           !    Initial Parameters    !
                           ! (Angstroms and Degrees)  !
 --------------------------                            --------------------------
 ! Name  Definition              Value          Derivative Info.                !
 --------------------------------------------------------------------------------
 ! R1    R(1,2)                  1.6966         estimate D2E/DX2                !
 ! R2    R(2,3)                  1.3424         estimate D2E/DX2                !
 ! R3    R(2,12)                 1.3013         estimate D2E/DX2                !
 ! R4    R(3,4)                  1.302          estimate D2E/DX2                !
 ! R5    R(4,5)                  1.413          estimate D2E/DX2                !
 ! R6    R(4,13)                 1.0831         estimate D2E/DX2                !
 ! R7    R(5,6)                  1.4056         estimate D2E/DX2                !
 ! R8    R(5,11)                 1.4283         estimate D2E/DX2                !
 ! R9    R(6,7)                  1.3707         estimate D2E/DX2                !
 ! R10   R(6,14)                 1.0806         estimate D2E/DX2                !
 ! R11   R(7,8)                  1.8957         estimate D2E/DX2                !
 ! R12   R(7,9)                  1.4126         estimate D2E/DX2                !
 ! R13   R(9,10)                 1.2976         estimate D2E/DX2                !
 ! R14   R(9,15)                 1.0824         estimate D2E/DX2                !
 ! R15   R(10,11)                1.3436         estimate D2E/DX2                !
 ! R16   R(11,12)                1.3414         estimate D2E/DX2                !
 ! A1    A(1,2,3)              115.3618         estimate D2E/DX2                !
 ! A2    A(1,2,12)             117.2866         estimate D2E/DX2                !
 ! A3    A(3,2,12)             127.3516         estimate D2E/DX2                !
 ! A4    A(2,3,4)              117.0319         estimate D2E/DX2                !
 ! A5    A(3,4,5)              122.1302         estimate D2E/DX2                !
 ! A6    A(3,4,13)             116.6602         estimate D2E/DX2                !
 ! A7    A(5,4,13)             121.2096         estimate D2E/DX2                !
 ! A8    A(4,5,6)              125.6645         estimate D2E/DX2                !
 ! A9    A(4,5,11)             115.719          estimate D2E/DX2                !
 ! A10   A(6,5,11)             118.6165         estimate D2E/DX2                !
 ! A11   A(5,6,7)              117.5408         estimate D2E/DX2                !
 ! A12   A(5,6,14)             120.4085         estimate D2E/DX2                !
 ! A13   A(7,6,14)             122.0507         estimate D2E/DX2                !
 ! A14   A(6,7,8)              120.9335         estimate D2E/DX2                !
 ! A15   A(6,7,9)              119.7902         estimate D2E/DX2                !
 ! A16   A(8,7,9)              119.2762         estimate D2E/DX2                !
 ! A17   A(7,9,10)             123.4515         estimate D2E/DX2                !
 ! A18   A(7,9,15)             120.0249         estimate D2E/DX2                !
 ! A19   A(10,9,15)            116.5237         estimate D2E/DX2                !
 ! A20   A(9,10,11)            118.8037         estimate D2E/DX2                !
 ! A21   A(5,11,10)            121.7973         estimate D2E/DX2                !
 ! A22   A(5,11,12)            120.582          estimate D2E/DX2                !
 ! A23   A(10,11,12)           117.6207         estimate D2E/DX2                !
 ! A24   A(2,12,11)            117.1853         estimate D2E/DX2                !
 ! D1    D(1,2,3,4)           -179.9995         estimate D2E/DX2                !
 ! D2    D(12,2,3,4)            -0.0169         estimate D2E/DX2                !
 ! D3    D(1,2,12,11)          179.9774         estimate D2E/DX2                !
 ! D4    D(3,2,12,11)           -0.0049         estimate D2E/DX2                !
 ! D5    D(2,3,4,5)              0.0164         estimate D2E/DX2                !
 ! D6    D(2,3,4,13)           179.9953         estimate D2E/DX2                !
 ! D7    D(3,4,5,6)            179.9669         estimate D2E/DX2                !
 ! D8    D(3,4,5,11)             0.0035         estimate D2E/DX2                !
 ! D9    D(13,4,5,6)            -0.011          estimate D2E/DX2                !
 ! D10   D(13,4,5,11)         -179.9744         estimate D2E/DX2                !
 ! D11   D(4,5,6,7)           -179.9572         estimate D2E/DX2                !
 ! D12   D(4,5,6,14)             0.0435         estimate D2E/DX2                !
 ! D13   D(11,5,6,7)             0.0052         estimate D2E/DX2                !
 ! D14   D(11,5,6,14)         -179.9941         estimate D2E/DX2                !
 ! D15   D(4,5,11,10)          179.9678         estimate D2E/DX2                !
 ! D16   D(4,5,11,12)           -0.0257         estimate D2E/DX2                !
 ! D17   D(6,5,11,10)            0.0017         estimate D2E/DX2                !
 ! D18   D(6,5,11,12)         -179.9919         estimate D2E/DX2                !
 ! D19   D(5,6,7,8)            179.9947         estimate D2E/DX2                !
 ! D20   D(5,6,7,9)              0.0            estimate D2E/DX2                !
 ! D21   D(14,6,7,8)            -0.006          estimate D2E/DX2                !
 ! D22   D(14,6,7,9)           179.9993         estimate D2E/DX2                !
 ! D23   D(6,7,9,10)            -0.0135         estimate D2E/DX2                !
 ! D24   D(6,7,9,15)          -179.9932         estimate D2E/DX2                !
 ! D25   D(8,7,9,10)           179.9918         estimate D2E/DX2                !
 ! D26   D(8,7,9,15)             0.0121         estimate D2E/DX2                !
 ! D27   D(7,9,10,11)            0.0204         estimate D2E/DX2                !
 ! D28   D(15,9,10,11)        -179.9992         estimate D2E/DX2                !
 ! D29   D(9,10,11,5)           -0.0144         estimate D2E/DX2                !
 ! D30   D(9,10,11,12)         179.9793         estimate D2E/DX2                !
 ! D31   D(5,11,12,2)            0.0264         estimate D2E/DX2                !
 ! D32   D(10,11,12,2)        -179.9674         estimate D2E/DX2                !
 --------------------------------------------------------------------------------
 Trust Radius=3.00D-01 FncErr=1.00D-07 GrdErr=1.00D-06 EigMax=2.50D+02 EigMin=1.00D-04
 Number of steps in this run=     82 maximum allowed number of steps=    100.
 GradGradGradGradGradGradGradGradGradGradGradGradGradGradGradGradGradGrad

 Leave Link  103 at Tue Sep 17 09:46:07 2024, MaxMem=  1342177280 cpu:               0.1 elap:               0.0
 (Enter /groups/ReismanLab/Software/Gaussian16_RevC/Linux_Binary_AVX2-enabled-CPU/g16/l202.exe)
                          Input orientation:                          
 ---------------------------------------------------------------------
 Center     Atomic      Atomic             Coordinates (Angstroms)
 Number     Number       Type             X           Y           Z
 ---------------------------------------------------------------------
      1         17           0       -4.839252   -0.259479   -0.000512
      2          6           0       -3.179411    0.091591    0.000116
      3          7           0       -2.867877    1.397321   -0.000216
      4          6           0       -1.602457    1.703752    0.000238
      5          6           0       -0.590466    0.717666    0.000703
      6          6           0        0.793429    0.963633    0.000548
      7          6           0        1.630100   -0.122060    0.000159
      8         35           0        3.512910    0.098637   -0.000231
      9          6           0        1.087442   -1.426309   -0.000069
     10          7           0       -0.186951   -1.670812    0.000323
     11          6           0       -1.044569   -0.636503    0.000564
     12          7           0       -2.356461   -0.916401    0.000540
     13          1           0       -1.357929    2.758914   -0.000113
     14          1           0        1.168856    1.976902    0.000743
     15          1           0        1.744623   -2.286351   -0.000265
 ---------------------------------------------------------------------
                    Distance matrix (angstroms):
                    1          2          3          4          5
     1  Cl   0.000000
     2  C    1.696562   0.000000
     3  N    2.575132   1.342381   0.000000
     4  C    3.785647   2.255183   1.301994   0.000000
     5  C    4.359701   2.663570   2.376664   1.412973   0.000000
     6  C    5.763948   4.067421   3.686902   2.507597   1.405583
     7  C    6.470811   4.814254   4.747665   3.712548   2.374037
     8  Br   8.359836   6.692325   6.511607   5.361285   4.149806
     9  C    6.040462   4.528802   4.859777   4.127086   2.722499
    10  N    4.861662   3.472877   4.074409   3.659418   2.422324
    11  C    3.813367   2.255586   2.731464   2.405833   1.428279
    12  N    2.568229   1.301266   2.369569   2.726486   2.406016
    13  H    4.607635   3.229924   2.033193   1.083125   2.180755
    14  H    6.410831   4.739390   4.078128   2.784741   2.163536
    15  H    6.888804   5.468155   5.902931   5.208058   3.804834
                    6          7          8          9         10
     6  C    0.000000
     7  C    1.370675   0.000000
     8  Br   2.853734   1.895701   0.000000
     9  C    2.407959   1.412637   2.865023   0.000000
    10  N    2.810951   2.387532   4.101211   1.297636   0.000000
    11  C    2.436938   2.723693   4.616389   2.273601   1.343616
    12  N    3.668287   4.064929   5.956494   3.481446   2.296934
    13  H    2.802031   4.150703   5.549969   4.847260   4.581884
    14  H    1.080583   2.149043   3.003743   3.404184   3.891533
    15  H    3.386321   2.167319   2.969008   1.082387   2.027281
                   11         12         13         14         15
    11  C    0.000000
    12  N    1.341419   0.000000
    13  H    3.409846   3.808543   0.000000
    14  H    3.424782   4.560598   2.645031   0.000000
    15  H    3.240616   4.323847   5.922882   4.301957   0.000000
 Stoichiometry    C7H3BrClN3
 Framework group  C1[X(C7H3BrClN3)]
 Deg. of freedom    39
 Full point group                 C1      NOp   1
 Largest Abelian subgroup         C1      NOp   1
 Largest concise Abelian subgroup C1      NOp   1
                         Standard orientation:                         
 ---------------------------------------------------------------------
 Center     Atomic      Atomic             Coordinates (Angstroms)
 Number     Number       Type             X           Y           Z
 ---------------------------------------------------------------------
      1         17           0       -4.726911   -0.293186   -0.000526
      2          6           0       -3.069024    0.066999    0.000101
      3          7           0       -2.764670    1.374422   -0.000230
      4          6           0       -1.500953    1.687802    0.000224
      5          6           0       -0.483559    0.707291    0.000689
      6          6           0        0.898963    0.960858    0.000534
      7          6           0        1.741588   -0.120221    0.000145
      8         35           0        3.623157    0.110818   -0.000245
      9          6           0        1.206104   -1.427432   -0.000084
     10          7           0       -0.066926   -1.678934    0.000309
     11          6           0       -0.930214   -0.649352    0.000549
     12          7           0       -2.240548   -0.936455    0.000525
     13          1           0       -1.262227    2.744291   -0.000127
     14          1           0        1.268817    1.976175    0.000729
     15          1           0        1.868001   -2.283850   -0.000279
 ---------------------------------------------------------------------
 Rotational constants (GHZ):           2.8091872           0.2281053           0.2109742
 Leave Link  202 at Tue Sep 17 09:46:07 2024, MaxMem=  1342177280 cpu:               0.1 elap:               0.0
 (Enter /groups/ReismanLab/Software/Gaussian16_RevC/Linux_Binary_AVX2-enabled-CPU/g16/l301.exe)
 Standard basis: 6-31G(d,p) (6D, 7F)
 Ernie: Thresh=  0.10000D-02 Tol=  0.10000D-05 Strict=F.
 There are   214 symmetry adapted cartesian basis functions of A   symmetry.
 There are   214 symmetry adapted basis functions of A   symmetry.
   214 basis functions,   436 primitive gaussians,   214 cartesian basis functions
    59 alpha electrons       59 beta electrons
       nuclear repulsion energy       966.3244888971 Hartrees.
 IExCor=  402 DFT=T Ex+Corr=B3LYP ExCW=0 ScaHFX=  0.200000
 ScaDFX=  0.800000  0.720000  1.000000  0.810000 ScalE2=  1.000000  1.000000
 IRadAn=      5 IRanWt=     -1 IRanGd=            0 ICorTp=0 IEmpDi=141
 NAtoms=   15 NActive=   15 NUniq=   15 SFac= 1.00D+00 NAtFMM=   60 NAOKFM=F Big=F
 Integral buffers will be    131072 words long.
 Raffenetti 2 integral format.
 Two-electron integral symmetry is turned on.
 R6Disp:  Grimme-D3(BJ) Dispersion energy=       -0.0384374410 Hartrees.
 Nuclear repulsion after empirical dispersion term =      966.2860514561 Hartrees.
 Leave Link  301 at Tue Sep 17 09:46:07 2024, MaxMem=  1342177280 cpu:               0.1 elap:               0.1
 (Enter /groups/ReismanLab/Software/Gaussian16_RevC/Linux_Binary_AVX2-enabled-CPU/g16/l302.exe)
 NPDir=0 NMtPBC=     1 NCelOv=     1 NCel=       1 NClECP=     1 NCelD=      1
         NCelK=      1 NCelE2=     1 NClLst=     1 CellRange=     0.0.
 One-electron integrals computed using PRISM.
 One-electron integral symmetry used in STVInt
 NBasis=   214 RedAO= T EigKep=  5.84D-04  NBF=   214
 NBsUse=   214 1.00D-06 EigRej= -1.00D+00 NBFU=   214
 Precomputing XC quadrature grid using
 IXCGrd= 4 IRadAn=           5 IRanWt=          -1 IRanGd=           0 AccXCQ= 0.00D+00.
 Generated NRdTot=       0 NPtTot=           0 NUsed=           0 NTot=          32
 NSgBfM=   210   210   210   210   210 MxSgAt=    15 MxSgA2=    15.
 Leave Link  302 at Tue Sep 17 09:46:08 2024, MaxMem=  1342177280 cpu:               0.9 elap:               0.3
 (Enter /groups/ReismanLab/Software/Gaussian16_RevC/Linux_Binary_AVX2-enabled-CPU/g16/l303.exe)
 DipDrv:  MaxL=1.
 Leave Link  303 at Tue Sep 17 09:46:08 2024, MaxMem=  1342177280 cpu:               0.1 elap:               0.1
 (Enter /groups/ReismanLab/Software/Gaussian16_RevC/Linux_Binary_AVX2-enabled-CPU/g16/l401.exe)
 ExpMin= 1.43D-01 ExpMax= 5.74D+05 ExpMxC= 5.74D+03 IAcc=3 IRadAn=         5 AccDes= 0.00D+00
 Harris functional with IExCor=  402 and IRadAn=       5 diagonalized for initial guess.
 HarFok:  IExCor=  402 AccDes= 0.00D+00 IRadAn=         5 IDoV= 1 UseB2=F ITyADJ=14
 ICtDFT=  3500011 ScaDFX=  1.000000  1.000000  1.000000  1.000000
 FoFCou: FMM=F IPFlag=           0 FMFlag=      100000 FMFlg1=           0
         NFxFlg=           0 DoJE=T BraDBF=F KetDBF=T FulRan=T
         wScrn=  0.000000 ICntrl=       500 IOpCl=  0 I1Cent=   200000004 NGrid=           0
         NMat0=    1 NMatS0=      1 NMatT0=    0 NMatD0=    1 NMtDS0=    0 NMtDT0=    0
 Petite list used in FoFCou.
 Harris En= -3464.72117246292    
 JPrj=0 DoOrth=F DoCkMO=F.
 Leave Link  401 at Tue Sep 17 09:46:09 2024, MaxMem=  1342177280 cpu:               4.1 elap:               1.2
 (Enter /groups/ReismanLab/Software/Gaussian16_RevC/Linux_Binary_AVX2-enabled-CPU/g16/l502.exe)
 Integral symmetry usage will be decided dynamically.
 Closed shell SCF:
 Using DIIS extrapolation, IDIIS=  1040.
 NGot=  1342177280 LenX=  1342081466 LenY=  1342035229
 Requested convergence on RMS density matrix=1.00D-08 within  32 cycles.
 Requested convergence on MAX density matrix=1.00D-06.
 Requested convergence on             energy=1.00D-06.
 No special actions if energy rises.
 Fock matrices will be formed incrementally for  20 cycles.
 Integral accuracy reduced to 1.0D-05 until final iterations.

 Cycle   1  Pass 0  IDiag  1:
 FoFJK:  IHMeth= 1 ICntrl=       0 DoSepK=F KAlg= 0 I1Cent=           0 FoldK=F
 IRaf= 860000000 NMat=       1 IRICut=       1 DoRegI=T DoRafI=F ISym2E= 0 IDoP0=0 IntGTp=1.
 FoFCou: FMM=F IPFlag=           0 FMFlag=      100000 FMFlg1=           0
         NFxFlg=           0 DoJE=F BraDBF=F KetDBF=F FulRan=T
         wScrn=  0.000000 ICntrl=         0 IOpCl=  0 I1Cent=           0 NGrid=           0
         NMat0=    1 NMatS0=      1 NMatT0=    0 NMatD0=    1 NMtDS0=    0 NMtDT0=    0
 Symmetry not used in FoFCou.
 E= -3464.56339927156    
 DIIS: error= 1.60D-01 at cycle   1 NSaved=   1.
 NSaved= 1 IEnMin= 1 EnMin= -3464.56339927156     IErMin= 1 ErrMin= 1.60D-01
 ErrMax= 1.60D-01  0.00D+00 EMaxC= 1.00D-01 BMatC= 5.45D-01 BMatP= 5.45D-01
 IDIUse=3 WtCom= 0.00D+00 WtEn= 1.00D+00
 Coeff-Com:  0.100D+01
 Coeff-En:   0.100D+01
 Coeff:      0.100D+01
 Gap=     0.279 Goal=   None    Shift=    0.000
 GapD=    0.279 DampG=1.000 DampE=0.250 DampFc=0.2500 IDamp=-1.
 Damping current iteration by 2.50D-01
 RMSDP=5.58D-03 MaxDP=1.53D-01              OVMax= 2.17D-01

 Cycle   2  Pass 0  IDiag  1:
 RMSU=  1.35D-03    CP:  9.92D-01
 E= -3464.62666975670     Delta-E=       -0.063270485136 Rises=F Damp=T
 DIIS: error= 1.18D-01 at cycle   2 NSaved=   2.
 NSaved= 2 IEnMin= 2 EnMin= -3464.62666975670     IErMin= 2 ErrMin= 1.18D-01
 ErrMax= 1.18D-01  0.00D+00 EMaxC= 1.00D-01 BMatC= 2.41D-01 BMatP= 5.45D-01
 IDIUse=3 WtCom= 0.00D+00 WtEn= 1.00D+00
 Coeff-Com: -0.137D+01 0.237D+01
 Coeff-En:   0.000D+00 0.100D+01
 Coeff:      0.000D+00 0.100D+01
 Gap=     0.164 Goal=   None    Shift=    0.000
 RMSDP=2.89D-03 MaxDP=1.10D-01 DE=-6.33D-02 OVMax= 1.10D-01

 Cycle   3  Pass 0  IDiag  1:
 RMSU=  1.18D-03    CP:  9.71D-01  2.81D+00
 E= -3464.70421965000     Delta-E=       -0.077549893295 Rises=F Damp=F
 DIIS: error= 1.24D-02 at cycle   3 NSaved=   3.
 NSaved= 3 IEnMin= 3 EnMin= -3464.70421965000     IErMin= 3 ErrMin= 1.24D-02
 ErrMax= 1.24D-02  0.00D+00 EMaxC= 1.00D-01 BMatC= 4.02D-02 BMatP= 2.41D-01
 IDIUse=3 WtCom= 8.76D-01 WtEn= 1.24D-01
 Coeff-Com:  0.125D+01-0.159D+01 0.133D+01
 Coeff-En:   0.123D+00 0.000D+00 0.877D+00
 Coeff:      0.111D+01-0.139D+01 0.128D+01
 Gap=     0.171 Goal=   None    Shift=    0.000
 RMSDP=1.51D-03 MaxDP=4.95D-02 DE=-7.75D-02 OVMax= 5.97D-02

 Cycle   4  Pass 0  IDiag  1:
 RMSU=  9.63D-04    CP:  9.72D-01  1.98D+00  1.24D+00
 E= -3464.72882840000     Delta-E=       -0.024608750002 Rises=F Damp=F
 DIIS: error= 8.31D-03 at cycle   4 NSaved=   4.
 NSaved= 4 IEnMin= 4 EnMin= -3464.72882840000     IErMin= 4 ErrMin= 8.31D-03
 ErrMax= 8.31D-03  0.00D+00 EMaxC= 1.00D-01 BMatC= 1.28D-02 BMatP= 4.02D-02
 IDIUse=3 WtCom= 9.17D-01 WtEn= 8.31D-02
 Coeff-Com:  0.822D+00-0.107D+01 0.845D+00 0.406D+00
 Coeff-En:   0.000D+00 0.000D+00 0.185D+00 0.815D+00
 Coeff:      0.754D+00-0.984D+00 0.790D+00 0.440D+00
 Gap=     0.167 Goal=   None    Shift=    0.000
 RMSDP=7.30D-04 MaxDP=2.55D-02 DE=-2.46D-02 OVMax= 5.03D-02

 Cycle   5  Pass 0  IDiag  1:
 RMSU=  2.10D-04    CP:  9.72D-01  2.04D+00  1.32D+00  2.87D-01
 E= -3464.74129055304     Delta-E=       -0.012462153041 Rises=F Damp=F
 DIIS: error= 2.32D-03 at cycle   5 NSaved=   5.
 NSaved= 5 IEnMin= 5 EnMin= -3464.74129055304     IErMin= 5 ErrMin= 2.32D-03
 ErrMax= 2.32D-03  0.00D+00 EMaxC= 1.00D-01 BMatC= 8.11D-04 BMatP= 1.28D-02
 IDIUse=3 WtCom= 9.77D-01 WtEn= 2.32D-02
 Coeff-Com:  0.270D+00-0.354D+00 0.292D+00 0.246D+00 0.546D+00
 Coeff-En:   0.000D+00 0.000D+00 0.000D+00 0.194D-01 0.981D+00
 Coeff:      0.263D+00-0.346D+00 0.285D+00 0.241D+00 0.556D+00
 Gap=     0.166 Goal=   None    Shift=    0.000
 RMSDP=1.85D-04 MaxDP=5.87D-03 DE=-1.25D-02 OVMax= 1.31D-02

 Cycle   6  Pass 0  IDiag  1:
 RMSU=  7.78D-05    CP:  9.72D-01  2.08D+00  1.29D+00  3.98D-01  4.77D-01
 E= -3464.74205015198     Delta-E=       -0.000759598937 Rises=F Damp=F
 DIIS: error= 5.52D-04 at cycle   6 NSaved=   6.
 NSaved= 6 IEnMin= 6 EnMin= -3464.74205015198     IErMin= 6 ErrMin= 5.52D-04
 ErrMax= 5.52D-04  0.00D+00 EMaxC= 1.00D-01 BMatC= 7.54D-05 BMatP= 8.11D-04
 IDIUse=3 WtCom= 9.94D-01 WtEn= 5.52D-03
 Coeff-Com:  0.675D-01-0.891D-01 0.764D-01 0.930D-01 0.333D+00 0.520D+00
 Coeff-En:   0.000D+00 0.000D+00 0.000D+00 0.000D+00 0.538D-01 0.946D+00
 Coeff:      0.672D-01-0.886D-01 0.759D-01 0.925D-01 0.331D+00 0.522D+00
 Gap=     0.165 Goal=   None    Shift=    0.000
 RMSDP=5.77D-05 MaxDP=1.47D-03 DE=-7.60D-04 OVMax= 3.30D-03

 Cycle   7  Pass 0  IDiag  1:
 RMSU=  2.38D-05    CP:  9.72D-01  2.07D+00  1.30D+00  3.99D-01  5.92D-01
                    CP:  4.65D-01
 E= -3464.74212458422     Delta-E=       -0.000074432246 Rises=F Damp=F
 DIIS: error= 1.59D-04 at cycle   7 NSaved=   7.
 NSaved= 7 IEnMin= 7 EnMin= -3464.74212458422     IErMin= 7 ErrMin= 1.59D-04
 ErrMax= 1.59D-04  0.00D+00 EMaxC= 1.00D-01 BMatC= 3.99D-06 BMatP= 7.54D-05
 IDIUse=3 WtCom= 9.98D-01 WtEn= 1.59D-03
 Coeff-Com:  0.194D-01-0.257D-01 0.229D-01 0.339D-01 0.145D+00 0.286D+00
 Coeff-Com:  0.518D+00
 Coeff-En:   0.000D+00 0.000D+00 0.000D+00 0.000D+00 0.000D+00 0.000D+00
 Coeff-En:   0.100D+01
 Coeff:      0.194D-01-0.257D-01 0.228D-01 0.338D-01 0.145D+00 0.286D+00
 Coeff:      0.519D+00
 Gap=     0.165 Goal=   None    Shift=    0.000
 RMSDP=1.43D-05 MaxDP=3.80D-04 DE=-7.44D-05 OVMax= 1.13D-03

 Cycle   8  Pass 0  IDiag  1:
 RMSU=  9.12D-06    CP:  9.72D-01  2.07D+00  1.30D+00  3.98D-01  5.88D-01
                    CP:  5.26D-01  5.88D-01
 E= -3464.74212781443     Delta-E=       -0.000003230204 Rises=F Damp=F
 DIIS: error= 8.06D-05 at cycle   8 NSaved=   8.
 NSaved= 8 IEnMin= 8 EnMin= -3464.74212781443     IErMin= 8 ErrMin= 8.06D-05
 ErrMax= 8.06D-05  0.00D+00 EMaxC= 1.00D-01 BMatC= 1.01D-06 BMatP= 3.99D-06
 IDIUse=1 WtCom= 1.00D+00 WtEn= 0.00D+00
 Coeff-Com:  0.300D-02-0.402D-02 0.374D-02 0.739D-02 0.403D-01 0.105D+00
 Coeff-Com:  0.349D+00 0.495D+00
 Coeff:      0.300D-02-0.402D-02 0.374D-02 0.739D-02 0.403D-01 0.105D+00
 Coeff:      0.349D+00 0.495D+00
 Gap=     0.165 Goal=   None    Shift=    0.000
 RMSDP=5.96D-06 MaxDP=1.60D-04 DE=-3.23D-06 OVMax= 3.98D-04

 Initial convergence to 1.0D-05 achieved.  Increase integral accuracy.
 Cycle   9  Pass 1  IDiag  1:
 E= -3464.74210991019     Delta-E=        0.000017904234 Rises=F Damp=F
 DIIS: error= 3.10D-05 at cycle   1 NSaved=   1.
 NSaved= 1 IEnMin= 1 EnMin= -3464.74210991019     IErMin= 1 ErrMin= 3.10D-05
 ErrMax= 3.10D-05  0.00D+00 EMaxC= 1.00D-01 BMatC= 1.45D-07 BMatP= 1.45D-07
 IDIUse=1 WtCom= 1.00D+00 WtEn= 0.00D+00
 Coeff-Com:  0.100D+01
 Coeff:      0.100D+01
 Gap=     0.165 Goal=   None    Shift=    0.000
 RMSDP=5.96D-06 MaxDP=1.60D-04 DE= 1.79D-05 OVMax= 1.63D-04

 Cycle  10  Pass 1  IDiag  1:
 RMSU=  1.22D-05    CP:  1.00D+00
 E= -3464.74210992151     Delta-E=       -0.000000011315 Rises=F Damp=F
 DIIS: error= 1.98D-05 at cycle   2 NSaved=   2.
 NSaved= 2 IEnMin= 2 EnMin= -3464.74210992151     IErMin= 2 ErrMin= 1.98D-05
 ErrMax= 1.98D-05  0.00D+00 EMaxC= 1.00D-01 BMatC= 8.72D-08 BMatP= 1.45D-07
 IDIUse=1 WtCom= 1.00D+00 WtEn= 0.00D+00
 Coeff-Com:  0.410D+00 0.590D+00
 Coeff:      0.410D+00 0.590D+00
 Gap=     0.165 Goal=   None    Shift=    0.000
 RMSDP=2.86D-06 MaxDP=7.21D-05 DE=-1.13D-08 OVMax= 1.88D-04

 Cycle  11  Pass 1  IDiag  1:
 RMSU=  2.82D-06    CP:  1.00D+00  9.63D-01
 E= -3464.74210994949     Delta-E=       -0.000000027982 Rises=F Damp=F
 DIIS: error= 1.72D-05 at cycle   3 NSaved=   3.
 NSaved= 3 IEnMin= 3 EnMin= -3464.74210994949     IErMin= 3 ErrMin= 1.72D-05
 ErrMax= 1.72D-05  0.00D+00 EMaxC= 1.00D-01 BMatC= 6.20D-08 BMatP= 8.72D-08
 IDIUse=1 WtCom= 1.00D+00 WtEn= 0.00D+00
 Coeff-Com:  0.336D-01 0.450D+00 0.516D+00
 Coeff:      0.336D-01 0.450D+00 0.516D+00
 Gap=     0.165 Goal=   None    Shift=    0.000
 RMSDP=1.42D-06 MaxDP=3.67D-05 DE=-2.80D-08 OVMax= 1.04D-04

 Cycle  12  Pass 1  IDiag  1:
 RMSU=  4.47D-07    CP:  1.00D+00  9.91D-01  5.39D-01
 E= -3464.74211001400     Delta-E=       -0.000000064507 Rises=F Damp=F
 DIIS: error= 3.25D-06 at cycle   4 NSaved=   4.
 NSaved= 4 IEnMin= 4 EnMin= -3464.74211001400     IErMin= 4 ErrMin= 3.25D-06
 ErrMax= 3.25D-06  0.00D+00 EMaxC= 1.00D-01 BMatC= 2.62D-09 BMatP= 6.20D-08
 IDIUse=1 WtCom= 1.00D+00 WtEn= 0.00D+00
 Coeff-Com: -0.125D-02 0.240D+00 0.305D+00 0.457D+00
 Coeff:     -0.125D-02 0.240D+00 0.305D+00 0.457D+00
 Gap=     0.165 Goal=   None    Shift=    0.000
 RMSDP=2.46D-07 MaxDP=9.67D-06 DE=-6.45D-08 OVMax= 1.27D-05

 Cycle  13  Pass 1  IDiag  1:
 RMSU=  1.12D-07    CP:  1.00D+00  9.91D-01  5.63D-01  5.35D-01
 E= -3464.74211001622     Delta-E=       -0.000000002221 Rises=F Damp=F
 DIIS: error= 5.26D-07 at cycle   5 NSaved=   5.
 NSaved= 5 IEnMin= 5 EnMin= -3464.74211001622     IErMin= 5 ErrMin= 5.26D-07
 ErrMax= 5.26D-07  0.00D+00 EMaxC= 1.00D-01 BMatC= 8.09D-11 BMatP= 2.62D-09
 IDIUse=1 WtCom= 1.00D+00 WtEn= 0.00D+00
 Coeff-Com: -0.206D-02 0.110D+00 0.142D+00 0.244D+00 0.506D+00
 Coeff:     -0.206D-02 0.110D+00 0.142D+00 0.244D+00 0.506D+00
 Gap=     0.165 Goal=   None    Shift=    0.000
 RMSDP=5.62D-08 MaxDP=1.69D-06 DE=-2.22D-09 OVMax= 2.41D-06

 Cycle  14  Pass 1  IDiag  1:
 RMSU=  3.63D-08    CP:  1.00D+00  9.91D-01  5.60D-01  5.46D-01  6.30D-01
 E= -3464.74211001631     Delta-E=       -0.000000000091 Rises=F Damp=F
 DIIS: error= 2.49D-07 at cycle   6 NSaved=   6.
 NSaved= 6 IEnMin= 6 EnMin= -3464.74211001631     IErMin= 6 ErrMin= 2.49D-07
 ErrMax= 2.49D-07  0.00D+00 EMaxC= 1.00D-01 BMatC= 7.72D-12 BMatP= 8.09D-11
 IDIUse=1 WtCom= 1.00D+00 WtEn= 0.00D+00
 Coeff-Com: -0.111D-02 0.522D-01 0.672D-01 0.118D+00 0.306D+00 0.458D+00
 Coeff:     -0.111D-02 0.522D-01 0.672D-01 0.118D+00 0.306D+00 0.458D+00
 Gap=     0.165 Goal=   None    Shift=    0.000
 RMSDP=1.87D-08 MaxDP=5.08D-07 DE=-9.09D-11 OVMax= 1.60D-06

 Cycle  15  Pass 1  IDiag  1:
 RMSU=  1.46D-08    CP:  1.00D+00  9.91D-01  5.60D-01  5.41D-01  6.83D-01
                    CP:  7.31D-01
 E= -3464.74211001634     Delta-E=       -0.000000000028 Rises=F Damp=F
 DIIS: error= 5.91D-08 at cycle   7 NSaved=   7.
 NSaved= 7 IEnMin= 7 EnMin= -3464.74211001634     IErMin= 7 ErrMin= 5.91D-08
 ErrMax= 5.91D-08  0.00D+00 EMaxC= 1.00D-01 BMatC= 8.61D-13 BMatP= 7.72D-12
 IDIUse=1 WtCom= 1.00D+00 WtEn= 0.00D+00
 Coeff-Com: -0.108D-03 0.168D-02 0.217D-02 0.358D-02 0.452D-01 0.267D+00
 Coeff-Com:  0.680D+00
 Coeff:     -0.108D-03 0.168D-02 0.217D-02 0.358D-02 0.452D-01 0.267D+00
 Coeff:      0.680D+00
 Gap=     0.165 Goal=   None    Shift=    0.000
 RMSDP=5.60D-09 MaxDP=1.70D-07 DE=-2.82D-11 OVMax= 3.69D-07

 SCF Done:  E(RB3LYP) =  -3464.74211002     A.U. after   15 cycles
            NFock= 15  Conv=0.56D-08     -V/T= 2.0060
 KE= 3.443999661542D+03 PE=-1.016391705839D+04 EE= 2.288889235375D+03
 Leave Link  502 at Tue Sep 17 09:46:18 2024, MaxMem=  1342177280 cpu:              64.9 elap:               9.2
 (Enter /groups/ReismanLab/Software/Gaussian16_RevC/Linux_Binary_AVX2-enabled-CPU/g16/l508.exe)
 QCSCF skips out because SCF is already converged.
 Leave Link  508 at Tue Sep 17 09:46:18 2024, MaxMem=  1342177280 cpu:               0.1 elap:               0.0
 (Enter /groups/ReismanLab/Software/Gaussian16_RevC/Linux_Binary_AVX2-enabled-CPU/g16/l601.exe)
 Copying SCF densities to generalized density rwf, IOpCl= 0 IROHF=0.

 **********************************************************************

            Population analysis using the SCF Density.

 **********************************************************************

 Orbital symmetries:
       Occupied  (A) (A) (A) (A) (A) (A) (A) (A) (A) (A) (A) (A)
                 (A) (A) (A) (A) (A) (A) (A) (A) (A) (A) (A) (A)
                 (A) (A) (A) (A) (A) (A) (A) (A) (A) (A) (A) (A)
                 (A) (A) (A) (A) (A) (A) (A) (A) (A) (A) (A) (A)
                 (A) (A) (A) (A) (A) (A) (A) (A) (A) (A) (A)
       Virtual   (A) (A) (A) (A) (A) (A) (A) (A) (A) (A) (A) (A)
                 (A) (A) (A) (A) (A) (A) (A) (A) (A) (A) (A) (A)
                 (A) (A) (A) (A) (A) (A) (A) (A) (A) (A) (A) (A)
                 (A) (A) (A) (A) (A) (A) (A) (A) (A) (A) (A) (A)
                 (A) (A) (A) (A) (A) (A) (A) (A) (A) (A) (A) (A)
                 (A) (A) (A) (A) (A) (A) (A) (A) (A) (A) (A) (A)
                 (A) (A) (A) (A) (A) (A) (A) (A) (A) (A) (A) (A)
                 (A) (A) (A) (A) (A) (A) (A) (A) (A) (A) (A) (A)
                 (A) (A) (A) (A) (A) (A) (A) (A) (A) (A) (A) (A)
                 (A) (A) (A) (A) (A) (A) (A) (A) (A) (A) (A) (A)
                 (A) (A) (A) (A) (A) (A) (A) (A) (A) (A) (A) (A)
                 (A) (A) (A) (A) (A) (A) (A) (A) (A) (A) (A) (A)
                 (A) (A) (A) (A) (A) (A) (A) (A) (A) (A) (A)
 The electronic state is 1-A.
 Alpha  occ. eigenvalues -- -482.93810-101.55817 -61.89974 -56.42120 -56.41693
 Alpha  occ. eigenvalues --  -56.41686 -14.36658 -14.35970 -14.35724 -10.32569
 Alpha  occ. eigenvalues --  -10.28876 -10.27956 -10.27325 -10.26581 -10.25008
 Alpha  occ. eigenvalues --  -10.24283  -9.47626  -8.61117  -7.24011  -7.23084
 Alpha  occ. eigenvalues --   -7.22949  -6.56537  -6.55231  -6.55192  -2.68106
 Alpha  occ. eigenvalues --   -2.67735  -2.67706  -2.66663  -2.66663  -1.03844
 Alpha  occ. eigenvalues --   -0.98637  -0.92468  -0.88135  -0.86749  -0.82267
 Alpha  occ. eigenvalues --   -0.76134  -0.71336  -0.67010  -0.66218  -0.58859
 Alpha  occ. eigenvalues --   -0.56511  -0.53716  -0.49824  -0.48907  -0.48244
 Alpha  occ. eigenvalues --   -0.45354  -0.44317  -0.42960  -0.42062  -0.37443
 Alpha  occ. eigenvalues --   -0.36021  -0.33656  -0.32752  -0.31523  -0.31449
 Alpha  occ. eigenvalues --   -0.31055  -0.29218  -0.26884  -0.26441
 Alpha virt. eigenvalues --   -0.09903  -0.05899  -0.02138  -0.01505   0.04655
 Alpha virt. eigenvalues --    0.04953   0.10423   0.12491   0.14015   0.15588
 Alpha virt. eigenvalues --    0.17824   0.21888   0.22049   0.25388   0.27158
 Alpha virt. eigenvalues --    0.29150   0.29926   0.31763   0.33151   0.37704
 Alpha virt. eigenvalues --    0.38773   0.40363   0.41948   0.42939   0.43688
 Alpha virt. eigenvalues --    0.43857   0.44253   0.44381   0.45367   0.46012
 Alpha virt. eigenvalues --    0.47142   0.48395   0.49235   0.52120   0.53715
 Alpha virt. eigenvalues --    0.54453   0.54779   0.55347   0.57460   0.58998
 Alpha virt. eigenvalues --    0.60333   0.61748   0.63174   0.64702   0.66861
 Alpha virt. eigenvalues --    0.70517   0.72037   0.72334   0.74848   0.76125
 Alpha virt. eigenvalues --    0.77592   0.77699   0.78717   0.79691   0.82273
 Alpha virt. eigenvalues --    0.82496   0.83289   0.85377   0.86913   0.87657
 Alpha virt. eigenvalues --    0.88622   0.88667   0.94341   0.95304   0.95712
 Alpha virt. eigenvalues --    0.99853   1.02238   1.04424   1.08016   1.11491
 Alpha virt. eigenvalues --    1.13213   1.16348   1.17352   1.19177   1.20630
 Alpha virt. eigenvalues --    1.24537   1.27283   1.30280   1.30845   1.35116
 Alpha virt. eigenvalues --    1.37168   1.37896   1.41696   1.41880   1.47165
 Alpha virt. eigenvalues --    1.50950   1.53769   1.54959   1.56169   1.60273
 Alpha virt. eigenvalues --    1.63691   1.68266   1.74539   1.75212   1.77443
 Alpha virt. eigenvalues --    1.77453   1.78668   1.82010   1.85647   1.88935
 Alpha virt. eigenvalues --    1.95485   1.96511   2.00967   2.02744   2.05319
 Alpha virt. eigenvalues --    2.08150   2.12366   2.13628   2.20514   2.20767
 Alpha virt. eigenvalues --    2.23190   2.27042   2.28501   2.30013   2.31775
 Alpha virt. eigenvalues --    2.36122   2.38849   2.39072   2.46525   2.48643
 Alpha virt. eigenvalues --    2.52116   2.52639   2.55005   2.55665   2.56587
 Alpha virt. eigenvalues --    2.64323   2.67789   2.67985   2.69289   2.71947
 Alpha virt. eigenvalues --    2.74232   2.74714   2.90003   2.95304   2.99287
 Alpha virt. eigenvalues --    3.00926   3.16319   3.23349   3.27063   3.37467
 Alpha virt. eigenvalues --    3.54199   3.65084   4.00050   4.04282   4.04893
 Alpha virt. eigenvalues --    4.12980   4.21119   4.23477   4.32123   4.36237
 Alpha virt. eigenvalues --    4.40593   4.45415   4.72811   8.58056  72.79390
          Condensed to atoms (all electrons):
               1          2          3          4          5          6
     1  Cl  16.806208   0.304442  -0.089441   0.004982   0.000358   0.000023
     2  C    0.304442   4.803158   0.373914  -0.078534  -0.026730   0.001766
     3  N   -0.089441   0.373914   6.766994   0.484908  -0.005960   0.006988
     4  C    0.004982  -0.078534   0.484908   4.856772   0.363238  -0.058739
     5  C    0.000358  -0.026730  -0.005960   0.363238   5.095566   0.389930
     6  C    0.000023   0.001766   0.006988  -0.058739   0.389930   5.066056
     7  C   -0.000000  -0.000060  -0.000287   0.006174   0.001235   0.498720
     8  Br   0.000000  -0.000001   0.000001  -0.000097   0.005139  -0.059794
     9  C    0.000004  -0.000039   0.000072   0.000940  -0.022098  -0.050319
    10  N   -0.000095   0.003934  -0.000447   0.007137  -0.093723  -0.048741
    11  C    0.004263  -0.051205  -0.046485  -0.034157   0.397638  -0.048856
    12  N   -0.092556   0.422212  -0.050060  -0.032430  -0.091125   0.006297
    13  H   -0.000231   0.006636  -0.049440   0.391035  -0.070071  -0.000859
    14  H   -0.000000   0.000025   0.000117  -0.005895  -0.043249   0.376731
    15  H   -0.000000   0.000001   0.000000   0.000022   0.000320   0.003477
               7          8          9         10         11         12
     1  Cl  -0.000000   0.000000   0.000004  -0.000095   0.004263  -0.092556
     2  C   -0.000060  -0.000001  -0.000039   0.003934  -0.051205   0.422212
     3  N   -0.000287   0.000001   0.000072  -0.000447  -0.046485  -0.050060
     4  C    0.006174  -0.000097   0.000940   0.007137  -0.034157  -0.032430
     5  C    0.001235   0.005139  -0.022098  -0.093723   0.397638  -0.091125
     6  C    0.498720  -0.059794  -0.050319  -0.048741  -0.048856   0.006297
     7  C    4.977254   0.251992   0.409769  -0.013623  -0.036434   0.000040
     8  Br   0.251992  34.935074  -0.046386   0.004144   0.000841   0.000009
     9  C    0.409769  -0.046386   4.770208   0.476741  -0.059075   0.002487
    10  N   -0.013623   0.004144   0.476741   6.856419   0.397152  -0.091598
    11  C   -0.036434   0.000841  -0.059075   0.397152   4.658735   0.415308
    12  N    0.000040   0.000009   0.002487  -0.091598   0.415308   6.916634
    13  H   -0.000139  -0.000001   0.000023  -0.000129   0.002313  -0.000558
    14  H   -0.043610  -0.003027   0.005017  -0.000525   0.003389  -0.000146
    15  H   -0.068682   0.002541   0.394183  -0.049348   0.004542  -0.000078
              13         14         15
     1  Cl  -0.000231  -0.000000  -0.000000
     2  C    0.006636   0.000025   0.000001
     3  N   -0.049440   0.000117   0.000000
     4  C    0.391035  -0.005895   0.000022
     5  C   -0.070071  -0.043249   0.000320
     6  C   -0.000859   0.376731   0.003477
     7  C   -0.000139  -0.043610  -0.068682
     8  Br  -0.000001  -0.003027   0.002541
     9  C    0.000023   0.005017   0.394183
    10  N   -0.000129  -0.000525  -0.049348
    11  C    0.002313   0.003389   0.004542
    12  N   -0.000558  -0.000146  -0.000078
    13  H    0.591459   0.004538  -0.000000
    14  H    0.004538   0.575759  -0.000153
    15  H   -0.000000  -0.000153   0.578762
 Mulliken charges:
               1
     1  Cl   0.062043
     2  C    0.240480
     3  N   -0.390874
     4  C    0.094646
     5  C    0.099532
     6  C   -0.082681
     7  C    0.017652
     8  Br  -0.090435
     9  C    0.118473
    10  N   -0.447298
    11  C    0.392033
    12  N   -0.404437
    13  H    0.125423
    14  H    0.131030
    15  H    0.134413
 Sum of Mulliken charges =  -0.00000
 Mulliken charges with hydrogens summed into heavy atoms:
               1
     1  Cl   0.062043
     2  C    0.240480
     3  N   -0.390874
     4  C    0.220069
     5  C    0.099532
     6  C    0.048349
     7  C    0.017652
     8  Br  -0.090435
     9  C    0.252886
    10  N   -0.447298
    11  C    0.392033
    12  N   -0.404437
 Electronic spatial extent (au):  <R**2>=           4273.2023
 Charge=             -0.0000 electrons
 Dipole moment (field-independent basis, Debye):
    X=              3.1583    Y=              2.4644    Z=              0.0006  Tot=              4.0060
 Quadrupole moment (field-independent basis, Debye-Ang):
   XX=            -94.5074   YY=            -86.1626   ZZ=            -85.4907
   XY=             -1.8606   XZ=             -0.0015   YZ=              0.0033
 Traceless Quadrupole moment (field-independent basis, Debye-Ang):
   XX=             -5.7871   YY=              2.5576   ZZ=              3.2295
   XY=             -1.8606   XZ=             -0.0015   YZ=              0.0033
 Octapole moment (field-independent basis, Debye-Ang**2):
  XXX=            131.1873  YYY=             19.5380  ZZZ=             -0.0106  XYY=             50.9267
  XXY=            -10.0028  XXZ=             -0.0036  XZZ=             27.8653  YZZ=             -0.2045
  YYZ=             -0.0040  XYZ=             -0.0048
 Hexadecapole moment (field-independent basis, Debye-Ang**3):
 XXXX=          -4139.7548 YYYY=           -539.5829 ZZZZ=            -86.2162 XXXY=             74.4683
 XXXZ=             -0.0338 YYYX=              0.0666 YYYZ=              0.0085 ZZZX=             -0.0259
 ZZZY=             -0.0042 XXYY=           -824.7288 XXZZ=           -717.4102 YYZZ=           -109.0625
 XXYZ=              0.0222 YYXZ=             -0.0090 ZZXY=              5.6931
 N-N= 9.662860514561D+02 E-N=-1.016391705874D+04  KE= 3.443999661542D+03
 No NMR shielding tensors so no spin-rotation constants.
 Leave Link  601 at Tue Sep 17 09:46:18 2024, MaxMem=  1342177280 cpu:               0.6 elap:               0.1
 (Enter /groups/ReismanLab/Software/Gaussian16_RevC/Linux_Binary_AVX2-enabled-CPU/g16/l701.exe)
 ... and contract with generalized density number  0.
 Compute integral first derivatives.
 R6Disp: Adding Grimme-D3(BJ) dispersion energy 1st derivatives to the gradient.
 Leave Link  701 at Tue Sep 17 09:46:19 2024, MaxMem=  1342177280 cpu:               0.4 elap:               0.1
 (Enter /groups/ReismanLab/Software/Gaussian16_RevC/Linux_Binary_AVX2-enabled-CPU/g16/l702.exe)
 L702 exits ... SP integral derivatives will be done elsewhere.
 Leave Link  702 at Tue Sep 17 09:46:19 2024, MaxMem=  1342177280 cpu:               0.1 elap:               0.1
 (Enter /groups/ReismanLab/Software/Gaussian16_RevC/Linux_Binary_AVX2-enabled-CPU/g16/l703.exe)
 Integral derivatives from FoFJK, PRISM(SPDF).
 Compute integral first derivatives, UseDBF=F ICtDFT=           0.
 Calling FoFJK, ICntrl=      2127 FMM=F ISym2X=0 I1Cent= 0 IOpClX= 0 NMat=1 NMatS=1 NMatT=0.
 FoFJK:  IHMeth= 1 ICntrl=    2127 DoSepK=F KAlg= 0 I1Cent=           0 FoldK=F
 IRaf=         0 NMat=       1 IRICut=       1 DoRegI=T DoRafI=F ISym2E= 0 IDoP0=0 IntGTp=1.
 FoFCou: FMM=F IPFlag=           0 FMFlag=      100000 FMFlg1=         800
         NFxFlg=           0 DoJE=F BraDBF=F KetDBF=F FulRan=T
         wScrn=  0.000000 ICntrl=      2127 IOpCl=  0 I1Cent=           0 NGrid=           0
         NMat0=    1 NMatS0=      1 NMatT0=    0 NMatD0=    1 NMtDS0=    0 NMtDT0=    0
 Symmetry not used in FoFCou.
 Leave Link  703 at Tue Sep 17 09:46:21 2024, MaxMem=  1342177280 cpu:              19.8 elap:               2.9
 (Enter /groups/ReismanLab/Software/Gaussian16_RevC/Linux_Binary_AVX2-enabled-CPU/g16/l716.exe)
 Dipole        = 1.24257708D+00 9.69585533D-01 2.21611546D-04
 ***** Axes restored to original set *****
 -------------------------------------------------------------------
 Center     Atomic                   Forces (Hartrees/Bohr)
 Number     Number              X              Y              Z
 -------------------------------------------------------------------
      1       17          -0.024760972   -0.004923254    0.000001164
      2        6           0.017097642    0.000130785   -0.000008473
      3        7          -0.014489969    0.013224779    0.000010560
      4        6           0.009338219    0.000836909   -0.000006506
      5        6          -0.001166801   -0.004367581   -0.000026588
      6        6           0.000825894    0.001768688    0.000012677
      7        6           0.005161972    0.005887392   -0.000010845
      8       35           0.001886813   -0.000310319    0.000000736
      9        6           0.012236703   -0.001018233    0.000034667
     10        7          -0.012044839   -0.015945282   -0.000009906
     11        6           0.003684553    0.013836457    0.000013927
     12        7          -0.007711787   -0.014215531   -0.000004599
     13        1           0.002971503    0.004124067    0.000008289
     14        1           0.002201962    0.002507349   -0.000005014
     15        1           0.004769107   -0.001536227   -0.000010089
 -------------------------------------------------------------------
 Cartesian Forces:  Max     0.024760972 RMS     0.007557806
 Leave Link  716 at Tue Sep 17 09:46:22 2024, MaxMem=  1342177280 cpu:               0.1 elap:               0.0
 (Enter /groups/ReismanLab/Software/Gaussian16_RevC/Linux_Binary_AVX2-enabled-CPU/g16/l103.exe)

 GradGradGradGradGradGradGradGradGradGradGradGradGradGradGradGradGradGrad
 Berny optimization.
 FormGI is forming the generalized inverse of G from B-inverse, IUseBI=4.
 Internal  Forces:  Max     0.025243852 RMS     0.005783132
 Search for a local minimum.
 Step number   1 out of a maximum of   82
 All quantities printed in internal units (Hartrees-Bohrs-Radians)
 RMS Force = .57831D-02 SwitMx=.10000D-02 MixMth= 1
 Mixed Optimization -- RFO/linear search
 Second derivative matrix not updated -- first step.
 ITU=  0
     Eigenvalues ---    0.01920   0.01957   0.02042   0.02140   0.02190
     Eigenvalues ---    0.02245   0.02253   0.02335   0.02502   0.02633
     Eigenvalues ---    0.02728   0.02766   0.16000   0.16000   0.16000
     Eigenvalues ---    0.18463   0.23170   0.23390   0.23645   0.25000
     Eigenvalues ---    0.25000   0.25000   0.25000   0.25000   0.35619
     Eigenvalues ---    0.35708   0.35924   0.36307   0.37465   0.42236
     Eigenvalues ---    0.42565   0.43595   0.49158   0.54071   0.55105
     Eigenvalues ---    0.55511   0.64055   0.65555   0.65781
 RFO step:  Lambda=-4.98741160D-03 EMin= 1.91997453D-02
 Linear search not attempted -- first point.
 Iteration  1 RMS(Cart)=  0.02079756 RMS(Int)=  0.00010377
 Iteration  2 RMS(Cart)=  0.00014586 RMS(Int)=  0.00001044
 Iteration  3 RMS(Cart)=  0.00000001 RMS(Int)=  0.00001044
 ITry= 1 IFail=0 DXMaxC= 1.08D-01 DCOld= 1.00D+10 DXMaxT= 3.00D-01 DXLimC= 3.00D+00 Rises=F
 Variable       Old X    -DE/DX   Delta X   Delta X   Delta X     New X
                                 (Linear)    (Quad)   (Total)
    R1        3.20604   0.02524   0.00000   0.06859   0.06859   3.27462
    R2        2.53673   0.01429   0.00000   0.02649   0.02651   2.56324
    R3        2.45904   0.01162   0.00000   0.01840   0.01841   2.47745
    R4        2.46041   0.01543   0.00000   0.02314   0.02315   2.48356
    R5        2.67013   0.00497   0.00000   0.00966   0.00965   2.67979
    R6        2.04681   0.00469   0.00000   0.01298   0.01298   2.05979
    R7        2.65617   0.00717   0.00000   0.01373   0.01372   2.66988
    R8        2.69906   0.00326   0.00000   0.00482   0.00480   2.70386
    R9        2.59020   0.00302   0.00000   0.00493   0.00492   2.59512
   R10        2.04201   0.00312   0.00000   0.00856   0.00856   2.05056
   R11        3.58235   0.00184   0.00000   0.00969   0.00969   3.59205
   R12        2.66950   0.00736   0.00000   0.01778   0.01778   2.68727
   R13        2.45218   0.02078   0.00000   0.03180   0.03181   2.48399
   R14        2.04541   0.00412   0.00000   0.01137   0.01137   2.05678
   R15        2.53907   0.01451   0.00000   0.02642   0.02643   2.56549
   R16        2.53491   0.01492   0.00000   0.02586   0.02585   2.56076
    A1        2.01344  -0.00079   0.00000  -0.00540  -0.00542   2.00803
    A2        2.04704   0.00019   0.00000  -0.00155  -0.00156   2.04548
    A3        2.22271   0.00060   0.00000   0.00695   0.00697   2.22968
    A4        2.04259  -0.00440   0.00000  -0.01352  -0.01348   2.02911
    A5        2.13157   0.00251   0.00000   0.00733   0.00732   2.13890
    A6        2.03610   0.00076   0.00000   0.00852   0.00852   2.04462
    A7        2.11551  -0.00326   0.00000  -0.01584  -0.01584   2.09966
    A8        2.19326  -0.00490   0.00000  -0.01200  -0.01197   2.18128
    A9        2.01968   0.00195   0.00000   0.00380   0.00378   2.02346
   A10        2.07025   0.00296   0.00000   0.00820   0.00820   2.07844
   A11        2.05147   0.00239   0.00000   0.00220   0.00218   2.05365
   A12        2.10152   0.00002   0.00000   0.00628   0.00630   2.10782
   A13        2.13019  -0.00241   0.00000  -0.00849  -0.00848   2.12171
   A14        2.11069   0.00102   0.00000   0.00489   0.00490   2.11559
   A15        2.09073  -0.00015   0.00000  -0.00237  -0.00239   2.08835
   A16        2.08176  -0.00087   0.00000  -0.00252  -0.00251   2.07925
   A17        2.15463  -0.00040   0.00000   0.00282   0.00282   2.15746
   A18        2.09483  -0.00272   0.00000  -0.01912  -0.01912   2.07571
   A19        2.03372   0.00312   0.00000   0.01630   0.01630   2.05002
   A20        2.07352  -0.00375   0.00000  -0.00805  -0.00803   2.06548
   A21        2.12576  -0.00105   0.00000  -0.00279  -0.00278   2.12299
   A22        2.10455   0.00140   0.00000   0.00136   0.00133   2.10588
   A23        2.05287  -0.00035   0.00000   0.00143   0.00145   2.05432
   A24        2.04527  -0.00206   0.00000  -0.00593  -0.00593   2.03934
    D1       -3.14158  -0.00001   0.00000  -0.00032  -0.00032   3.14129
    D2       -0.00030   0.00001   0.00000   0.00036   0.00036   0.00006
    D3        3.14120   0.00002   0.00000   0.00061   0.00061  -3.14138
    D4       -0.00009  -0.00000   0.00000  -0.00007  -0.00008  -0.00016
    D5        0.00029  -0.00001   0.00000  -0.00033  -0.00033  -0.00005
    D6        3.14151   0.00000   0.00000   0.00014   0.00014  -3.14153
    D7        3.14102   0.00001   0.00000   0.00045   0.00045   3.14147
    D8        0.00006   0.00000   0.00000   0.00007   0.00007   0.00013
    D9       -0.00019  -0.00000   0.00000  -0.00004  -0.00004  -0.00024
   D10       -3.14115  -0.00001   0.00000  -0.00043  -0.00042  -3.14157
   D11       -3.14085  -0.00001   0.00000  -0.00046  -0.00046  -3.14131
   D12        0.00076  -0.00001   0.00000  -0.00044  -0.00044   0.00032
   D13        0.00009  -0.00000   0.00000  -0.00007  -0.00007   0.00002
   D14       -3.14149  -0.00000   0.00000  -0.00005  -0.00005  -3.14154
   D15        3.14103   0.00001   0.00000   0.00039   0.00039   3.14142
   D16       -0.00045   0.00000   0.00000   0.00021   0.00021  -0.00024
   D17        0.00003   0.00000   0.00000   0.00004   0.00004   0.00007
   D18       -3.14145  -0.00000   0.00000  -0.00014  -0.00014  -3.14159
   D19        3.14150   0.00000   0.00000   0.00003   0.00003   3.14153
   D20        0.00000  -0.00000   0.00000  -0.00008  -0.00008  -0.00008
   D21       -0.00011  -0.00000   0.00000   0.00001   0.00001  -0.00010
   D22        3.14158  -0.00000   0.00000  -0.00010  -0.00010   3.14148
   D23       -0.00024   0.00001   0.00000   0.00029   0.00029   0.00006
   D24       -3.14147  -0.00001   0.00000  -0.00019  -0.00018   3.14153
   D25        3.14145   0.00001   0.00000   0.00018   0.00018  -3.14155
   D26        0.00021  -0.00001   0.00000  -0.00030  -0.00029  -0.00008
   D27        0.00036  -0.00001   0.00000  -0.00033  -0.00033   0.00003
   D28       -3.14158   0.00000   0.00000   0.00013   0.00014  -3.14144
   D29       -0.00025   0.00000   0.00000   0.00016   0.00016  -0.00009
   D30        3.14123   0.00001   0.00000   0.00033   0.00033   3.14156
   D31        0.00046  -0.00001   0.00000  -0.00021  -0.00021   0.00025
   D32       -3.14102  -0.00001   0.00000  -0.00038  -0.00038  -3.14141
         Item               Value     Threshold  Converged?
 Maximum Force            0.025244     0.000450     NO 
 RMS     Force            0.005783     0.000300     NO 
 Maximum Displacement     0.108301     0.001800     NO 
 RMS     Displacement     0.020804     0.001200     NO 
 Predicted change in Energy=-2.522075D-03
 Lowest energy point so far.  Saving SCF results.
 GradGradGradGradGradGradGradGradGradGradGradGradGradGradGradGradGradGrad

 Leave Link  103 at Tue Sep 17 09:46:22 2024, MaxMem=  1342177280 cpu:               0.1 elap:               0.0
 (Enter /groups/ReismanLab/Software/Gaussian16_RevC/Linux_Binary_AVX2-enabled-CPU/g16/l202.exe)
                          Input orientation:                          
 ---------------------------------------------------------------------
 Center     Atomic      Atomic             Coordinates (Angstroms)
 Number     Number       Type             X           Y           Z
 ---------------------------------------------------------------------
      1         17           0       -4.896562   -0.252861    0.000185
      2          6           0       -3.199072    0.095447   -0.000074
      3          7           0       -2.883439    1.414623   -0.000050
      4          6           0       -1.601872    1.705872    0.000118
      5          6           0       -0.592970    0.709341    0.000322
      6          6           0        0.796772    0.963781    0.000364
      7          6           0        1.643016   -0.117776    0.000227
      8         35           0        3.530370    0.108162    0.000172
      9          6           0        1.103277   -1.433410    0.000147
     10          7           0       -0.185679   -1.691140    0.000132
     11          6           0       -1.051972   -0.645858    0.000163
     12          7           0       -2.377717   -0.926374    0.000111
     13          1           0       -1.331823    2.761883    0.000201
     14          1           0        1.174907    1.980874    0.000535
     15          1           0        1.784754   -2.282062   -0.000023
 ---------------------------------------------------------------------
                    Distance matrix (angstroms):
                    1          2          3          4          5
     1  Cl   0.000000
     2  C    1.732856   0.000000
     3  N    2.614033   1.356410   0.000000
     4  C    3.832965   2.268152   1.314245   0.000000
     5  C    4.409845   2.677430   2.396596   1.418082   0.000000
     6  C    5.821879   4.089104   3.707724   2.510815   1.412842
     7  C    6.540973   4.846780   4.778812   3.722229   2.384063
     8  Br   8.434662   6.729454   6.545517   5.375183   4.166936
     9  C    6.114881   4.565919   4.899510   4.144023   2.732881
    10  N    4.925552   3.503203   4.113839   3.680393   2.434789
    11  C    3.864624   2.271469   2.756784   2.415166   1.430821
    12  N    2.607336   1.311009   2.395000   2.744204   2.420927
    13  H    4.668624   3.255227   2.054902   1.089994   2.181474
    14  H    6.469336   4.763038   4.097660   2.790364   2.177656
    15  H    6.982667   5.521872   5.954621   5.231907   3.821265
                    6          7          8          9         10
     6  C    0.000000
     7  C    1.373278   0.000000
     8  Br   2.864375   1.900830   0.000000
     9  C    2.416706   1.422044   2.875277   0.000000
    10  N    2.830868   2.412385   4.128742   1.314471   0.000000
    11  C    2.451284   2.746239   4.643964   2.294632   1.357600
    12  N    3.694600   4.101234   5.997979   3.517728   2.321615
    13  H    2.786411   4.140302   5.539238   4.850793   4.598158
    14  H    1.085110   2.150223   3.009195   3.415035   3.915978
    15  H    3.392875   2.168921   2.959787   1.088403   2.057133
                   11         12         13         14         15
    11  C    0.000000
    12  N    1.355097   0.000000
    13  H    3.419213   3.833684   0.000000
    14  H    3.443648   4.590559   2.625580   0.000000
    15  H    3.274779   4.377677   5.929117   4.306336   0.000000
 Stoichiometry    C7H3BrClN3
 Framework group  C1[X(C7H3BrClN3)]
 Deg. of freedom    39
 Full point group                 C1      NOp   1
 RotChk:  IX=0 Diff= 1.10D-03
 Largest Abelian subgroup         C1      NOp   1
 Largest concise Abelian subgroup C1      NOp   1
                         Standard orientation:                         
 ---------------------------------------------------------------------
 Center     Atomic      Atomic             Coordinates (Angstroms)
 Number     Number       Type             X           Y           Z
 ---------------------------------------------------------------------
      1         17           0       -4.780053   -0.285498    0.000025
      2          6           0       -3.084224    0.070808   -0.000234
      3          7           0       -2.774813    1.391457   -0.000209
      4          6           0       -1.494633    1.688744   -0.000041
      5          6           0       -0.481045    0.696981    0.000162
      6          6           0        0.907483    0.957969    0.000205
      7          6           0        1.758816   -0.119587    0.000068
      8         35           0        3.645084    0.115246    0.000012
      9          6           0        1.225285   -1.437750   -0.000013
     10          7           0       -0.062442   -1.701554   -0.000028
     11          6           0       -0.933653   -0.660367    0.000003
     12          7           0       -2.258061   -0.947130   -0.000048
     13          1           0       -1.229565    2.746017    0.000041
     14          1           0        1.280819    1.976833    0.000375
     15          1           0        1.910755   -2.283180   -0.000183
 ---------------------------------------------------------------------
 Rotational constants (GHZ):           2.7741059           0.2245941           0.2077726
 Leave Link  202 at Tue Sep 17 09:46:22 2024, MaxMem=  1342177280 cpu:               0.1 elap:               0.4
 (Enter /groups/ReismanLab/Software/Gaussian16_RevC/Linux_Binary_AVX2-enabled-CPU/g16/l301.exe)
 Standard basis: 6-31G(d,p) (6D, 7F)
 Ernie: Thresh=  0.10000D-02 Tol=  0.10000D-05 Strict=F.
 There are   214 symmetry adapted cartesian basis functions of A   symmetry.
 There are   214 symmetry adapted basis functions of A   symmetry.
   214 basis functions,   436 primitive gaussians,   214 cartesian basis functions
    59 alpha electrons       59 beta electrons
       nuclear repulsion energy       959.1494188390 Hartrees.
 IExCor=  402 DFT=T Ex+Corr=B3LYP ExCW=0 ScaHFX=  0.200000
 ScaDFX=  0.800000  0.720000  1.000000  0.810000 ScalE2=  1.000000  1.000000
 IRadAn=      5 IRanWt=     -1 IRanGd=            0 ICorTp=0 IEmpDi=141
 NAtoms=   15 NActive=   15 NUniq=   15 SFac= 1.00D+00 NAtFMM=   60 NAOKFM=F Big=F
 Integral buffers will be    131072 words long.
 Raffenetti 2 integral format.
 Two-electron integral symmetry is turned on.
 R6Disp:  Grimme-D3(BJ) Dispersion energy=       -0.0383274187 Hartrees.
 Nuclear repulsion after empirical dispersion term =      959.1110914203 Hartrees.
 Leave Link  301 at Tue Sep 17 09:46:22 2024, MaxMem=  1342177280 cpu:               0.1 elap:               0.1
 (Enter /groups/ReismanLab/Software/Gaussian16_RevC/Linux_Binary_AVX2-enabled-CPU/g16/l302.exe)
 NPDir=0 NMtPBC=     1 NCelOv=     1 NCel=       1 NClECP=     1 NCelD=      1
         NCelK=      1 NCelE2=     1 NClLst=     1 CellRange=     0.0.
 One-electron integrals computed using PRISM.
 One-electron integral symmetry used in STVInt
 NBasis=   214 RedAO= T EigKep=  6.10D-04  NBF=   214
 NBsUse=   214 1.00D-06 EigRej= -1.00D+00 NBFU=   214
 Precomputing XC quadrature grid using
 IXCGrd= 4 IRadAn=           5 IRanWt=          -1 IRanGd=           0 AccXCQ= 0.00D+00.
 Generated NRdTot=       0 NPtTot=           0 NUsed=           0 NTot=          32
 NSgBfM=   210   210   210   210   210 MxSgAt=    15 MxSgA2=    15.
 Leave Link  302 at Tue Sep 17 09:46:23 2024, MaxMem=  1342177280 cpu:               0.8 elap:               0.4
 (Enter /groups/ReismanLab/Software/Gaussian16_RevC/Linux_Binary_AVX2-enabled-CPU/g16/l303.exe)
 DipDrv:  MaxL=1.
 Leave Link  303 at Tue Sep 17 09:46:23 2024, MaxMem=  1342177280 cpu:               0.1 elap:               0.1
 (Enter /groups/ReismanLab/Software/Gaussian16_RevC/Linux_Binary_AVX2-enabled-CPU/g16/l401.exe)
 Initial guess from the checkpoint file:  "smiles_00090_conf_0.chk"
 B after Tr=     0.000000   -0.000000    0.000000
         Rot=    1.000000   -0.000003    0.000004    0.000245 Ang=  -0.03 deg.
 Guess basis will be translated and rotated to current coordinates.
 JPrj=2 DoOrth=T DoCkMO=T.
 Generating alternative initial guess.
 ExpMin= 1.43D-01 ExpMax= 5.74D+05 ExpMxC= 5.74D+03 IAcc=3 IRadAn=         5 AccDes= 0.00D+00
 Harris functional with IExCor=  402 and IRadAn=       5 diagonalized for initial guess.
 HarFok:  IExCor=  402 AccDes= 0.00D+00 IRadAn=         5 IDoV= 1 UseB2=F ITyADJ=14
 ICtDFT=  3500011 ScaDFX=  1.000000  1.000000  1.000000  1.000000
 FoFCou: FMM=F IPFlag=           0 FMFlag=      100000 FMFlg1=           0
         NFxFlg=           0 DoJE=T BraDBF=F KetDBF=T FulRan=T
         wScrn=  0.000000 ICntrl=       500 IOpCl=  0 I1Cent=   200000004 NGrid=           0
         NMat0=    1 NMatS0=      1 NMatT0=    0 NMatD0=    1 NMtDS0=    0 NMtDT0=    0
 Petite list used in FoFCou.
 Harris En= -3464.71968438788    
 Leave Link  401 at Tue Sep 17 09:46:24 2024, MaxMem=  1342177280 cpu:               4.4 elap:               1.0
 (Enter /groups/ReismanLab/Software/Gaussian16_RevC/Linux_Binary_AVX2-enabled-CPU/g16/l502.exe)
 Integral symmetry usage will be decided dynamically.
 Closed shell SCF:
 Using DIIS extrapolation, IDIIS=  1040.
 NGot=  1342177280 LenX=  1342081466 LenY=  1342035229
 Requested convergence on RMS density matrix=1.00D-08 within  32 cycles.
 Requested convergence on MAX density matrix=1.00D-06.
 Requested convergence on             energy=1.00D-06.
 No special actions if energy rises.
 Fock matrices will be formed incrementally for  20 cycles.
 Integral accuracy reduced to 1.0D-05 until final iterations.

 Cycle   1  Pass 0  IDiag  1:
 FoFJK:  IHMeth= 1 ICntrl=       0 DoSepK=F KAlg= 0 I1Cent=           0 FoldK=F
 IRaf= 860000000 NMat=       1 IRICut=       1 DoRegI=T DoRafI=F ISym2E= 0 IDoP0=0 IntGTp=1.
 FoFCou: FMM=F IPFlag=           0 FMFlag=      100000 FMFlg1=           0
         NFxFlg=           0 DoJE=F BraDBF=F KetDBF=F FulRan=T
         wScrn=  0.000000 ICntrl=         0 IOpCl=  0 I1Cent=           0 NGrid=           0
         NMat0=    1 NMatS0=      1 NMatT0=    0 NMatD0=    1 NMtDS0=    0 NMtDT0=    0
 Symmetry not used in FoFCou.
 E= -3464.74374706808    
 DIIS: error= 1.20D-03 at cycle   1 NSaved=   1.
 NSaved= 1 IEnMin= 1 EnMin= -3464.74374706808     IErMin= 1 ErrMin= 1.20D-03
 ErrMax= 1.20D-03  0.00D+00 EMaxC= 1.00D-01 BMatC= 1.03D-03 BMatP= 1.03D-03
 IDIUse=3 WtCom= 9.88D-01 WtEn= 1.20D-02
 Coeff-Com:  0.100D+01
 Coeff-En:   0.100D+01
 Coeff:      0.100D+01
 Gap=     1.661 Goal=   None    Shift=    0.000
 GapD=    1.661 DampG=2.000 DampE=1.000 DampFc=2.0000 IDamp=-1.
 RMSDP=3.23D-04 MaxDP=7.27D-03              OVMax= 7.42D-03

 Cycle   2  Pass 0  IDiag  1:
 RMSU=  3.23D-04    CP:  1.00D+00
 E= -3464.74456078330     Delta-E=       -0.000813715219 Rises=F Damp=F
 DIIS: error= 7.13D-04 at cycle   2 NSaved=   2.
 NSaved= 2 IEnMin= 2 EnMin= -3464.74456078330     IErMin= 2 ErrMin= 7.13D-04
 ErrMax= 7.13D-04  0.00D+00 EMaxC= 1.00D-01 BMatC= 1.82D-04 BMatP= 1.03D-03
 IDIUse=3 WtCom= 9.93D-01 WtEn= 7.13D-03
 Coeff-Com:  0.210D+00 0.790D+00
 Coeff-En:   0.000D+00 0.100D+01
 Coeff:      0.209D+00 0.791D+00
 Gap=     0.164 Goal=   None    Shift=    0.000
 RMSDP=1.64D-04 MaxDP=6.37D-03 DE=-8.14D-04 OVMax= 5.37D-03

 Cycle   3  Pass 0  IDiag  1:
 RMSU=  1.64D-04    CP:  1.00D+00  1.02D+00
 E= -3464.74453444257     Delta-E=        0.000026340733 Rises=F Damp=F
 DIIS: error= 8.82D-04 at cycle   3 NSaved=   3.
 NSaved= 3 IEnMin= 2 EnMin= -3464.74456078330     IErMin= 2 ErrMin= 7.13D-04
 ErrMax= 8.82D-04  0.00D+00 EMaxC= 1.00D-01 BMatC= 2.04D-04 BMatP= 1.82D-04
 IDIUse=3 WtCom= 2.52D-01 WtEn= 7.48D-01
 Coeff-Com:  0.865D-02 0.513D+00 0.478D+00
 Coeff-En:   0.000D+00 0.528D+00 0.472D+00
 Coeff:      0.218D-02 0.525D+00 0.473D+00
 Gap=     0.164 Goal=   None    Shift=    0.000
 RMSDP=8.86D-05 MaxDP=3.08D-03 DE= 2.63D-05 OVMax= 4.52D-03

 Cycle   4  Pass 0  IDiag  1:
 RMSU=  3.91D-05    CP:  1.00D+00  1.04D+00  5.17D-01
 E= -3464.74473099701     Delta-E=       -0.000196554444 Rises=F Damp=F
 DIIS: error= 2.83D-04 at cycle   4 NSaved=   4.
 NSaved= 4 IEnMin= 4 EnMin= -3464.74473099701     IErMin= 4 ErrMin= 2.83D-04
 ErrMax= 2.83D-04  0.00D+00 EMaxC= 1.00D-01 BMatC= 1.19D-05 BMatP= 1.82D-04
 IDIUse=3 WtCom= 9.97D-01 WtEn= 2.83D-03
 Coeff-Com: -0.666D-02 0.260D+00 0.284D+00 0.462D+00
 Coeff-En:   0.000D+00 0.000D+00 0.000D+00 0.100D+01
 Coeff:     -0.664D-02 0.259D+00 0.283D+00 0.464D+00
 Gap=     0.165 Goal=   None    Shift=    0.000
 RMSDP=2.34D-05 MaxDP=6.39D-04 DE=-1.97D-04 OVMax= 1.66D-03

 Cycle   5  Pass 0  IDiag  1:
 RMSU=  1.29D-05    CP:  1.00D+00  1.05D+00  5.13D-01  5.04D-01
 E= -3464.74474291414     Delta-E=       -0.000011917127 Rises=F Damp=F
 DIIS: error= 4.88D-05 at cycle   5 NSaved=   5.
 NSaved= 5 IEnMin= 5 EnMin= -3464.74474291414     IErMin= 5 ErrMin= 4.88D-05
 ErrMax= 4.88D-05  0.00D+00 EMaxC= 1.00D-01 BMatC= 9.77D-07 BMatP= 1.19D-05
 IDIUse=1 WtCom= 1.00D+00 WtEn= 0.00D+00
 Coeff-Com: -0.460D-02 0.905D-01 0.113D+00 0.264D+00 0.537D+00
 Coeff:     -0.460D-02 0.905D-01 0.113D+00 0.264D+00 0.537D+00
 Gap=     0.165 Goal=   None    Shift=    0.000
 RMSDP=5.85D-06 MaxDP=1.82D-04 DE=-1.19D-05 OVMax= 3.26D-04

 Initial convergence to 1.0D-05 achieved.  Increase integral accuracy.
 Cycle   6  Pass 1  IDiag  1:
 E= -3464.74473150776     Delta-E=        0.000011406377 Rises=F Damp=F
 DIIS: error= 3.28D-05 at cycle   1 NSaved=   1.
 NSaved= 1 IEnMin= 1 EnMin= -3464.74473150776     IErMin= 1 ErrMin= 3.28D-05
 ErrMax= 3.28D-05  0.00D+00 EMaxC= 1.00D-01 BMatC= 1.91D-07 BMatP= 1.91D-07
 IDIUse=1 WtCom= 1.00D+00 WtEn= 0.00D+00
 Coeff-Com:  0.100D+01
 Coeff:      0.100D+01
 Gap=     0.164 Goal=   None    Shift=    0.000
 RMSDP=5.85D-06 MaxDP=1.82D-04 DE= 1.14D-05 OVMax= 1.93D-04

 Cycle   7  Pass 1  IDiag  1:
 RMSU=  1.32D-05    CP:  1.00D+00
 E= -3464.74473143985     Delta-E=        0.000000067907 Rises=F Damp=F
 DIIS: error= 2.60D-05 at cycle   2 NSaved=   2.
 NSaved= 2 IEnMin= 1 EnMin= -3464.74473150776     IErMin= 2 ErrMin= 2.60D-05
 ErrMax= 2.60D-05  0.00D+00 EMaxC= 1.00D-01 BMatC= 2.27D-07 BMatP= 1.91D-07
 IDIUse=1 WtCom= 1.00D+00 WtEn= 0.00D+00
 Coeff-Com:  0.528D+00 0.472D+00
 Coeff:      0.528D+00 0.472D+00
 Gap=     0.165 Goal=   None    Shift=    0.000
 RMSDP=3.33D-06 MaxDP=9.55D-05 DE= 6.79D-08 OVMax= 2.02D-04

 Cycle   8  Pass 1  IDiag  1:
 RMSU=  3.24D-06    CP:  1.00D+00  9.42D-01
 E= -3464.74473161068     Delta-E=       -0.000000170829 Rises=F Damp=F
 DIIS: error= 1.39D-05 at cycle   3 NSaved=   3.
 NSaved= 3 IEnMin= 3 EnMin= -3464.74473161068     IErMin= 3 ErrMin= 1.39D-05
 ErrMax= 1.39D-05  0.00D+00 EMaxC= 1.00D-01 BMatC= 4.77D-08 BMatP= 1.91D-07
 IDIUse=1 WtCom= 1.00D+00 WtEn= 0.00D+00
 Coeff-Com:  0.715D-01 0.309D+00 0.619D+00
 Coeff:      0.715D-01 0.309D+00 0.619D+00
 Gap=     0.165 Goal=   None    Shift=    0.000
 RMSDP=1.35D-06 MaxDP=4.48D-05 DE=-1.71D-07 OVMax= 1.02D-04

 Cycle   9  Pass 1  IDiag  1:
 RMSU=  7.18D-07    CP:  1.00D+00  9.68D-01  6.64D-01
 E= -3464.74473165127     Delta-E=       -0.000000040582 Rises=F Damp=F
 DIIS: error= 5.12D-06 at cycle   4 NSaved=   4.
 NSaved= 4 IEnMin= 4 EnMin= -3464.74473165127     IErMin= 4 ErrMin= 5.12D-06
 ErrMax= 5.12D-06  0.00D+00 EMaxC= 1.00D-01 BMatC= 7.38D-09 BMatP= 4.77D-08
 IDIUse=1 WtCom= 1.00D+00 WtEn= 0.00D+00
 Coeff-Com:  0.506D-03 0.158D+00 0.401D+00 0.441D+00
 Coeff:      0.506D-03 0.158D+00 0.401D+00 0.441D+00
 Gap=     0.165 Goal=   None    Shift=    0.000
 RMSDP=4.39D-07 MaxDP=1.20D-05 DE=-4.06D-08 OVMax= 3.14D-05

 Cycle  10  Pass 1  IDiag  1:
 RMSU=  1.59D-07    CP:  1.00D+00  9.68D-01  7.13D-01  4.73D-01
 E= -3464.74473165862     Delta-E=       -0.000000007358 Rises=F Damp=F
 DIIS: error= 7.76D-07 at cycle   5 NSaved=   5.
 NSaved= 5 IEnMin= 5 EnMin= -3464.74473165862     IErMin= 5 ErrMin= 7.76D-07
 ErrMax= 7.76D-07  0.00D+00 EMaxC= 1.00D-01 BMatC= 1.67D-10 BMatP= 7.38D-09
 IDIUse=1 WtCom= 1.00D+00 WtEn= 0.00D+00
 Coeff-Com: -0.204D-02 0.773D-01 0.201D+00 0.247D+00 0.477D+00
 Coeff:     -0.204D-02 0.773D-01 0.201D+00 0.247D+00 0.477D+00
 Gap=     0.165 Goal=   None    Shift=    0.000
 RMSDP=8.88D-08 MaxDP=2.42D-06 DE=-7.36D-09 OVMax= 5.14D-06

 Cycle  11  Pass 1  IDiag  1:
 RMSU=  4.57D-08    CP:  1.00D+00  9.69D-01  7.06D-01  4.78D-01  5.45D-01
 E= -3464.74473165880     Delta-E=       -0.000000000176 Rises=F Damp=F
 DIIS: error= 2.08D-07 at cycle   6 NSaved=   6.
 NSaved= 6 IEnMin= 6 EnMin= -3464.74473165880     IErMin= 6 ErrMin= 2.08D-07
 ErrMax= 2.08D-07  0.00D+00 EMaxC= 1.00D-01 BMatC= 1.12D-11 BMatP= 1.67D-10
 IDIUse=1 WtCom= 1.00D+00 WtEn= 0.00D+00
 Coeff-Com: -0.124D-02 0.377D-01 0.985D-01 0.124D+00 0.280D+00 0.461D+00
 Coeff:     -0.124D-02 0.377D-01 0.985D-01 0.124D+00 0.280D+00 0.461D+00
 Gap=     0.165 Goal=   None    Shift=    0.000
 RMSDP=2.21D-08 MaxDP=5.84D-07 DE=-1.76D-10 OVMax= 1.70D-06

 Cycle  12  Pass 1  IDiag  1:
 RMSU=  1.60D-08    CP:  1.00D+00  9.69D-01  7.07D-01  4.77D-01  5.65D-01
                    CP:  6.79D-01
 E= -3464.74473165882     Delta-E=       -0.000000000025 Rises=F Damp=F
 DIIS: error= 6.32D-08 at cycle   7 NSaved=   7.
 NSaved= 7 IEnMin= 7 EnMin= -3464.74473165882     IErMin= 7 ErrMin= 6.32D-08
 ErrMax= 6.32D-08  0.00D+00 EMaxC= 1.00D-01 BMatC= 1.07D-12 BMatP= 1.12D-11
 IDIUse=1 WtCom= 1.00D+00 WtEn= 0.00D+00
 Coeff-Com: -0.451D-03 0.121D-01 0.314D-01 0.405D-01 0.989D-01 0.268D+00
 Coeff-Com:  0.550D+00
 Coeff:     -0.451D-03 0.121D-01 0.314D-01 0.405D-01 0.989D-01 0.268D+00
 Coeff:      0.550D+00
 Gap=     0.165 Goal=   None    Shift=    0.000
 RMSDP=7.13D-09 MaxDP=2.28D-07 DE=-2.55D-11 OVMax= 6.05D-07

 SCF Done:  E(RB3LYP) =  -3464.74473166     A.U. after   12 cycles
            NFock= 12  Conv=0.71D-08     -V/T= 2.0061
 KE= 3.443603349432D+03 PE=-1.014919692952D+04 EE= 2.281737757005D+03
 Leave Link  502 at Tue Sep 17 09:46:31 2024, MaxMem=  1342177280 cpu:              54.9 elap:               7.5
 (Enter /groups/ReismanLab/Software/Gaussian16_RevC/Linux_Binary_AVX2-enabled-CPU/g16/l508.exe)
 QCSCF skips out because SCF is already converged.
 Leave Link  508 at Tue Sep 17 09:46:31 2024, MaxMem=  1342177280 cpu:               0.1 elap:               0.0
 (Enter /groups/ReismanLab/Software/Gaussian16_RevC/Linux_Binary_AVX2-enabled-CPU/g16/l701.exe)
 ... and contract with generalized density number  0.
 Compute integral first derivatives.
 R6Disp: Adding Grimme-D3(BJ) dispersion energy 1st derivatives to the gradient.
 Leave Link  701 at Tue Sep 17 09:46:32 2024, MaxMem=  1342177280 cpu:               0.7 elap:               0.3
 (Enter /groups/ReismanLab/Software/Gaussian16_RevC/Linux_Binary_AVX2-enabled-CPU/g16/l702.exe)
 L702 exits ... SP integral derivatives will be done elsewhere.
 Leave Link  702 at Tue Sep 17 09:46:32 2024, MaxMem=  1342177280 cpu:               0.1 elap:               0.0
 (Enter /groups/ReismanLab/Software/Gaussian16_RevC/Linux_Binary_AVX2-enabled-CPU/g16/l703.exe)
 Integral derivatives from FoFJK, PRISM(SPDF).
 Compute integral first derivatives, UseDBF=F ICtDFT=           0.
 Calling FoFJK, ICntrl=      2127 FMM=F ISym2X=0 I1Cent= 0 IOpClX= 0 NMat=1 NMatS=1 NMatT=0.
 FoFJK:  IHMeth= 1 ICntrl=    2127 DoSepK=F KAlg= 0 I1Cent=           0 FoldK=F
 IRaf=         0 NMat=       1 IRICut=       1 DoRegI=T DoRafI=F ISym2E= 0 IDoP0=0 IntGTp=1.
 FoFCou: FMM=F IPFlag=           0 FMFlag=      100000 FMFlg1=         800
         NFxFlg=           0 DoJE=F BraDBF=F KetDBF=F FulRan=T
         wScrn=  0.000000 ICntrl=      2127 IOpCl=  0 I1Cent=           0 NGrid=           0
         NMat0=    1 NMatS0=      1 NMatT0=    0 NMatD0=    1 NMtDS0=    0 NMtDT0=    0
 Symmetry not used in FoFCou.
 Leave Link  703 at Tue Sep 17 09:46:35 2024, MaxMem=  1342177280 cpu:              20.3 elap:               3.2
 (Enter /groups/ReismanLab/Software/Gaussian16_RevC/Linux_Binary_AVX2-enabled-CPU/g16/l716.exe)
 Dipole        = 1.34046789D+00 9.79870383D-01 9.97128891D-05
 ***** Axes restored to original set *****
 -------------------------------------------------------------------
 Center     Atomic                   Forces (Hartrees/Bohr)
 Number     Number              X              Y              Z
 -------------------------------------------------------------------
      1       17          -0.004624636   -0.000824684   -0.000009836
      2        6           0.013584377   -0.000243270    0.000039628
      3        7          -0.004384041    0.002074125   -0.000013912
      4        6           0.001728517   -0.001470313    0.000015508
      5        6          -0.001674291   -0.002946537   -0.000021310
      6        6          -0.000016747    0.000361497    0.000006627
      7        6          -0.000317234    0.000952797    0.000006180
      8       35          -0.000823381   -0.000406867    0.000000748
      9        6           0.000150474    0.001503480   -0.000011586
     10        7          -0.001475680   -0.003813612   -0.000000511
     11        6           0.003709580    0.006585919    0.000009847
     12        7          -0.005119621   -0.001619266   -0.000018581
     13        1          -0.000173948   -0.000298908   -0.000003559
     14        1          -0.000006123   -0.000096177   -0.000004936
     15        1          -0.000557247    0.000241817    0.000005694
 -------------------------------------------------------------------
 Cartesian Forces:  Max     0.013584377 RMS     0.002805847
 Leave Link  716 at Tue Sep 17 09:46:35 2024, MaxMem=  1342177280 cpu:               0.1 elap:               0.0
 (Enter /groups/ReismanLab/Software/Gaussian16_RevC/Linux_Binary_AVX2-enabled-CPU/g16/l103.exe)

 GradGradGradGradGradGradGradGradGradGradGradGradGradGradGradGradGradGrad
 Berny optimization.
 Using GEDIIS/GDIIS optimizer.
 FormGI is forming the generalized inverse of G from B-inverse, IUseBI=4.
 Internal  Forces:  Max     0.004696023 RMS     0.001275951
 Search for a local minimum.
 Step number   2 out of a maximum of   82
 All quantities printed in internal units (Hartrees-Bohrs-Radians)
 RMS Force = .12760D-02 SwitMx=.10000D-02 MixMth= 1
 Mixed Optimization -- RFO/linear search
 Update second derivatives using D2CorX and points    1    2
 DE= -2.62D-03 DEPred=-2.52D-03 R= 1.04D+00
 TightC=F SS=  1.41D+00  RLast= 1.07D-01 DXNew= 5.0454D-01 3.2226D-01
 Trust test= 1.04D+00 RLast= 1.07D-01 DXMaxT set to 3.22D-01
 ITU=  1  0
 Use linear search instead of GDIIS.
     Eigenvalues ---    0.01920   0.01957   0.02043   0.02141   0.02190
     Eigenvalues ---    0.02252   0.02256   0.02339   0.02498   0.02632
     Eigenvalues ---    0.02729   0.02765   0.15984   0.16000   0.16044
     Eigenvalues ---    0.18522   0.21549   0.23359   0.23573   0.23761
     Eigenvalues ---    0.25000   0.25000   0.25000   0.25135   0.33872
     Eigenvalues ---    0.35651   0.35834   0.35998   0.37720   0.42318
     Eigenvalues ---    0.42680   0.43974   0.49048   0.54122   0.55240
     Eigenvalues ---    0.57226   0.63586   0.65649   0.71191
 RFO step:  Lambda=-4.29428889D-04 EMin= 1.91958364D-02
 Quartic linear search produced a step of  0.07835.
 Iteration  1 RMS(Cart)=  0.00468912 RMS(Int)=  0.00002317
 Iteration  2 RMS(Cart)=  0.00003136 RMS(Int)=  0.00000856
 Iteration  3 RMS(Cart)=  0.00000000 RMS(Int)=  0.00000856
 ITry= 1 IFail=0 DXMaxC= 2.35D-02 DCOld= 1.00D+10 DXMaxT= 3.22D-01 DXLimC= 3.00D+00 Rises=F
 Variable       Old X    -DE/DX   Delta X   Delta X   Delta X     New X
[...]
      4  C    Isotropic =    -5.2177   Anisotropy =   208.6612
   XX=   -38.4483   YX=   -46.1227   ZX=    -0.0149
   XY=   -12.6134   YY=  -111.0946   ZY=    -0.0222
   XZ=    -0.0139   YZ=    -0.0329   ZZ=   133.8897
   Eigenvalues:  -121.4818   -28.0612   133.8898
      5  C    Isotropic =    46.7118   Anisotropy =   220.2745
   XX=   -29.2859   YX=    -7.6553   ZX=    -0.0092
   XY=     6.2016   YY=   -24.1402   ZY=    -0.0118
   XZ=    -0.0158   YZ=    -0.0121   ZZ=   193.5615
   Eigenvalues:   -29.3867   -24.0395   193.5615
      6  C    Isotropic =    22.1165   Anisotropy =   196.1354
   XX=   -22.5683   YX=   -33.5640   ZX=    -0.0075
   XY=   -48.8934   YY=   -63.9555   ZY=    -0.0129
   XZ=    -0.0131   YZ=    -0.0112   ZZ=   152.8735
   Eigenvalues:   -89.3925     2.8686   152.8735
      7  C    Isotropic =    29.0676   Anisotropy =   144.5726
   XX=   -68.2446   YX=   -33.2563   ZX=    -0.0107
   XY=   -51.3625   YY=    29.9980   ZY=    -0.0074
   XZ=    -0.0130   YZ=    -0.0069   ZZ=   125.4493
   Eigenvalues:   -83.9537    45.7071   125.4493
      8  Br   Isotropic =  2097.7167   Anisotropy =  1226.6319
   XX=  2896.4393   YX=   145.4079   ZX=     0.0704
   XY=   160.6725   YY=  1684.8462   ZY=     0.0067
   XZ=     0.0449   YZ=     0.0108   ZZ=  1711.8648
   Eigenvalues:  1665.8141  1711.8648  2915.4713
      9  C    Isotropic =    -1.2166   Anisotropy =   187.7354
   XX=   -56.4436   YX=    72.2103   ZX=    -0.0019
   XY=    38.9678   YY=   -71.1465   ZY=    -0.0087
   XZ=    -0.0034   YZ=    -0.0072   ZZ=   123.9403
   Eigenvalues:  -119.8681    -7.7220   123.9403
     10  N    Isotropic =  -143.8744   Anisotropy =   577.5819
   XX=  -447.0077   YX=   104.8674   ZX=    -0.0187
   XY=    64.3883   YY=  -225.7958   ZY=    -0.0246
   XZ=    -0.0288   YZ=    -0.0396   ZZ=   241.1801
   Eigenvalues:  -475.6697  -197.1338   241.1802
     11  C    Isotropic =     3.2677   Anisotropy =   208.8584
   XX=   -84.1121   YX=     6.1804   ZX=    -0.0167
   XY=    14.1039   YY=   -48.5915   ZY=    -0.0087
   XZ=    -0.0147   YZ=    -0.0022   ZZ=   142.5066
   Eigenvalues:   -86.8040   -45.8996   142.5066
     12  N    Isotropic =   -91.6376   Anisotropy =   454.5556
   XX=  -299.1752   YX=    48.8546   ZX=    -0.0230
   XY=    64.4594   YY=  -187.1371   ZY=    -0.0029
   XZ=    -0.0095   YZ=     0.0311   ZZ=   211.3994
   Eigenvalues:  -322.8315  -163.4809   211.3994
     13  H    Isotropic =    21.6449   Anisotropy =     9.2299
   XX=    26.5763   YX=    -2.9852   ZX=     0.0004
   XY=    -2.7626   YY=    21.0385   ZY=     0.0002
   XZ=     0.0002   YZ=    -0.0003   ZZ=    17.3198
   Eigenvalues:    17.3198    19.8167    27.7982
     14  H    Isotropic =    22.6151   Anisotropy =    11.5929
   XX=    28.2187   YX=    -4.4644   ZX=     0.0003
   XY=    -4.0250   YY=    21.8648   ZY=     0.0001
   XZ=     0.0002   YZ=     0.0001   ZZ=    17.7618
   Eigenvalues:    17.7618    19.7398    30.3437
     15  H    Isotropic =    21.6688   Anisotropy =    12.1464
   XX=    23.2228   YX=     5.5196   ZX=     0.0006
   XY=     5.3925   YY=    25.2172   ZY=     0.0008
   XZ=     0.0006   YZ=     0.0007   ZZ=    16.5664
   Eigenvalues:    16.5664    18.6736    29.7664
 End of Minotr F.D. properties file   721 does not exist.
 End of Minotr F.D. properties file   722 does not exist.
 End of Minotr F.D. properties file   788 does not exist.
 Leave Link 1002 at Tue Sep 17 10:39:19 2024, MaxMem=  1342177280 cpu:             768.4 elap:             770.6
 (Enter /groups/ReismanLab/Software/Gaussian16_RevC/Linux_Binary_AVX2-enabled-CPU/g16/l601.exe)
 Copying SCF densities to generalized density rwf, IOpCl= 0 IROHF=0.

 **********************************************************************

            Population analysis using the SCF Density.

 **********************************************************************

 Orbital symmetries:
       Occupied  (A) (A) (A) (A) (A) (A) (A) (A) (A) (A) (A) (A)
                 (A) (A) (A) (A) (A) (A) (A) (A) (A) (A) (A) (A)
                 (A) (A) (A) (A) (A) (A) (A) (A) (A) (A) (A) (A)
                 (A) (A) (A) (A) (A) (A) (A) (A) (A) (A) (A) (A)
                 (A) (A) (A) (A) (A) (A) (A) (A) (A) (A) (A)
       Virtual   (A) (A) (A) (A) (A) (A) (A) (A) (A) (A) (A) (A)
                 (A) (A) (A) (A) (A) (A) (A) (A) (A) (A) (A) (A)
                 (A) (A) (A) (A) (A) (A) (A) (A) (A) (A) (A) (A)
                 (A) (A) (A) (A) (A) (A) (A) (A) (A) (A) (A) (A)
                 (A) (A) (A) (A) (A) (A) (A) (A) (A) (A) (A) (A)
                 (A) (A) (A) (A) (A) (A) (A) (A) (A) (A) (A) (A)
                 (A) (A) (A) (A) (A) (A) (A) (A) (A) (A) (A) (A)
                 (A) (A) (A) (A) (A) (A) (A) (A) (A) (A) (A) (A)
                 (A) (A) (A) (A) (A) (A) (A) (A) (A) (A) (A) (A)
                 (A) (A) (A) (A) (A) (A) (A) (A) (A) (A) (A) (A)
                 (A) (A) (A) (A) (A) (A) (A) (A) (A) (A) (A) (A)
                 (A) (A) (A) (A) (A) (A) (A) (A) (A) (A) (A) (A)
                 (A) (A) (A) (A) (A) (A) (A) (A) (A) (A) (A) (A)
                 (A) (A) (A) (A) (A) (A) (A) (A) (A) (A) (A) (A)
                 (A) (A) (A) (A) (A) (A) (A) (A) (A) (A) (A) (A)
                 (A) (A) (A) (A) (A) (A) (A) (A) (A) (A) (A) (A)
                 (A) (A) (A) (A) (A) (A) (A) (A) (A) (A) (A) (A)
                 (A) (A) (A) (A) (A) (A) (A) (A) (A) (A) (A) (A)
                 (A) (A) (A) (A) (A) (A) (A) (A) (A) (A) (A) (A)
                 (A) (A) (A) (A) (A) (A) (A) (A) (A) (A) (A) (A)
                 (A) (A) (A) (A) (A) (A) (A) (A) (A) (A) (A) (A)
                 (A) (A) (A) (A) (A) (A) (A) (A) (A) (A) (A) (A)
                 (A) (A) (A) (A) (A) (A) (A) (A) (A) (A) (A) (A)
                 (A) (A) (A) (A) (A) (A) (A) (A) (A) (A) (A) (A)
                 (A) (A) (A) (A) (A) (A) (A) (A) (A) (A) (A) (A)
                 (A) (A) (A) (A) (A) (A) (A) (A) (A) (A) (A) (A)
                 (A) (A) (A) (A) (A) (A) (A) (A) (A) (A) (A) (A)
                 (A) (A) (A) (A) (A) (A) (A) (A) (A) (A) (A) (A)
                 (A) (A) (A) (A) (A) (A) (A) (A) (A) (A) (A) (A)
                 (A) (A) (A) (A) (A) (A)
 The electronic state is 1-A.
 Alpha  occ. eigenvalues -- -485.39810-102.65573 -63.38281 -57.20233 -57.19987
 Alpha  occ. eigenvalues --  -57.19979 -14.78838 -14.78145 -14.78124 -10.68755
 Alpha  occ. eigenvalues --  -10.64695 -10.63167 -10.62843 -10.62069 -10.60103
 Alpha  occ. eigenvalues --  -10.59488  -9.81862  -9.04927  -7.54054  -7.53557
 Alpha  occ. eigenvalues --   -7.53504  -6.87359  -6.86444  -6.86419  -2.90736
 Alpha  occ. eigenvalues --   -2.90405  -2.90377  -2.89525  -2.89525  -1.14399
 Alpha  occ. eigenvalues --   -1.08733  -1.02583  -0.96832  -0.96265  -0.91445
 Alpha  occ. eigenvalues --   -0.84989  -0.79655  -0.74994  -0.74389  -0.65948
 Alpha  occ. eigenvalues --   -0.63408  -0.60740  -0.56033  -0.55693  -0.55181
 Alpha  occ. eigenvalues --   -0.51694  -0.49852  -0.49723  -0.47763  -0.43711
 Alpha  occ. eigenvalues --   -0.42167  -0.41325  -0.39534  -0.37966  -0.37729
 Alpha  occ. eigenvalues --   -0.36727  -0.36413  -0.34294  -0.31541
 Alpha virt. eigenvalues --   -0.07208  -0.03242   0.00624   0.01899   0.07144
 Alpha virt. eigenvalues --    0.08389   0.08746   0.09637   0.10285   0.12603
 Alpha virt. eigenvalues --    0.14168   0.15424   0.16451   0.18813   0.19605
 Alpha virt. eigenvalues --    0.20449   0.21935   0.22586   0.23473   0.23784
 Alpha virt. eigenvalues --    0.24763   0.25596   0.26176   0.27098   0.28465
 Alpha virt. eigenvalues --    0.28558   0.29387   0.29701   0.30731   0.31057
 Alpha virt. eigenvalues --    0.31219   0.31431   0.32171   0.34114   0.34832
 Alpha virt. eigenvalues --    0.36441   0.37255   0.37770   0.38636   0.39009
 Alpha virt. eigenvalues --    0.40487   0.40550   0.41245   0.41530   0.42644
 Alpha virt. eigenvalues --    0.42921   0.43245   0.45772   0.46140   0.46546
 Alpha virt. eigenvalues --    0.48951   0.49554   0.49830   0.50361   0.52507
 Alpha virt. eigenvalues --    0.53659   0.55579   0.56241   0.56682   0.58215
 Alpha virt. eigenvalues --    0.58453   0.58705   0.60303   0.61855   0.61957
 Alpha virt. eigenvalues --    0.62687   0.63967   0.65042   0.65720   0.66453
 Alpha virt. eigenvalues --    0.67482   0.69169   0.70167   0.70655   0.71665
 Alpha virt. eigenvalues --    0.72935   0.73986   0.75226   0.76377   0.77843
 Alpha virt. eigenvalues --    0.78705   0.80008   0.81378   0.82882   0.84658
 Alpha virt. eigenvalues --    0.85209   0.88406   0.91995   0.93795   0.95410
 Alpha virt. eigenvalues --    0.96509   0.97206   0.98539   1.00716   1.04426
 Alpha virt. eigenvalues --    1.04743   1.07414   1.09542   1.11639   1.13328
 Alpha virt. eigenvalues --    1.14769   1.16329   1.17438   1.21048   1.23767
 Alpha virt. eigenvalues --    1.23780   1.27154   1.28307   1.30266   1.31986
 Alpha virt. eigenvalues --    1.32507   1.33537   1.33796   1.36626   1.37831
 Alpha virt. eigenvalues --    1.39393   1.40481   1.41087   1.41100   1.44353
 Alpha virt. eigenvalues --    1.45253   1.45513   1.46737   1.48722   1.49468
 Alpha virt. eigenvalues --    1.50614   1.52721   1.53780   1.55565   1.55847
 Alpha virt. eigenvalues --    1.56923   1.57130   1.58811   1.60653   1.61844
 Alpha virt. eigenvalues --    1.62395   1.62670   1.62956   1.64964   1.65276
 Alpha virt. eigenvalues --    1.65658   1.69127   1.70615   1.72330   1.73196
 Alpha virt. eigenvalues --    1.74255   1.75797   1.77089   1.78299   1.79210
 Alpha virt. eigenvalues --    1.81969   1.82375   1.84105   1.84994   1.85572
 Alpha virt. eigenvalues --    1.86154   1.87269   1.88196   1.89361   1.89386
 Alpha virt. eigenvalues --    1.92375   1.94478   1.95500   1.97397   1.98127
 Alpha virt. eigenvalues --    1.99172   2.01104   2.02960   2.03906   2.09381
 Alpha virt. eigenvalues --    2.09431   2.11505   2.11995   2.13320   2.15268
 Alpha virt. eigenvalues --    2.15404   2.18287   2.18810   2.22145   2.22274
 Alpha virt. eigenvalues --    2.25677   2.27475   2.28034   2.28852   2.32138
 Alpha virt. eigenvalues --    2.32807   2.35877   2.37392   2.37525   2.40724
 Alpha virt. eigenvalues --    2.42284   2.42907   2.45959   2.49070   2.51407
 Alpha virt. eigenvalues --    2.51508   2.54545   2.57482   2.62002   2.63399
 Alpha virt. eigenvalues --    2.67629   2.67682   2.68512   2.70180   2.71563
 Alpha virt. eigenvalues --    2.73777   2.74510   2.78676   2.81696   2.82561
 Alpha virt. eigenvalues --    2.85319   2.86908   2.88193   2.90170   2.91402
 Alpha virt. eigenvalues --    2.91601   2.92963   2.93068   2.94662   2.95147
 Alpha virt. eigenvalues --    2.97720   3.01115   3.01202   3.02933   3.03962
 Alpha virt. eigenvalues --    3.04588   3.05685   3.06184   3.09246   3.12386
 Alpha virt. eigenvalues --    3.13134   3.14721   3.15738   3.18514   3.18906
 Alpha virt. eigenvalues --    3.19701   3.21976   3.22487   3.23945   3.24706
 Alpha virt. eigenvalues --    3.27398   3.27458   3.28960   3.30288   3.31027
 Alpha virt. eigenvalues --    3.32208   3.32603   3.35345   3.35614   3.39413
 Alpha virt. eigenvalues --    3.41780   3.42054   3.44721   3.46752   3.48761
 Alpha virt. eigenvalues --    3.50590   3.53640   3.54869   3.56809   3.58120
 Alpha virt. eigenvalues --    3.61943   3.64242   3.68773   3.72429   3.73252
 Alpha virt. eigenvalues --    3.74149   3.77142   3.79620   3.81124   3.82678
 Alpha virt. eigenvalues --    3.85457   3.88453   3.91709   3.94287   3.96802
 Alpha virt. eigenvalues --    4.00025   4.02402   4.04854   4.05416   4.06991
 Alpha virt. eigenvalues --    4.07256   4.10142   4.12718   4.14326   4.16553
 Alpha virt. eigenvalues --    4.20311   4.20614   4.20854   4.28408   4.29017
 Alpha virt. eigenvalues --    4.30867   4.34843   4.37427   4.41548   4.43405
 Alpha virt. eigenvalues --    4.44706   4.49816   4.52793   4.56738   4.60297
 Alpha virt. eigenvalues --    4.66868   4.68282   4.69982   4.74471   4.74808
 Alpha virt. eigenvalues --    4.80554   4.83850   4.85379   4.93388   4.94183
 Alpha virt. eigenvalues --    4.94589   4.99271   4.99490   5.01205   5.01393
 Alpha virt. eigenvalues --    5.05992   5.06418   5.11736   5.14457   5.17751
 Alpha virt. eigenvalues --    5.18901   5.20703   5.21543   5.30413   5.33007
 Alpha virt. eigenvalues --    5.33658   5.39191   5.39523   5.40022   5.44686
 Alpha virt. eigenvalues --    5.51987   5.57576   5.62398   5.68442   5.75504
 Alpha virt. eigenvalues --    5.80414   5.94204   6.04232   6.37413   7.84951
 Alpha virt. eigenvalues --   10.80369  10.86909  11.38018  22.58253  22.76796
 Alpha virt. eigenvalues --   22.89137  22.90730  22.98060  23.03316  23.36632
 Alpha virt. eigenvalues --   25.83306  32.42254  32.57805  32.77640
          Condensed to atoms (all electrons):
               1          2          3          4          5          6
     1  Cl  16.822284   0.406729  -0.094302   0.002223   0.001626  -0.000125
     2  C    0.406729   4.607710   0.448341  -0.097776  -0.034222   0.006316
     3  N   -0.094302   0.448341   6.508466   0.533461  -0.030743   0.008940
     4  C    0.002223  -0.097776   0.533461   4.868915   0.402359  -0.078910
     5  C    0.001626  -0.034222  -0.030743   0.402359   5.275071   0.305327
     6  C   -0.000125   0.006316   0.008940  -0.078910   0.305327   5.304750
     7  C    0.000035  -0.000267  -0.001323   0.000082  -0.006492   0.432867
     8  Br   0.000000  -0.000010   0.000017  -0.000797   0.016899  -0.097533
     9  C   -0.000096  -0.001135   0.000732   0.003397  -0.009692  -0.032224
    10  N   -0.000238   0.001747  -0.002184   0.006723  -0.106778  -0.050189
    11  C   -0.001838  -0.061733  -0.045953  -0.027409   0.396142  -0.067568
    12  N   -0.091656   0.535554  -0.068437  -0.006937  -0.111124   0.003342
    13  H   -0.000289   0.006331  -0.026705   0.432846  -0.064686   0.005491
    14  H   -0.000003   0.000094   0.000098   0.003364  -0.027044   0.405851
    15  H   -0.000001  -0.000003   0.000001   0.000172  -0.004705   0.009779
               7          8          9         10         11         12
     1  Cl   0.000035   0.000000  -0.000096  -0.000238  -0.001838  -0.091656
     2  C   -0.000267  -0.000010  -0.001135   0.001747  -0.061733   0.535554
     3  N   -0.001323   0.000017   0.000732  -0.002184  -0.045953  -0.068437
     4  C    0.000082  -0.000797   0.003397   0.006723  -0.027409  -0.006937
     5  C   -0.006492   0.016899  -0.009692  -0.106778   0.396142  -0.111124
     6  C    0.432867  -0.097533  -0.032224  -0.050189  -0.067568   0.003342
     7  C    4.952218   0.359824   0.388309  -0.028282  -0.026035   0.000590
     8  Br   0.359824  34.852178  -0.066465   0.007094   0.001489   0.000039
     9  C    0.388309  -0.066465   4.919008   0.512605  -0.093451  -0.000088
    10  N   -0.028282   0.007094   0.512605   6.513945   0.497002  -0.101076
    11  C   -0.026035   0.001489  -0.093451   0.497002   4.667144   0.507872
    12  N    0.000590   0.000039  -0.000088  -0.101076   0.507872   6.543443
    13  H   -0.000658  -0.000000   0.000291  -0.000255   0.000420  -0.001546
    14  H   -0.029400  -0.007018   0.006782  -0.001589  -0.000118  -0.000325
    15  H   -0.075381  -0.000987   0.439070  -0.032700   0.009894   0.000190
              13         14         15
     1  Cl  -0.000289  -0.000003  -0.000001
     2  C    0.006331   0.000094  -0.000003
     3  N   -0.026705   0.000098   0.000001
     4  C    0.432846   0.003364   0.000172
     5  C   -0.064686  -0.027044  -0.004705
     6  C    0.005491   0.405851   0.009779
     7  C   -0.000658  -0.029400  -0.075381
     8  Br  -0.000000  -0.007018  -0.000987
     9  C    0.000291   0.006782   0.439070
    10  N   -0.000255  -0.001589  -0.032700
    11  C    0.000420  -0.000118   0.009894
    12  N   -0.001546  -0.000325   0.000190
    13  H    0.463760   0.002934   0.000000
    14  H    0.002934   0.446714  -0.000004
    15  H    0.000000  -0.000004   0.464821
 Mulliken charges:
               1
     1  Cl  -0.044351
     2  C    0.182323
     3  N   -0.230409
     4  C   -0.041713
     5  C   -0.001937
     6  C   -0.156113
     7  C    0.033910
     8  Br  -0.064730
     9  C   -0.067043
    10  N   -0.215824
    11  C    0.244142
    12  N   -0.209840
    13  H    0.182066
    14  H    0.199665
    15  H    0.189853
 Sum of Mulliken charges =  -0.00000
 Mulliken charges with hydrogens summed into heavy atoms:
               1
     1  Cl  -0.044351
     2  C    0.182323
     3  N   -0.230409
     4  C    0.140353
     5  C   -0.001937
     6  C    0.043552
     7  C    0.033910
     8  Br  -0.064730
     9  C    0.122810
    10  N   -0.215824
    11  C    0.244142
    12  N   -0.209840
 Electronic spatial extent (au):  <R**2>=           4335.5208
 Charge=              0.0000 electrons
 Dipole moment (field-independent basis, Debye):
    X=              4.2063    Y=              3.1826    Z=              0.0002  Tot=              5.2747
 Quadrupole moment (field-independent basis, Debye-Ang):
   XX=            -99.0782   YY=            -86.7784   ZZ=            -87.4541
   XY=             -2.6079   XZ=             -0.0004   YZ=             -0.0002
 Traceless Quadrupole moment (field-independent basis, Debye-Ang):
   XX=             -7.9746   YY=              4.3252   ZZ=              3.6495
   XY=             -2.6079   XZ=             -0.0004   YZ=             -0.0002
 Octapole moment (field-independent basis, Debye-Ang**2):
  XXX=            145.1414  YYY=             25.8203  ZZZ=              0.0039  XYY=             54.9817
  XXY=            -10.9043  XXZ=              0.0044  XZZ=             28.8497  YZZ=              0.2527
  YYZ=              0.0041  XYZ=              0.0016
 Hexadecapole moment (field-independent basis, Debye-Ang**3):
 XXXX=          -4342.1710 YYYY=           -553.4189 ZZZZ=            -94.9019 XXXY=             74.2259
 XXXZ=             -0.0653 YYYX=             -4.8570 YYYZ=             -0.0099 ZZZX=             -0.0509
 ZZZY=             -0.0110 XXYY=           -854.6833 XXZZ=           -744.0393 YYZZ=           -115.0396
 XXYZ=             -0.0060 YYXZ=             -0.0211 ZZXY=              5.9516
 N-N= 9.594367826958D+02 E-N=-1.017154315327D+04  KE= 3.461177384055D+03
 Calculating spin-rotation constants.
 Leave Link  601 at Tue Sep 17 10:39:23 2024, MaxMem=  1342177280 cpu:               3.1 elap:               3.1
 (Enter /groups/ReismanLab/Software/Gaussian16_RevC/Linux_Binary_AVX2-enabled-CPU/g16/l9999.exe)
 Unable to Open any file for archive entry.
 1\1\GINC-HPC-20-31\SP\RM062X\def2TZVP\C7H3Br1Cl1N3\MANTIND\17-Sep-2024
 \0\\#p M062X/def2tzvp geom=check guess=read scf(xqc,tight) integral(gr
 id=ultrafine) scrf(SMD, solvent=1,4-Dioxane) nmr=giao\\spe\\0,1\Cl,0,-
 4.8981141408,-0.2533323546,0.0002059902\C,0,-3.1856721467,0.0960306614
 ,-0.0000814996\N,0,-2.8846651472,1.4186039498,0.000125834\C,0,-1.60043
 56742,1.7044042833,0.0002210894\C,0,-0.594261278,0.7062122776,0.000184
 9994\C,0,0.7943946701,0.9662826733,0.0002497089\C,0,1.6393871763,-0.11
 47797931,0.0002281862\Br,0,3.5254364612,0.1036722896,0.0003279674\C,0,
 1.1008636748,-1.4309868656,0.0001343061\N,0,-0.1873787253,-1.696690967
 1,0.0000781096\C,0,-1.047837949,-0.6446721107,0.0001110177\N,0,-2.3766
 044358,-0.9293404547,-0.0000064209\H,0,-1.3270128119,2.7589367959,0.00
 03035424\H,0,1.170404152,1.9838596637,0.000321275\H,0,1.7834847171,-2.
 2776989319,0.000125458\\Version=ES64L-G16RevC.02\State=1-A\HF=-3467.19
 77433\RMSD=4.930e-09\Dipole=1.6613973,1.2435048,0.0000891\Quadrupole=-
 5.9488979,3.2356188,2.7132791,-1.8911117,-0.0003105,-0.0001807\PG=C01 
 [X(C7H3Br1Cl1N3)]\\@
 The archive entry for this job was punched.


 If your ship doesn't come in, swim out to it!
                          -- Jonathan Winters
 Job cpu time:       0 days  0 hours 14 minutes  3.1 seconds.
 Elapsed time:       0 days  0 hours 14 minutes  6.5 seconds.
 File lengths (MBytes):  RWF=    264 Int=      0 D2E=      0 Chk=     24 Scr=     16
 Normal termination of Gaussian 16 at Tue Sep 17 10:39:23 2024.
