 Entering Gaussian System, Link 0=g16
 Input=smiles_00085_conf_3.gjf
 Output=smiles_00085_conf_3.log
 Initial command:
 /groups/ReismanLab/Software/Gaussian16_RevC/Linux_Binary_AVX2-enabled-CPU/g16/l1.exe "/central/groups/ReismanLab/DM/dft_final/smiles_00085/Gau-1411278.inp" -scrdir="/central/groups/ReismanLab/DM/dft_final/smiles_00085/"
 Entering Link 1 = /groups/ReismanLab/Software/Gaussian16_RevC/Linux_Binary_AVX2-enabled-CPU/g16/l1.exe PID=   1411280.
  
 Copyright (c) 1988-2021, Gaussian, Inc.  All Rights Reserved.
  
 This is part of the Gaussian(R) 16 program.  It is based on
 the Gaussian(R) 09 system (copyright 2009, Gaussian, Inc.),
 the Gaussian(R) 03 system (copyright 2003, Gaussian, Inc.),
 the Gaussian(R) 98 system (copyright 1998, Gaussian, Inc.),
 the Gaussian(R) 94 system (copyright 1995, Gaussian, Inc.),
 the Gaussian 92(TM) system (copyright 1992, Gaussian, Inc.),
 the Gaussian 90(TM) system (copyright 1990, Gaussian, Inc.),
 the Gaussian 88(TM) system (copyright 1988, Gaussian, Inc.),
 the Gaussian 86(TM) system (copyright 1986, Carnegie Mellon
 University), and the Gaussian 82(TM) system (copyright 1983,
 Carnegie Mellon University). Gaussian is a federally registered
 trademark of Gaussian, Inc.
  
 This software contains proprietary and confidential information,
 including trade secrets, belonging to Gaussian, Inc.
  
 This software is provided under written license and may be
 used, copied, transmitted, or stored only in accord with that
 written license.
  
 The following legend is applicable only to US Government
 contracts under FAR:
  
                    RESTRICTED RIGHTS LEGEND
  
 Use, reproduction and disclosure by the US Government is
 subject to restrictions as set forth in subparagraphs (a)
 and (c) of the Commercial Computer Software - Restricted
 Rights clause in FAR 52.227-19.
  
 Gaussian, Inc.
 340 Quinnipiac St., Bldg. 40, Wallingford CT 06492
  
  
 ---------------------------------------------------------------
 Warning -- This program may not be used in any manner that
 competes with the business of Gaussian, Inc. or will provide
 assistance to any competitor of Gaussian, Inc.  The licensee
 of this program is prohibited from giving any competitor of
 Gaussian, Inc. access to this program.  By using this program,
 the user acknowledges that Gaussian, Inc. is engaged in the
 business of creating and licensing software in the field of
 computational chemistry and represents and warrants to the
 licensee that it is not a competitor of Gaussian, Inc. and that
 it will not use this program in any manner prohibited above.
 ---------------------------------------------------------------
  

 Cite this work as:
 Gaussian 16, Revision C.02,
 M. J. Frisch, G. W. Trucks, H. B. Schlegel, G. E. Scuseria, 
 M. A. Robb, J. R. Cheeseman, G. Scalmani, V. Barone, 
 G. A. Petersson, H. Nakatsuji, X. Li, M. Caricato, A. V. Marenich, 
 J. Bloino, B. G. Janesko, R. Gomperts, B. Mennucci, H. P. Hratchian, 
 J. V. Ortiz, A. F. Izmaylov, J. L. Sonnenberg, D. Williams-Young, 
 F. Ding, F. Lipparini, F. Egidi, J. Goings, B. Peng, A. Petrone, 
 T. Henderson, D. Ranasinghe, V. G. Zakrzewski, J. Gao, N. Rega, 
 G. Zheng, W. Liang, M. Hada, M. Ehara, K. Toyota, R. Fukuda, 
 J. Hasegawa, M. Ishida, T. Nakajima, Y. Honda, O. Kitao, H. Nakai, 
 T. Vreven, K. Throssell, J. A. Montgomery, Jr., J. E. Peralta, 
 F. Ogliaro, M. J. Bearpark, J. J. Heyd, E. N. Brothers, K. N. Kudin, 
 V. N. Staroverov, T. A. Keith, R. Kobayashi, J. Normand, 
 K. Raghavachari, A. P. Rendell, J. C. Burant, S. S. Iyengar, 
 J. Tomasi, M. Cossi, J. M. Millam, M. Klene, C. Adamo, R. Cammi, 
 J. W. Ochterski, R. L. Martin, K. Morokuma, O. Farkas, 
 J. B. Foresman, and D. J. Fox, Gaussian, Inc., Wallingford CT, 2019.
 
 ******************************************
 Gaussian 16:  ES64L-G16RevC.02  7-Dec-2021
                17-Sep-2024 
 ******************************************
 %nprocshared=8
 Will use up to    8 processors via shared memory.
 %Mem=10GB
 %Chk=smiles_00085_conf_3.chk
 ----------------------------------------------------------------------
 #p B3LYP/6-31G(d,p) EmpiricalDispersion=GD3BJ opt freq scf(xqc,tight) 
 integral(grid=ultrafine)
 ----------------------------------------------------------------------
 1/18=20,19=15,26=4,38=1/1,3;
 2/9=110,12=2,17=6,18=5,40=1/2;
 3/5=1,6=6,7=101,11=2,25=1,30=1,71=1,74=-5,75=-5,124=41/1,2,3;
 4//1;
 5/5=2,8=3,13=1,32=2,38=5/2,8;
 6/7=2,8=2,9=2,10=2,28=1/1;
 7//1,2,3,16;
 1/18=20,19=15,26=4/3(2);
 2/9=110/2;
 99//99;
 2/9=110/2;
 3/5=1,6=6,7=101,11=2,25=1,30=1,71=1,74=-5,75=-5,124=41/1,2,3;
 4/5=5,16=3,69=1/1;
 5/5=2,8=3,13=1,32=2,38=5/2,8;
 7//1,2,3,16;
 1/18=20,19=15,26=4/3(-5);
 2/9=110/2;
 6/7=2,8=2,9=2,10=2,19=2,28=1/1;
 99/9=1/99;
 Leave Link    1 at Tue Sep 17 09:55:19 2024, MaxMem=  1342177280 cpu:               0.1 elap:               0.6
 (Enter /groups/ReismanLab/Software/Gaussian16_RevC/Linux_Binary_AVX2-enabled-CPU/g16/l101.exe)
 ----------------------------------
 opt-freq conformers_unique/conf_ad
 ----------------------------------
 Symbolic Z-matrix:
 Charge =  0 Multiplicity = 1
 C                     1.99211  -4.48064  -0.18694 
 O                     1.22931  -3.27881  -0.19601 
 C                     1.86311  -2.14021   0.11404 
 O                     3.02406  -2.06112   0.40225 
 C                     0.92041  -0.97359   0.05742 
 C                    -0.46135  -1.16416   0.00917 
 C                    -1.26344  -0.03524  -0.02504 
 Br                   -3.15257  -0.21807  -0.0875 
 C                    -0.68658   1.2224   -0.01302 
 C                     0.70615   1.28958   0.03375 
 C                     1.35276   2.64363   0.04579 
 O                     0.72002   3.67116   0.03919 
 O                     2.6721    2.56798   0.06349 
 C                     3.37284   3.80347   0.08179 
 N                     1.48408   0.2225    0.07033 
 H                     1.94061  -4.92336  -1.18147 
 H                     3.02815  -4.26175   0.07664 
 H                     1.55224  -5.15883   0.5444 
 H                    -0.87973  -2.15729   0.00037 
 H                    -1.26658   2.1317   -0.03776 
 H                     3.13964   4.38579  -0.81234 
 H                     4.42914   3.55055   0.11026 
 H                     3.09189   4.38648   0.96151 
 
 ITRead=  0  0  0  0  0  0  0  0  0  0  0  0  0  0  0  0  0  0  0  0
 ITRead=  0  0  0
 MicOpt= -1 -1 -1 -1 -1 -1 -1 -1 -1 -1 -1 -1 -1 -1 -1 -1 -1 -1 -1 -1
 MicOpt= -1 -1 -1
 NAtoms=     23 NQM=       23 NQMF=       0 NMMI=      0 NMMIF=      0
                NMic=       0 NMicF=      0.
                    Isotopes and Nuclear Properties:
 (Nuclear quadrupole moments (NQMom) in fm**2, nuclear magnetic moments (NMagM)
  in nuclear magnetons)

  Atom         1           2           3           4           5           6           7           8           9          10
 IAtWgt=          12          16          12          16          12          12          12          79          12          12
 AtmWgt=  12.0000000  15.9949146  12.0000000  15.9949146  12.0000000  12.0000000  12.0000000  78.9183361  12.0000000  12.0000000
 NucSpn=           0           0           0           0           0           0           0           3           0           0
 AtZEff=  -0.0000000  -0.0000000  -0.0000000  -0.0000000  -0.0000000  -0.0000000  -0.0000000  -0.0000000  -0.0000000  -0.0000000
 NQMom=    0.0000000   0.0000000   0.0000000   0.0000000   0.0000000   0.0000000   0.0000000  31.3000000   0.0000000   0.0000000
 NMagM=    0.0000000   0.0000000   0.0000000   0.0000000   0.0000000   0.0000000   0.0000000   2.1063990   0.0000000   0.0000000
 AtZNuc=   6.0000000   8.0000000   6.0000000   8.0000000   6.0000000   6.0000000   6.0000000  35.0000000   6.0000000   6.0000000

  Atom        11          12          13          14          15          16          17          18          19          20
 IAtWgt=          12          16          16          12          14           1           1           1           1           1
 AtmWgt=  12.0000000  15.9949146  15.9949146  12.0000000  14.0030740   1.0078250   1.0078250   1.0078250   1.0078250   1.0078250
 NucSpn=           0           0           0           0           2           1           1           1           1           1
 AtZEff=  -0.0000000  -0.0000000  -0.0000000  -0.0000000  -0.0000000  -0.0000000  -0.0000000  -0.0000000  -0.0000000  -0.0000000
 NQMom=    0.0000000   0.0000000   0.0000000   0.0000000   2.0440000   0.0000000   0.0000000   0.0000000   0.0000000   0.0000000
 NMagM=    0.0000000   0.0000000   0.0000000   0.0000000   0.4037610   2.7928460   2.7928460   2.7928460   2.7928460   2.7928460
 AtZNuc=   6.0000000   8.0000000   8.0000000   6.0000000   7.0000000   1.0000000   1.0000000   1.0000000   1.0000000   1.0000000

  Atom        21          22          23
 IAtWgt=           1           1           1
 AtmWgt=   1.0078250   1.0078250   1.0078250
 NucSpn=           1           1           1
 AtZEff=  -0.0000000  -0.0000000  -0.0000000
 NQMom=    0.0000000   0.0000000   0.0000000
 NMagM=    2.7928460   2.7928460   2.7928460
 AtZNuc=   1.0000000   1.0000000   1.0000000
 Leave Link  101 at Tue Sep 17 09:55:19 2024, MaxMem=  1342177280 cpu:               0.2 elap:               0.2
 (Enter /groups/ReismanLab/Software/Gaussian16_RevC/Linux_Binary_AVX2-enabled-CPU/g16/l103.exe)

 GradGradGradGradGradGradGradGradGradGradGradGradGradGradGradGradGradGrad
 Berny optimization.
 Initialization pass.
                           ----------------------------
                           !    Initial Parameters    !
                           ! (Angstroms and Degrees)  !
 --------------------------                            --------------------------
 ! Name  Definition              Value          Derivative Info.                !
 --------------------------------------------------------------------------------
 ! R1    R(1,2)                  1.4235         estimate D2E/DX2                !
 ! R2    R(1,16)                 1.0898         estimate D2E/DX2                !
 ! R3    R(1,17)                 1.0912         estimate D2E/DX2                !
 ! R4    R(1,18)                 1.0901         estimate D2E/DX2                !
 ! R5    R(2,3)                  1.3395         estimate D2E/DX2                !
 ! R6    R(3,4)                  1.1988         estimate D2E/DX2                !
 ! R7    R(3,5)                  1.501          estimate D2E/DX2                !
 ! R8    R(5,6)                  1.3957         estimate D2E/DX2                !
 ! R9    R(5,15)                 1.3223         estimate D2E/DX2                !
 ! R10   R(6,7)                  1.3853         estimate D2E/DX2                !
 ! R11   R(6,19)                 1.0777         estimate D2E/DX2                !
 ! R12   R(7,8)                  1.899          estimate D2E/DX2                !
 ! R13   R(7,9)                  1.3837         estimate D2E/DX2                !
 ! R14   R(9,10)                 1.3951         estimate D2E/DX2                !
 ! R15   R(9,20)                 1.0788         estimate D2E/DX2                !
 ! R16   R(10,11)                1.5006         estimate D2E/DX2                !
 ! R17   R(10,15)                1.321          estimate D2E/DX2                !
 ! R18   R(11,12)                1.2067         estimate D2E/DX2                !
 ! R19   R(11,13)                1.3216         estimate D2E/DX2                !
 ! R20   R(13,14)                1.4205         estimate D2E/DX2                !
 ! R21   R(14,21)                1.0922         estimate D2E/DX2                !
 ! R22   R(14,22)                1.0865         estimate D2E/DX2                !
 ! R23   R(14,23)                1.0921         estimate D2E/DX2                !
 ! A1    A(2,1,16)             108.1694         estimate D2E/DX2                !
 ! A2    A(2,1,17)             109.9345         estimate D2E/DX2                !
 ! A3    A(2,1,18)             108.2586         estimate D2E/DX2                !
 ! A4    A(16,1,17)            110.2908         estimate D2E/DX2                !
 ! A5    A(16,1,18)            109.903          estimate D2E/DX2                !
 ! A6    A(17,1,18)            110.2342         estimate D2E/DX2                !
 ! A7    A(1,2,3)              117.5572         estimate D2E/DX2                !
 ! A8    A(2,3,4)              124.7464         estimate D2E/DX2                !
 ! A9    A(2,3,5)              110.7794         estimate D2E/DX2                !
 ! A10   A(4,3,5)              124.4737         estimate D2E/DX2                !
 ! A11   A(3,5,6)              121.1299         estimate D2E/DX2                !
 ! A12   A(3,5,15)             115.7827         estimate D2E/DX2                !
 ! A13   A(6,5,15)             123.0839         estimate D2E/DX2                !
 ! A14   A(5,6,7)              117.5695         estimate D2E/DX2                !
 ! A15   A(5,6,19)             120.6945         estimate D2E/DX2                !
 ! A16   A(7,6,19)             121.736          estimate D2E/DX2                !
 ! A17   A(6,7,8)              119.8916         estimate D2E/DX2                !
 ! A18   A(6,7,9)              119.9402         estimate D2E/DX2                !
 ! A19   A(8,7,9)              120.1682         estimate D2E/DX2                !
 ! A20   A(7,9,10)             117.403          estimate D2E/DX2                !
 ! A21   A(7,9,20)             122.8027         estimate D2E/DX2                !
 ! A22   A(10,9,20)            119.7943         estimate D2E/DX2                !
 ! A23   A(9,10,11)            118.2866         estimate D2E/DX2                !
 ! A24   A(9,10,15)            123.3595         estimate D2E/DX2                !
 ! A25   A(11,10,15)           118.3538         estimate D2E/DX2                !
 ! A26   A(10,11,12)           122.8452         estimate D2E/DX2                !
 ! A27   A(10,11,13)           112.2481         estimate D2E/DX2                !
 ! A28   A(12,11,13)           124.9066         estimate D2E/DX2                !
 ! A29   A(11,13,14)           116.2854         estimate D2E/DX2                !
 ! A30   A(13,14,21)           110.3553         estimate D2E/DX2                !
 ! A31   A(13,14,22)           106.1088         estimate D2E/DX2                !
 ! A32   A(13,14,23)           110.3511         estimate D2E/DX2                !
 ! A33   A(21,14,22)           110.6791         estimate D2E/DX2                !
 ! A34   A(21,14,23)           108.6558         estimate D2E/DX2                !
 ! A35   A(22,14,23)           110.6859         estimate D2E/DX2                !
 ! A36   A(5,15,10)            118.6435         estimate D2E/DX2                !
 ! D1    D(16,1,2,3)          -121.0628         estimate D2E/DX2                !
 ! D2    D(17,1,2,3)            -0.5805         estimate D2E/DX2                !
 ! D3    D(18,1,2,3)           119.8876         estimate D2E/DX2                !
 ! D4    D(1,2,3,4)             -0.241          estimate D2E/DX2                !
 ! D5    D(1,2,3,5)            179.9879         estimate D2E/DX2                !
 ! D6    D(2,3,5,6)             14.1842         estimate D2E/DX2                !
 ! D7    D(2,3,5,15)          -166.4736         estimate D2E/DX2                !
 ! D8    D(4,3,5,6)           -165.5876         estimate D2E/DX2                !
 ! D9    D(4,3,5,15)            13.7545         estimate D2E/DX2                !
 ! D10   D(3,5,6,7)            179.2328         estimate D2E/DX2                !
 ! D11   D(3,5,6,19)            -0.6983         estimate D2E/DX2                !
 ! D12   D(15,5,6,7)            -0.0601         estimate D2E/DX2                !
 ! D13   D(15,5,6,19)         -179.9913         estimate D2E/DX2                !
 ! D14   D(3,5,15,10)         -179.4421         estimate D2E/DX2                !
 ! D15   D(6,5,15,10)           -0.1142         estimate D2E/DX2                !
 ! D16   D(5,6,7,8)           -179.8647         estimate D2E/DX2                !
 ! D17   D(5,6,7,9)              0.1056         estimate D2E/DX2                !
 ! D18   D(19,6,7,8)             0.0657         estimate D2E/DX2                !
 ! D19   D(19,6,7,9)          -179.9639         estimate D2E/DX2                !
 ! D20   D(6,7,9,10)             0.0147         estimate D2E/DX2                !
 ! D21   D(6,7,9,20)          -179.9644         estimate D2E/DX2                !
 ! D22   D(8,7,9,10)           179.985          estimate D2E/DX2                !
 ! D23   D(8,7,9,20)             0.0059         estimate D2E/DX2                !
 ! D24   D(7,9,10,11)          179.9232         estimate D2E/DX2                !
 ! D25   D(7,9,10,15)           -0.2003         estimate D2E/DX2                !
 ! D26   D(20,9,10,11)          -0.097          estimate D2E/DX2                !
 ! D27   D(20,9,10,15)         179.7795         estimate D2E/DX2                !
 ! D28   D(9,10,11,12)           1.2646         estimate D2E/DX2                !
 ! D29   D(9,10,11,13)        -178.7071         estimate D2E/DX2                !
 ! D30   D(15,10,11,12)       -178.6182         estimate D2E/DX2                !
 ! D31   D(15,10,11,13)          1.4101         estimate D2E/DX2                !
 ! D32   D(9,10,15,5)            0.2492         estimate D2E/DX2                !
 ! D33   D(11,10,15,5)        -179.8744         estimate D2E/DX2                !
 ! D34   D(10,11,13,14)       -179.7387         estimate D2E/DX2                !
 ! D35   D(12,11,13,14)          0.2904         estimate D2E/DX2                !
 ! D36   D(11,13,14,21)        -60.9119         estimate D2E/DX2                !
 ! D37   D(11,13,14,22)        179.1413         estimate D2E/DX2                !
 ! D38   D(11,13,14,23)         59.1887         estimate D2E/DX2                !
 --------------------------------------------------------------------------------
 Trust Radius=3.00D-01 FncErr=1.00D-07 GrdErr=1.00D-06 EigMax=2.50D+02 EigMin=1.00D-04
 Number of steps in this run=    107 maximum allowed number of steps=    138.
 GradGradGradGradGradGradGradGradGradGradGradGradGradGradGradGradGradGrad

 Leave Link  103 at Tue Sep 17 09:55:20 2024, MaxMem=  1342177280 cpu:               0.2 elap:               0.0
 (Enter /groups/ReismanLab/Software/Gaussian16_RevC/Linux_Binary_AVX2-enabled-CPU/g16/l202.exe)
                          Input orientation:                          
 ---------------------------------------------------------------------
 Center     Atomic      Atomic             Coordinates (Angstroms)
 Number     Number       Type             X           Y           Z
 ---------------------------------------------------------------------
      1          6           0        1.992115   -4.480643   -0.186939
      2          8           0        1.229314   -3.278811   -0.196012
      3          6           0        1.863111   -2.140207    0.114041
      4          8           0        3.024064   -2.061123    0.402251
      5          6           0        0.920414   -0.973594    0.057416
      6          6           0       -0.461348   -1.164162    0.009174
      7          6           0       -1.263444   -0.035241   -0.025042
      8         35           0       -3.152567   -0.218073   -0.087497
      9          6           0       -0.686575    1.222399   -0.013017
     10          6           0        0.706154    1.289576    0.033750
     11          6           0        1.352757    2.643632    0.045789
     12          8           0        0.720024    3.671156    0.039193
     13          8           0        2.672102    2.567984    0.063491
     14          6           0        3.372840    3.803470    0.081786
     15          7           0        1.484079    0.222497    0.070329
     16          1           0        1.940606   -4.923365   -1.181469
     17          1           0        3.028152   -4.261750    0.076643
     18          1           0        1.552243   -5.158830    0.544401
     19          1           0       -0.879731   -2.157287    0.000368
     20          1           0       -1.266578    2.131697   -0.037760
     21          1           0        3.139636    4.385785   -0.812341
     22          1           0        4.429145    3.550552    0.110264
     23          1           0        3.091886    4.386481    0.961513
 ---------------------------------------------------------------------
                    Distance matrix (angstroms):
                    1          2          3          4          5
     1  C    0.000000
     2  O    1.423499   0.000000
     3  C    2.363233   1.339496   0.000000
     4  O    2.695579   2.249847   1.198805   0.000000
     5  C    3.675275   2.339588   1.500956   2.393110   0.000000
     6  C    4.130011   2.715176   2.523246   3.620379   1.395676
     7  C    5.512394   4.094365   3.771681   4.761251   2.378349
     8  Br   6.681852   5.346099   5.375150   6.464322   4.144996
     9  C    6.303199   4.895407   4.221867   4.972203   2.722087
    10  C    5.915896   4.603981   3.620554   4.090927   2.273413
    11  C    7.156692   5.928662   4.811469   5.005502   3.642990
    12  O    8.253556   6.972571   5.923192   6.188654   4.649107
    13  O    7.085778   6.027768   4.777456   4.654811   3.951104
    14  C    8.402687   7.404767   6.132505   5.883688   5.369853
    15  N    4.737491   3.520653   2.393313   2.774283   1.322315
    16  H    1.089837   2.044901   3.070882   3.445937   4.263369
    17  H    1.091221   2.067928   2.420674   2.224589   3.905752
    18  H    1.090084   2.046207   3.064952   3.432529   4.260582
    19  H    3.698725   2.396759   2.745249   3.925605   2.155205
    20  H    7.373221   5.960547   5.297845   6.015228   3.799319
    21  H    8.962226   7.923082   6.713887   6.561342   5.865524
    22  H    8.398068   7.548041   6.242538   5.792271   5.725546
    23  H    9.008571   7.972813   6.695205   6.472169   5.853468
                    6          7          8          9         10
     6  C    0.000000
     7  C    1.385277   0.000000
     8  Br   2.854311   1.898977   0.000000
     9  C    2.397267   1.383683   2.856855   0.000000
    10  C    2.717442   2.374429   4.144566   1.395132   0.000000
    11  C    4.218010   3.745115   5.339014   2.486411   1.500570
    12  O    4.977634   4.204242   5.489911   2.824476   2.381627
    13  O    4.873435   4.719443   6.458458   3.619001   2.345243
    14  C    6.275638   6.020153   7.666968   4.811421   3.665131
    15  N    2.389821   2.761233   4.660203   2.391336   1.321046
    16  H    4.617209   5.957938   7.019754   6.785114   6.449904
    17  H    4.666499   6.024244   7.387797   6.624434   6.017535
    18  H    4.505374   5.873970   6.851687   6.785506   6.523693
    19  H    1.077692   2.156609   2.988989   3.385227   3.794339
    20  H    3.393123   2.166977   3.013444   1.078814   2.146148
    21  H    6.666625   6.289072   7.830245   5.028502   4.027930
    22  H    6.793796   6.729174   8.469002   5.621929   4.356435
    23  H    6.658983   6.284411   7.829147   5.023734   4.017871
                   11         12         13         14         15
    11  C    0.000000
    12  O    1.206732   0.000000
    13  O    1.321630   2.242362   0.000000
    14  C    2.329647   2.656455   1.420490   0.000000
    15  N    2.424818   3.532421   2.629212   4.048570   0.000000
    16  H    7.688379   8.766164   7.629241   8.933350   5.315572
    17  H    7.105786   8.261952   6.839021   8.072583   4.742644
    18  H    7.820922   8.883495   7.822340   9.157041   5.402598
    19  H    5.294798   6.044127   5.911657   7.322677   3.354976
    20  H    2.670202   2.514448   3.964064   4.932881   3.350051
    21  H    2.639019   2.662767   2.071249   1.092217   4.566502
    22  H    3.207931   3.711761   2.013660   1.086535   4.444205
    23  H    2.626908   2.643500   2.071134   1.092134   4.551705
                   16         17         18         19         20
    16  H    0.000000
    17  H    1.789787   0.000000
    18  H    1.784628   1.789374   0.000000
    19  H    4.123375   4.439159   3.901247   0.000000
    20  H    7.833773   7.702854   7.838140   4.306563   0.000000
    21  H    9.393307   8.693824   9.770376   7.721891   5.009553
    22  H    8.925730   7.937000   9.182503   7.795874   5.871654
    23  H    9.622425   8.693616   9.677678   7.714820   5.007875
                   21         22         23
    21  H    0.000000
    22  H    1.792107   0.000000
    23  H    1.774496   1.792111   0.000000
 Stoichiometry    C9H8BrNO4
 Framework group  C1[X(C9H8BrNO4)]
 Deg. of freedom    63
 Full point group                 C1      NOp   1
 Largest Abelian subgroup         C1      NOp   1
 Largest concise Abelian subgroup C1      NOp   1
                         Standard orientation:                         
 ---------------------------------------------------------------------
 Center     Atomic      Atomic             Coordinates (Angstroms)
 Number     Number       Type             X           Y           Z
 ---------------------------------------------------------------------
      1          6           0       -2.150252    4.333877    0.180580
      2          8           0       -1.756875    2.965815    0.183867
      3          6           0       -0.475709    2.688735   -0.091974
      4          8           0        0.361463    3.508607   -0.345122
      5          6           0       -0.229324    1.208825   -0.046884
      6          6           0       -1.289166    0.300741   -0.041539
      7          6           0       -0.977131   -1.048680   -0.015265
      8         35           0       -2.367883   -2.341699   -0.010393
      9          6           0        0.346555   -1.451108    0.006737
     10          6           0        1.321299   -0.452990    0.001498
     11          6           0        2.763347   -0.867195    0.026838
     12          8           0        3.112586   -2.022284    0.029054
     13          8           0        3.581729    0.170383    0.046555
     14          6           0        4.971125   -0.124588    0.065597
     15          7           0        1.039585    0.837354   -0.026996
     16          1           0       -2.545049    4.576337    1.167035
     17          1           0       -1.291995    4.967232   -0.049680
     18          1           0       -2.927601    4.463915   -0.572480
     19          1           0       -2.309800    0.646338   -0.058520
     20          1           0        0.641748   -2.488552    0.027010
     21          1           0        5.225817   -0.696723    0.960434
     22          1           0        5.482848    0.833898    0.064454
     23          1           0        5.247140   -0.710327   -0.813882
 ---------------------------------------------------------------------
 Rotational constants (GHZ):           0.3975239           0.3337406           0.1822655
 Leave Link  202 at Tue Sep 17 09:55:20 2024, MaxMem=  1342177280 cpu:               0.1 elap:               0.0
 (Enter /groups/ReismanLab/Software/Gaussian16_RevC/Linux_Binary_AVX2-enabled-CPU/g16/l301.exe)
 Standard basis: 6-31G(d,p) (6D, 7F)
 Ernie: Thresh=  0.10000D-02 Tol=  0.10000D-05 Strict=F.
 There are   280 symmetry adapted cartesian basis functions of A   symmetry.
 There are   280 symmetry adapted basis functions of A   symmetry.
   280 basis functions,   531 primitive gaussians,   280 cartesian basis functions
    68 alpha electrons       68 beta electrons
       nuclear repulsion energy      1262.9216388110 Hartrees.
 IExCor=  402 DFT=T Ex+Corr=B3LYP ExCW=0 ScaHFX=  0.200000
 ScaDFX=  0.800000  0.720000  1.000000  0.810000 ScalE2=  1.000000  1.000000
 IRadAn=      5 IRanWt=     -1 IRanGd=            0 ICorTp=0 IEmpDi=141
 NAtoms=   23 NActive=   23 NUniq=   23 SFac= 1.00D+00 NAtFMM=   60 NAOKFM=F Big=F
 Integral buffers will be    131072 words long.
 Raffenetti 2 integral format.
 Two-electron integral symmetry is turned on.
 R6Disp:  Grimme-D3(BJ) Dispersion energy=       -0.0445219259 Hartrees.
 Nuclear repulsion after empirical dispersion term =     1262.8771168851 Hartrees.
 Leave Link  301 at Tue Sep 17 09:55:20 2024, MaxMem=  1342177280 cpu:               0.1 elap:               0.0
 (Enter /groups/ReismanLab/Software/Gaussian16_RevC/Linux_Binary_AVX2-enabled-CPU/g16/l302.exe)
 NPDir=0 NMtPBC=     1 NCelOv=     1 NCel=       1 NClECP=     1 NCelD=      1
         NCelK=      1 NCelE2=     1 NClLst=     1 CellRange=     0.0.
 One-electron integrals computed using PRISM.
 One-electron integral symmetry used in STVInt
 NBasis=   280 RedAO= T EigKep=  6.60D-04  NBF=   280
 NBsUse=   280 1.00D-06 EigRej= -1.00D+00 NBFU=   280
 Precomputing XC quadrature grid using
 IXCGrd= 4 IRadAn=           5 IRanWt=          -1 IRanGd=           0 AccXCQ= 0.00D+00.
 Generated NRdTot=       0 NPtTot=           0 NUsed=           0 NTot=          32
 NSgBfM=   276   276   276   276   276 MxSgAt=    23 MxSgA2=    23.
 Leave Link  302 at Tue Sep 17 09:55:20 2024, MaxMem=  1342177280 cpu:               1.2 elap:               0.2
 (Enter /groups/ReismanLab/Software/Gaussian16_RevC/Linux_Binary_AVX2-enabled-CPU/g16/l303.exe)
 DipDrv:  MaxL=1.
 Leave Link  303 at Tue Sep 17 09:55:20 2024, MaxMem=  1342177280 cpu:               0.1 elap:               0.0
 (Enter /groups/ReismanLab/Software/Gaussian16_RevC/Linux_Binary_AVX2-enabled-CPU/g16/l401.exe)
 ExpMin= 1.43D-01 ExpMax= 5.74D+05 ExpMxC= 5.74D+03 IAcc=3 IRadAn=         5 AccDes= 0.00D+00
 Harris functional with IExCor=  402 and IRadAn=       5 diagonalized for initial guess.
 HarFok:  IExCor=  402 AccDes= 0.00D+00 IRadAn=         5 IDoV= 1 UseB2=F ITyADJ=14
 ICtDFT=  3500011 ScaDFX=  1.000000  1.000000  1.000000  1.000000
 FoFCou: FMM=F IPFlag=           0 FMFlag=      100000 FMFlg1=           0
         NFxFlg=           0 DoJE=T BraDBF=F KetDBF=T FulRan=T
         wScrn=  0.000000 ICntrl=       500 IOpCl=  0 I1Cent=   200000004 NGrid=           0
         NMat0=    1 NMatS0=      1 NMatT0=    0 NMatD0=    1 NMtDS0=    0 NMtDT0=    0
 Petite list used in FoFCou.
 Harris En= -3275.28162439055    
 JPrj=0 DoOrth=F DoCkMO=F.
 Leave Link  401 at Tue Sep 17 09:55:21 2024, MaxMem=  1342177280 cpu:               5.8 elap:               0.8
 (Enter /groups/ReismanLab/Software/Gaussian16_RevC/Linux_Binary_AVX2-enabled-CPU/g16/l502.exe)
 Integral symmetry usage will be decided dynamically.
 Closed shell SCF:
 Using DIIS extrapolation, IDIIS=  1040.
 NGot=  1342177280 LenX=  1342014780 LenY=  1341935939
 Requested convergence on RMS density matrix=1.00D-08 within  32 cycles.
 Requested convergence on MAX density matrix=1.00D-06.
 Requested convergence on             energy=1.00D-06.
 No special actions if energy rises.
 Fock matrices will be formed incrementally for  20 cycles.
 Integral accuracy reduced to 1.0D-05 until final iterations.

 Cycle   1  Pass 0  IDiag  1:
 FoFJK:  IHMeth= 1 ICntrl=       0 DoSepK=F KAlg= 0 I1Cent=           0 FoldK=F
 IRaf= 770000000 NMat=       1 IRICut=       1 DoRegI=T DoRafI=F ISym2E= 0 IDoP0=0 IntGTp=1.
 FoFCou: FMM=F IPFlag=           0 FMFlag=      100000 FMFlg1=           0
         NFxFlg=           0 DoJE=F BraDBF=F KetDBF=F FulRan=T
         wScrn=  0.000000 ICntrl=         0 IOpCl=  0 I1Cent=           0 NGrid=           0
         NMat0=    1 NMatS0=      1 NMatT0=    0 NMatD0=    1 NMtDS0=    0 NMtDT0=    0
 Symmetry not used in FoFCou.
 E= -3274.88864965967    
 DIIS: error= 1.75D-01 at cycle   1 NSaved=   1.
 NSaved= 1 IEnMin= 1 EnMin= -3274.88864965967     IErMin= 1 ErrMin= 1.75D-01
 ErrMax= 1.75D-01  0.00D+00 EMaxC= 1.00D-01 BMatC= 7.11D-01 BMatP= 7.11D-01
 IDIUse=3 WtCom= 0.00D+00 WtEn= 1.00D+00
 Coeff-Com:  0.100D+01
 Coeff-En:   0.100D+01
 Coeff:      0.100D+01
 Gap=     0.247 Goal=   None    Shift=    0.000
 GapD=    0.247 DampG=1.000 DampE=0.250 DampFc=0.2500 IDamp=-1.
 Damping current iteration by 2.50D-01
 RMSDP=5.26D-03 MaxDP=2.13D-01              OVMax= 2.63D-01

 Cycle   2  Pass 0  IDiag  1:
 RMSU=  1.29D-03    CP:  9.93D-01
 E= -3274.99206798880     Delta-E=       -0.103418329123 Rises=F Damp=T
 DIIS: error= 1.29D-01 at cycle   2 NSaved=   2.
 NSaved= 2 IEnMin= 2 EnMin= -3274.99206798880     IErMin= 2 ErrMin= 1.29D-01
 ErrMax= 1.29D-01  0.00D+00 EMaxC= 1.00D-01 BMatC= 2.63D-01 BMatP= 7.11D-01
 IDIUse=3 WtCom= 0.00D+00 WtEn= 1.00D+00
 Coeff-Com: -0.839D+00 0.184D+01
 Coeff-En:   0.000D+00 0.100D+01
 Coeff:      0.000D+00 0.100D+01
 Gap=     0.195 Goal=   None    Shift=    0.000
 RMSDP=2.21D-03 MaxDP=1.09D-01 DE=-1.03D-01 OVMax= 1.39D-01

 Cycle   3  Pass 0  IDiag  1:
 RMSU=  1.27D-03    CP:  9.72D-01  2.29D+00
 E= -3275.13431669158     Delta-E=       -0.142248702785 Rises=F Damp=F
 DIIS: error= 1.12D-02 at cycle   3 NSaved=   3.
 NSaved= 3 IEnMin= 3 EnMin= -3275.13431669158     IErMin= 3 ErrMin= 1.12D-02
 ErrMax= 1.12D-02  0.00D+00 EMaxC= 1.00D-01 BMatC= 6.61D-02 BMatP= 2.63D-01
 IDIUse=3 WtCom= 8.88D-01 WtEn= 1.12D-01
 Coeff-Com:  0.477D+00-0.436D+00 0.959D+00
 Coeff-En:   0.103D+00 0.000D+00 0.897D+00
 Coeff:      0.435D+00-0.387D+00 0.952D+00
 Gap=     0.202 Goal=   None    Shift=    0.000
 RMSDP=1.35D-03 MaxDP=4.24D-02 DE=-1.42D-01 OVMax= 6.68D-02

 Cycle   4  Pass 0  IDiag  1:
 RMSU=  1.04D-03    CP:  9.73D-01  1.72D+00  6.53D-01
 E= -3275.16005611911     Delta-E=       -0.025739427529 Rises=F Damp=F
 DIIS: error= 9.01D-03 at cycle   4 NSaved=   4.
 NSaved= 4 IEnMin= 4 EnMin= -3275.16005611911     IErMin= 4 ErrMin= 9.01D-03
 ErrMax= 9.01D-03  0.00D+00 EMaxC= 1.00D-01 BMatC= 3.31D-02 BMatP= 6.61D-02
 IDIUse=3 WtCom= 9.10D-01 WtEn= 9.01D-02
 Coeff-Com:  0.401D+00-0.502D+00 0.632D+00 0.468D+00
 Coeff-En:   0.000D+00 0.000D+00 0.324D+00 0.676D+00
 Coeff:      0.365D+00-0.457D+00 0.604D+00 0.487D+00
 Gap=     0.209 Goal=   None    Shift=    0.000
 RMSDP=6.89D-04 MaxDP=2.72D-02 DE=-2.57D-02 OVMax= 4.56D-02

 Cycle   5  Pass 0  IDiag  1:
 RMSU=  1.99D-04    CP:  9.73D-01  1.72D+00  9.03D-01  4.43D-01
 E= -3275.18776831711     Delta-E=       -0.027712197996 Rises=F Damp=F
 DIIS: error= 1.65D-03 at cycle   5 NSaved=   5.
 NSaved= 5 IEnMin= 5 EnMin= -3275.18776831711     IErMin= 5 ErrMin= 1.65D-03
 ErrMax= 1.65D-03  0.00D+00 EMaxC= 1.00D-01 BMatC= 1.41D-03 BMatP= 3.31D-02
 IDIUse=3 WtCom= 9.84D-01 WtEn= 1.65D-02
 Coeff-Com:  0.179D+00-0.230D+00 0.287D+00 0.270D+00 0.493D+00
 Coeff-En:   0.000D+00 0.000D+00 0.000D+00 0.000D+00 0.100D+01
 Coeff:      0.176D+00-0.226D+00 0.283D+00 0.266D+00 0.502D+00
 Gap=     0.198 Goal=   None    Shift=    0.000
 RMSDP=1.36D-04 MaxDP=5.36D-03 DE=-2.77D-02 OVMax= 9.64D-03

 Cycle   6  Pass 0  IDiag  1:
 RMSU=  6.80D-05    CP:  9.73D-01  1.75D+00  8.87D-01  4.73D-01  4.67D-01
 E= -3275.18884299756     Delta-E=       -0.001074680455 Rises=F Damp=F
 DIIS: error= 3.45D-04 at cycle   6 NSaved=   6.
 NSaved= 6 IEnMin= 6 EnMin= -3275.18884299756     IErMin= 6 ErrMin= 3.45D-04
 ErrMax= 3.45D-04  0.00D+00 EMaxC= 1.00D-01 BMatC= 9.12D-05 BMatP= 1.41D-03
 IDIUse=3 WtCom= 9.97D-01 WtEn= 3.45D-03
 Coeff-Com:  0.720D-01-0.934D-01 0.108D+00 0.101D+00 0.267D+00 0.545D+00
 Coeff-En:   0.000D+00 0.000D+00 0.000D+00 0.000D+00 0.000D+00 0.100D+01
 Coeff:      0.718D-01-0.930D-01 0.108D+00 0.101D+00 0.266D+00 0.546D+00
 Gap=     0.198 Goal=   None    Shift=    0.000
 RMSDP=4.28D-05 MaxDP=1.43D-03 DE=-1.07D-03 OVMax= 3.30D-03

 Cycle   7  Pass 0  IDiag  1:
 RMSU=  2.36D-05    CP:  9.73D-01  1.74D+00  8.93D-01  4.78D-01  5.39D-01
                    CP:  5.49D-01
 E= -3275.18891774101     Delta-E=       -0.000074743447 Rises=F Damp=F
 DIIS: error= 1.61D-04 at cycle   7 NSaved=   7.
 NSaved= 7 IEnMin= 7 EnMin= -3275.18891774101     IErMin= 7 ErrMin= 1.61D-04
 ErrMax= 1.61D-04  0.00D+00 EMaxC= 1.00D-01 BMatC= 1.33D-05 BMatP= 9.12D-05
 IDIUse=3 WtCom= 9.98D-01 WtEn= 1.61D-03
 Coeff-Com:  0.309D-01-0.404D-01 0.425D-01 0.375D-01 0.121D+00 0.338D+00
 Coeff-Com:  0.471D+00
 Coeff-En:   0.000D+00 0.000D+00 0.000D+00 0.000D+00 0.000D+00 0.321D-01
 Coeff-En:   0.968D+00
 Coeff:      0.308D-01-0.404D-01 0.424D-01 0.374D-01 0.120D+00 0.338D+00
 Coeff:      0.472D+00
 Gap=     0.197 Goal=   None    Shift=    0.000
 RMSDP=1.53D-05 MaxDP=6.03D-04 DE=-7.47D-05 OVMax= 1.03D-03

 Cycle   8  Pass 0  IDiag  1:
 RMSU=  9.22D-06    CP:  9.73D-01  1.74D+00  8.95D-01  4.78D-01  5.31D-01
                    CP:  6.04D-01  5.30D-01
 E= -3275.18892813026     Delta-E=       -0.000010389253 Rises=F Damp=F
 DIIS: error= 5.06D-05 at cycle   8 NSaved=   8.
 NSaved= 8 IEnMin= 8 EnMin= -3275.18892813026     IErMin= 8 ErrMin= 5.06D-05
 ErrMax= 5.06D-05  0.00D+00 EMaxC= 1.00D-01 BMatC= 2.00D-06 BMatP= 1.33D-05
 IDIUse=1 WtCom= 1.00D+00 WtEn= 0.00D+00
 Coeff-Com:  0.934D-02-0.124D-01 0.106D-01 0.725D-02 0.328D-01 0.122D+00
 Coeff-Com:  0.302D+00 0.528D+00
 Coeff:      0.934D-02-0.124D-01 0.106D-01 0.725D-02 0.328D-01 0.122D+00
 Coeff:      0.302D+00 0.528D+00
 Gap=     0.198 Goal=   None    Shift=    0.000
 RMSDP=5.50D-06 MaxDP=2.49D-04 DE=-1.04D-05 OVMax= 3.66D-04

 Initial convergence to 1.0D-05 achieved.  Increase integral accuracy.
 Cycle   9  Pass 1  IDiag  1:
 E= -3275.18892704709     Delta-E=        0.000001083167 Rises=F Damp=F
 DIIS: error= 4.55D-05 at cycle   1 NSaved=   1.
 NSaved= 1 IEnMin= 1 EnMin= -3275.18892704709     IErMin= 1 ErrMin= 4.55D-05
 ErrMax= 4.55D-05  0.00D+00 EMaxC= 1.00D-01 BMatC= 4.06D-07 BMatP= 4.06D-07
 IDIUse=1 WtCom= 1.00D+00 WtEn= 0.00D+00
 Coeff-Com:  0.100D+01
 Coeff:      0.100D+01
 Gap=     0.197 Goal=   None    Shift=    0.000
 RMSDP=5.50D-06 MaxDP=2.49D-04 DE= 1.08D-06 OVMax= 3.65D-04

 Cycle  10  Pass 1  IDiag  1:
 RMSU=  1.34D-05    CP:  1.00D+00
 E= -3275.18892669028     Delta-E=        0.000000356813 Rises=F Damp=F
 DIIS: error= 5.03D-05 at cycle   2 NSaved=   2.
 NSaved= 2 IEnMin= 1 EnMin= -3275.18892704709     IErMin= 1 ErrMin= 4.55D-05
 ErrMax= 5.03D-05  0.00D+00 EMaxC= 1.00D-01 BMatC= 7.83D-07 BMatP= 4.06D-07
 IDIUse=1 WtCom= 1.00D+00 WtEn= 0.00D+00
 Coeff-Com:  0.598D+00 0.402D+00
 Coeff:      0.598D+00 0.402D+00
 Gap=     0.198 Goal=   None    Shift=    0.000
 RMSDP=3.69D-06 MaxDP=1.94D-04 DE= 3.57D-07 OVMax= 3.45D-04

 Cycle  11  Pass 1  IDiag  1:
 RMSU=  3.57D-06    CP:  1.00D+00  9.30D-01
 E= -3275.18892729401     Delta-E=       -0.000000603731 Rises=F Damp=F
 DIIS: error= 1.75D-05 at cycle   3 NSaved=   3.
 NSaved= 3 IEnMin= 3 EnMin= -3275.18892729401     IErMin= 3 ErrMin= 1.75D-05
 ErrMax= 1.75D-05  0.00D+00 EMaxC= 1.00D-01 BMatC= 8.63D-08 BMatP= 4.06D-07
 IDIUse=1 WtCom= 1.00D+00 WtEn= 0.00D+00
 Coeff-Com:  0.834D-01 0.248D+00 0.668D+00
 Coeff:      0.834D-01 0.248D+00 0.668D+00
 Gap=     0.198 Goal=   None    Shift=    0.000
 RMSDP=1.15D-06 MaxDP=6.74D-05 DE=-6.04D-07 OVMax= 1.04D-04

 Cycle  12  Pass 1  IDiag  1:
 RMSU=  7.66D-07    CP:  1.00D+00  9.51D-01  7.72D-01
 E= -3275.18892735188     Delta-E=       -0.000000057864 Rises=F Damp=F
 DIIS: error= 4.51D-06 at cycle   4 NSaved=   4.
 NSaved= 4 IEnMin= 4 EnMin= -3275.18892735188     IErMin= 4 ErrMin= 4.51D-06
 ErrMax= 4.51D-06  0.00D+00 EMaxC= 1.00D-01 BMatC= 1.30D-08 BMatP= 8.63D-08
 IDIUse=1 WtCom= 1.00D+00 WtEn= 0.00D+00
 Coeff-Com:  0.220D-02 0.122D+00 0.414D+00 0.462D+00
 Coeff:      0.220D-02 0.122D+00 0.414D+00 0.462D+00
 Gap=     0.198 Goal=   None    Shift=    0.000
 RMSDP=4.59D-07 MaxDP=1.84D-05 DE=-5.79D-08 OVMax= 3.84D-05

 Cycle  13  Pass 1  IDiag  1:
 RMSU=  1.72D-07    CP:  1.00D+00  9.54D-01  7.78D-01  4.47D-01
 E= -3275.18892736345     Delta-E=       -0.000000011575 Rises=F Damp=F
 DIIS: error= 1.45D-06 at cycle   5 NSaved=   5.
 NSaved= 5 IEnMin= 5 EnMin= -3275.18892736345     IErMin= 5 ErrMin= 1.45D-06
 ErrMax= 1.45D-06  0.00D+00 EMaxC= 1.00D-01 BMatC= 7.01D-10 BMatP= 1.30D-08
 IDIUse=1 WtCom= 1.00D+00 WtEn= 0.00D+00
 Coeff-Com: -0.176D-02 0.679D-01 0.237D+00 0.294D+00 0.403D+00
 Coeff:     -0.176D-02 0.679D-01 0.237D+00 0.294D+00 0.403D+00
 Gap=     0.198 Goal=   None    Shift=    0.000
 RMSDP=1.08D-07 MaxDP=3.65D-06 DE=-1.16D-08 OVMax= 1.00D-05

 Cycle  14  Pass 1  IDiag  1:
 RMSU=  4.55D-08    CP:  1.00D+00  9.54D-01  7.80D-01  4.79D-01  4.49D-01
 E= -3275.18892736416     Delta-E=       -0.000000000713 Rises=F Damp=F
 DIIS: error= 1.87D-07 at cycle   6 NSaved=   6.
 NSaved= 6 IEnMin= 6 EnMin= -3275.18892736416     IErMin= 6 ErrMin= 1.87D-07
 ErrMax= 1.87D-07  0.00D+00 EMaxC= 1.00D-01 BMatC= 1.66D-11 BMatP= 7.01D-10
 IDIUse=1 WtCom= 1.00D+00 WtEn= 0.00D+00
 Coeff-Com: -0.103D-02 0.323D-01 0.113D+00 0.143D+00 0.223D+00 0.490D+00
 Coeff:     -0.103D-02 0.323D-01 0.113D+00 0.143D+00 0.223D+00 0.490D+00
 Gap=     0.198 Goal=   None    Shift=    0.000
 RMSDP=1.85D-08 MaxDP=9.84D-07 DE=-7.13D-10 OVMax= 1.69D-06

 Cycle  15  Pass 1  IDiag  1:
 RMSU=  1.36D-08    CP:  1.00D+00  9.54D-01  7.80D-01  4.79D-01  4.73D-01
                    CP:  7.43D-01
 E= -3275.18892736427     Delta-E=       -0.000000000110 Rises=F Damp=F
 DIIS: error= 5.44D-08 at cycle   7 NSaved=   7.
 NSaved= 7 IEnMin= 7 EnMin= -3275.18892736427     IErMin= 7 ErrMin= 5.44D-08
 ErrMax= 5.44D-08  0.00D+00 EMaxC= 1.00D-01 BMatC= 1.70D-12 BMatP= 1.66D-11
 IDIUse=1 WtCom= 1.00D+00 WtEn= 0.00D+00
 Coeff-Com: -0.399D-03 0.111D-01 0.390D-01 0.498D-01 0.842D-01 0.280D+00
 Coeff-Com:  0.536D+00
 Coeff:     -0.399D-03 0.111D-01 0.390D-01 0.498D-01 0.842D-01 0.280D+00
 Coeff:      0.536D+00
 Gap=     0.198 Goal=   None    Shift=    0.000
 RMSDP=5.54D-09 MaxDP=3.31D-07 DE=-1.10D-10 OVMax= 5.51D-07

 SCF Done:  E(RB3LYP) =  -3275.18892736     A.U. after   15 cycles
            NFock= 15  Conv=0.55D-08     -V/T= 2.0067
 KE= 3.253515843878D+03 PE=-1.030181982211D+04 EE= 2.510237933984D+03
 Leave Link  502 at Tue Sep 17 09:55:32 2024, MaxMem=  1342177280 cpu:              81.1 elap:              10.8
 (Enter /groups/ReismanLab/Software/Gaussian16_RevC/Linux_Binary_AVX2-enabled-CPU/g16/l508.exe)
 QCSCF skips out because SCF is already converged.
 Leave Link  508 at Tue Sep 17 09:55:32 2024, MaxMem=  1342177280 cpu:               0.0 elap:               0.0
 (Enter /groups/ReismanLab/Software/Gaussian16_RevC/Linux_Binary_AVX2-enabled-CPU/g16/l601.exe)
 Copying SCF densities to generalized density rwf, IOpCl= 0 IROHF=0.

 **********************************************************************

            Population analysis using the SCF Density.

 **********************************************************************

 Orbital symmetries:
       Occupied  (A) (A) (A) (A) (A) (A) (A) (A) (A) (A) (A) (A)
                 (A) (A) (A) (A) (A) (A) (A) (A) (A) (A) (A) (A)
                 (A) (A) (A) (A) (A) (A) (A) (A) (A) (A) (A) (A)
                 (A) (A) (A) (A) (A) (A) (A) (A) (A) (A) (A) (A)
                 (A) (A) (A) (A) (A) (A) (A) (A) (A) (A) (A) (A)
                 (A) (A) (A) (A) (A) (A) (A) (A)
       Virtual   (A) (A) (A) (A) (A) (A) (A) (A) (A) (A) (A) (A)
                 (A) (A) (A) (A) (A) (A) (A) (A) (A) (A) (A) (A)
                 (A) (A) (A) (A) (A) (A) (A) (A) (A) (A) (A) (A)
                 (A) (A) (A) (A) (A) (A) (A) (A) (A) (A) (A) (A)
                 (A) (A) (A) (A) (A) (A) (A) (A) (A) (A) (A) (A)
                 (A) (A) (A) (A) (A) (A) (A) (A) (A) (A) (A) (A)
                 (A) (A) (A) (A) (A) (A) (A) (A) (A) (A) (A) (A)
                 (A) (A) (A) (A) (A) (A) (A) (A) (A) (A) (A) (A)
                 (A) (A) (A) (A) (A) (A) (A) (A) (A) (A) (A) (A)
                 (A) (A) (A) (A) (A) (A) (A) (A) (A) (A) (A) (A)
                 (A) (A) (A) (A) (A) (A) (A) (A) (A) (A) (A) (A)
                 (A) (A) (A) (A) (A) (A) (A) (A) (A) (A) (A) (A)
                 (A) (A) (A) (A) (A) (A) (A) (A) (A) (A) (A) (A)
                 (A) (A) (A) (A) (A) (A) (A) (A) (A) (A) (A) (A)
                 (A) (A) (A) (A) (A) (A) (A) (A) (A) (A) (A) (A)
                 (A) (A) (A) (A) (A) (A) (A) (A) (A) (A) (A) (A)
                 (A) (A) (A) (A) (A) (A) (A) (A) (A) (A) (A) (A)
                 (A) (A) (A) (A) (A) (A) (A) (A)
 The electronic state is 1-A.
 Alpha  occ. eigenvalues -- -482.93069 -61.89234 -56.41379 -56.40952 -56.40948
 Alpha  occ. eigenvalues --  -19.20437 -19.19934 -19.14306 -19.14300 -14.35232
 Alpha  occ. eigenvalues --  -10.32419 -10.32224 -10.27780 -10.25593 -10.25448
 Alpha  occ. eigenvalues --  -10.24618 -10.24323 -10.22946 -10.22764  -8.60377
 Alpha  occ. eigenvalues --   -6.55792  -6.54502  -6.54446  -2.67362  -2.67000
 Alpha  occ. eigenvalues --   -2.66958  -2.65927  -2.65927  -1.12029  -1.11934
 Alpha  occ. eigenvalues --   -1.02974  -1.02714  -0.97957  -0.86460  -0.81608
 Alpha  occ. eigenvalues --   -0.77566  -0.75277  -0.73720  -0.67367  -0.65728
 Alpha  occ. eigenvalues --   -0.58484  -0.57516  -0.54942  -0.53015  -0.51122
 Alpha  occ. eigenvalues --   -0.50563  -0.49560  -0.49196  -0.47466  -0.46870
 Alpha  occ. eigenvalues --   -0.44330  -0.43754  -0.43478  -0.41350  -0.41125
 Alpha  occ. eigenvalues --   -0.40621  -0.39450  -0.36176  -0.35892  -0.35125
 Alpha  occ. eigenvalues --   -0.30925  -0.30839  -0.30570  -0.29858  -0.28920
 Alpha  occ. eigenvalues --   -0.28265  -0.27840  -0.26811
 Alpha virt. eigenvalues --   -0.07061  -0.06393  -0.00973   0.01699   0.07014
 Alpha virt. eigenvalues --    0.10873   0.11208   0.12055   0.13058   0.14611
 Alpha virt. eigenvalues --    0.15096   0.15330   0.15818   0.16002   0.16454
 Alpha virt. eigenvalues --    0.17513   0.21154   0.23481   0.25136   0.25527
 Alpha virt. eigenvalues --    0.27906   0.29382   0.30428   0.32068   0.35363
 Alpha virt. eigenvalues --    0.37168   0.38260   0.41928   0.42435   0.44407
 Alpha virt. eigenvalues --    0.44584   0.46637   0.46869   0.48042   0.48769
 Alpha virt. eigenvalues --    0.50453   0.50671   0.51295   0.51969   0.52598
 Alpha virt. eigenvalues --    0.53485   0.55475   0.55687   0.56176   0.58357
 Alpha virt. eigenvalues --    0.59815   0.60203   0.62193   0.63579   0.64914
 Alpha virt. eigenvalues --    0.65784   0.66187   0.68923   0.71498   0.72203
 Alpha virt. eigenvalues --    0.73881   0.74382   0.75424   0.75830   0.76370
 Alpha virt. eigenvalues --    0.77324   0.80252   0.81509   0.82688   0.83097
 Alpha virt. eigenvalues --    0.83825   0.84167   0.85686   0.86666   0.87830
 Alpha virt. eigenvalues --    0.89400   0.90074   0.92470   0.94480   0.95446
 Alpha virt. eigenvalues --    0.96033   0.97214   0.97665   0.98498   1.03063
 Alpha virt. eigenvalues --    1.03451   1.06059   1.08073   1.09641   1.10781
 Alpha virt. eigenvalues --    1.16147   1.19029   1.21298   1.23895   1.26439
 Alpha virt. eigenvalues --    1.27355   1.28872   1.29703   1.29942   1.32056
 Alpha virt. eigenvalues --    1.32192   1.34971   1.36989   1.37550   1.44132
 Alpha virt. eigenvalues --    1.45383   1.47660   1.48946   1.50097   1.51609
 Alpha virt. eigenvalues --    1.51810   1.55703   1.58664   1.59252   1.62565
 Alpha virt. eigenvalues --    1.64006   1.67465   1.69878   1.72037   1.73520
 Alpha virt. eigenvalues --    1.74685   1.79144   1.80135   1.83436   1.84118
 Alpha virt. eigenvalues --    1.86455   1.86690   1.88376   1.91430   1.92060
 Alpha virt. eigenvalues --    1.92201   1.93178   1.94349   1.96281   1.98204
 Alpha virt. eigenvalues --    1.98722   2.01013   2.01368   2.01560   2.02626
 Alpha virt. eigenvalues --    2.03077   2.03962   2.04199   2.05415   2.05681
 Alpha virt. eigenvalues --    2.07340   2.09308   2.10263   2.12952   2.15909
 Alpha virt. eigenvalues --    2.20241   2.27716   2.29112   2.30798   2.32751
 Alpha virt. eigenvalues --    2.39021   2.39412   2.41154   2.42357   2.44608
 Alpha virt. eigenvalues --    2.47776   2.48613   2.50261   2.50805   2.53379
 Alpha virt. eigenvalues --    2.53727   2.57540   2.59231   2.60687   2.61098
 Alpha virt. eigenvalues --    2.65409   2.66546   2.67569   2.69856   2.70918
 Alpha virt. eigenvalues --    2.71870   2.75171   2.77781   2.81980   2.83853
 Alpha virt. eigenvalues --    2.84599   2.88386   2.88785   2.91566   2.95139
 Alpha virt. eigenvalues --    2.96387   2.97963   2.99116   3.08232   3.15824
 Alpha virt. eigenvalues --    3.19106   3.19176   3.22374   3.29052   3.30827
 Alpha virt. eigenvalues --    3.39896   3.40531   3.40656   3.42676   3.45041
 Alpha virt. eigenvalues --    3.67335   3.95155   4.00312   4.06962   4.10300
 Alpha virt. eigenvalues --    4.19390   4.23438   4.27568   4.38170   4.43474
 Alpha virt. eigenvalues --    4.43874   4.54295   4.59897   4.64904   4.74072
 Alpha virt. eigenvalues --    8.58837  72.80669
          Condensed to atoms (all electrons):
               1          2          3          4          5          6
     1  C    4.764592   0.219017  -0.025434  -0.014654   0.006968  -0.000792
     2  O    0.219017   8.249400   0.271640  -0.083147  -0.108885   0.009556
     3  C   -0.025434   0.271640   4.424291   0.583099   0.291481  -0.076057
     4  O   -0.014654  -0.083147   0.583099   8.003931  -0.075768   0.003627
     5  C    0.006968  -0.108885   0.291481  -0.075768   4.956835   0.402869
     6  C   -0.000792   0.009556  -0.076057   0.003627   0.402869   5.100028
     7  C   -0.000004   0.000707   0.003202  -0.000061  -0.015377   0.470022
     8  Br  -0.000000  -0.000003  -0.000120   0.000000   0.005505  -0.061468
     9  C    0.000001  -0.000002   0.000079  -0.000024  -0.054088  -0.026366
    10  C    0.000002  -0.000032   0.006459   0.000601  -0.018177  -0.053814
    11  C   -0.000000   0.000000  -0.000079   0.000008   0.005377   0.000224
    12  O    0.000000  -0.000000   0.000000  -0.000000  -0.000077  -0.000013
    13  O   -0.000000  -0.000000   0.000009  -0.000000   0.000006  -0.000026
    14  C   -0.000000   0.000000  -0.000001   0.000000   0.000015   0.000001
    15  N   -0.000087   0.001558  -0.069127   0.001504   0.443525  -0.062134
    16  H    0.391245  -0.034139   0.001063   0.000449  -0.000172   0.000012
    17  H    0.374621  -0.032667  -0.008971   0.026460   0.000858   0.000062
    18  H    0.390667  -0.034206   0.000935   0.000450  -0.000027  -0.000030
    19  H   -0.000252   0.010708  -0.004850   0.000169  -0.032084   0.366848
    20  H    0.000000  -0.000000   0.000019  -0.000000   0.000022   0.005161
    21  H    0.000000  -0.000000   0.000000  -0.000000   0.000001  -0.000000
    22  H   -0.000000   0.000000  -0.000000   0.000000  -0.000001   0.000000
    23  H    0.000000  -0.000000   0.000000   0.000000   0.000001  -0.000000
               7          8          9         10         11         12
     1  C   -0.000004  -0.000000   0.000001   0.000002  -0.000000   0.000000
     2  O    0.000707  -0.000003  -0.000002  -0.000032   0.000000  -0.000000
     3  C    0.003202  -0.000120   0.000079   0.006459  -0.000079   0.000000
     4  O   -0.000061   0.000000  -0.000024   0.000601   0.000008  -0.000000
     5  C   -0.015377   0.005505  -0.054088  -0.018177   0.005377  -0.000077
     6  C    0.470022  -0.061468  -0.026366  -0.053814   0.000224  -0.000013
     7  C    4.862928   0.274291   0.462498  -0.018138   0.005287   0.001110
     8  Br   0.274291  34.934512  -0.062821   0.005345  -0.000136   0.000002
     9  C    0.462498  -0.062821   5.104287   0.408422  -0.075814   0.007319
    10  C   -0.018138   0.005345   0.408422   4.956483   0.307611  -0.092857
    11  C    0.005287  -0.000136  -0.075814   0.307611   4.398624   0.563918
    12  O    0.001110   0.000002   0.007319  -0.092857   0.563918   8.061745
    13  O   -0.000022   0.000000   0.004874  -0.086027   0.282889  -0.086624
    14  C   -0.000001  -0.000000  -0.000211   0.008180  -0.022758   0.002173
    15  N   -0.031433  -0.000041  -0.061869   0.412120  -0.066226   0.002228
    16  H    0.000001  -0.000000  -0.000000  -0.000000  -0.000000  -0.000000
    17  H    0.000002  -0.000000   0.000000  -0.000000  -0.000000   0.000000
    18  H   -0.000001   0.000000  -0.000000  -0.000000   0.000000  -0.000000
    19  H   -0.041488  -0.002951   0.005422   0.000035   0.000017  -0.000000
    20  H   -0.040302  -0.002865   0.366331  -0.034244  -0.005042   0.013057
    21  H    0.000000   0.000000   0.000002  -0.000372  -0.006101   0.006184
    22  H   -0.000000   0.000000   0.000001   0.000067   0.004173   0.000609
    23  H    0.000000   0.000000  -0.000001  -0.000328  -0.006211   0.006594
              13         14         15         16         17         18
     1  C   -0.000000  -0.000000  -0.000087   0.391245   0.374621   0.390667
     2  O   -0.000000   0.000000   0.001558  -0.034139  -0.032667  -0.034206
     3  C    0.000009  -0.000001  -0.069127   0.001063  -0.008971   0.000935
     4  O   -0.000000   0.000000   0.001504   0.000449   0.026460   0.000450
     5  C    0.000006   0.000015   0.443525  -0.000172   0.000858  -0.000027
     6  C   -0.000026   0.000001  -0.062134   0.000012   0.000062  -0.000030
     7  C   -0.000022  -0.000001  -0.031433   0.000001   0.000002  -0.000001
     8  Br   0.000000  -0.000000  -0.000041  -0.000000  -0.000000   0.000000
     9  C    0.004874  -0.000211  -0.061869  -0.000000   0.000000  -0.000000
    10  C   -0.086027   0.008180   0.412120  -0.000000  -0.000000  -0.000000
    11  C    0.282889  -0.022758  -0.066226  -0.000000  -0.000000   0.000000
    12  O   -0.086624   0.002173   0.002228  -0.000000   0.000000  -0.000000
    13  O    8.195397   0.217067   0.000087   0.000000   0.000000  -0.000000
    14  C    0.217067   4.723955  -0.000260   0.000000  -0.000000   0.000000
    15  N    0.000087  -0.000260   6.911496   0.000005  -0.000015   0.000001
    16  H    0.000000   0.000000   0.000005   0.580247  -0.029182  -0.037889
    17  H    0.000000  -0.000000  -0.000015  -0.029182   0.543315  -0.029473
    18  H   -0.000000   0.000000   0.000001  -0.037889  -0.029473   0.582392
    19  H   -0.000000   0.000000   0.004575   0.000006   0.000039  -0.000036
    20  H    0.000319  -0.000020   0.004816  -0.000000   0.000000  -0.000000
    21  H   -0.031454   0.383357  -0.000006  -0.000000  -0.000000   0.000000
    22  H   -0.032641   0.392483  -0.000023   0.000000  -0.000000   0.000000
    23  H   -0.031399   0.383323  -0.000009   0.000000   0.000000  -0.000000
              19         20         21         22         23
     1  C   -0.000252   0.000000   0.000000  -0.000000   0.000000
     2  O    0.010708  -0.000000  -0.000000   0.000000  -0.000000
     3  C   -0.004850   0.000019   0.000000  -0.000000   0.000000
     4  O    0.000169  -0.000000  -0.000000   0.000000   0.000000
     5  C   -0.032084   0.000022   0.000001  -0.000001   0.000001
     6  C    0.366848   0.005161  -0.000000   0.000000  -0.000000
     7  C   -0.041488  -0.040302   0.000000  -0.000000   0.000000
     8  Br  -0.002951  -0.002865   0.000000   0.000000   0.000000
     9  C    0.005422   0.366331   0.000002   0.000001  -0.000001
    10  C    0.000035  -0.034244  -0.000372   0.000067  -0.000328
    11  C    0.000017  -0.005042  -0.006101   0.004173  -0.006211
    12  O   -0.000000   0.013057   0.006184   0.000609   0.006594
    13  O   -0.000000   0.000319  -0.031454  -0.032641  -0.031399
    14  C    0.000000  -0.000020   0.383357   0.392483   0.383323
    15  N    0.004575   0.004816  -0.000006  -0.000023  -0.000009
    16  H    0.000006  -0.000000  -0.000000   0.000000   0.000000
    17  H    0.000039   0.000000  -0.000000  -0.000000   0.000000
    18  H   -0.000036  -0.000000   0.000000   0.000000  -0.000000
    19  H    0.554194  -0.000085   0.000000  -0.000000   0.000000
    20  H   -0.000085   0.545110  -0.000002  -0.000000  -0.000002
    21  H    0.000000  -0.000002   0.589249  -0.032600  -0.038363
    22  H   -0.000000  -0.000000  -0.032600   0.569705  -0.032225
    23  H    0.000000  -0.000002  -0.038363  -0.032225   0.587550
 Mulliken charges:
               1
     1  C   -0.105890
     2  O   -0.469507
     3  C    0.602361
     4  O   -0.446641
     5  C    0.191192
     6  C   -0.077710
     7  C    0.066780
     8  Br  -0.089251
     9  C   -0.078040
    10  C    0.198666
    11  C    0.614240
    12  O   -0.485368
    13  O   -0.432455
    14  C   -0.087304
    15  N   -0.490686
    16  H    0.128356
    17  H    0.154951
    18  H    0.127218
    19  H    0.139733
    20  H    0.147728
    21  H    0.130104
    22  H    0.130453
    23  H    0.131070
 Sum of Mulliken charges =  -0.00000
 Mulliken charges with hydrogens summed into heavy atoms:
               1
     1  C    0.304634
     2  O   -0.469507
     3  C    0.602361
     4  O   -0.446641
     5  C    0.191192
     6  C    0.062023
     7  C    0.066780
     8  Br  -0.089251
     9  C    0.069689
    10  C    0.198666
    11  C    0.614240
    12  O   -0.485368
    13  O   -0.432455
    14  C    0.304324
    15  N   -0.490686
 Electronic spatial extent (au):  <R**2>=           5330.5611
 Charge=             -0.0000 electrons
 Dipole moment (field-independent basis, Debye):
    X=             -1.7255    Y=              0.8762    Z=              0.4130  Tot=              1.9788
 Quadrupole moment (field-independent basis, Debye-Ang):
   XX=            -82.9671   YY=            -97.8896   ZZ=            -95.3127
   XY=             -6.8155   XZ=              0.8110   YZ=              2.0079
 Traceless Quadrupole moment (field-independent basis, Debye-Ang):
   XX=              9.0894   YY=             -5.8331   ZZ=             -3.2562
   XY=             -6.8155   XZ=              0.8110   YZ=              2.0079
 Octapole moment (field-independent basis, Debye-Ang**2):
  XXX=             17.2756  YYY=            -15.6947  ZZZ=              0.1889  XYY=            -85.4242
  XXY=             11.3585  XXZ=              0.4353  XZZ=            -13.9130  YZZ=            -14.6597
  YYZ=              8.8705  XYZ=              1.2689
 Hexadecapole moment (field-independent basis, Debye-Ang**3):
 XXXX=          -2690.6837 YYYY=          -2599.9566 ZZZZ=           -109.2672 XXXY=            175.4904
 XXXZ=              8.0749 YYYX=             -7.2164 YYYZ=             37.2005 ZZZX=             -0.7998
 ZZZY=              1.0456 XXYY=           -974.2576 XXZZ=           -546.6183 YYZZ=           -474.4335
 XXYZ=              0.9555 YYXZ=             -0.8621 ZZXY=             30.4773
 N-N= 1.262877116885D+03 E-N=-1.030181982341D+04  KE= 3.253515843878D+03
 No NMR shielding tensors so no spin-rotation constants.
 Leave Link  601 at Tue Sep 17 09:55:32 2024, MaxMem=  1342177280 cpu:               0.7 elap:               0.2
 (Enter /groups/ReismanLab/Software/Gaussian16_RevC/Linux_Binary_AVX2-enabled-CPU/g16/l701.exe)
 ... and contract with generalized density number  0.
 Compute integral first derivatives.
 R6Disp: Adding Grimme-D3(BJ) dispersion energy 1st derivatives to the gradient.
 Leave Link  701 at Tue Sep 17 09:55:32 2024, MaxMem=  1342177280 cpu:               0.6 elap:               0.1
 (Enter /groups/ReismanLab/Software/Gaussian16_RevC/Linux_Binary_AVX2-enabled-CPU/g16/l702.exe)
 L702 exits ... SP integral derivatives will be done elsewhere.
 Leave Link  702 at Tue Sep 17 09:55:32 2024, MaxMem=  1342177280 cpu:               0.0 elap:               0.0
 (Enter /groups/ReismanLab/Software/Gaussian16_RevC/Linux_Binary_AVX2-enabled-CPU/g16/l703.exe)
 Integral derivatives from FoFJK, PRISM(SPDF).
 Compute integral first derivatives, UseDBF=F ICtDFT=           0.
 Calling FoFJK, ICntrl=      2127 FMM=F ISym2X=0 I1Cent= 0 IOpClX= 0 NMat=1 NMatS=1 NMatT=0.
 FoFJK:  IHMeth= 1 ICntrl=    2127 DoSepK=F KAlg= 0 I1Cent=           0 FoldK=F
 IRaf=         0 NMat=       1 IRICut=       1 DoRegI=T DoRafI=F ISym2E= 0 IDoP0=0 IntGTp=1.
 FoFCou: FMM=F IPFlag=           0 FMFlag=      100000 FMFlg1=         800
         NFxFlg=           0 DoJE=F BraDBF=F KetDBF=F FulRan=T
         wScrn=  0.000000 ICntrl=      2127 IOpCl=  0 I1Cent=           0 NGrid=           0
         NMat0=    1 NMatS0=      1 NMatT0=    0 NMatD0=    1 NMtDS0=    0 NMtDT0=    0
 Symmetry not used in FoFCou.
 Leave Link  703 at Tue Sep 17 09:55:35 2024, MaxMem=  1342177280 cpu:              26.2 elap:               3.4
 (Enter /groups/ReismanLab/Software/Gaussian16_RevC/Linux_Binary_AVX2-enabled-CPU/g16/l716.exe)
 Dipole        =-6.78856043D-01 3.44712149D-01 1.62479080D-01
 ***** Axes restored to original set *****
 -------------------------------------------------------------------
 Center     Atomic                   Forces (Hartrees/Bohr)
 Number     Number              X              Y              Z
 -------------------------------------------------------------------
      1        6           0.006584818   -0.004492218    0.001303734
      2        8          -0.012396227   -0.004308556   -0.003557200
      3        6          -0.005903815    0.004813438   -0.000405116
      4        8           0.016475493    0.003133098    0.003737978
      5        6          -0.004759780   -0.006241852   -0.000130689
      6        6          -0.001210548   -0.004224935   -0.000464762
      7        6          -0.003715445    0.000326281    0.000141805
      8       35          -0.001355622   -0.000036200   -0.000004328
      9        6          -0.001764758    0.004893251   -0.000126281
     10        6          -0.003550089    0.004172642   -0.000294842
     11        6          -0.003790849   -0.009213562   -0.000158039
     12        8          -0.009150402    0.014546078   -0.000141135
     13        8           0.010581587   -0.009447369    0.000154284
     14        6           0.000557851    0.007902699    0.000077316
     15        7           0.016097534    0.000250759    0.001109369
     16        1          -0.000558627   -0.000846752   -0.001345260
     17        1          -0.000490115   -0.000910150   -0.000238075
     18        1          -0.000893301   -0.001248622    0.000719226
     19        1          -0.001206726   -0.002147032   -0.000324890
     20        1          -0.001696286    0.001891243   -0.000054135
     21        1           0.000339376    0.000949529   -0.000462873
     22        1           0.001462672   -0.000705741    0.000010483
     23        1           0.000343258    0.000943970    0.000453432
 -------------------------------------------------------------------
 Cartesian Forces:  Max     0.016475493 RMS     0.004965485
 Leave Link  716 at Tue Sep 17 09:55:36 2024, MaxMem=  1342177280 cpu:               0.0 elap:               0.0
 (Enter /groups/ReismanLab/Software/Gaussian16_RevC/Linux_Binary_AVX2-enabled-CPU/g16/l103.exe)

 GradGradGradGradGradGradGradGradGradGradGradGradGradGradGradGradGradGrad
 Berny optimization.
 FormGI is forming the generalized inverse of G from B-inverse, IUseBI=4.
 Internal  Forces:  Max     0.017184684 RMS     0.004348475
 Search for a local minimum.
 Step number   1 out of a maximum of  107
 All quantities printed in internal units (Hartrees-Bohrs-Radians)
 RMS Force = .43485D-02 SwitMx=.10000D-02 MixMth= 1
 Mixed Optimization -- RFO/linear search
 Second derivative matrix not updated -- first step.
 ITU=  0
     Eigenvalues ---    0.00753   0.00758   0.01336   0.01381   0.01421
     Eigenvalues ---    0.01436   0.01768   0.01810   0.02207   0.02218
     Eigenvalues ---    0.02254   0.02282   0.02294   0.02492   0.02605
     Eigenvalues ---    0.02728   0.10300   0.10399   0.10593   0.10656
     Eigenvalues ---    0.16000   0.16000   0.16000   0.16000   0.16000
     Eigenvalues ---    0.16000   0.16000   0.16000   0.18301   0.23496
     Eigenvalues ---    0.23558   0.24999   0.25000   0.25000   0.25000
     Eigenvalues ---    0.25000   0.25000   0.25000   0.25000   0.25000
     Eigenvalues ---    0.25000   0.32277   0.32318   0.34558   0.34567
     Eigenvalues ---    0.34672   0.34803   0.34831   0.35216   0.36138
     Eigenvalues ---    0.36275   0.41938   0.42387   0.42797   0.45913
     Eigenvalues ---    0.46414   0.48010   0.57318   0.59020   0.60551
     Eigenvalues ---    0.61527   1.01512   1.05426
 RFO step:  Lambda=-3.31257010D-03 EMin= 7.53298537D-03
 Linear search not attempted -- first point.
 Iteration  1 RMS(Cart)=  0.06855714 RMS(Int)=  0.00074984
 Iteration  2 RMS(Cart)=  0.00148895 RMS(Int)=  0.00001367
 Iteration  3 RMS(Cart)=  0.00000172 RMS(Int)=  0.00001367
 Iteration  4 RMS(Cart)=  0.00000000 RMS(Int)=  0.00001367
 ITry= 1 IFail=0 DXMaxC= 2.51D-01 DCOld= 1.00D+10 DXMaxT= 3.00D-01 DXLimC= 3.00D+00 Rises=F
 Variable       Old X    -DE/DX   Delta X   Delta X   Delta X     New X
                                 (Linear)    (Quad)   (Total)
    R1        2.69002   0.00882   0.00000   0.02087   0.02087   2.71089
    R2        2.05949   0.00160   0.00000   0.00454   0.00454   2.06404
    R3        2.06211  -0.00071   0.00000  -0.00201  -0.00201   2.06009
    R4        2.05996   0.00162   0.00000   0.00461   0.00461   2.06457
    R5        2.53128   0.01442   0.00000   0.02502   0.02502   2.55630
    R6        2.26541   0.01706   0.00000   0.01613   0.01613   2.28155
    R7        2.83640   0.00478   0.00000   0.01466   0.01466   2.85105
    R8        2.63744   0.00578   0.00000   0.01247   0.01247   2.64992
    R9        2.49881   0.01351   0.00000   0.02269   0.02270   2.52151
   R10        2.61779   0.00603   0.00000   0.01147   0.01146   2.62926
   R11        2.03654   0.00245   0.00000   0.00669   0.00669   2.04323
   R12        3.58855   0.00135   0.00000   0.00726   0.00726   3.59580
   R13        2.61478   0.00516   0.00000   0.00957   0.00956   2.62434
   R14        2.63642   0.00521   0.00000   0.01116   0.01116   2.64758
   R15        2.03866   0.00251   0.00000   0.00687   0.00687   2.04554
   R16        2.83567   0.00464   0.00000   0.01420   0.01420   2.84987
   R17        2.49641   0.01400   0.00000   0.02333   0.02335   2.51976
   R18        2.28039   0.01718   0.00000   0.01687   0.01687   2.29727
   R19        2.49752   0.01328   0.00000   0.02147   0.02147   2.51899
   R20        2.68434   0.00924   0.00000   0.02163   0.02163   2.70597
   R21        2.06399   0.00081   0.00000   0.00233   0.00233   2.06632
   R22        2.05325   0.00159   0.00000   0.00446   0.00446   2.05772
   R23        2.06383   0.00078   0.00000   0.00224   0.00224   2.06607
    A1        1.88791  -0.00052   0.00000  -0.00379  -0.00380   1.88411
    A2        1.91872   0.00153   0.00000   0.01050   0.01049   1.92921
    A3        1.88947  -0.00020   0.00000  -0.00169  -0.00171   1.88776
    A4        1.92494  -0.00007   0.00000   0.00059   0.00058   1.92552
    A5        1.91817  -0.00061   0.00000  -0.00613  -0.00615   1.91202
    A6        1.92395  -0.00014   0.00000   0.00043   0.00042   1.92437
    A7        2.05176   0.00220   0.00000   0.00868   0.00868   2.06044
    A8        2.17724   0.00304   0.00000   0.01198   0.01196   2.18920
    A9        1.93347  -0.00167   0.00000  -0.00661  -0.00663   1.92684
   A10        2.17248  -0.00137   0.00000  -0.00541  -0.00543   2.16704
   A11        2.11412  -0.00091   0.00000  -0.00447  -0.00447   2.10964
   A12        2.02079   0.00011   0.00000  -0.00044  -0.00045   2.02034
   A13        2.14822   0.00080   0.00000   0.00489   0.00490   2.15312
   A14        2.05197   0.00052   0.00000  -0.00004  -0.00006   2.05192
   A15        2.10652   0.00003   0.00000   0.00182   0.00183   2.10835
   A16        2.12469  -0.00056   0.00000  -0.00178  -0.00177   2.12292
   A17        2.09250  -0.00055   0.00000  -0.00010  -0.00008   2.09242
   A18        2.09335   0.00144   0.00000   0.00152   0.00149   2.09485
   A19        2.09733  -0.00089   0.00000  -0.00143  -0.00141   2.09592
   A20        2.04907   0.00068   0.00000   0.00040   0.00038   2.04945
   A21        2.14331  -0.00076   0.00000  -0.00278  -0.00277   2.14054
   A22        2.09081   0.00008   0.00000   0.00238   0.00239   2.09319
   A23        2.06449  -0.00546   0.00000  -0.02231  -0.02232   2.04217
   A24        2.15303   0.00096   0.00000   0.00532   0.00533   2.15836
   A25        2.06566   0.00450   0.00000   0.01699   0.01699   2.08265
   A26        2.14405  -0.00171   0.00000  -0.00673  -0.00673   2.13732
   A27        1.95910   0.00303   0.00000   0.01198   0.01198   1.97108
   A28        2.18003  -0.00133   0.00000  -0.00525  -0.00525   2.17479
   A29        2.02956  -0.00335   0.00000  -0.01323  -0.01323   2.01633
   A30        1.92606   0.00110   0.00000   0.00714   0.00712   1.93318
   A31        1.85195  -0.00102   0.00000  -0.00703  -0.00702   1.84492
   A32        1.92599   0.00116   0.00000   0.00751   0.00749   1.93348
   A33        1.93171  -0.00032   0.00000  -0.00281  -0.00281   1.92891
   A34        1.89640  -0.00058   0.00000  -0.00208  -0.00212   1.89429
   A35        1.93183  -0.00030   0.00000  -0.00260  -0.00259   1.92924
   A36        2.07072  -0.00440   0.00000  -0.01211  -0.01208   2.05864
    D1       -2.11295  -0.00057   0.00000  -0.00632  -0.00631  -2.11926
    D2       -0.01013  -0.00006   0.00000  -0.00169  -0.00170  -0.01183
    D3        2.09243   0.00056   0.00000   0.00405   0.00405   2.09648
    D4       -0.00421   0.00024   0.00000   0.00625   0.00621   0.00200
    D5        3.14138   0.00043   0.00000   0.01734   0.01739  -3.12442
    D6        0.24756  -0.00062   0.00000  -0.05471  -0.05469   0.19287
    D7       -2.90551  -0.00065   0.00000  -0.05642  -0.05640  -2.96191
    D8       -2.89005  -0.00044   0.00000  -0.04370  -0.04373  -2.93378
    D9        0.24006  -0.00047   0.00000  -0.04542  -0.04544   0.19462
   D10        3.12820  -0.00016   0.00000  -0.00671  -0.00670   3.12150
   D11       -0.01219  -0.00017   0.00000  -0.00677  -0.00677  -0.01896
   D12       -0.00105  -0.00012   0.00000  -0.00482  -0.00481  -0.00586
   D13       -3.14144  -0.00012   0.00000  -0.00489  -0.00488   3.13686
   D14       -3.13185   0.00006   0.00000   0.00211   0.00211  -3.12974
   D15       -0.00199   0.00001   0.00000   0.00029   0.00028  -0.00171
   D16       -3.13923   0.00007   0.00000   0.00290   0.00290  -3.13633
   D17        0.00184   0.00015   0.00000   0.00556   0.00557   0.00741
   D18        0.00115   0.00008   0.00000   0.00297   0.00297   0.00412
   D19       -3.14096   0.00015   0.00000   0.00563   0.00564  -3.13532
   D20        0.00026  -0.00006   0.00000  -0.00206  -0.00207  -0.00181
   D21       -3.14097  -0.00007   0.00000  -0.00231  -0.00232   3.13989
   D22        3.14133   0.00002   0.00000   0.00061   0.00060  -3.14125
   D23        0.00010   0.00001   0.00000   0.00036   0.00036   0.00046
   D24        3.14025  -0.00004   0.00000  -0.00084  -0.00086   3.13940
   D25       -0.00350  -0.00007   0.00000  -0.00275  -0.00276  -0.00626
   D26       -0.00169  -0.00003   0.00000  -0.00060  -0.00062  -0.00231
   D27        3.13774  -0.00006   0.00000  -0.00252  -0.00252   3.13522
   D28        0.02207  -0.00007   0.00000  -0.00474  -0.00474   0.01733
   D29       -3.11903  -0.00004   0.00000  -0.00346  -0.00346  -3.12249
   D30       -3.11748  -0.00003   0.00000  -0.00291  -0.00291  -3.12038
   D31        0.02461  -0.00000   0.00000  -0.00163  -0.00163   0.02298
   D32        0.00435   0.00009   0.00000   0.00364   0.00364   0.00799
   D33       -3.13940   0.00004   0.00000   0.00167   0.00164  -3.13776
   D34       -3.13703  -0.00003   0.00000  -0.00122  -0.00122  -3.13825
   D35        0.00507  -0.00001   0.00000   0.00008   0.00008   0.00515
   D36       -1.06311  -0.00035   0.00000  -0.00201  -0.00204  -1.06516
   D37        3.12661   0.00004   0.00000   0.00164   0.00164   3.12824
   D38        1.03304   0.00038   0.00000   0.00483   0.00486   1.03790
         Item               Value     Threshold  Converged?
 Maximum Force            0.017185     0.000450     NO 
 RMS     Force            0.004348     0.000300     NO 
 Maximum Displacement     0.251294     0.001800     NO 
 RMS     Displacement     0.068814     0.001200     NO 
 Predicted change in Energy=-1.685438D-03
 Lowest energy point so far.  Saving SCF results.
 GradGradGradGradGradGradGradGradGradGradGradGradGradGradGradGradGradGrad

 Leave Link  103 at Tue Sep 17 09:55:36 2024, MaxMem=  1342177280 cpu:               0.1 elap:               0.0
 (Enter /groups/ReismanLab/Software/Gaussian16_RevC/Linux_Binary_AVX2-enabled-CPU/g16/l202.exe)
                          Input orientation:                          
 ---------------------------------------------------------------------
 Center     Atomic      Atomic             Coordinates (Angstroms)
 Number     Number       Type             X           Y           Z
 ---------------------------------------------------------------------
      1          6           0        1.945979   -4.552154   -0.158666
      2          8           0        1.213451   -3.318949   -0.181444
      3          6           0        1.886869   -2.174118    0.075006
      4          8           0        3.065918   -2.096138    0.322871
      5          6           0        0.950591   -0.991927    0.030086
      6          6           0       -0.438747   -1.175774   -0.018057
      7          6           0       -1.238728   -0.037510   -0.032867
      8         35           0       -3.132836   -0.210475   -0.089015
      9          6           0       -0.655076    1.222411   -0.009285
     10          6           0        0.743978    1.284820    0.031424
     11          6           0        1.367902    2.657605    0.053820
     12          8           0        0.704090    3.676027    0.055597
     13          8           0        2.700346    2.622405    0.068834
     14          6           0        3.351083    3.897676    0.094774
     15          7           0        1.531462    0.209064    0.055342
     16          1           0        1.842096   -5.023562   -1.138449
     17          1           0        2.997306   -4.368405    0.063563
     18          1           0        1.504752   -5.196248    0.605578
     19          1           0       -0.865279   -2.169044   -0.041509
     20          1           0       -1.236328    2.135488   -0.021068
     21          1           0        3.096555    4.480901   -0.794438
     22          1           0        4.418459    3.683531    0.118120
     23          1           0        3.054556    4.466521    0.980117
 ---------------------------------------------------------------------
                    Distance matrix (angstroms):
                    1          2          3          4          5
     1  C    0.000000
     2  O    1.434543   0.000000
     3  C    2.390220   1.352736   0.000000
     4  O    2.741926   2.276233   1.207342   0.000000
     5  C    3.701573   2.351355   1.508712   2.404083   0.000000
     6  C    4.136017   2.711024   2.532556   3.639502   1.402275
     7  C    5.526319   4.099158   3.787623   4.784817   2.389140
     8  Br   6.682020   5.344283   5.392609   6.492297   4.159234
     9  C    6.335093   4.913754   4.243230   4.996888   2.735509
    10  C    5.962484   4.632538   3.643124   4.111840   2.286103
    11  C    7.236018   5.983177   4.859561   5.055069   3.673391
    12  O    8.324131   7.017501   5.968546   6.242400   4.674527
    13  O    7.217696   6.129697   4.865020   4.739497   4.015787
    14  C    8.569608   7.531629   6.245879   6.004927   5.447455
    15  N    4.784017   3.550221   2.409618   2.782100   1.334327
    16  H    1.092242   2.053475   3.097387   3.493280   4.291193
    17  H    1.090155   2.084113   2.459287   2.288044   3.948515
    18  H    1.092523   2.056335   3.092052   3.482506   4.279556
    19  H    3.687291   2.379702   2.754618   3.948721   2.165205
    20  H    7.407467   5.981473   5.323185   6.044359   3.816537
    21  H    9.128204   8.047329   6.819718   6.671338   5.936063
    22  H    8.603271   7.706915   6.381446   5.939348   5.821835
    23  H    9.157635   8.084086   6.803001   6.595498   5.926541
                    6          7          8          9         10
     6  C    0.000000
     7  C    1.391342   0.000000
     8  Br   2.862683   1.902817   0.000000
     9  C    2.407938   1.388743   2.863357   0.000000
    10  C    2.730533   2.384076   4.156934   1.401037   0.000000
    11  C    4.238389   3.750425   5.338814   2.481170   1.508086
    12  O    4.985125   4.191984   5.463315   2.805668   2.391662
    13  O    4.928247   4.754135   6.486612   3.636612   2.370213
    14  C    6.333674   6.047177   7.678013   4.818421   3.691615
    15  N    2.409333   2.782541   4.685353   2.410809   1.333400
    16  H    4.611181   5.964436   7.001219   6.820781   6.509236
    17  H    4.691057   6.058872   7.408799   6.678505   6.085842
    18  H    4.508916   5.877659   6.844532   6.800154   6.550777
    19  H    1.081233   2.164018   2.996675   3.398116   3.811064
    20  H    3.405965   2.173032   3.017433   1.082452   2.155923
    21  H    6.715586   6.307988   7.830194   5.030801   4.053591
    22  H    6.871960   6.772939   8.498720   5.640399   4.388979
    23  H    6.710813   6.304342   7.829506   5.026384   4.044998
                   11         12         13         14         15
    11  C    0.000000
    12  O    1.215661   0.000000
    13  O    1.332994   2.257284   0.000000
    14  C    2.339329   2.656545   1.431938   0.000000
    15  N    2.453999   3.564320   2.681546   4.113203   0.000000
    16  H    7.787599   8.854583   7.788128   9.131613   5.376058
    17  H    7.212481   8.364914   6.997117   8.273707   4.806452
    18  H    7.874400   8.925290   7.927729   9.293509   5.433311
    19  H    5.319091   6.052867   5.973596   7.389274   3.377743
    20  H    2.657109   2.478782   3.967691   4.915594   3.373072
    21  H    2.651827   2.663507   2.087157   1.093450   4.628200
    22  H    3.219092   3.714902   2.019982   1.088896   4.517810
    23  H    2.641024   2.646565   2.087263   1.093318   4.615297
                   16         17         18         19         20
    16  H    0.000000
    17  H    1.791250   0.000000
    18  H    1.784728   1.790760   0.000000
    19  H    4.084291   4.446099   3.898684   0.000000
    20  H    7.872561   7.760892   7.852424   4.320543   0.000000
    21  H    9.593061   8.891357   9.906619   7.777197   4.987278
    22  H    9.166792   8.176571   9.358300   7.886444   5.864505
    23  H    9.798983   8.882526   9.793431   7.774288   4.984754
                   21         22         23
    21  H    0.000000
    22  H    1.793318   0.000000
    23  H    1.775109   1.793416   0.000000
 Stoichiometry    C9H8BrNO4
 Framework group  C1[X(C9H8BrNO4)]
 Deg. of freedom    63
 Full point group                 C1      NOp   1
 RotChk:  IX=0 Diff= 1.51D-01
 Largest Abelian subgroup         C1      NOp   1
 Largest concise Abelian subgroup C1      NOp   1
                         Standard orientation:                         
 ---------------------------------------------------------------------
 Center     Atomic      Atomic             Coordinates (Angstroms)
 Number     Number       Type             X           Y           Z
 ---------------------------------------------------------------------
      1          6           0       -2.690100    4.074190    0.131537
      2          8           0       -2.110838    2.761986    0.153626
      3          6           0       -0.780654    2.649972   -0.065368
      4          8           0       -0.026641    3.568445   -0.278787
      5          6           0       -0.361658    1.201099   -0.027683
      6          6           0       -1.317882    0.175442   -0.021483
      7          6           0       -0.854801   -1.136531   -0.010778
      8         35           0       -2.094893   -2.579751   -0.010555
      9          6           0        0.510263   -1.391556    0.002310
     10          6           0        1.372993   -0.287653    0.001858
     11          6           0        2.853281   -0.575352    0.019079
     12          8           0        3.298149   -1.706682    0.015093
     13          8           0        3.597158    0.530562    0.040867
     14          6           0        5.013666    0.321308    0.053726
     15          7           0        0.953846    0.978011   -0.017295
     16          1           0       -3.163030    4.249754    1.100303
     17          1           0       -1.924705    4.826940   -0.058138
     18          1           0       -3.447914    4.098690   -0.655053
     19          1           0       -2.374718    0.403791   -0.026001
     20          1           0        0.916773   -2.394725    0.012497
[...]
 Alpha  occ. eigenvalues --   -6.86996  -6.86097  -6.86054  -2.90374  -2.90053
 Alpha  occ. eigenvalues --   -2.90008  -2.89171  -2.89171  -1.24355  -1.24291
 Alpha  occ. eigenvalues --   -1.15139  -1.14968  -1.08831  -0.96521  -0.91585
 Alpha  occ. eigenvalues --   -0.86982  -0.84194  -0.82513  -0.76048  -0.74490
 Alpha  occ. eigenvalues --   -0.66737  -0.65774  -0.63176  -0.60930  -0.58699
 Alpha  occ. eigenvalues --   -0.58245  -0.57879  -0.57412  -0.56653  -0.55417
 Alpha  occ. eigenvalues --   -0.51628  -0.50768  -0.50041  -0.47864  -0.47720
 Alpha  occ. eigenvalues --   -0.47002  -0.46446  -0.44235  -0.43616  -0.41849
 Alpha  occ. eigenvalues --   -0.38713  -0.38693  -0.38418  -0.37483  -0.36415
 Alpha  occ. eigenvalues --   -0.35021  -0.34539  -0.33782
 Alpha virt. eigenvalues --   -0.04777  -0.04220   0.02077   0.04751   0.07875
 Alpha virt. eigenvalues --    0.08572   0.10304   0.10425   0.10943   0.11783
 Alpha virt. eigenvalues --    0.12663   0.13178   0.14609   0.15191   0.15647
 Alpha virt. eigenvalues --    0.16307   0.17871   0.18462   0.18489   0.20080
 Alpha virt. eigenvalues --    0.21268   0.21832   0.22428   0.22659   0.24149
 Alpha virt. eigenvalues --    0.24309   0.24793   0.25805   0.26359   0.26987
 Alpha virt. eigenvalues --    0.26992   0.27919   0.28880   0.29421   0.29531
 Alpha virt. eigenvalues --    0.29956   0.30692   0.30723   0.31307   0.32873
 Alpha virt. eigenvalues --    0.34796   0.35079   0.35781   0.36524   0.36542
 Alpha virt. eigenvalues --    0.37172   0.38120   0.38427   0.39399   0.40772
 Alpha virt. eigenvalues --    0.41131   0.41736   0.42037   0.43514   0.43798
 Alpha virt. eigenvalues --    0.44433   0.44893   0.46239   0.46690   0.48742
 Alpha virt. eigenvalues --    0.49217   0.49248   0.49537   0.50531   0.50861
 Alpha virt. eigenvalues --    0.51963   0.52133   0.52865   0.53892   0.55066
 Alpha virt. eigenvalues --    0.55149   0.56358   0.57348   0.58306   0.59672
 Alpha virt. eigenvalues --    0.60941   0.61670   0.61712   0.62584   0.64244
 Alpha virt. eigenvalues --    0.64889   0.65135   0.66104   0.66468   0.67968
 Alpha virt. eigenvalues --    0.69258   0.69445   0.70090   0.70268   0.70963
 Alpha virt. eigenvalues --    0.71706   0.72595   0.73601   0.77214   0.78590
 Alpha virt. eigenvalues --    0.79133   0.79655   0.82329   0.83986   0.84254
 Alpha virt. eigenvalues --    0.84414   0.85647   0.86573   0.87207   0.87966
 Alpha virt. eigenvalues --    0.89245   0.89772   0.90790   0.92230   0.94146
 Alpha virt. eigenvalues --    0.94899   0.95527   0.96823   0.98082   1.00204
 Alpha virt. eigenvalues --    1.01260   1.01538   1.03006   1.03040   1.03645
 Alpha virt. eigenvalues --    1.06082   1.06606   1.06991   1.11172   1.11687
 Alpha virt. eigenvalues --    1.12332   1.12580   1.14658   1.16745   1.22104
 Alpha virt. eigenvalues --    1.23421   1.23853   1.24932   1.26590   1.28226
 Alpha virt. eigenvalues --    1.28443   1.30686   1.30989   1.34633   1.35992
 Alpha virt. eigenvalues --    1.38032   1.38581   1.39437   1.39825   1.41559
 Alpha virt. eigenvalues --    1.42070   1.42359   1.45976   1.47085   1.47864
 Alpha virt. eigenvalues --    1.50151   1.50555   1.51454   1.51816   1.52221
 Alpha virt. eigenvalues --    1.52302   1.52918   1.55060   1.55586   1.55986
 Alpha virt. eigenvalues --    1.56427   1.57417   1.57545   1.57831   1.58173
 Alpha virt. eigenvalues --    1.59377   1.60382   1.61162   1.61408   1.62587
 Alpha virt. eigenvalues --    1.62958   1.64743   1.65325   1.66310   1.67829
 Alpha virt. eigenvalues --    1.70138   1.70575   1.71477   1.73852   1.74737
 Alpha virt. eigenvalues --    1.76333   1.76520   1.77192   1.81510   1.82327
 Alpha virt. eigenvalues --    1.82972   1.83012   1.84435   1.85380   1.86946
 Alpha virt. eigenvalues --    1.87226   1.87614   1.90025   1.92744   1.94720
 Alpha virt. eigenvalues --    1.96062   1.96090   1.97106   1.98329   2.00931
 Alpha virt. eigenvalues --    2.01763   2.02661   2.03412   2.04050   2.04732
 Alpha virt. eigenvalues --    2.06047   2.07607   2.09090   2.10316   2.10507
 Alpha virt. eigenvalues --    2.11264   2.13302   2.15048   2.16378   2.17177
 Alpha virt. eigenvalues --    2.18974   2.19840   2.22080   2.25151   2.26518
 Alpha virt. eigenvalues --    2.27034   2.30703   2.31397   2.33591   2.34491
 Alpha virt. eigenvalues --    2.34974   2.38184   2.38642   2.40234   2.41002
 Alpha virt. eigenvalues --    2.42097   2.44059   2.44524   2.45729   2.46890
 Alpha virt. eigenvalues --    2.47901   2.49187   2.52269   2.54566   2.55055
 Alpha virt. eigenvalues --    2.55412   2.56218   2.57564   2.58956   2.61007
 Alpha virt. eigenvalues --    2.62247   2.62962   2.63941   2.64103   2.66876
 Alpha virt. eigenvalues --    2.67733   2.71051   2.71451   2.72422   2.75445
 Alpha virt. eigenvalues --    2.78474   2.79043   2.80470   2.80646   2.81044
 Alpha virt. eigenvalues --    2.81610   2.84510   2.84978   2.86045   2.86098
 Alpha virt. eigenvalues --    2.88119   2.90288   2.90430   2.91837   2.92096
 Alpha virt. eigenvalues --    2.92805   2.96927   2.98173   3.00064   3.02214
 Alpha virt. eigenvalues --    3.04083   3.04322   3.04963   3.06374   3.06922
 Alpha virt. eigenvalues --    3.08371   3.08471   3.08816   3.10064   3.11794
 Alpha virt. eigenvalues --    3.15143   3.16681   3.17104   3.17925   3.19350
 Alpha virt. eigenvalues --    3.19351   3.20957   3.21313   3.22249   3.22844
 Alpha virt. eigenvalues --    3.23142   3.24254   3.25554   3.26106   3.28402
 Alpha virt. eigenvalues --    3.30041   3.30253   3.31117   3.31326   3.32136
 Alpha virt. eigenvalues --    3.33444   3.33564   3.35739   3.36238   3.37325
 Alpha virt. eigenvalues --    3.38194   3.38905   3.39468   3.41641   3.42696
 Alpha virt. eigenvalues --    3.43207   3.44738   3.45969   3.46961   3.48381
 Alpha virt. eigenvalues --    3.48484   3.50512   3.51124   3.51205   3.56530
 Alpha virt. eigenvalues --    3.56586   3.57768   3.57972   3.59232   3.60104
 Alpha virt. eigenvalues --    3.61759   3.62838   3.66269   3.66392   3.67306
 Alpha virt. eigenvalues --    3.72836   3.74683   3.75662   3.76375   3.80530
 Alpha virt. eigenvalues --    3.82094   3.89554   3.91701   3.94697   3.97369
 Alpha virt. eigenvalues --    3.99587   4.01175   4.01439   4.05082   4.05380
 Alpha virt. eigenvalues --    4.08197   4.11961   4.12989   4.13570   4.13625
 Alpha virt. eigenvalues --    4.17433   4.18267   4.21196   4.21387   4.22554
 Alpha virt. eigenvalues --    4.25463   4.30506   4.30581   4.32779   4.33505
 Alpha virt. eigenvalues --    4.35513   4.36328   4.39628   4.41429   4.41853
 Alpha virt. eigenvalues --    4.44186   4.48999   4.53333   4.54509   4.55348
 Alpha virt. eigenvalues --    4.59609   4.62398   4.65578   4.67708   4.71035
 Alpha virt. eigenvalues --    4.76200   4.84985   4.85671   4.90255   4.92082
 Alpha virt. eigenvalues --    4.96078   4.98707   5.03809   5.08615   5.14261
 Alpha virt. eigenvalues --    5.16032   5.17663   5.17979   5.19248   5.24474
 Alpha virt. eigenvalues --    5.24660   5.28832   5.30420   5.32933   5.35425
 Alpha virt. eigenvalues --    5.38343   5.43932   5.48554   5.48630   5.49363
 Alpha virt. eigenvalues --    5.54218   5.60478   5.65379   5.66018   5.66100
 Alpha virt. eigenvalues --    5.73556   5.75950   5.83244   5.88197   5.93926
 Alpha virt. eigenvalues --    5.96564   5.96953   6.09412   6.10495   6.14543
 Alpha virt. eigenvalues --    6.16233   6.22869   6.30884   6.34457   6.34805
 Alpha virt. eigenvalues --    6.38718   6.39428   6.53270   6.55159   6.63126
 Alpha virt. eigenvalues --    6.63792   6.68519   6.69624   6.74180   6.74470
 Alpha virt. eigenvalues --    6.85650   6.86488   6.89064   6.90784   7.01530
 Alpha virt. eigenvalues --    7.03291   7.10816   7.12239   7.27998   7.29257
 Alpha virt. eigenvalues --    7.39904   7.42092   7.86245  22.41866  22.43607
 Alpha virt. eigenvalues --   22.51798  22.76049  22.88145  23.05841  23.28159
 Alpha virt. eigenvalues --   23.43347  23.49006  32.77227  44.04485  44.06335
 Alpha virt. eigenvalues --   44.26085  44.31379
          Condensed to atoms (all electrons):
               1          2          3          4          5          6
     1  C    4.871406   0.205201  -0.052180   0.002427   0.010020  -0.001246
     2  O    0.205201   7.994607   0.398246  -0.084968  -0.190826   0.033511
     3  C   -0.052180   0.398246   4.497516   0.709356   0.261173  -0.058395
     4  O    0.002427  -0.084968   0.709356   7.784992  -0.099507   0.008133
     5  C    0.010020  -0.190826   0.261173  -0.099507   5.222041   0.314697
     6  C   -0.001246   0.033511  -0.058395   0.008133   0.314697   5.334714
     7  C   -0.000145   0.000015   0.001543  -0.000160  -0.010689   0.361632
     8  Br   0.000001   0.000002  -0.000307   0.000006   0.015625  -0.110397
     9  C    0.000019   0.000808   0.007231   0.000434  -0.056148   0.003976
    10  C   -0.000016  -0.001075  -0.010267  -0.001742  -0.054676  -0.073643
    11  C   -0.000004  -0.000017  -0.003133  -0.000159  -0.005580   0.005040
    12  O    0.000000  -0.000000  -0.000039  -0.000000  -0.000768   0.000341
    13  O    0.000000   0.000000  -0.000026  -0.000031  -0.001332   0.000245
    14  C   -0.000000   0.000000   0.000008   0.000000  -0.000008   0.000016
    15  N   -0.000265   0.001924  -0.054595  -0.012178   0.519382  -0.086117
    16  H    0.398570  -0.030929   0.003530   0.001598   0.004181  -0.001378
    17  H    0.419027  -0.032856  -0.008023   0.003614  -0.002063   0.000495
    18  H    0.419036  -0.032850  -0.008017   0.003603  -0.002065   0.000495
    19  H   -0.000168   0.013712  -0.007993   0.000426  -0.006874   0.393766
    20  H    0.000000  -0.000001   0.000179  -0.000000  -0.000584   0.008757
    21  H   -0.000000  -0.000000  -0.000001  -0.000000   0.000002   0.000001
    22  H    0.000000   0.000000   0.000009  -0.000000  -0.000012  -0.000001
    23  H   -0.000000  -0.000000  -0.000001  -0.000000   0.000002   0.000001
               7          8          9         10         11         12
     1  C   -0.000145   0.000001   0.000019  -0.000016  -0.000004   0.000000
     2  O    0.000015   0.000002   0.000808  -0.001075  -0.000017  -0.000000
     3  C    0.001543  -0.000307   0.007231  -0.010267  -0.003133  -0.000039
     4  O   -0.000160   0.000006   0.000434  -0.001742  -0.000159  -0.000000
     5  C   -0.010689   0.015625  -0.056148  -0.054676  -0.005580  -0.000768
     6  C    0.361632  -0.110397   0.003976  -0.073643   0.005040   0.000341
     7  C    4.901891   0.422690   0.358801  -0.001146   0.001824   0.006239
     8  Br   0.422690  34.842659  -0.111571   0.015192  -0.000755   0.000034
     9  C    0.358801  -0.111571   5.352800   0.324689  -0.084054   0.029507
    10  C   -0.001146   0.015192   0.324689   5.201037   0.284599  -0.152279
    11  C    0.001824  -0.000755  -0.084054   0.284599   4.488523   0.661188
    12  O    0.006239   0.000034   0.029507  -0.152279   0.661188   7.868935
    13  O    0.000138   0.000004   0.011577  -0.109460   0.422422  -0.077259
    14  C   -0.000045  -0.000002  -0.000856   0.009137  -0.054718   0.000548
    15  N   -0.000459  -0.000657  -0.084152   0.477377  -0.035139   0.003572
    16  H   -0.000060  -0.000001  -0.000008   0.000012   0.000000  -0.000000
    17  H    0.000014  -0.000000   0.000003  -0.000012  -0.000000   0.000000
    18  H    0.000015  -0.000000   0.000003  -0.000012  -0.000000   0.000000
    19  H   -0.046662  -0.006384   0.010873  -0.001350   0.000149  -0.000003
    20  H   -0.033978  -0.006357   0.387045  -0.006257  -0.011410   0.013670
    21  H   -0.000002  -0.000000   0.000003  -0.002459  -0.008675   0.004159
    22  H   -0.000005   0.000000  -0.000025   0.002952   0.003828   0.001490
    23  H   -0.000002  -0.000000   0.000002  -0.002456  -0.008676   0.004160
              13         14         15         16         17         18
     1  C    0.000000  -0.000000  -0.000265   0.398570   0.419027   0.419036
     2  O    0.000000   0.000000   0.001924  -0.030929  -0.032856  -0.032850
     3  C   -0.000026   0.000008  -0.054595   0.003530  -0.008023  -0.008017
     4  O   -0.000031   0.000000  -0.012178   0.001598   0.003614   0.003603
     5  C   -0.001332  -0.000008   0.519382   0.004181  -0.002063  -0.002065
     6  C    0.000245   0.000016  -0.086117  -0.001378   0.000495   0.000495
     7  C    0.000138  -0.000045  -0.000459  -0.000060   0.000014   0.000015
     8  Br   0.000004  -0.000002  -0.000657  -0.000001  -0.000000  -0.000000
     9  C    0.011577  -0.000856  -0.084152  -0.000008   0.000003   0.000003
    10  C   -0.109460   0.009137   0.477377   0.000012  -0.000012  -0.000012
    11  C    0.422422  -0.054718  -0.035139   0.000000  -0.000000  -0.000000
    12  O   -0.077259   0.000548   0.003572  -0.000000   0.000000   0.000000
    13  O    7.892309   0.206985  -0.017610   0.000000  -0.000000  -0.000000
    14  C    0.206985   4.880796  -0.000330   0.000000  -0.000000  -0.000000
    15  N   -0.017610  -0.000330   6.476036   0.000032  -0.000047  -0.000047
    16  H    0.000000   0.000000   0.000032   0.513214  -0.023392  -0.023397
    17  H   -0.000000  -0.000000  -0.000047  -0.023392   0.519029  -0.039451
    18  H   -0.000000  -0.000000  -0.000047  -0.023397  -0.039451   0.519024
    19  H   -0.000000   0.000000   0.004002  -0.000346   0.000123   0.000123
    20  H    0.000622  -0.000159   0.004072  -0.000000   0.000000   0.000000
    21  H   -0.032495   0.418751  -0.000100  -0.000000   0.000000   0.000000
    22  H   -0.029900   0.398090  -0.000086   0.000000  -0.000000  -0.000000
    23  H   -0.032498   0.418751  -0.000100  -0.000000   0.000000   0.000000
              19         20         21         22         23
     1  C   -0.000168   0.000000  -0.000000   0.000000  -0.000000
     2  O    0.013712  -0.000001  -0.000000   0.000000  -0.000000
     3  C   -0.007993   0.000179  -0.000001   0.000009  -0.000001
     4  O    0.000426  -0.000000  -0.000000  -0.000000  -0.000000
     5  C   -0.006874  -0.000584   0.000002  -0.000012   0.000002
     6  C    0.393766   0.008757   0.000001  -0.000001   0.000001
     7  C   -0.046662  -0.033978  -0.000002  -0.000005  -0.000002
     8  Br  -0.006384  -0.006357  -0.000000   0.000000  -0.000000
     9  C    0.010873   0.387045   0.000003  -0.000025   0.000002
    10  C   -0.001350  -0.006257  -0.002459   0.002952  -0.002456
    11  C    0.000149  -0.011410  -0.008675   0.003828  -0.008676
    12  O   -0.000003   0.013670   0.004159   0.001490   0.004160
    13  O   -0.000000   0.000622  -0.032495  -0.029900  -0.032498
    14  C    0.000000  -0.000159   0.418751   0.398090   0.418751
    15  N    0.004002   0.004072  -0.000100  -0.000086  -0.000100
    16  H   -0.000346  -0.000000  -0.000000   0.000000  -0.000000
    17  H    0.000123   0.000000   0.000000  -0.000000   0.000000
    18  H    0.000123   0.000000   0.000000  -0.000000   0.000000
    19  H    0.444437   0.000107   0.000000   0.000000   0.000000
    20  H    0.000107   0.434609  -0.000015   0.000002  -0.000015
    21  H    0.000000  -0.000015   0.523325  -0.022251  -0.041283
    22  H    0.000000   0.000002  -0.022251   0.504758  -0.022251
    23  H    0.000000  -0.000015  -0.041283  -0.022251   0.523325
 Mulliken charges:
               1
     1  C   -0.271682
     2  O   -0.274504
     3  C    0.324185
     4  O   -0.315844
     5  C    0.084010
     6  C   -0.134641
     7  C    0.038551
     8  Br  -0.059782
     9  C   -0.150954
    10  C    0.101858
    11  C    0.344749
    12  O   -0.363495
    13  O   -0.233692
    14  C   -0.276963
    15  N   -0.194515
    16  H    0.158376
    17  H    0.163539
    18  H    0.163540
    19  H    0.202063
    20  H    0.209714
    21  H    0.161042
    22  H    0.163403
    23  H    0.161042
 Sum of Mulliken charges =  -0.00000
 Mulliken charges with hydrogens summed into heavy atoms:
               1
     1  C    0.213773
     2  O   -0.274504
     3  C    0.324185
     4  O   -0.315844
     5  C    0.084010
     6  C    0.067422
     7  C    0.038551
     8  Br  -0.059782
     9  C    0.058759
    10  C    0.101858
    11  C    0.344749
    12  O   -0.363495
    13  O   -0.233692
    14  C    0.208524
    15  N   -0.194515
 Electronic spatial extent (au):  <R**2>=           5385.0267
 Charge=             -0.0000 electrons
 Dipole moment (field-independent basis, Debye):
    X=             -2.2470    Y=              0.4730    Z=              0.0002  Tot=              2.2963
 Quadrupole moment (field-independent basis, Debye-Ang):
   XX=            -81.3915   YY=           -101.9398   ZZ=            -97.3369
   XY=             -7.0759   XZ=              0.0007   YZ=             -0.0007
 Traceless Quadrupole moment (field-independent basis, Debye-Ang):
   XX=             12.1646   YY=             -8.3837   ZZ=             -3.7808
   XY=             -7.0759   XZ=              0.0007   YZ=             -0.0007
 Octapole moment (field-independent basis, Debye-Ang**2):
  XXX=             16.7756  YYY=            -40.6361  ZZZ=             -0.0002  XYY=            -88.7242
  XXY=             31.3675  XXZ=              0.0055  XZZ=            -12.1453  YZZ=            -15.1563
  YYZ=              0.0019  XYZ=             -0.0025
 Hexadecapole moment (field-independent basis, Debye-Ang**3):
 XXXX=          -2751.8121 YYYY=          -2711.7143 ZZZZ=           -112.6228 XXXY=            190.8427
 XXXZ=              0.0103 YYYX=            -40.0171 YYYZ=             -0.0040 ZZZX=              0.0002
 ZZZY=             -0.0051 XXYY=           -960.9840 XXZZ=           -574.7344 YYZZ=           -479.4992
 XXYZ=             -0.0063 YYXZ=              0.0064 ZZXY=             34.0645
 N-N= 1.257132904458D+03 E-N=-1.031140205021D+04  KE= 3.270795400044D+03
 Calculating spin-rotation constants.
 Leave Link  601 at Tue Sep 17 11:08:41 2024, MaxMem=  1342177280 cpu:               5.7 elap:               5.7
 (Enter /groups/ReismanLab/Software/Gaussian16_RevC/Linux_Binary_AVX2-enabled-CPU/g16/l9999.exe)
 Unable to Open any file for archive entry.
 1\1\GINC-HPC-35-35\SP\RM062X\def2TZVP\C9H8Br1N1O4\MANTIND\17-Sep-2024\
 0\\#p M062X/def2tzvp geom=check guess=read scf(xqc,tight) integral(gri
 d=ultrafine) scrf(SMD, solvent=1,4-Dioxane) nmr=giao\\spe\\0,1\C,0,1.9
 708075843,-4.5289948631,-0.0720853888\O,0,1.163189268,-3.3407813933,-0
 .0906697944\C,0,1.8564453874,-2.1810508127,-0.0163734535\O,0,3.0597754
 042,-2.1177719037,0.0604333199\C,0,0.9287987282,-0.9942191174,-0.04257
 95733\C,0,-0.4581052624,-1.1662100315,-0.1338285936\C,0,-1.2493149591,
 -0.0223595209,-0.1526692445\Br,0,-3.1400717307,-0.1802651387,-0.275029
 6853\C,0,-0.6578918259,1.2312925876,-0.0821922933\C,0,0.73887807,1.279
 96987,0.0063634801\C,0,1.3702563012,2.6439113551,0.0822985797\O,0,0.71
 73132646,3.6697371178,0.069084173\O,0,2.7028046342,2.5944600738,0.1640
 627879\C,0,3.3537331826,3.8736191361,0.2389747328\N,0,1.5228730774,0.2
 010142709,0.0264915193\H,0,1.2712072234,-5.3611291741,-0.1384179527\H,
 0,2.6602190268,-4.5343148172,-0.9193690041\H,0,2.5490037165,-4.5822111
 779,0.853165954\H,0,-0.8899635431,-2.1555803351,-0.1872697673\H,0,-1.2
 298132723,2.1496340167,-0.0933551547\H,0,3.1302631705,4.4685037931,-0.
 6497217005\H,0,4.4184106079,3.6539186487,0.2995387976\H,0,3.019580703,
 4.4209720834,1.1234808674\\Version=ES64L-G16RevC.02\State=1-A\HF=-3277
 .6377625\RMSD=4.486e-09\Dipole=-0.3800307,-0.8183197,-0.0457216\Quadru
 pole=-5.7831394,8.5780726,-2.7949332,5.8379612,-0.0294413,0.6685166\PG
 =C01 [X(C9H8Br1N1O4)]\\@
 The archive entry for this job was punched.


 I DON'T EXACTLY UNDERSTAND WHAT YOU ARE SAYING,
 BUT YOU ARE ABSOLUTELY RIGHT.
     M.S.GORDON, IN A NDSU FACULTY MEETING
 Job cpu time:       0 days  0 hours 17 minutes 57.8 seconds.
 Elapsed time:       0 days  0 hours 18 minutes  4.9 seconds.
 File lengths (MBytes):  RWF=    360 Int=      0 D2E=      0 Chk=     40 Scr=     16
 Normal termination of Gaussian 16 at Tue Sep 17 11:08:41 2024.
