 Entering Gaussian System, Link 0=g16
 Input=smiles_00094_conf_4.gjf
 Output=smiles_00094_conf_4.log
 Initial command:
 /groups/ReismanLab/Software/Gaussian16_RevC/Linux_Binary_AVX2-enabled-CPU/g16/l1.exe "/central/groups/ReismanLab/DM/dft_final/smiles_00094/Gau-1096844.inp" -scrdir="/central/groups/ReismanLab/DM/dft_final/smiles_00094/"
 Entering Link 1 = /groups/ReismanLab/Software/Gaussian16_RevC/Linux_Binary_AVX2-enabled-CPU/g16/l1.exe PID=   1096845.
  
 Copyright (c) 1988-2021, Gaussian, Inc.  All Rights Reserved.
  
 This is part of the Gaussian(R) 16 program.  It is based on
 the Gaussian(R) 09 system (copyright 2009, Gaussian, Inc.),
 the Gaussian(R) 03 system (copyright 2003, Gaussian, Inc.),
 the Gaussian(R) 98 system (copyright 1998, Gaussian, Inc.),
 the Gaussian(R) 94 system (copyright 1995, Gaussian, Inc.),
 the Gaussian 92(TM) system (copyright 1992, Gaussian, Inc.),
 the Gaussian 90(TM) system (copyright 1990, Gaussian, Inc.),
 the Gaussian 88(TM) system (copyright 1988, Gaussian, Inc.),
 the Gaussian 86(TM) system (copyright 1986, Carnegie Mellon
 University), and the Gaussian 82(TM) system (copyright 1983,
 Carnegie Mellon University). Gaussian is a federally registered
 trademark of Gaussian, Inc.
  
 This software contains proprietary and confidential information,
 including trade secrets, belonging to Gaussian, Inc.
  
 This software is provided under written license and may be
 used, copied, transmitted, or stored only in accord with that
 written license.
  
 The following legend is applicable only to US Government
 contracts under FAR:
  
                    RESTRICTED RIGHTS LEGEND
  
 Use, reproduction and disclosure by the US Government is
 subject to restrictions as set forth in subparagraphs (a)
 and (c) of the Commercial Computer Software - Restricted
 Rights clause in FAR 52.227-19.
  
 Gaussian, Inc.
 340 Quinnipiac St., Bldg. 40, Wallingford CT 06492
  
  
 ---------------------------------------------------------------
 Warning -- This program may not be used in any manner that
 competes with the business of Gaussian, Inc. or will provide
 assistance to any competitor of Gaussian, Inc.  The licensee
 of this program is prohibited from giving any competitor of
 Gaussian, Inc. access to this program.  By using this program,
 the user acknowledges that Gaussian, Inc. is engaged in the
 business of creating and licensing software in the field of
 computational chemistry and represents and warrants to the
 licensee that it is not a competitor of Gaussian, Inc. and that
 it will not use this program in any manner prohibited above.
 ---------------------------------------------------------------
  

 Cite this work as:
 Gaussian 16, Revision C.02,
 M. J. Frisch, G. W. Trucks, H. B. Schlegel, G. E. Scuseria, 
 M. A. Robb, J. R. Cheeseman, G. Scalmani, V. Barone, 
 G. A. Petersson, H. Nakatsuji, X. Li, M. Caricato, A. V. Marenich, 
 J. Bloino, B. G. Janesko, R. Gomperts, B. Mennucci, H. P. Hratchian, 
 J. V. Ortiz, A. F. Izmaylov, J. L. Sonnenberg, D. Williams-Young, 
 F. Ding, F. Lipparini, F. Egidi, J. Goings, B. Peng, A. Petrone, 
 T. Henderson, D. Ranasinghe, V. G. Zakrzewski, J. Gao, N. Rega, 
 G. Zheng, W. Liang, M. Hada, M. Ehara, K. Toyota, R. Fukuda, 
 J. Hasegawa, M. Ishida, T. Nakajima, Y. Honda, O. Kitao, H. Nakai, 
 T. Vreven, K. Throssell, J. A. Montgomery, Jr., J. E. Peralta, 
 F. Ogliaro, M. J. Bearpark, J. J. Heyd, E. N. Brothers, K. N. Kudin, 
 V. N. Staroverov, T. A. Keith, R. Kobayashi, J. Normand, 
 K. Raghavachari, A. P. Rendell, J. C. Burant, S. S. Iyengar, 
 J. Tomasi, M. Cossi, J. M. Millam, M. Klene, C. Adamo, R. Cammi, 
 J. W. Ochterski, R. L. Martin, K. Morokuma, O. Farkas, 
 J. B. Foresman, and D. J. Fox, Gaussian, Inc., Wallingford CT, 2019.
 
 ******************************************
 Gaussian 16:  ES64L-G16RevC.02  7-Dec-2021
                17-Sep-2024 
 ******************************************
 %nprocshared=8
 Will use up to    8 processors via shared memory.
 %Mem=10GB
 %Chk=smiles_00094_conf_4.chk
 ----------------------------------------------------------------------
 #p B3LYP/gen pseudo=read EmpiricalDispersion=GD3BJ opt freq scf(xqc,ti
 ght) integral(grid=ultrafine)
 ----------------------------------------------------------------------
 1/18=20,19=15,26=4,38=1/1,3;
 2/9=110,12=2,17=6,18=5,40=1/2;
 3/5=7,11=2,16=1,17=8,25=1,30=1,71=1,74=-5,75=-5,124=41/1,2,3;
 4//1;
 5/5=2,8=3,13=1,32=2,38=5/2,8;
 6/7=2,8=2,9=2,10=2,28=1/1;
 7//1,2,3,16;
 1/18=20,19=15,26=4/3(2);
 2/9=110/2;
 99//99;
 2/9=110/2;
 3/5=7,6=1,11=2,16=1,17=8,25=1,30=1,71=1,74=-5,75=-5,82=7,124=41/1,2,3;
 4/5=5,16=3,69=1/1;
 5/5=2,8=3,13=1,32=2,38=5/2,8;
 7//1,2,3,16;
 1/18=20,19=15,26=4/3(-5);
 2/9=110/2;
 6/7=2,8=2,9=2,10=2,19=2,28=1/1;
 99/9=1/99;
 Leave Link    1 at Tue Sep 17 09:47:39 2024, MaxMem=  1342177280 cpu:               0.2 elap:               0.7
 (Enter /groups/ReismanLab/Software/Gaussian16_RevC/Linux_Binary_AVX2-enabled-CPU/g16/l101.exe)
 ----------------------------------
 opt-freq conformers_unique/conf_ae
 ----------------------------------
 Symbolic Z-matrix:
 Charge =  0 Multiplicity = 1
 C                    -5.77385   0.55154   0.46961 
 C                    -4.38409   0.28096  -0.05881 
 O                    -4.13928  -0.13094  -1.16176 
 N                    -3.40607   0.57684   0.86792 
 C                    -2.03541   0.42229   0.63805 
 C                    -1.1393    1.43224   0.97841 
 C                     0.21553   1.29981   0.7425 
 C                     0.69207   0.14432   0.14879 
 I                     2.75777  -0.05905  -0.23442 
 C                    -0.16477  -0.88978  -0.17809 
 C                    -1.51554  -0.74844   0.08151 
 F                    -2.31616  -1.79517  -0.15956 
 H                    -5.90029   1.61409   0.66808 
 H                    -5.9385   -0.00115   1.39168 
 H                    -6.50219   0.24042  -0.27298 
 H                    -3.66445   1.14994   1.65787 
 H                    -1.51584   2.33719   1.43193 
 H                     0.89062   2.09631   1.01261 
 H                     0.19054  -1.80957  -0.61465 
 
 ITRead=  0  0  0  0  0  0  0  0  0  0  0  0  0  0  0  0  0  0  0
 MicOpt= -1 -1 -1 -1 -1 -1 -1 -1 -1 -1 -1 -1 -1 -1 -1 -1 -1 -1 -1
 NAtoms=     19 NQM=       19 NQMF=       0 NMMI=      0 NMMIF=      0
                NMic=       0 NMicF=      0.
                    Isotopes and Nuclear Properties:
 (Nuclear quadrupole moments (NQMom) in fm**2, nuclear magnetic moments (NMagM)
  in nuclear magnetons)

  Atom         1           2           3           4           5           6           7           8           9          10
 IAtWgt=          12          12          16          14          12          12          12          12         127          12
 AtmWgt=  12.0000000  12.0000000  15.9949146  14.0030740  12.0000000  12.0000000  12.0000000  12.0000000 126.9004000  12.0000000
 NucSpn=           0           0           0           2           0           0           0           0           5           0
 AtZEff=  -0.0000000  -0.0000000  -0.0000000  -0.0000000  -0.0000000  -0.0000000  -0.0000000  -0.0000000  -0.0000000  -0.0000000
 NQMom=    0.0000000   0.0000000   0.0000000   2.0440000   0.0000000   0.0000000   0.0000000   0.0000000 -71.0000000   0.0000000
 NMagM=    0.0000000   0.0000000   0.0000000   0.4037610   0.0000000   0.0000000   0.0000000   0.0000000   2.8132800   0.0000000
 AtZNuc=   6.0000000   6.0000000   8.0000000   7.0000000   6.0000000   6.0000000   6.0000000   6.0000000  53.0000000   6.0000000

  Atom        11          12          13          14          15          16          17          18          19
 IAtWgt=          12          19           1           1           1           1           1           1           1
 AtmWgt=  12.0000000  18.9984032   1.0078250   1.0078250   1.0078250   1.0078250   1.0078250   1.0078250   1.0078250
 NucSpn=           0           1           1           1           1           1           1           1           1
 AtZEff=  -0.0000000  -0.0000000  -0.0000000  -0.0000000  -0.0000000  -0.0000000  -0.0000000  -0.0000000  -0.0000000
 NQMom=    0.0000000   0.0000000   0.0000000   0.0000000   0.0000000   0.0000000   0.0000000   0.0000000   0.0000000
 NMagM=    0.0000000   2.6288670   2.7928460   2.7928460   2.7928460   2.7928460   2.7928460   2.7928460   2.7928460
 AtZNuc=   6.0000000   9.0000000   1.0000000   1.0000000   1.0000000   1.0000000   1.0000000   1.0000000   1.0000000
 Leave Link  101 at Tue Sep 17 09:47:39 2024, MaxMem=  1342177280 cpu:               0.3 elap:               0.2
 (Enter /groups/ReismanLab/Software/Gaussian16_RevC/Linux_Binary_AVX2-enabled-CPU/g16/l103.exe)

 GradGradGradGradGradGradGradGradGradGradGradGradGradGradGradGradGradGrad
 Berny optimization.
 Initialization pass.
                           ----------------------------
                           !    Initial Parameters    !
                           ! (Angstroms and Degrees)  !
 --------------------------                            --------------------------
 ! Name  Definition              Value          Derivative Info.                !
 --------------------------------------------------------------------------------
 ! R1    R(1,2)                  1.5112         estimate D2E/DX2                !
 ! R2    R(1,13)                 1.0883         estimate D2E/DX2                !
 ! R3    R(1,14)                 1.0876         estimate D2E/DX2                !
 ! R4    R(1,15)                 1.0857         estimate D2E/DX2                !
 ! R5    R(2,3)                  1.2025         estimate D2E/DX2                !
 ! R6    R(2,4)                  1.3795         estimate D2E/DX2                !
 ! R7    R(4,5)                  1.3984         estimate D2E/DX2                !
 ! R8    R(4,16)                 1.0096         estimate D2E/DX2                !
 ! R9    R(5,6)                  1.3924         estimate D2E/DX2                !
 ! R10   R(5,11)                 1.3966         estimate D2E/DX2                !
 ! R11   R(6,7)                  1.3816         estimate D2E/DX2                !
 ! R12   R(6,17)                 1.08           estimate D2E/DX2                !
 ! R13   R(7,8)                  1.3837         estimate D2E/DX2                !
 ! R14   R(7,18)                 1.0785         estimate D2E/DX2                !
 ! R15   R(8,9)                  2.1108         estimate D2E/DX2                !
 ! R16   R(8,10)                 1.3822         estimate D2E/DX2                !
 ! R17   R(10,11)                1.3827         estimate D2E/DX2                !
 ! R18   R(10,19)                1.0784         estimate D2E/DX2                !
 ! R19   R(11,12)                1.3397         estimate D2E/DX2                !
 ! A1    A(2,1,13)             110.2074         estimate D2E/DX2                !
 ! A2    A(2,1,14)             110.1629         estimate D2E/DX2                !
 ! A3    A(2,1,15)             109.0544         estimate D2E/DX2                !
 ! A4    A(13,1,14)            108.9026         estimate D2E/DX2                !
 ! A5    A(13,1,15)            109.0612         estimate D2E/DX2                !
 ! A6    A(14,1,15)            109.4328         estimate D2E/DX2                !
 ! A7    A(1,2,3)              124.6972         estimate D2E/DX2                !
 ! A8    A(1,2,4)              112.2529         estimate D2E/DX2                !
 ! A9    A(3,2,4)              123.0453         estimate D2E/DX2                !
 ! A10   A(2,4,5)              124.1115         estimate D2E/DX2                !
 ! A11   A(2,4,16)             117.7725         estimate D2E/DX2                !
 ! A12   A(5,4,16)             116.2463         estimate D2E/DX2                !
 ! A13   A(4,5,6)              120.6949         estimate D2E/DX2                !
 ! A14   A(4,5,11)             121.534          estimate D2E/DX2                !
 ! A15   A(6,5,11)             117.7645         estimate D2E/DX2                !
 ! A16   A(5,6,7)              121.3211         estimate D2E/DX2                !
 ! A17   A(5,6,17)             119.0793         estimate D2E/DX2                !
 ! A18   A(7,6,17)             119.5991         estimate D2E/DX2                !
 ! A19   A(6,7,8)              119.408          estimate D2E/DX2                !
 ! A20   A(6,7,18)             120.0183         estimate D2E/DX2                !
 ! A21   A(8,7,18)             120.5715         estimate D2E/DX2                !
 ! A22   A(7,8,9)              119.6947         estimate D2E/DX2                !
 ! A23   A(7,8,10)             120.8465         estimate D2E/DX2                !
 ! A24   A(9,8,10)             119.4506         estimate D2E/DX2                !
 ! A25   A(8,10,11)            118.9941         estimate D2E/DX2                !
 ! A26   A(8,10,19)            121.9813         estimate D2E/DX2                !
 ! A27   A(11,10,19)           119.017          estimate D2E/DX2                !
 ! A28   A(5,11,10)            121.6094         estimate D2E/DX2                !
 ! A29   A(5,11,12)            120.2779         estimate D2E/DX2                !
 ! A30   A(10,11,12)           118.0444         estimate D2E/DX2                !
 ! D1    D(13,1,2,3)          -115.2164         estimate D2E/DX2                !
 ! D2    D(13,1,2,4)            64.0284         estimate D2E/DX2                !
 ! D3    D(14,1,2,3)           124.5916         estimate D2E/DX2                !
 ! D4    D(14,1,2,4)           -56.1635         estimate D2E/DX2                !
 ! D5    D(15,1,2,3)             4.4731         estimate D2E/DX2                !
 ! D6    D(15,1,2,4)          -176.2821         estimate D2E/DX2                !
 ! D7    D(1,2,4,5)           -179.8503         estimate D2E/DX2                !
 ! D8    D(1,2,4,16)           -16.0337         estimate D2E/DX2                !
 ! D9    D(3,2,4,5)             -0.5911         estimate D2E/DX2                !
 ! D10   D(3,2,4,16)           163.2256         estimate D2E/DX2                !
 ! D11   D(2,4,5,6)            133.4687         estimate D2E/DX2                !
 ! D12   D(2,4,5,11)           -47.4848         estimate D2E/DX2                !
 ! D13   D(16,4,5,6)           -30.572          estimate D2E/DX2                !
 ! D14   D(16,4,5,11)          148.4744         estimate D2E/DX2                !
 ! D15   D(4,5,6,7)           -179.2195         estimate D2E/DX2                !
 ! D16   D(4,5,6,17)             0.5227         estimate D2E/DX2                !
 ! D17   D(11,5,6,7)             1.699          estimate D2E/DX2                !
 ! D18   D(11,5,6,17)         -178.5588         estimate D2E/DX2                !
 ! D19   D(4,5,11,10)          178.3204         estimate D2E/DX2                !
 ! D20   D(4,5,11,12)           -4.7455         estimate D2E/DX2                !
 ! D21   D(6,5,11,10)           -2.6063         estimate D2E/DX2                !
 ! D22   D(6,5,11,12)          174.3278         estimate D2E/DX2                !
 ! D23   D(5,6,7,8)              0.3953         estimate D2E/DX2                !
 ! D24   D(5,6,7,18)           179.8653         estimate D2E/DX2                !
 ! D25   D(17,6,7,8)          -179.3456         estimate D2E/DX2                !
 ! D26   D(17,6,7,18)            0.1244         estimate D2E/DX2                !
 ! D27   D(6,7,8,9)            179.3561         estimate D2E/DX2                !
 ! D28   D(6,7,8,10)            -1.6889         estimate D2E/DX2                !
 ! D29   D(18,7,8,9)            -0.1109         estimate D2E/DX2                !
 ! D30   D(18,7,8,10)          178.8441         estimate D2E/DX2                !
 ! D31   D(7,8,10,11)            0.8103         estimate D2E/DX2                !
 ! D32   D(7,8,10,19)         -178.1774         estimate D2E/DX2                !
 ! D33   D(9,8,10,11)          179.7678         estimate D2E/DX2                !
 ! D34   D(9,8,10,19)            0.7801         estimate D2E/DX2                !
 ! D35   D(8,10,11,5)            1.3856         estimate D2E/DX2                !
 ! D36   D(8,10,11,12)        -175.6145         estimate D2E/DX2                !
 ! D37   D(19,10,11,5)        -179.5963         estimate D2E/DX2                !
 ! D38   D(19,10,11,12)          3.4035         estimate D2E/DX2                !
 --------------------------------------------------------------------------------
 Trust Radius=3.00D-01 FncErr=1.00D-07 GrdErr=1.00D-06 EigMax=2.50D+02 EigMin=1.00D-04
 Number of steps in this run=     97 maximum allowed number of steps=    114.
 GradGradGradGradGradGradGradGradGradGradGradGradGradGradGradGradGradGrad

 Leave Link  103 at Tue Sep 17 09:47:39 2024, MaxMem=  1342177280 cpu:               0.1 elap:               0.0
 (Enter /groups/ReismanLab/Software/Gaussian16_RevC/Linux_Binary_AVX2-enabled-CPU/g16/l202.exe)
                          Input orientation:                          
 ---------------------------------------------------------------------
 Center     Atomic      Atomic             Coordinates (Angstroms)
 Number     Number       Type             X           Y           Z
 ---------------------------------------------------------------------
      1          6           0       -5.773848    0.551540    0.469607
      2          6           0       -4.384092    0.280963   -0.058806
      3          8           0       -4.139279   -0.130941   -1.161762
      4          7           0       -3.406068    0.576839    0.867922
      5          6           0       -2.035415    0.422292    0.638053
      6          6           0       -1.139298    1.432245    0.978415
      7          6           0        0.215534    1.299809    0.742499
      8          6           0        0.692069    0.144316    0.148788
      9         53           0        2.757774   -0.059050   -0.234418
     10          6           0       -0.164772   -0.889778   -0.178091
     11          6           0       -1.515537   -0.748438    0.081507
     12          9           0       -2.316157   -1.795170   -0.159564
     13          1           0       -5.900293    1.614086    0.668076
     14          1           0       -5.938505   -0.001149    1.391677
     15          1           0       -6.502188    0.240419   -0.272978
     16          1           0       -3.664454    1.149941    1.657867
     17          1           0       -1.515838    2.337187    1.431930
     18          1           0        0.890619    2.096315    1.012612
     19          1           0        0.190537   -1.809573   -0.614655
 ---------------------------------------------------------------------
                    Distance matrix (angstroms):
                    1          2          3          4          5
     1  C    0.000000
     2  C    1.511241   0.000000
     3  O    2.408103   1.202544   0.000000
     4  N    2.401182   1.379456   2.271160   0.000000
     5  C    3.744457   2.453950   2.823410   1.398361   0.000000
     6  C    4.744848   3.595827   4.002973   2.425320   1.392436
     7  C    6.042108   4.778776   4.963633   3.695188   2.418205
     8  C    6.486666   5.082242   5.013504   4.183175   2.784927
     9  I    8.582367   7.152112   6.959488   6.293842   4.895667
    10  C    5.827404   4.380357   4.164150   3.708248   2.426298
    11  C    4.469203   3.050896   2.968340   2.439040   1.396648
    12  F    4.225935   2.932037   2.664176   2.805363   2.373215
    13  H    1.088293   2.145795   3.081330   2.708685   4.044571
    14  H    1.087561   2.144687   3.126357   2.649835   3.997670
    15  H    1.085683   2.129282   2.551702   3.316744   4.562359
    16  H    2.493910   2.054256   3.133118   1.009566   2.055058
    17  H    4.716487   3.831088   4.438619   2.643842   2.137059
    18  H    6.862674   5.680318   5.915103   4.559743   3.391802
    19  H    6.505717   5.060291   4.675942   4.563832   3.391955
                    6          7          8          9         10
     6  C    0.000000
     7  C    1.381580   0.000000
     8  C    2.387665   1.383743   0.000000
     9  I    4.345352   3.043657   2.110768   0.000000
    10  C    2.771100   2.405495   1.382163   3.038841   0.000000
    11  C    2.387756   2.762034   2.382238   4.340074   1.382727
    12  F    3.618867   4.099033   3.592507   5.363253   2.334210
    13  H    4.774563   6.124348   6.774150   8.864310   6.315183
    14  H    5.025713   6.323458   6.747625   8.847191   6.048952
    15  H    5.634450   6.876139   7.207250   9.264883   6.438105
    16  H    2.630165   3.989319   4.718887   6.803485   4.447356
    17  H    1.079990   2.132866   3.366005   5.175174   3.851084
    18  H    2.136052   1.078481   2.143809   3.112386   3.383544
    19  H    3.849118   3.392749   2.156863   3.130433   1.078358
                   11         12         13         14         15
    11  C    0.000000
    12  F    1.339685   0.000000
    13  H    5.015144   5.015381   0.000000
    14  H    4.673075   4.329696   1.770322   0.000000
    15  H    5.096095   4.656108   1.770543   1.774026   0.000000
    16  H    3.272094   3.714114   2.488793   2.562650   3.550792
    17  H    3.368193   4.499971   4.508857   5.002941   5.671581
    18  H    3.840463   5.176974   6.816724   7.154018   7.729856
    19  H    2.126343   2.547711   7.103875   6.697829   7.007979
                   16         17         18         19
    16  H    0.000000
    17  H    2.465188   0.000000
    18  H    4.696878   2.454563   0.000000
    19  H    5.365076   4.929081   4.288831   0.000000
 Stoichiometry    C8H7FINO
 Framework group  C1[X(C8H7FINO)]
 Deg. of freedom    51
 Full point group                 C1      NOp   1
 Largest Abelian subgroup         C1      NOp   1
 Largest concise Abelian subgroup C1      NOp   1
                         Standard orientation:                         
 ---------------------------------------------------------------------
 Center     Atomic      Atomic             Coordinates (Angstroms)
 Number     Number       Type             X           Y           Z
 ---------------------------------------------------------------------
      1          6           0        5.507991    0.388866    0.049548
      2          6           0        4.085369   -0.030981    0.338903
      3          8           0        3.771512   -0.904746    1.103194
      4          7           0        3.166052    0.717763   -0.366177
      5          6           0        1.781431    0.540748   -0.283085
      6          6           0        0.932993    1.634166   -0.129902
      7          6           0       -0.435535    1.472919   -0.030434
      8          6           0       -0.974696    0.199340   -0.075672
      9         53           0       -3.062560   -0.058948    0.095945
     10          6           0       -0.165430   -0.906932   -0.253503
     11          6           0        1.200532   -0.726409   -0.369660
     12          9           0        1.957835   -1.800228   -0.630737
     13          1           0        5.674312    1.410362    0.386098
     14          1           0        5.705392    0.333248   -1.018501
     15          1           0        6.187319   -0.273398    0.577399
     16          1           0        3.481505    1.583752   -0.778215
     17          1           0        1.357971    2.625979   -0.084299
     18          1           0       -1.072985    2.334481    0.089937
     19          1           0       -0.568739   -1.904793   -0.320379
 ---------------------------------------------------------------------
 Rotational constants (GHZ):           2.2956204           0.2099177           0.1979575
 Leave Link  202 at Tue Sep 17 09:47:39 2024, MaxMem=  1342177280 cpu:               0.1 elap:               0.1
 (Enter /groups/ReismanLab/Software/Gaussian16_RevC/Linux_Binary_AVX2-enabled-CPU/g16/l301.exe)
 General basis read from cards:  (5D, 7F)
 Centers:       1      2      5      6      7      8     10     11     12     13
 Centers:      14     15     16     17     18     19      4      3
 6-31G(d,p)
 ****
 Centers:       9
 LANL2DZ
 ****
 ======================================================================================================
                                       Pseudopotential Parameters
 ======================================================================================================
  Center     Atomic      Valence      Angular      Power
  Number     Number     Electrons     Momentum     of R      Exponent        Coefficient   SO-Coeffient
 ======================================================================================================
    1          6
                                   No pseudopotential on this center.
    2          6
                                   No pseudopotential on this center.
    3          8
                                   No pseudopotential on this center.
    4          7
                                   No pseudopotential on this center.
    5          6
                                   No pseudopotential on this center.
    6          6
                                   No pseudopotential on this center.
    7          6
                                   No pseudopotential on this center.
    8          6
                                   No pseudopotential on this center.
    9         53            7
                                      F and up 
                                                     0        1.0715702       -0.07476210    0.00000000
                                                     1       44.1936028      -30.08112240    0.00000000
                                                     2       12.9367609      -75.37227210    0.00000000
                                                     2        3.1956412      -22.05637580    0.00000000
                                                     2        0.8589806       -1.69795850    0.00000000
                                      S - F
                                                     0      127.9202670        2.93800360    0.00000000
                                                     1       78.6211465       41.24712670    0.00000000
                                                     2       36.5146237      287.86800950    0.00000000
                                                     2        9.9065681      114.37585060    0.00000000
                                                     2        1.9420086       37.65477140    0.00000000
                                      P - F
                                                     0       13.0035304        2.22226300    0.00000000
                                                     1       76.0331404       39.40908310    0.00000000
                                                     2       24.1961684      177.40750020    0.00000000
                                                     2        6.4053433       77.98894620    0.00000000
                                                     2        1.5851786       25.75476410    0.00000000
                                      D - F
                                                     0       40.4278108        7.05243600    0.00000000
                                                     1       28.9084375       33.30416350    0.00000000
                                                     2       15.6268936      186.94538750    0.00000000
                                                     2        4.1442856       71.96883610    0.00000000
                                                     2        0.9377235        9.36306570    0.00000000
   10          6
                                   No pseudopotential on this center.
   11          6
                                   No pseudopotential on this center.
   12          9
                                   No pseudopotential on this center.
   13          1
                                   No pseudopotential on this center.
   14          1
                                   No pseudopotential on this center.
   15          1
                                   No pseudopotential on this center.
   16          1
                                   No pseudopotential on this center.
   17          1
                                   No pseudopotential on this center.
   18          1
                                   No pseudopotential on this center.
   19          1
                                   No pseudopotential on this center.
 ======================================================================================================
 Ernie: Thresh=  0.10000D-02 Tol=  0.10000D-05 Strict=F.
 There are   208 symmetry adapted cartesian basis functions of A   symmetry.
 There are   197 symmetry adapted basis functions of A   symmetry.
   197 basis functions,   369 primitive gaussians,   208 cartesian basis functions
    43 alpha electrons       43 beta electrons
       nuclear repulsion energy       647.4095049786 Hartrees.
 IExCor=  402 DFT=T Ex+Corr=B3LYP ExCW=0 ScaHFX=  0.200000
 ScaDFX=  0.800000  0.720000  1.000000  0.810000 ScalE2=  1.000000  1.000000
 IRadAn=      5 IRanWt=     -1 IRanGd=            0 ICorTp=0 IEmpDi=141
 NAtoms=   19 NActive=   19 NUniq=   19 SFac= 1.00D+00 NAtFMM=   60 NAOKFM=F Big=F
 Integral buffers will be    131072 words long.
 Raffenetti 2 integral format.
 Two-electron integral symmetry is turned on.
 R6Disp:  Grimme-D3(BJ) Dispersion energy=       -0.0395894636 Hartrees.
 Nuclear repulsion after empirical dispersion term =      647.3699155151 Hartrees.
 Leave Link  301 at Tue Sep 17 09:47:39 2024, MaxMem=  1342177280 cpu:               0.1 elap:               0.1
 (Enter /groups/ReismanLab/Software/Gaussian16_RevC/Linux_Binary_AVX2-enabled-CPU/g16/l302.exe)
 NPDir=0 NMtPBC=     1 NCelOv=     1 NCel=       1 NClECP=     1 NCelD=      1
         NCelK=      1 NCelE2=     1 NClLst=     1 CellRange=     0.0.
 One-electron integrals computed using PRISM.
 One-electron integral symmetry used in STVInt
   1 Symmetry operations used in ECPInt.
 ECPInt:  NShTT=    2415 NPrTT=   13424 LenC2=    2257 LenP2D=    8468.
 LDataN:  DoStor=T MaxTD1= 5 Len=  102
 NBasis=   197 RedAO= T EigKep=  4.55D-04  NBF=   197
 NBsUse=   197 1.00D-06 EigRej= -1.00D+00 NBFU=   197
 Precomputing XC quadrature grid using
 IXCGrd= 4 IRadAn=           5 IRanWt=          -1 IRanGd=           0 AccXCQ= 0.00D+00.
 Defaulting to unpruned grid for atomic number  53.
 Generated NRdTot=       0 NPtTot=           0 NUsed=           0 NTot=          32
 NSgBfM=   208   208   208   208   208 MxSgAt=    19 MxSgA2=    19.
 Leave Link  302 at Tue Sep 17 09:47:39 2024, MaxMem=  1342177280 cpu:               2.0 elap:               0.3
 (Enter /groups/ReismanLab/Software/Gaussian16_RevC/Linux_Binary_AVX2-enabled-CPU/g16/l303.exe)
 DipDrv:  MaxL=1.
 Leave Link  303 at Tue Sep 17 09:47:40 2024, MaxMem=  1342177280 cpu:               0.1 elap:               0.1
 (Enter /groups/ReismanLab/Software/Gaussian16_RevC/Linux_Binary_AVX2-enabled-CPU/g16/l401.exe)
 ExpMin= 1.05D-01 ExpMax= 7.00D+03 ExpMxC= 1.05D+03 IAcc=3 IRadAn=         5 AccDes= 0.00D+00
 Harris functional with IExCor=  402 and IRadAn=       5 diagonalized for initial guess.
 HarFok:  IExCor=  402 AccDes= 0.00D+00 IRadAn=         5 IDoV= 1 UseB2=F ITyADJ=14
 ICtDFT=  3500011 ScaDFX=  1.000000  1.000000  1.000000  1.000000
 Defaulting to unpruned grid for atomic number  53.
 FoFCou: FMM=F IPFlag=           0 FMFlag=      100000 FMFlg1=           0
         NFxFlg=           0 DoJE=T BraDBF=F KetDBF=T FulRan=T
         wScrn=  0.000000 ICntrl=       500 IOpCl=  0 I1Cent=   200000004 NGrid=           0
         NMat0=    1 NMatS0=      1 NMatT0=    0 NMatD0=    1 NMtDS0=    0 NMtDT0=    0
 Petite list used in FoFCou.
 Harris En= -550.243089733068    
 JPrj=0 DoOrth=F DoCkMO=F.
 Leave Link  401 at Tue Sep 17 09:47:41 2024, MaxMem=  1342177280 cpu:               8.3 elap:               1.1
 (Enter /groups/ReismanLab/Software/Gaussian16_RevC/Linux_Binary_AVX2-enabled-CPU/g16/l502.exe)
 Integral symmetry usage will be decided dynamically.
 Closed shell SCF:
 Using DIIS extrapolation, IDIIS=  1040.
 NGot=  1342177280 LenX=  1342086382 LenY=  1342042677
 Requested convergence on RMS density matrix=1.00D-08 within  32 cycles.
 Requested convergence on MAX density matrix=1.00D-06.
 Requested convergence on             energy=1.00D-06.
 No special actions if energy rises.
 Fock matrices will be formed incrementally for  20 cycles.
 Integral accuracy reduced to 1.0D-05 until final iterations.

 Cycle   1  Pass 0  IDiag  1:
 FoFJK:  IHMeth= 1 ICntrl=       0 DoSepK=F KAlg= 0 I1Cent=           0 FoldK=F
 IRaf= 880000000 NMat=       1 IRICut=       1 DoRegI=T DoRafI=F ISym2E= 0 IDoP0=0 IntGTp=1.
 FoFCou: FMM=F IPFlag=           0 FMFlag=      100000 FMFlg1=           0
         NFxFlg=           0 DoJE=F BraDBF=F KetDBF=F FulRan=T
         wScrn=  0.000000 ICntrl=         0 IOpCl=  0 I1Cent=           0 NGrid=           0
         NMat0=    1 NMatS0=      1 NMatT0=    0 NMatD0=    1 NMtDS0=    0 NMtDT0=    0
 Symmetry not used in FoFCou.
 Defaulting to unpruned grid for atomic number  53.
 Defaulting to unpruned grid for atomic number  53.
 Defaulting to unpruned grid for atomic number  53.
 Defaulting to unpruned grid for atomic number  53.
 Defaulting to unpruned grid for atomic number  53.
 Defaulting to unpruned grid for atomic number  53.
 Defaulting to unpruned grid for atomic number  53.
 Defaulting to unpruned grid for atomic number  53.
 E= -550.028612440265    
 DIIS: error= 2.29D-02 at cycle   1 NSaved=   1.
 NSaved= 1 IEnMin= 1 EnMin= -550.028612440265     IErMin= 1 ErrMin= 2.29D-02
 ErrMax= 2.29D-02  0.00D+00 EMaxC= 1.00D-01 BMatC= 2.82D-01 BMatP= 2.82D-01
 IDIUse=3 WtCom= 7.71D-01 WtEn= 2.29D-01
 Coeff-Com:  0.100D+01
 Coeff-En:   0.100D+01
 Coeff:      0.100D+01
 Gap=     0.292 Goal=   None    Shift=    0.000
 GapD=    0.292 DampG=1.000 DampE=0.500 DampFc=0.5000 IDamp=-1.
 Damping current iteration by 5.00D-01
 RMSDP=7.01D-03 MaxDP=2.56D-01              OVMax= 2.69D-01

 Cycle   2  Pass 0  IDiag  1:
 RMSU=  3.49D-03    CP:  9.87D-01
 E= -550.110727410718     Delta-E=       -0.082114970453 Rises=F Damp=T
 DIIS: error= 7.58D-03 at cycle   2 NSaved=   2.
 NSaved= 2 IEnMin= 2 EnMin= -550.110727410718     IErMin= 2 ErrMin= 7.58D-03
 ErrMax= 7.58D-03  0.00D+00 EMaxC= 1.00D-01 BMatC= 4.07D-02 BMatP= 2.82D-01
 IDIUse=3 WtCom= 9.24D-01 WtEn= 7.58D-02
 Coeff-Com:  0.209D+00 0.791D+00
 Coeff-En:   0.325D+00 0.675D+00
 Coeff:      0.218D+00 0.782D+00
 Gap=     0.221 Goal=   None    Shift=    0.000
 RMSDP=2.30D-03 MaxDP=8.39D-02 DE=-8.21D-02 OVMax= 1.87D-01

 Cycle   3  Pass 0  IDiag  1:
 RMSU=  1.90D-03    CP:  9.83D-01  6.30D-01
 E= -550.267567891737     Delta-E=       -0.156840481019 Rises=F Damp=F
 DIIS: error= 1.07D-02 at cycle   3 NSaved=   3.
 NSaved= 3 IEnMin= 3 EnMin= -550.267567891737     IErMin= 2 ErrMin= 7.58D-03
 ErrMax= 1.07D-02  0.00D+00 EMaxC= 1.00D-01 BMatC= 4.40D-02 BMatP= 4.07D-02
 IDIUse=3 WtCom= 8.93D-01 WtEn= 1.07D-01
 Coeff-Com:  0.693D-01 0.504D+00 0.427D+00
 Coeff-En:   0.000D+00 0.000D+00 0.100D+01
 Coeff:      0.619D-01 0.450D+00 0.488D+00
 Gap=     0.209 Goal=   None    Shift=    0.000
 RMSDP=1.27D-03 MaxDP=3.98D-02 DE=-1.57D-01 OVMax= 7.02D-02

 Cycle   4  Pass 0  IDiag  1:
 RMSU=  7.88D-04    CP:  9.86D-01  7.61D-01  5.34D-01
 E= -550.302522649564     Delta-E=       -0.034954757827 Rises=F Damp=F
 DIIS: error= 3.66D-03 at cycle   4 NSaved=   4.
 NSaved= 4 IEnMin= 4 EnMin= -550.302522649564     IErMin= 4 ErrMin= 3.66D-03
 ErrMax= 3.66D-03  0.00D+00 EMaxC= 1.00D-01 BMatC= 5.28D-03 BMatP= 4.07D-02
 IDIUse=3 WtCom= 9.63D-01 WtEn= 3.66D-02
 Coeff-Com:  0.114D-01 0.892D-01 0.273D+00 0.627D+00
 Coeff-En:   0.000D+00 0.000D+00 0.121D+00 0.879D+00
 Coeff:      0.109D-01 0.859D-01 0.267D+00 0.636D+00
 Gap=     0.203 Goal=   None    Shift=    0.000
 RMSDP=4.15D-04 MaxDP=1.29D-02 DE=-3.50D-02 OVMax= 2.64D-02

 Cycle   5  Pass 0  IDiag  1:
 RMSU=  2.11D-04    CP:  9.85D-01  7.19D-01  6.32D-01  6.63D-01
 E= -550.306832413161     Delta-E=       -0.004309763598 Rises=F Damp=F
 DIIS: error= 7.45D-04 at cycle   5 NSaved=   5.
 NSaved= 5 IEnMin= 5 EnMin= -550.306832413161     IErMin= 5 ErrMin= 7.45D-04
 ErrMax= 7.45D-04  0.00D+00 EMaxC= 1.00D-01 BMatC= 3.77D-04 BMatP= 5.28D-03
 IDIUse=3 WtCom= 9.93D-01 WtEn= 7.45D-03
 Coeff-Com:  0.150D-02 0.143D-01 0.123D+00 0.374D+00 0.487D+00
 Coeff-En:   0.000D+00 0.000D+00 0.000D+00 0.000D+00 0.100D+01
 Coeff:      0.149D-02 0.142D-01 0.122D+00 0.371D+00 0.491D+00
 Gap=     0.196 Goal=   None    Shift=    0.000
 RMSDP=1.32D-04 MaxDP=3.86D-03 DE=-4.31D-03 OVMax= 8.59D-03

 Cycle   6  Pass 0  IDiag  1:
 RMSU=  6.91D-05    CP:  9.85D-01  7.26D-01  6.34D-01  7.09D-01  5.13D-01
 E= -550.307189583374     Delta-E=       -0.000357170213 Rises=F Damp=F
 DIIS: error= 2.49D-04 at cycle   6 NSaved=   6.
 NSaved= 6 IEnMin= 6 EnMin= -550.307189583374     IErMin= 6 ErrMin= 2.49D-04
 ErrMax= 2.49D-04  0.00D+00 EMaxC= 1.00D-01 BMatC= 2.27D-05 BMatP= 3.77D-04
 IDIUse=3 WtCom= 9.98D-01 WtEn= 2.49D-03
 Coeff-Com: -0.855D-04-0.321D-02 0.276D-01 0.102D+00 0.246D+00 0.628D+00
 Coeff-En:   0.000D+00 0.000D+00 0.000D+00 0.000D+00 0.108D-01 0.989D+00
 Coeff:     -0.853D-04-0.320D-02 0.275D-01 0.102D+00 0.245D+00 0.629D+00
 Gap=     0.196 Goal=   None    Shift=    0.000
 RMSDP=3.54D-05 MaxDP=9.69D-04 DE=-3.57D-04 OVMax= 2.44D-03

 Cycle   7  Pass 0  IDiag  1:
 RMSU=  1.79D-05    CP:  9.85D-01  7.25D-01  6.34D-01  7.10D-01  6.01D-01
                    CP:  6.54D-01
 E= -550.307211831194     Delta-E=       -0.000022247820 Rises=F Damp=F
 DIIS: error= 9.76D-05 at cycle   7 NSaved=   7.
 NSaved= 7 IEnMin= 7 EnMin= -550.307211831194     IErMin= 7 ErrMin= 9.76D-05
 ErrMax= 9.76D-05  0.00D+00 EMaxC= 1.00D-01 BMatC= 3.38D-06 BMatP= 2.27D-05
 IDIUse=1 WtCom= 1.00D+00 WtEn= 0.00D+00
 Coeff-Com: -0.520D-04-0.306D-02 0.883D-02 0.366D-01 0.118D+00 0.386D+00
 Coeff-Com:  0.453D+00
 Coeff:     -0.520D-04-0.306D-02 0.883D-02 0.366D-01 0.118D+00 0.386D+00
 Coeff:      0.453D+00
 Gap=     0.196 Goal=   None    Shift=    0.000
 RMSDP=1.01D-05 MaxDP=3.96D-04 DE=-2.22D-05 OVMax= 7.14D-04

 Cycle   8  Pass 0  IDiag  1:
 RMSU=  5.15D-06    CP:  9.85D-01  7.24D-01  6.35D-01  7.11D-01  5.95D-01
                    CP:  7.05D-01  5.88D-01
 E= -550.307215352809     Delta-E=       -0.000003521615 Rises=F Damp=F
 DIIS: error= 1.05D-05 at cycle   8 NSaved=   8.
 NSaved= 8 IEnMin= 8 EnMin= -550.307215352809     IErMin= 8 ErrMin= 1.05D-05
 ErrMax= 1.05D-05  0.00D+00 EMaxC= 1.00D-01 BMatC= 8.79D-08 BMatP= 3.38D-06
 IDIUse=1 WtCom= 1.00D+00 WtEn= 0.00D+00
 Coeff-Com:  0.469D-04-0.101D-02 0.148D-02 0.572D-02 0.259D-01 0.100D+00
 Coeff-Com:  0.170D+00 0.698D+00
 Coeff:      0.469D-04-0.101D-02 0.148D-02 0.572D-02 0.259D-01 0.100D+00
 Coeff:      0.170D+00 0.698D+00
 Gap=     0.196 Goal=   None    Shift=    0.000
 RMSDP=2.55D-06 MaxDP=5.52D-05 DE=-3.52D-06 OVMax= 9.08D-05

 Initial convergence to 1.0D-05 achieved.  Increase integral accuracy.
 Cycle   9  Pass 1  IDiag  1:
 E= -550.307168801254     Delta-E=        0.000046551555 Rises=F Damp=F
 DIIS: error= 2.23D-05 at cycle   1 NSaved=   1.
 NSaved= 1 IEnMin= 1 EnMin= -550.307168801254     IErMin= 1 ErrMin= 2.23D-05
 ErrMax= 2.23D-05  0.00D+00 EMaxC= 1.00D-01 BMatC= 7.62D-08 BMatP= 7.62D-08
 IDIUse=1 WtCom= 1.00D+00 WtEn= 0.00D+00
 Coeff-Com:  0.100D+01
 Coeff:      0.100D+01
 Gap=     0.196 Goal=   None    Shift=    0.000
 RMSDP=2.55D-06 MaxDP=5.52D-05 DE= 4.66D-05 OVMax= 1.16D-04

 Cycle  10  Pass 1  IDiag  1:
 RMSU=  1.82D-05    CP:  1.00D+00
 E= -550.307168825109     Delta-E=       -0.000000023855 Rises=F Damp=F
 DIIS: error= 1.31D-05 at cycle   2 NSaved=   2.
 NSaved= 2 IEnMin= 2 EnMin= -550.307168825109     IErMin= 2 ErrMin= 1.31D-05
 ErrMax= 1.31D-05  0.00D+00 EMaxC= 1.00D-01 BMatC= 5.45D-08 BMatP= 7.62D-08
 IDIUse=1 WtCom= 1.00D+00 WtEn= 0.00D+00
 Coeff-Com:  0.444D+00 0.556D+00
 Coeff:      0.444D+00 0.556D+00
 Gap=     0.196 Goal=   None    Shift=    0.000
 RMSDP=1.89D-06 MaxDP=5.88D-05 DE=-2.39D-08 OVMax= 1.23D-04

 Cycle  11  Pass 1  IDiag  1:
 RMSU=  1.89D-06    CP:  1.00D+00  1.00D+00
 E= -550.307168857952     Delta-E=       -0.000000032843 Rises=F Damp=F
 DIIS: error= 8.81D-06 at cycle   3 NSaved=   3.
 NSaved= 3 IEnMin= 3 EnMin= -550.307168857952     IErMin= 3 ErrMin= 8.81D-06
 ErrMax= 8.81D-06  0.00D+00 EMaxC= 1.00D-01 BMatC= 1.91D-08 BMatP= 5.45D-08
 IDIUse=1 WtCom= 1.00D+00 WtEn= 0.00D+00
 Coeff-Com:  0.411D-01 0.367D+00 0.592D+00
 Coeff:      0.411D-01 0.367D+00 0.592D+00
 Gap=     0.196 Goal=   None    Shift=    0.000
 RMSDP=9.11D-07 MaxDP=2.68D-05 DE=-3.28D-08 OVMax= 6.26D-05

 Cycle  12  Pass 1  IDiag  1:
 RMSU=  5.19D-07    CP:  1.00D+00  1.01D+00  6.12D-01
 E= -550.307168875180     Delta-E=       -0.000000017229 Rises=F Damp=F
 DIIS: error= 2.42D-06 at cycle   4 NSaved=   4.
 NSaved= 4 IEnMin= 4 EnMin= -550.307168875180     IErMin= 4 ErrMin= 2.42D-06
 ErrMax= 2.42D-06  0.00D+00 EMaxC= 1.00D-01 BMatC= 2.49D-09 BMatP= 1.91D-08
 IDIUse=1 WtCom= 1.00D+00 WtEn= 0.00D+00
 Coeff-Com: -0.265D-02 0.204D+00 0.387D+00 0.412D+00
 Coeff:     -0.265D-02 0.204D+00 0.387D+00 0.412D+00
 Gap=     0.196 Goal=   None    Shift=    0.000
 RMSDP=3.04D-07 MaxDP=9.23D-06 DE=-1.72D-08 OVMax= 1.48D-05

 Cycle  13  Pass 1  IDiag  1:
 RMSU=  9.68D-08    CP:  1.00D+00  1.01D+00  6.50D-01  4.64D-01
 E= -550.307168877570     Delta-E=       -0.000000002390 Rises=F Damp=F
 DIIS: error= 3.23D-07 at cycle   5 NSaved=   5.
 NSaved= 5 IEnMin= 5 EnMin= -550.307168877570     IErMin= 5 ErrMin= 3.23D-07
 ErrMax= 3.23D-07  0.00D+00 EMaxC= 1.00D-01 BMatC= 5.56D-11 BMatP= 2.49D-09
 IDIUse=1 WtCom= 1.00D+00 WtEn= 0.00D+00
 Coeff-Com: -0.284D-02 0.106D+00 0.202D+00 0.239D+00 0.455D+00
 Coeff:     -0.284D-02 0.106D+00 0.202D+00 0.239D+00 0.455D+00
 Gap=     0.196 Goal=   None    Shift=    0.000
 RMSDP=4.15D-08 MaxDP=1.06D-06 DE=-2.39D-09 OVMax= 1.77D-06

 Cycle  14  Pass 1  IDiag  1:
 RMSU=  3.27D-08    CP:  1.00D+00  1.01D+00  6.48D-01  4.71D-01  7.44D-01
 E= -550.307168877625     Delta-E=       -0.000000000055 Rises=F Damp=F
 DIIS: error= 9.12D-08 at cycle   6 NSaved=   6.
 NSaved= 6 IEnMin= 6 EnMin= -550.307168877625     IErMin= 6 ErrMin= 9.12D-08
 ErrMax= 9.12D-08  0.00D+00 EMaxC= 1.00D-01 BMatC= 3.45D-12 BMatP= 5.56D-11
 IDIUse=1 WtCom= 1.00D+00 WtEn= 0.00D+00
 Coeff-Com: -0.124D-02 0.346D-01 0.659D-01 0.845D-01 0.238D+00 0.579D+00
 Coeff:     -0.124D-02 0.346D-01 0.659D-01 0.845D-01 0.238D+00 0.579D+00
 Gap=     0.196 Goal=   None    Shift=    0.000
 RMSDP=1.34D-08 MaxDP=4.03D-07 DE=-5.50D-11 OVMax= 7.76D-07

 Cycle  15  Pass 1  IDiag  1:
 RMSU=  1.21D-08    CP:  1.00D+00  1.01D+00  6.47D-01  4.71D-01  7.69D-01
                    CP:  8.54D-01
 E= -550.307168877631     Delta-E=       -0.000000000006 Rises=F Damp=F
 DIIS: error= 3.28D-08 at cycle   7 NSaved=   7.
 NSaved= 7 IEnMin= 7 EnMin= -550.307168877631     IErMin= 7 ErrMin= 3.28D-08
 ErrMax= 3.28D-08  0.00D+00 EMaxC= 1.00D-01 BMatC= 6.75D-13 BMatP= 3.45D-12
 IDIUse=1 WtCom= 1.00D+00 WtEn= 0.00D+00
 Coeff-Com: -0.302D-03 0.511D-02 0.935D-02 0.158D-01 0.719D-01 0.343D+00
 Coeff-Com:  0.555D+00
 Coeff:     -0.302D-03 0.511D-02 0.935D-02 0.158D-01 0.719D-01 0.343D+00
 Coeff:      0.555D+00
 Gap=     0.196 Goal=   None    Shift=    0.000
 RMSDP=6.26D-09 MaxDP=1.71D-07 DE=-5.91D-12 OVMax= 3.32D-07

 SCF Done:  E(RB3LYP) =  -550.307168878     A.U. after   15 cycles
            NFock= 15  Conv=0.63D-08     -V/T= 2.0212
 KE= 5.388860365906D+02 PE=-2.576493084666D+03 EE= 8.399299636825D+02
 Leave Link  502 at Tue Sep 17 09:47:58 2024, MaxMem=  1342177280 cpu:             129.4 elap:              17.3
 (Enter /groups/ReismanLab/Software/Gaussian16_RevC/Linux_Binary_AVX2-enabled-CPU/g16/l508.exe)
 QCSCF skips out because SCF is already converged.
 Leave Link  508 at Tue Sep 17 09:47:58 2024, MaxMem=  1342177280 cpu:               0.0 elap:               0.0
 (Enter /groups/ReismanLab/Software/Gaussian16_RevC/Linux_Binary_AVX2-enabled-CPU/g16/l601.exe)
 Copying SCF densities to generalized density rwf, IOpCl= 0 IROHF=0.

 **********************************************************************

            Population analysis using the SCF Density.

 **********************************************************************

 Orbital symmetries:
       Occupied  (A) (A) (A) (A) (A) (A) (A) (A) (A) (A) (A) (A)
                 (A) (A) (A) (A) (A) (A) (A) (A) (A) (A) (A) (A)
                 (A) (A) (A) (A) (A) (A) (A) (A) (A) (A) (A) (A)
                 (A) (A) (A) (A) (A) (A) (A)
       Virtual   (A) (A) (A) (A) (A) (A) (A) (A) (A) (A) (A) (A)
                 (A) (A) (A) (A) (A) (A) (A) (A) (A) (A) (A) (A)
                 (A) (A) (A) (A) (A) (A) (A) (A) (A) (A) (A) (A)
                 (A) (A) (A) (A) (A) (A) (A) (A) (A) (A) (A) (A)
                 (A) (A) (A) (A) (A) (A) (A) (A) (A) (A) (A) (A)
                 (A) (A) (A) (A) (A) (A) (A) (A) (A) (A) (A) (A)
                 (A) (A) (A) (A) (A) (A) (A) (A) (A) (A) (A) (A)
                 (A) (A) (A) (A) (A) (A) (A) (A) (A) (A) (A) (A)
                 (A) (A) (A) (A) (A) (A) (A) (A) (A) (A) (A) (A)
                 (A) (A) (A) (A) (A) (A) (A) (A) (A) (A) (A) (A)
                 (A) (A) (A) (A) (A) (A) (A) (A) (A) (A) (A) (A)
                 (A) (A) (A) (A) (A) (A) (A) (A) (A) (A) (A) (A)
                 (A) (A) (A) (A) (A) (A) (A) (A) (A) (A)
 The electronic state is 1-A.
 Alpha  occ. eigenvalues --  -24.70533 -19.11935 -14.37447 -10.29290 -10.27979
 Alpha  occ. eigenvalues --  -10.24338 -10.24094 -10.20718 -10.20426 -10.20364
 Alpha  occ. eigenvalues --  -10.19272  -1.22476  -1.05118  -0.95195  -0.87684
 Alpha  occ. eigenvalues --   -0.78651  -0.76800  -0.74375  -0.68604  -0.64512
 Alpha  occ. eigenvalues --   -0.62133  -0.59323  -0.55627  -0.52179  -0.50633
 Alpha  occ. eigenvalues --   -0.48768  -0.46715  -0.45970  -0.45771  -0.45485
 Alpha  occ. eigenvalues --   -0.41377  -0.40716  -0.40409  -0.39551  -0.38463
 Alpha  occ. eigenvalues --   -0.37078  -0.34826  -0.31921  -0.27591  -0.27021
 Alpha  occ. eigenvalues --   -0.26261  -0.25834  -0.22830
 Alpha virt. eigenvalues --   -0.03235  -0.02490  -0.01017   0.02868   0.06555
 Alpha virt. eigenvalues --    0.10062   0.12250   0.13970   0.14809   0.15294
 Alpha virt. eigenvalues --    0.16079   0.16948   0.19246   0.22093   0.24368
 Alpha virt. eigenvalues --    0.29024   0.29976   0.30586   0.32362   0.34059
 Alpha virt. eigenvalues --    0.36664   0.38173   0.38767   0.40818   0.49203
 Alpha virt. eigenvalues --    0.50702   0.50973   0.51605   0.52447   0.53342
 Alpha virt. eigenvalues --    0.55592   0.57499   0.58245   0.58639   0.59058
 Alpha virt. eigenvalues --    0.60292   0.60802   0.61783   0.64339   0.64781
 Alpha virt. eigenvalues --    0.67196   0.68108   0.69263   0.73567   0.75174
 Alpha virt. eigenvalues --    0.75670   0.79735   0.80787   0.82690   0.84555
 Alpha virt. eigenvalues --    0.85470   0.86051   0.87256   0.89198   0.91337
 Alpha virt. eigenvalues --    0.92996   0.94548   0.96097   1.00420   1.02760
 Alpha virt. eigenvalues --    1.03557   1.05622   1.06308   1.09795   1.12822
 Alpha virt. eigenvalues --    1.17785   1.20735   1.23315   1.24868   1.28182
 Alpha virt. eigenvalues --    1.32034   1.34000   1.34532   1.36134   1.38492
 Alpha virt. eigenvalues --    1.40420   1.41605   1.44687   1.46673   1.47427
 Alpha virt. eigenvalues --    1.50772   1.60556   1.62699   1.64577   1.71078
 Alpha virt. eigenvalues --    1.71739   1.75080   1.76445   1.77856   1.80480
 Alpha virt. eigenvalues --    1.81268   1.84098   1.85383   1.88648   1.91017
 Alpha virt. eigenvalues --    1.92367   1.92670   1.93213   1.97191   1.99151
 Alpha virt. eigenvalues --    2.02045   2.03621   2.04265   2.04729   2.06064
 Alpha virt. eigenvalues --    2.06646   2.10380   2.12797   2.18669   2.22615
 Alpha virt. eigenvalues --    2.24536   2.25916   2.28766   2.30887   2.32078
 Alpha virt. eigenvalues --    2.33285   2.33939   2.38464   2.41232   2.42300
 Alpha virt. eigenvalues --    2.45022   2.46971   2.51158   2.52998   2.55509
 Alpha virt. eigenvalues --    2.56901   2.58769   2.59970   2.61882   2.63957
 Alpha virt. eigenvalues --    2.65619   2.70431   2.71456   2.74183   2.75883
 Alpha virt. eigenvalues --    2.79792   2.86933   2.88747   2.92433   3.00143
 Alpha virt. eigenvalues --    3.03152   3.06924   3.12627   3.14114   3.18340
 Alpha virt. eigenvalues --    3.22114   3.28578   3.32600   3.41454   3.43683
 Alpha virt. eigenvalues --    3.45911   3.55749   3.76747  10.04449
          Condensed to atoms (all electrons):
               1          2          3          4          5          6
     1  C    5.157708   0.352029  -0.077863  -0.130498   0.005520  -0.000301
     2  C    0.352029   4.349256   0.671747   0.235498  -0.019633   0.002308
     3  O   -0.077863   0.671747   7.907169  -0.102872   0.011274  -0.000088
     4  N   -0.130498   0.235498  -0.102872   7.101049   0.212941  -0.061224
     5  C    0.005520  -0.019633   0.011274   0.212941   4.914049   0.477052
     6  C   -0.000301   0.002308  -0.000088  -0.061224   0.477052   4.911753
     7  C    0.000005  -0.000001   0.000005   0.006507   0.001246   0.520198
     8  C   -0.000000  -0.000029  -0.000004   0.000094  -0.052904  -0.024729
     9  I    0.000000   0.000000  -0.000000   0.000012   0.001322   0.001050
    10  C    0.000002   0.000452  -0.000430   0.006337  -0.045143  -0.049263
    11  C    0.000350  -0.006180   0.004367  -0.048673   0.417256  -0.014928
    12  F   -0.000098   0.007177  -0.004429  -0.002934  -0.057041   0.003542
    13  H    0.362659  -0.021300   0.001290   0.001341  -0.000386   0.000044
    14  H    0.365833  -0.026880   0.001380   0.004375   0.000251  -0.000019
    15  H    0.370615  -0.020139   0.004232   0.004977  -0.000130   0.000003
    16  H    0.000458  -0.020707   0.003527   0.337751  -0.030128  -0.004428
    17  H   -0.000048   0.000041  -0.000007  -0.007204  -0.047533   0.366798
    18  H   -0.000000  -0.000000   0.000000  -0.000126   0.004050  -0.026513
    19  H   -0.000000  -0.000006   0.000007  -0.000114   0.006689   0.000500
               7          8          9         10         11         12
     1  C    0.000005  -0.000000   0.000000   0.000002   0.000350  -0.000098
     2  C   -0.000001  -0.000029   0.000000   0.000452  -0.006180   0.007177
     3  O    0.000005  -0.000004  -0.000000  -0.000430   0.004367  -0.004429
     4  N    0.006507   0.000094   0.000012   0.006337  -0.048673  -0.002934
     5  C    0.001246  -0.052904   0.001322  -0.045143   0.417256  -0.057041
     6  C    0.520198  -0.024729   0.001050  -0.049263  -0.014928   0.003542
     7  C    4.796257   0.498703  -0.064789  -0.019823  -0.045602  -0.000193
     8  C    0.498703   5.332916   0.267684   0.420689   0.000077   0.004287
     9  I   -0.064789   0.267684   6.702375  -0.066302  -0.000642  -0.000058
    10  C   -0.019823   0.420689  -0.066302   5.041253   0.479010  -0.049156
    11  C   -0.045602   0.000077  -0.000642   0.479010   4.521350   0.301282
    12  F   -0.000193   0.004287  -0.000058  -0.049156   0.301282   9.094947
    13  H    0.000000  -0.000000  -0.000000   0.000000  -0.000015  -0.000001
    14  H   -0.000000   0.000000   0.000000  -0.000000   0.000007   0.000020
    15  H   -0.000000  -0.000000  -0.000000  -0.000000  -0.000005   0.000002
    16  H    0.000009   0.000013  -0.000001  -0.000135   0.003303  -0.000065
    17  H   -0.036192   0.006780  -0.000297   0.000165   0.004266  -0.000019
    18  H    0.368718  -0.040518  -0.001865   0.004020   0.000895   0.000000
    19  H    0.004016  -0.040751  -0.003871   0.358094  -0.021480  -0.001319
              13         14         15         16         17         18
     1  C    0.362659   0.365833   0.370615   0.000458  -0.000048  -0.000000
     2  C   -0.021300  -0.026880  -0.020139  -0.020707   0.000041  -0.000000
     3  O    0.001290   0.001380   0.004232   0.003527  -0.000007   0.000000
     4  N    0.001341   0.004375   0.004977   0.337751  -0.007204  -0.000126
     5  C   -0.000386   0.000251  -0.000130  -0.030128  -0.047533   0.004050
     6  C    0.000044  -0.000019   0.000003  -0.004428   0.366798  -0.026513
     7  C    0.000000  -0.000000  -0.000000   0.000009  -0.036192   0.368718
     8  C   -0.000000   0.000000  -0.000000   0.000013   0.006780  -0.040518
     9  I   -0.000000   0.000000  -0.000000  -0.000001  -0.000297  -0.001865
    10  C    0.000000  -0.000000  -0.000000  -0.000135   0.000165   0.004020
    11  C   -0.000015   0.000007  -0.000005   0.003303   0.004266   0.000895
    12  F   -0.000001   0.000020   0.000002  -0.000065  -0.000019   0.000000
    13  H    0.577855  -0.028473  -0.020904   0.001583  -0.000000   0.000000
    14  H   -0.028473   0.572243  -0.021104  -0.000193   0.000001   0.000000
    15  H   -0.020904  -0.021104   0.533801  -0.000153   0.000000   0.000000
    16  H    0.001583  -0.000193  -0.000153   0.442074   0.004326  -0.000008
    17  H   -0.000000   0.000001   0.000000   0.004326   0.622859  -0.006947
    18  H    0.000000   0.000000   0.000000  -0.000008  -0.006947   0.591757
    19  H    0.000000  -0.000000   0.000000   0.000003   0.000012  -0.000167
              19
     1  C   -0.000000
     2  C   -0.000006
     3  O    0.000007
     4  N   -0.000114
     5  C    0.006689
     6  C    0.000500
     7  C    0.004016
     8  C   -0.040751
     9  I   -0.003871
    10  C    0.358094
    11  C   -0.021480
    12  F   -0.001319
    13  H    0.000000
    14  H   -0.000000
    15  H    0.000000
    16  H    0.000003
    17  H    0.000012
    18  H   -0.000167
    19  H    0.575137
 Mulliken charges:
               1
     1  C   -0.406370
     2  C    0.496368
     3  O   -0.419305
     4  N   -0.557235
     5  C    0.201246
     6  C   -0.101754
     7  C   -0.029064
     8  C   -0.372308
     9  I    0.165381
    10  C   -0.079768
    11  C    0.405361
    12  F   -0.295944
    13  H    0.126305
    14  H    0.132559
    15  H    0.148804
    16  H    0.262771
    17  H    0.093000
    18  H    0.106704
    19  H    0.123250
 Sum of Mulliken charges =  -0.00000
 Mulliken charges with hydrogens summed into heavy atoms:
               1
     1  C    0.001298
     2  C    0.496368
     3  O   -0.419305
     4  N   -0.294465
     5  C    0.201246
     6  C   -0.008754
     7  C    0.077640
     8  C   -0.372308
     9  I    0.165381
    10  C    0.043482
    11  C    0.405361
    12  F   -0.295944
 Electronic spatial extent (au):  <R**2>=           3188.2484
 Charge=             -0.0000 electrons
 Dipole moment (field-independent basis, Debye):
    X=              1.7774    Y=              3.6657    Z=             -1.8718  Tot=              4.4833
 Quadrupole moment (field-independent basis, Debye-Ang):
   XX=            -71.9170   YY=            -77.3693   ZZ=            -86.0022
   XY=             12.9123   XZ=             -7.0755   YZ=              0.9659
 Traceless Quadrupole moment (field-independent basis, Debye-Ang):
   XX=              6.5125   YY=              1.0602   ZZ=             -7.5727
   XY=             12.9123   XZ=             -7.0755   YZ=              0.9659
 Octapole moment (field-independent basis, Debye-Ang**2):
  XXX=           -114.2092  YYY=             -4.2884  ZZZ=              2.6752  XYY=            -56.7277
  XXY=             36.0821  XXZ=            -21.2121  XZZ=            -62.5658  YZZ=             -4.4881
  YYZ=             -1.5300  XYZ=              2.6300
 Hexadecapole moment (field-independent basis, Debye-Ang**3):
 XXXX=          -3694.8078 YYYY=           -478.3953 ZZZZ=           -177.5797 XXXY=            142.3286
 XXXZ=           -108.4047 YYYX=             15.4489 YYYZ=              2.9894 ZZZX=            -30.4811
 ZZZY=              6.5475 XXYY=           -780.7796 XXZZ=           -762.9129 YYZZ=           -119.7746
 XXYZ=             15.8103 YYXZ=            -18.3271 ZZXY=              6.1958
 N-N= 6.473699155151D+02 E-N=-2.576493085737D+03  KE= 5.388860365906D+02
 No NMR shielding tensors so no spin-rotation constants.
 Leave Link  601 at Tue Sep 17 09:47:58 2024, MaxMem=  1342177280 cpu:               0.8 elap:               0.1
 (Enter /groups/ReismanLab/Software/Gaussian16_RevC/Linux_Binary_AVX2-enabled-CPU/g16/l701.exe)
 ... and contract with generalized density number  0.
 Compute integral first derivatives.
 R6Disp: Adding Grimme-D3(BJ) dispersion energy 1st derivatives to the gradient.
   1 Symmetry operations used in ECPInt.
 ECPInt:  NShTT=    2415 NPrTT=   13424 LenC2=    2257 LenP2D=    8468.
 LDataN:  DoStor=T MaxTD1= 6 Len=  172
 Leave Link  701 at Tue Sep 17 09:47:58 2024, MaxMem=  1342177280 cpu:               1.6 elap:               0.2
 (Enter /groups/ReismanLab/Software/Gaussian16_RevC/Linux_Binary_AVX2-enabled-CPU/g16/l702.exe)
 L702 exits ... SP integral derivatives will be done elsewhere.
 Leave Link  702 at Tue Sep 17 09:47:58 2024, MaxMem=  1342177280 cpu:               0.1 elap:               0.0
 (Enter /groups/ReismanLab/Software/Gaussian16_RevC/Linux_Binary_AVX2-enabled-CPU/g16/l703.exe)
 Integral derivatives from FoFJK, PRISM(SPDF).
 Compute integral first derivatives, UseDBF=F ICtDFT=           0.
 Calling FoFJK, ICntrl=      2127 FMM=F ISym2X=0 I1Cent= 0 IOpClX= 0 NMat=1 NMatS=1 NMatT=0.
 FoFJK:  IHMeth= 1 ICntrl=    2127 DoSepK=F KAlg= 0 I1Cent=           0 FoldK=F
 IRaf=         0 NMat=       1 IRICut=       1 DoRegI=T DoRafI=F ISym2E= 0 IDoP0=0 IntGTp=1.
 FoFCou: FMM=F IPFlag=           0 FMFlag=      100000 FMFlg1=         800
         NFxFlg=           0 DoJE=F BraDBF=F KetDBF=F FulRan=T
         wScrn=  0.000000 ICntrl=      2127 IOpCl=  0 I1Cent=           0 NGrid=           0
         NMat0=    1 NMatS0=      1 NMatT0=    0 NMatD0=    1 NMtDS0=    0 NMtDT0=    0
 Symmetry not used in FoFCou.
 Defaulting to unpruned grid for atomic number  53.
 Defaulting to unpruned grid for atomic number  53.
 Defaulting to unpruned grid for atomic number  53.
 Defaulting to unpruned grid for atomic number  53.
 Defaulting to unpruned grid for atomic number  53.
 Defaulting to unpruned grid for atomic number  53.
 Defaulting to unpruned grid for atomic number  53.
 Defaulting to unpruned grid for atomic number  53.
 Leave Link  703 at Tue Sep 17 09:48:03 2024, MaxMem=  1342177280 cpu:              36.7 elap:               4.7
 (Enter /groups/ReismanLab/Software/Gaussian16_RevC/Linux_Binary_AVX2-enabled-CPU/g16/l716.exe)
 Dipole        = 6.99288315D-01 1.44221049D+00-7.36409366D-01
 ***** Axes restored to original set *****
 -------------------------------------------------------------------
 Center     Atomic                   Forces (Hartrees/Bohr)
 Number     Number              X              Y              Z
 -------------------------------------------------------------------
      1        6          -0.002141941   -0.002581989   -0.003687033
      2        6          -0.007381659    0.008805822    0.013364718
      3        8           0.003354252   -0.008878116   -0.020847207
      4        7           0.003705482    0.000327382    0.008380041
      5        6          -0.000804562   -0.000329988   -0.002820915
      6        6          -0.003877123    0.000951152    0.000760050
      7        6           0.005946448    0.005813736    0.002926980
      8        6           0.002940535   -0.000175810   -0.000146746
      9       53           0.008003962   -0.000822885   -0.001596089
     10        6          -0.000215676   -0.005140868   -0.003294097
     11        6          -0.002325624   -0.003425060    0.001274593
     12        9          -0.001209410   -0.000176619   -0.000083686
     13        1          -0.001636368    0.004449171    0.001922601
     14        1          -0.001860981   -0.001061448    0.004324973
     15        1          -0.001709406   -0.000400777   -0.001890701
     16        1          -0.000920913   -0.001102085    0.000833959
     17        1          -0.002055595    0.004055310    0.000897719
     18        1           0.001997714    0.002769301    0.000909883
     19        1           0.000190865   -0.003076230   -0.001229043
 -------------------------------------------------------------------
 Cartesian Forces:  Max     0.020847207 RMS     0.004747345
 Leave Link  716 at Tue Sep 17 09:48:03 2024, MaxMem=  1342177280 cpu:               0.1 elap:               0.0
 (Enter /groups/ReismanLab/Software/Gaussian16_RevC/Linux_Binary_AVX2-enabled-CPU/g16/l103.exe)

 GradGradGradGradGradGradGradGradGradGradGradGradGradGradGradGradGradGrad
 Berny optimization.
 FormGI is forming the generalized inverse of G from B-inverse, IUseBI=4.
 GSVD:  received Info=                   1 from GESDD.
 Internal  Forces:  Max     0.022844612 RMS     0.004223171
 Search for a local minimum.
 Step number   1 out of a maximum of   97
 All quantities printed in internal units (Hartrees-Bohrs-Radians)
 RMS Force = .42232D-02 SwitMx=.10000D-02 MixMth= 1
 Mixed Optimization -- RFO/linear search
 Second derivative matrix not updated -- first step.
 ITU=  0
     Eigenvalues ---    0.00617   0.01144   0.01713   0.01964   0.01988
     Eigenvalues ---    0.02027   0.02181   0.02233   0.02260   0.02291
     Eigenvalues ---    0.02313   0.02318   0.02321   0.02322   0.07328
     Eigenvalues ---    0.07446   0.13640   0.15701   0.15998   0.15999
     Eigenvalues ---    0.16000   0.16000   0.16000   0.16000   0.22099
     Eigenvalues ---    0.22369   0.23493   0.24606   0.24966   0.24996
     Eigenvalues ---    0.24997   0.24998   0.25000   0.31226   0.35011
     Eigenvalues ---    0.35096   0.35316   0.35996   0.36178   0.36193
     Eigenvalues ---    0.43179   0.43568   0.45893   0.46045   0.47030
     Eigenvalues ---    0.47778   0.48590   0.48731   0.49202   0.57276
     Eigenvalues ---    1.03555
 RFO step:  Lambda=-3.76542290D-03 EMin= 6.17245604D-03
 Linear search not attempted -- first point.
 Iteration  1 RMS(Cart)=  0.04116369 RMS(Int)=  0.00049205
 Iteration  2 RMS(Cart)=  0.00106868 RMS(Int)=  0.00003629
 Iteration  3 RMS(Cart)=  0.00000087 RMS(Int)=  0.00003629
 ITry= 1 IFail=0 DXMaxC= 1.29D-01 DCOld= 1.00D+10 DXMaxT= 3.00D-01 DXLimC= 3.00D+00 Rises=F
 Variable       Old X    -DE/DX   Delta X   Delta X   Delta X     New X
                                 (Linear)    (Quad)   (Total)
    R1        2.85583   0.00706   0.00000   0.02235   0.02235   2.87819
    R2        2.05658   0.00488   0.00000   0.01380   0.01380   2.07038
    R3        2.05519   0.00449   0.00000   0.01265   0.01265   2.06785
    R4        2.05164   0.00255   0.00000   0.00716   0.00716   2.05880
    R5        2.27248   0.02284   0.00000   0.02198   0.02198   2.29446
    R6        2.60679   0.01257   0.00000   0.02536   0.02536   2.63215
    R7        2.64252   0.00877   0.00000   0.01895   0.01895   2.66147
    R8        1.90780   0.00026   0.00000   0.00057   0.00057   1.90837
    R9        2.63132   0.00739   0.00000   0.01529   0.01529   2.64662
   R10        2.63928   0.00514   0.00000   0.01036   0.01035   2.64964
   R11        2.61081   0.01138   0.00000   0.02346   0.02347   2.63428
   R12        2.04089   0.00449   0.00000   0.01235   0.01235   2.05323
   R13        2.61489   0.01039   0.00000   0.02195   0.02195   2.63684
   R14        2.03803   0.00352   0.00000   0.00964   0.00964   2.04767
   R15        3.98877   0.00820   0.00000   0.05852   0.05852   4.04729
   R16        2.61191   0.01098   0.00000   0.02270   0.02270   2.63460
   R17        2.61298   0.00759   0.00000   0.01518   0.01517   2.62814
   R18        2.03780   0.00318   0.00000   0.00871   0.00871   2.04651
   R19        2.53164   0.00088   0.00000   0.00152   0.00152   2.53316
    A1        1.92348   0.00149   0.00000   0.00818   0.00817   1.93165
    A2        1.92271   0.00202   0.00000   0.01273   0.01271   1.93541
    A3        1.90336  -0.00051   0.00000  -0.00263  -0.00263   1.90073
    A4        1.90071  -0.00199   0.00000  -0.01315  -0.01319   1.88752
    A5        1.90348  -0.00062   0.00000  -0.00458  -0.00457   1.89891
    A6        1.90996  -0.00041   0.00000  -0.00075  -0.00076   1.90920
    A7        2.17638  -0.00374   0.00000  -0.01464  -0.01474   2.16164
    A8        1.95918   0.00458   0.00000   0.01815   0.01805   1.97723
    A9        2.14755  -0.00084   0.00000  -0.00320  -0.00330   2.14424
   A10        2.16615   0.00217   0.00000   0.00889   0.00886   2.17502
   A11        2.05552  -0.00188   0.00000  -0.01104  -0.01106   2.04445
   A12        2.02888  -0.00031   0.00000  -0.00125  -0.00128   2.02760
   A13        2.10652  -0.00031   0.00000  -0.00031  -0.00040   2.10612
   A14        2.12117   0.00091   0.00000   0.00448   0.00439   2.12556
   A15        2.05538  -0.00060   0.00000  -0.00453  -0.00461   2.05077
   A16        2.11745   0.00150   0.00000   0.00659   0.00660   2.12406
   A17        2.07833  -0.00115   0.00000  -0.00576  -0.00577   2.07256
   A18        2.08740  -0.00035   0.00000  -0.00085  -0.00087   2.08653
   A19        2.08406  -0.00149   0.00000  -0.00462  -0.00462   2.07945
   A20        2.09471   0.00048   0.00000   0.00066   0.00064   2.09536
   A21        2.10437   0.00101   0.00000   0.00387   0.00385   2.10822
   A22        2.08907   0.00090   0.00000   0.00266   0.00265   2.09172
   A23        2.10917  -0.00149   0.00000  -0.00402  -0.00403   2.10514
   A24        2.08481   0.00060   0.00000   0.00149   0.00148   2.08629
   A25        2.07684   0.00044   0.00000   0.00187   0.00184   2.07868
   A26        2.12898   0.00072   0.00000   0.00475   0.00474   2.13372
   A27        2.07724  -0.00117   0.00000  -0.00679  -0.00680   2.07044
   A28        2.12248   0.00164   0.00000   0.00460   0.00459   2.12707
   A29        2.09925  -0.00185   0.00000  -0.00624  -0.00624   2.09300
   A30        2.06026   0.00022   0.00000   0.00193   0.00192   2.06219
    D1       -2.01091  -0.00029   0.00000  -0.02009  -0.02003  -2.03093
    D2        1.11751   0.00011   0.00000   0.00567   0.00564   1.12315
    D3        2.17453  -0.00006   0.00000  -0.01712  -0.01709   2.15745
    D4       -0.98024   0.00034   0.00000   0.00864   0.00858  -0.97165
    D5        0.07807  -0.00047   0.00000  -0.02236  -0.02232   0.05575
    D6       -3.07670  -0.00006   0.00000   0.00340   0.00335  -3.07335
    D7       -3.13898   0.00038   0.00000   0.01416   0.01409  -3.12489
    D8       -0.27984   0.00016   0.00000  -0.00067  -0.00071  -0.28055
    D9       -0.01032   0.00074   0.00000   0.03932   0.03936   0.02905
   D10        2.84882   0.00053   0.00000   0.02449   0.02456   2.87339
   D11        2.32947  -0.00120   0.00000  -0.05649  -0.05648   2.27299
   D12       -0.82877  -0.00181   0.00000  -0.08211  -0.08215  -0.91092
   D13       -0.53358  -0.00075   0.00000  -0.04039  -0.04035  -0.57393
   D14        2.59137  -0.00136   0.00000  -0.06600  -0.06602   2.52535
   D15       -3.12797  -0.00079   0.00000  -0.03209  -0.03205   3.12316
   D16        0.00912  -0.00094   0.00000  -0.03773  -0.03768  -0.02856
   D17        0.02965  -0.00022   0.00000  -0.00750  -0.00754   0.02212
   D18       -3.11644  -0.00036   0.00000  -0.01314  -0.01316  -3.12960
   D19        3.11228   0.00045   0.00000   0.01954   0.01955   3.13183
   D20       -0.08282   0.00067   0.00000   0.02597   0.02598  -0.05685
   D21       -0.04549  -0.00014   0.00000  -0.00531  -0.00530  -0.05079
   D22        3.04259   0.00007   0.00000   0.00111   0.00112   3.04372
   D23        0.00690   0.00029   0.00000   0.01044   0.01044   0.01734
   D24        3.13924   0.00003   0.00000   0.00038   0.00041   3.13965
   D25       -3.13017   0.00043   0.00000   0.01613   0.01613  -3.11404
   D26        0.00217   0.00018   0.00000   0.00607   0.00609   0.00826
   D27        3.13035  -0.00020   0.00000  -0.00856  -0.00852   3.12183
   D28       -0.02948   0.00001   0.00000  -0.00059  -0.00056  -0.03003
   D29       -0.00194   0.00006   0.00000   0.00158   0.00160  -0.00033
   D30        3.12142   0.00027   0.00000   0.00955   0.00957   3.13099
   D31        0.01414  -0.00029   0.00000  -0.01166  -0.01163   0.00251
   D32       -3.10978   0.00002   0.00000  -0.00036  -0.00031  -3.11009
   D33        3.13754  -0.00008   0.00000  -0.00369  -0.00368   3.13386
   D34        0.01362   0.00023   0.00000   0.00760   0.00765   0.02126
   D35        0.02418   0.00040   0.00000   0.01487   0.01488   0.03907
   D36       -3.06505   0.00025   0.00000   0.00883   0.00881  -3.05624
   D37       -3.13455   0.00013   0.00000   0.00403   0.00409  -3.13046
   D38        0.05940  -0.00002   0.00000  -0.00202  -0.00198   0.05742
         Item               Value     Threshold  Converged?
 Maximum Force            0.022845     0.000450     NO 
 RMS     Force            0.004223     0.000300     NO 
 Maximum Displacement     0.128922     0.001800     NO 
 RMS     Displacement     0.041519     0.001200     NO 
 Predicted change in Energy=-1.947078D-03
 Lowest energy point so far.  Saving SCF results.
 GradGradGradGradGradGradGradGradGradGradGradGradGradGradGradGradGradGrad

 Leave Link  103 at Tue Sep 17 09:48:03 2024, MaxMem=  1342177280 cpu:               0.1 elap:               0.0
 (Enter /groups/ReismanLab/Software/Gaussian16_RevC/Linux_Binary_AVX2-enabled-CPU/g16/l202.exe)
                          Input orientation:                          
 ---------------------------------------------------------------------
 Center     Atomic      Atomic             Coordinates (Angstroms)
 Number     Number       Type             X           Y           Z
 ---------------------------------------------------------------------
      1          6           0       -5.812799    0.563786    0.475764
      2          6           0       -4.411281    0.307695   -0.062670
      3          8           0       -4.180307   -0.083461   -1.188667
      4          7           0       -3.408782    0.551963    0.872971
      5          6           0       -2.029856    0.411062    0.623440
      6          6           0       -1.135410    1.436571    0.954771
      7          6           0        0.235797    1.311250    0.737246
      8          6           0        0.727506    0.142072    0.155638
      9         53           0        2.825996   -0.059564   -0.222128
     10          6           0       -0.133471   -0.904370   -0.172073
     11          6           0       -1.493250   -0.767432    0.085696
     12          9           0       -2.289751   -1.820938   -0.143700
     13          1           0       -5.945562    1.623436    0.720407
     14          1           0       -5.995277   -0.020811    1.382597
     15          1           0       -6.539981    0.285624   -0.286325
     16          1           0       -3.661040    1.092383    1.687919
     17          1           0       -1.528271    2.354406    1.383463
     18          1           0        0.903657    2.122411    1.002069
     19          1           0        0.222872   -1.834232   -0.597738
 ---------------------------------------------------------------------
                    Distance matrix (angstroms):
                    1          2          3          4          5
     1  C    0.000000
     2  C    1.523071   0.000000
     3  O    2.419564   1.214175   0.000000
     4  N    2.436639   1.392873   2.291150   0.000000
     5  C    3.788904   2.480448   2.855298   1.408388   0.000000
     6  C    4.782172   3.611216   4.021967   2.440787   1.400528
     7  C    6.100212   4.821029   5.015609   3.725304   2.440588
     8  C    6.561701   5.146089   5.093589   4.217992   2.809669
     9  I    8.689327   7.248344   7.072698   6.359691   4.951340
    10  C    5.901689   4.447553   4.252556   3.733723   2.441204
    11  C    4.536827   3.113329   3.051572   2.455579   1.402128
    12  F    4.299129   3.006416   2.772180   2.813629   2.374421
    13  H    1.095598   2.167580   3.110336   2.758004   4.100245
    14  H    1.094257   2.169275   3.147926   2.697729   4.060468
    15  H    1.089471   2.140531   2.553137   3.349524   4.602678
    16  H    2.525629   2.059893   3.150714   1.009865   2.063510
    17  H    4.731535   3.819958   4.426324   2.654378   2.146114
    18  H    6.914990   5.716243   5.959185   4.591307   3.417246
    19  H    6.582721   5.133179   4.775184   4.587573   3.406964
                    6          7          8          9         10
     6  C    0.000000
     7  C    1.393998   0.000000
     8  C    2.405161   1.395358   0.000000
     9  I    4.395026   3.083612   2.141734   0.000000
    10  C    2.784540   2.423261   1.394173   3.078092   0.000000
    11  C    2.396031   2.781194   2.400801   4.387678   1.390754
    12  F    3.626362   4.118866   3.612042   5.411049   2.343169
    13  H    4.819482   6.189260   6.858808   8.981152   6.400526
    14  H    5.091689   6.404462   6.835771   8.966131   6.128494
    15  H    5.663425   6.928981   7.282329   9.372556   6.517094
    16  H    2.652315   4.017091   4.744504   6.859803   4.459858
    17  H    1.086525   2.148884   3.389765   5.231139   3.871018
    18  H    2.151838   1.083582   2.160837   3.155164   3.408174
    19  H    3.866958   3.417076   2.174398   3.172820   1.082965
                   11         12         13         14         15
    11  C    0.000000
    12  F    1.340489   0.000000
    13  H    5.093348   5.096602   0.000000
    14  H    4.744221   4.393286   1.773278   0.000000
    15  H    5.168832   4.745778   1.776677   1.782107   0.000000
    16  H    3.274957   3.704416   2.537152   2.604051   3.582848
    17  H    3.381020   4.510607   4.526194   5.059229   5.673208
    18  H    3.864724   5.201984   6.873144   7.234188   7.774413
    19  H    2.133125   2.553351   7.193230   6.773153   7.094149
                   16         17         18         19
    16  H    0.000000
    17  H    2.496818   0.000000
    18  H    4.729461   2.472560   0.000000
    19  H    5.373460   4.953417   4.321791   0.000000
 Stoichiometry    C8H7FINO
 Framework group  C1[X(C8H7FINO)]
 Deg. of freedom    51
 Full point group                 C1      NOp   1
 RotChk:  IX=0 Diff= 2.23D-02
 Largest Abelian subgroup         C1      NOp   1
 Largest concise Abelian subgroup C1      NOp   1
                         Standard orientation:                         
 ---------------------------------------------------------------------
 Center     Atomic      Atomic             Coordinates (Angstroms)
 Number     Number       Type             X           Y           Z
 ---------------------------------------------------------------------
      1          6           0        5.575569    0.398692    0.031811
      2          6           0        4.142092   -0.007941    0.347309
      3          8           0        3.844011   -0.862753    1.156424
      4          7           0        3.194981    0.689370   -0.398903
      5          6           0        1.801809    0.516994   -0.285255
      6          6           0        0.955412    1.622125   -0.131055
      7          6           0       -0.428004    1.477942   -0.038304
      8          6           0       -0.982113    0.197992   -0.079699
      9         53           0       -3.101809   -0.052093    0.097427
     10          6           0       -0.169562   -0.922371   -0.247824
     11          6           0        1.204788   -0.748764   -0.371189
     12          9           0        1.957654   -1.826850   -0.631635
     13          1           0        5.751355    1.443707    0.309978
     14          1           0        5.785719    0.290431   -1.036606
     15          1           0        6.255465   -0.235052    0.600194
     16          1           0        3.503211    1.531803   -0.862723
     17          1           0        1.395859    2.613714   -0.073650
     18          1           0       -1.057788    2.351408    0.082445
     19          1           0       -0.573755   -1.925006   -0.312365
 ---------------------------------------------------------------------
 Rotational constants (GHZ):           2.2675347           0.2045578           0.1933570
 Leave Link  202 at Tue Sep 17 09:48:03 2024, MaxMem=  1342177280 cpu:               0.1 elap:               0.0
 (Enter /groups/ReismanLab/Software/Gaussian16_RevC/Linux_Binary_AVX2-enabled-CPU/g16/l301.exe)
 Basis read from rwf:  (5D, 7F)
 Pseudo-potential data read from rwf file.
 There are   208 symmetry adapted cartesian basis functions of A   symmetry.
 There are   197 symmetry adapted basis functions of A   symmetry.
   197 basis functions,   369 primitive gaussians,   208 cartesian basis functions
    43 alpha electrons       43 beta electrons
       nuclear repulsion energy       641.4414715066 Hartrees.
 IExCor=  402 DFT=T Ex+Corr=B3LYP ExCW=0 ScaHFX=  0.200000
 ScaDFX=  0.800000  0.720000  1.000000  0.810000 ScalE2=  1.000000  1.000000
 IRadAn=      5 IRanWt=     -1 IRanGd=            0 ICorTp=0 IEmpDi=141
 NAtoms=   19 NActive=   19 NUniq=   19 SFac= 1.00D+00 NAtFMM=   60 NAOKFM=F Big=F
 Integral buffers will be    131072 words long.
 Raffenetti 2 integral format.
 Two-electron integral symmetry is turned on.
 R6Disp:  Grimme-D3(BJ) Dispersion energy=       -0.0392177150 Hartrees.
 Nuclear repulsion after empirical dispersion term =      641.4022537917 Hartrees.
 No density basis found on file    724.
 Leave Link  301 at Tue Sep 17 09:48:03 2024, MaxMem=  1342177280 cpu:               0.1 elap:               0.1
 (Enter /groups/ReismanLab/Software/Gaussian16_RevC/Linux_Binary_AVX2-enabled-CPU/g16/l302.exe)
 NPDir=0 NMtPBC=     1 NCelOv=     1 NCel=       1 NClECP=     1 NCelD=      1
         NCelK=      1 NCelE2=     1 NClLst=     1 CellRange=     0.0.
 One-electron integrals computed using PRISM.
 One-electron integral symmetry used in STVInt
   1 Symmetry operations used in ECPInt.
 ECPInt:  NShTT=    2415 NPrTT=   13424 LenC2=    2253 LenP2D=    8417.
 LDataN:  DoStor=T MaxTD1= 5 Len=  102
 NBasis=   197 RedAO= T EigKep=  4.91D-04  NBF=   197
 NBsUse=   197 1.00D-06 EigRej= -1.00D+00 NBFU=   197
 Precomputing XC quadrature grid using
 IXCGrd= 4 IRadAn=           5 IRanWt=          -1 IRanGd=           0 AccXCQ= 0.00D+00.
 Defaulting to unpruned grid for atomic number  53.
 Generated NRdTot=       0 NPtTot=           0 NUsed=           0 NTot=          32
 NSgBfM=   208   208   208   208   208 MxSgAt=    19 MxSgA2=    19.
 Leave Link  302 at Tue Sep 17 09:48:04 2024, MaxMem=  1342177280 cpu:               1.8 elap:               0.3
 (Enter /groups/ReismanLab/Software/Gaussian16_RevC/Linux_Binary_AVX2-enabled-CPU/g16/l303.exe)
 DipDrv:  MaxL=1.
 Leave Link  303 at Tue Sep 17 09:48:04 2024, MaxMem=  1342177280 cpu:               0.1 elap:               0.0
 (Enter /groups/ReismanLab/Software/Gaussian16_RevC/Linux_Binary_AVX2-enabled-CPU/g16/l401.exe)
 Initial guess from the checkpoint file:  "smiles_00094_conf_4.chk"
 B after Tr=    -0.000000   -0.000000   -0.000000
         Rot=    0.999969    0.007840   -0.000356    0.000427 Ang=   0.90 deg.
 Guess basis will be translated and rotated to current coordinates.
 JPrj=2 DoOrth=T DoCkMO=T.
 Generating alternative initial guess.
 ExpMin= 1.05D-01 ExpMax= 7.00D+03 ExpMxC= 1.05D+03 IAcc=3 IRadAn=         5 AccDes= 0.00D+00
 Harris functional with IExCor=  402 and IRadAn=       5 diagonalized for initial guess.
 HarFok:  IExCor=  402 AccDes= 0.00D+00 IRadAn=         5 IDoV= 1 UseB2=F ITyADJ=14
 ICtDFT=  3500011 ScaDFX=  1.000000  1.000000  1.000000  1.000000
 Defaulting to unpruned grid for atomic number  53.
 FoFCou: FMM=F IPFlag=           0 FMFlag=      100000 FMFlg1=           0
         NFxFlg=           0 DoJE=T BraDBF=F KetDBF=T FulRan=T
         wScrn=  0.000000 ICntrl=       500 IOpCl=  0 I1Cent=   200000004 NGrid=           0
         NMat0=    1 NMatS0=      1 NMatT0=    0 NMatD0=    1 NMtDS0=    0 NMtDT0=    0
 Petite list used in FoFCou.
 Harris En= -550.237751271045    
 Leave Link  401 at Tue Sep 17 09:48:05 2024, MaxMem=  1342177280 cpu:               7.8 elap:               1.4
[...]
   Eigenvalues:    20.5512    22.7347    29.2397
     18  H    Isotropic =    23.8684   Anisotropy =    11.5096
   XX=    27.1978   YX=     5.5715   ZX=    -0.2510
   XY=     4.5949   YY=    25.5854   ZY=     0.0877
   XZ=    -0.0877   YZ=    -0.3060   ZZ=    18.8219
   Eigenvalues:    18.8185    21.2452    31.5414
     19  H    Isotropic =    23.8232   Anisotropy =    12.0740
   XX=    29.9666   YX=    -4.1225   ZX=    -1.3865
   XY=    -3.8311   YY=    22.6212   ZY=     0.6788
   XZ=    -1.2512   YZ=     0.6036   ZZ=    18.8817
   Eigenvalues:    18.7148    20.8822    31.8725
 End of Minotr F.D. properties file   721 does not exist.
 End of Minotr F.D. properties file   722 does not exist.
 End of Minotr F.D. properties file   788 does not exist.
 Leave Link 1002 at Tue Sep 17 11:14:40 2024, MaxMem=  1342177280 cpu:             927.7 elap:             930.8
 (Enter /groups/ReismanLab/Software/Gaussian16_RevC/Linux_Binary_AVX2-enabled-CPU/g16/l601.exe)
 Copying SCF densities to generalized density rwf, IOpCl= 0 IROHF=0.

 **********************************************************************

            Population analysis using the SCF Density.

 **********************************************************************

 Orbital symmetries:
       Occupied  (A) (A) (A) (A) (A) (A) (A) (A) (A) (A) (A) (A)
                 (A) (A) (A) (A) (A) (A) (A) (A) (A) (A) (A) (A)
                 (A) (A) (A) (A) (A) (A) (A) (A) (A) (A) (A) (A)
                 (A) (A) (A) (A) (A) (A) (A) (A) (A) (A) (A) (A)
                 (A) (A) (A) (A)
       Virtual   (A) (A) (A) (A) (A) (A) (A) (A) (A) (A) (A) (A)
                 (A) (A) (A) (A) (A) (A) (A) (A) (A) (A) (A) (A)
                 (A) (A) (A) (A) (A) (A) (A) (A) (A) (A) (A) (A)
                 (A) (A) (A) (A) (A) (A) (A) (A) (A) (A) (A) (A)
                 (A) (A) (A) (A) (A) (A) (A) (A) (A) (A) (A) (A)
                 (A) (A) (A) (A) (A) (A) (A) (A) (A) (A) (A) (A)
                 (A) (A) (A) (A) (A) (A) (A) (A) (A) (A) (A) (A)
                 (A) (A) (A) (A) (A) (A) (A) (A) (A) (A) (A) (A)
                 (A) (A) (A) (A) (A) (A) (A) (A) (A) (A) (A) (A)
                 (A) (A) (A) (A) (A) (A) (A) (A) (A) (A) (A) (A)
                 (A) (A) (A) (A) (A) (A) (A) (A) (A) (A) (A) (A)
                 (A) (A) (A) (A) (A) (A) (A) (A) (A) (A) (A) (A)
                 (A) (A) (A) (A) (A) (A) (A) (A) (A) (A) (A) (A)
                 (A) (A) (A) (A) (A) (A) (A) (A) (A) (A) (A) (A)
                 (A) (A) (A) (A) (A) (A) (A) (A) (A) (A) (A) (A)
                 (A) (A) (A) (A) (A) (A) (A) (A) (A) (A) (A) (A)
                 (A) (A) (A) (A) (A) (A) (A) (A) (A) (A) (A) (A)
                 (A) (A) (A) (A) (A) (A) (A) (A) (A) (A) (A) (A)
                 (A) (A) (A) (A) (A) (A) (A) (A) (A) (A) (A) (A)
                 (A) (A) (A) (A) (A) (A) (A) (A) (A) (A) (A) (A)
                 (A) (A) (A) (A) (A) (A) (A) (A) (A) (A) (A) (A)
                 (A) (A) (A) (A) (A) (A) (A) (A) (A) (A) (A) (A)
                 (A) (A) (A) (A) (A) (A) (A) (A) (A) (A) (A) (A)
                 (A) (A) (A) (A) (A) (A) (A) (A) (A) (A) (A) (A)
                 (A) (A) (A) (A) (A) (A) (A) (A) (A) (A) (A) (A)
                 (A) (A) (A) (A) (A) (A) (A) (A) (A) (A) (A) (A)
                 (A) (A) (A) (A) (A) (A) (A) (A) (A) (A) (A) (A)
                 (A) (A) (A) (A) (A) (A) (A) (A) (A) (A) (A) (A)
                 (A) (A) (A) (A) (A) (A) (A) (A) (A) (A) (A) (A)
                 (A) (A) (A) (A) (A) (A) (A) (A) (A) (A) (A) (A)
                 (A) (A) (A) (A) (A) (A) (A) (A) (A) (A) (A) (A)
                 (A) (A) (A) (A) (A) (A) (A) (A) (A)
 The electronic state is 1-A.
 Alpha  occ. eigenvalues --  -25.26478 -19.60173 -14.78898 -10.65507 -10.64336
 Alpha  occ. eigenvalues --  -10.60666 -10.60438 -10.56654 -10.56580 -10.56341
 Alpha  occ. eigenvalues --  -10.54345  -7.10821  -5.10177  -5.09116  -5.09112
 Alpha  occ. eigenvalues --   -2.07007  -2.06565  -2.06564  -2.05681  -2.05680
 Alpha  occ. eigenvalues --   -1.38139  -1.16952  -1.05605  -0.97818  -0.87821
 Alpha  occ. eigenvalues --   -0.86539  -0.83201  -0.78141  -0.73074  -0.70894
 Alpha  occ. eigenvalues --   -0.67797  -0.63161  -0.60699  -0.59296  -0.58151
 Alpha  occ. eigenvalues --   -0.55887  -0.53219  -0.52355  -0.52094  -0.49954
 Alpha  occ. eigenvalues --   -0.48672  -0.46812  -0.46321  -0.45231  -0.43560
 Alpha  occ. eigenvalues --   -0.40123  -0.37994  -0.34279  -0.33600  -0.32562
 Alpha  occ. eigenvalues --   -0.32094  -0.28692
 Alpha virt. eigenvalues --   -0.00908  -0.00547   0.01009   0.05855   0.06101
 Alpha virt. eigenvalues --    0.09339   0.10430   0.11762   0.12673   0.13372
 Alpha virt. eigenvalues --    0.15007   0.15594   0.15883   0.16802   0.17631
 Alpha virt. eigenvalues --    0.18082   0.18944   0.19211   0.20894   0.21621
 Alpha virt. eigenvalues --    0.21874   0.22787   0.23257   0.23651   0.24085
 Alpha virt. eigenvalues --    0.24977   0.25426   0.26609   0.26910   0.28444
 Alpha virt. eigenvalues --    0.29404   0.30247   0.31109   0.32993   0.33807
 Alpha virt. eigenvalues --    0.35305   0.36491   0.36740   0.37532   0.38320
 Alpha virt. eigenvalues --    0.38989   0.39759   0.40536   0.41974   0.42001
 Alpha virt. eigenvalues --    0.42267   0.42889   0.43897   0.44461   0.44619
 Alpha virt. eigenvalues --    0.46432   0.47053   0.47875   0.48655   0.49591
 Alpha virt. eigenvalues --    0.50076   0.51394   0.52623   0.53001   0.54337
 Alpha virt. eigenvalues --    0.55611   0.56259   0.56993   0.58450   0.59598
 Alpha virt. eigenvalues --    0.60376   0.62380   0.63732   0.65971   0.66689
 Alpha virt. eigenvalues --    0.67503   0.68231   0.69622   0.70793   0.71406
 Alpha virt. eigenvalues --    0.73277   0.74299   0.76271   0.77250   0.78133
 Alpha virt. eigenvalues --    0.79374   0.79861   0.80603   0.82731   0.83355
 Alpha virt. eigenvalues --    0.85032   0.85489   0.87082   0.89261   0.91041
 Alpha virt. eigenvalues --    0.91136   0.93104   0.93898   0.94318   0.94961
 Alpha virt. eigenvalues --    0.96082   0.96379   0.96735   0.97739   0.99163
 Alpha virt. eigenvalues --    0.99773   1.02127   1.02539   1.04251   1.05902
 Alpha virt. eigenvalues --    1.07377   1.08012   1.09514   1.14249   1.15884
 Alpha virt. eigenvalues --    1.17153   1.18135   1.18619   1.21472   1.23144
 Alpha virt. eigenvalues --    1.23376   1.24805   1.26512   1.27217   1.29861
 Alpha virt. eigenvalues --    1.29926   1.30779   1.32899   1.34495   1.35194
 Alpha virt. eigenvalues --    1.37124   1.38583   1.41476   1.42232   1.43881
 Alpha virt. eigenvalues --    1.44106   1.45200   1.47211   1.48174   1.50076
 Alpha virt. eigenvalues --    1.51351   1.52693   1.53379   1.53938   1.54648
 Alpha virt. eigenvalues --    1.55698   1.56067   1.57249   1.57734   1.58340
 Alpha virt. eigenvalues --    1.59943   1.61476   1.62228   1.63286   1.64449
 Alpha virt. eigenvalues --    1.65995   1.68553   1.69910   1.70565   1.71997
 Alpha virt. eigenvalues --    1.75926   1.78439   1.80259   1.83152   1.86406
 Alpha virt. eigenvalues --    1.86893   1.88264   1.90360   1.90967   1.93236
 Alpha virt. eigenvalues --    1.94512   1.96709   1.98327   1.99691   2.00637
 Alpha virt. eigenvalues --    2.03618   2.06782   2.08861   2.09390   2.12834
 Alpha virt. eigenvalues --    2.14851   2.16283   2.17481   2.19063   2.19442
 Alpha virt. eigenvalues --    2.21595   2.22727   2.23687   2.24936   2.28837
 Alpha virt. eigenvalues --    2.29392   2.32164   2.34839   2.37586   2.37818
 Alpha virt. eigenvalues --    2.39571   2.40745   2.44206   2.45271   2.49337
 Alpha virt. eigenvalues --    2.53520   2.53686   2.55350   2.56584   2.57055
 Alpha virt. eigenvalues --    2.57680   2.59955   2.61636   2.62150   2.64952
 Alpha virt. eigenvalues --    2.66429   2.68079   2.68779   2.69515   2.70896
 Alpha virt. eigenvalues --    2.72548   2.73411   2.74246   2.77320   2.79493
 Alpha virt. eigenvalues --    2.80297   2.81505   2.83772   2.84633   2.87152
 Alpha virt. eigenvalues --    2.87951   2.88816   2.89485   2.92722   2.93577
 Alpha virt. eigenvalues --    2.95780   2.96418   2.98052   2.99937   3.02060
 Alpha virt. eigenvalues --    3.02640   3.03976   3.04338   3.06688   3.08039
 Alpha virt. eigenvalues --    3.09497   3.10539   3.11449   3.12045   3.12707
 Alpha virt. eigenvalues --    3.14269   3.15074   3.15469   3.16660   3.16991
 Alpha virt. eigenvalues --    3.18318   3.19343   3.19864   3.21478   3.22925
 Alpha virt. eigenvalues --    3.23757   3.24187   3.26436   3.27024   3.27874
 Alpha virt. eigenvalues --    3.29536   3.31989   3.33199   3.34007   3.34827
 Alpha virt. eigenvalues --    3.36782   3.37837   3.39452   3.41065   3.41390
 Alpha virt. eigenvalues --    3.42088   3.42491   3.43302   3.44165   3.47557
 Alpha virt. eigenvalues --    3.48163   3.50357   3.51513   3.53022   3.53194
 Alpha virt. eigenvalues --    3.54953   3.57762   3.60399   3.61795   3.67620
 Alpha virt. eigenvalues --    3.68666   3.70276   3.73638   3.75672   3.79374
 Alpha virt. eigenvalues --    3.81558   3.83417   3.84903   3.86619   3.89675
 Alpha virt. eigenvalues --    3.94776   3.96731   3.97775   3.99210   4.01359
 Alpha virt. eigenvalues --    4.04315   4.08123   4.09230   4.09958   4.12586
 Alpha virt. eigenvalues --    4.13945   4.15795   4.17448   4.17989   4.18827
 Alpha virt. eigenvalues --    4.22183   4.26929   4.33112   4.34818   4.37694
 Alpha virt. eigenvalues --    4.38867   4.43573   4.45434   4.47325   4.52678
 Alpha virt. eigenvalues --    4.54056   4.60322   4.62449   4.67561   4.69298
 Alpha virt. eigenvalues --    4.70812   4.74981   4.77962   4.79909   4.84145
 Alpha virt. eigenvalues --    4.86693   4.98465   5.01505   5.05896   5.12137
 Alpha virt. eigenvalues --    5.15866   5.17152   5.18392   5.25568   5.28389
 Alpha virt. eigenvalues --    5.32135   5.33996   5.37667   5.44993   5.51175
 Alpha virt. eigenvalues --    5.62016   5.68538   5.74524   5.83314   5.88449
 Alpha virt. eigenvalues --    6.12291   6.33205   6.42851   6.54047   6.67541
 Alpha virt. eigenvalues --    6.82743   6.90944   6.92395   7.01632   7.04365
 Alpha virt. eigenvalues --    7.08808   7.10908   7.25911   7.42494   7.59007
 Alpha virt. eigenvalues --    8.38265   8.55054   8.76940   8.98557   9.01688
 Alpha virt. eigenvalues --   22.17473  22.41009  22.68897  22.73551  22.88337
 Alpha virt. eigenvalues --   22.93328  23.30972  23.36542  32.66674  34.47832
 Alpha virt. eigenvalues --   34.55757  34.81351  42.86528  44.04641  57.55916
 Alpha virt. eigenvalues --  117.58216
          Condensed to atoms (all electrons):
               1          2          3          4          5          6
     1  C    5.162103   0.295499  -0.076840  -0.094790   0.016392  -0.001884
     2  C    0.295499   4.559049   0.654057   0.315577  -0.070431   0.016412
     3  O   -0.076840   0.654057   7.901172  -0.133853   0.035187  -0.003719
     4  N   -0.094790   0.315577  -0.133853   6.858574   0.051337   0.011668
     5  C    0.016392  -0.070431   0.035187   0.051337   5.404972   0.261524
     6  C   -0.001884   0.016412  -0.003719   0.011668   0.261524   5.232136
     7  C    0.000038   0.000362  -0.000353   0.015187  -0.010760   0.326454
     8  C    0.000008   0.000529   0.000287   0.001565  -0.108297   0.033180
     9  I   -0.000000   0.000003  -0.000001  -0.000045  -0.005941   0.027454
    10  C   -0.000191  -0.002792  -0.004964   0.005794   0.020409  -0.111850
    11  C   -0.000091  -0.023432   0.007600  -0.004508   0.339809   0.042168
    12  F   -0.001603   0.008960  -0.009572   0.002797  -0.073846   0.010562
    13  H    0.398739  -0.053024   0.003657   0.013160  -0.000616   0.000852
    14  H    0.380174  -0.011502   0.000556  -0.001271  -0.001649   0.000117
    15  H    0.407805  -0.041367   0.005865   0.005838  -0.000354  -0.000185
    16  H   -0.002077  -0.031937   0.004435   0.379098  -0.035262  -0.003774
    17  H   -0.000218   0.000395  -0.000157   0.006124  -0.027260   0.383847
    18  H    0.000000  -0.000038   0.000000  -0.000342   0.007698  -0.028660
    19  H   -0.000003  -0.000036  -0.000065  -0.000035   0.021891  -0.006716
               7          8          9         10         11         12
     1  C    0.000038   0.000008  -0.000000  -0.000191  -0.000091  -0.001603
     2  C    0.000362   0.000529   0.000003  -0.002792  -0.023432   0.008960
     3  O   -0.000353   0.000287  -0.000001  -0.004964   0.007600  -0.009572
     4  N    0.015187   0.001565  -0.000045   0.005794  -0.004508   0.002797
     5  C   -0.010760  -0.108297  -0.005941   0.020409   0.339809  -0.073846
     6  C    0.326454   0.033180   0.027454  -0.111850   0.042168   0.010562
     7  C    5.292046   0.382293  -0.097102   0.009121  -0.127556  -0.001276
     8  C    0.382293   5.019802   0.335861   0.289536   0.057739   0.009212
     9  I   -0.097102   0.335861  24.920051  -0.089991   0.024723  -0.000259
    10  C    0.009121   0.289536  -0.089991   5.368587   0.363254  -0.045257
    11  C   -0.127556   0.057739   0.024723   0.363254   4.858734   0.267077
    12  F   -0.001276   0.009212  -0.000259  -0.045257   0.267077   9.024513
    13  H    0.000049  -0.000010   0.000000   0.000042  -0.000945   0.000014
    14  H   -0.000000   0.000001   0.000000  -0.000003   0.000229   0.000196
    15  H   -0.000012   0.000001   0.000000   0.000003   0.000408   0.000008
    16  H    0.001802  -0.000376  -0.000006   0.000270  -0.002215  -0.000174
    17  H    0.000033  -0.001867  -0.000318   0.003291  -0.003874  -0.000021
    18  H    0.412789  -0.045746  -0.011656   0.010015  -0.001199   0.000012
    19  H    0.015226  -0.058721  -0.013598   0.428482  -0.049765   0.002095
              13         14         15         16         17         18
     1  C    0.398739   0.380174   0.407805  -0.002077  -0.000218   0.000000
     2  C   -0.053024  -0.011502  -0.041367  -0.031937   0.000395  -0.000038
     3  O    0.003657   0.000556   0.005865   0.004435  -0.000157   0.000000
     4  N    0.013160  -0.001271   0.005838   0.379098   0.006124  -0.000342
     5  C   -0.000616  -0.001649  -0.000354  -0.035262  -0.027260   0.007698
     6  C    0.000852   0.000117  -0.000185  -0.003774   0.383847  -0.028660
     7  C    0.000049  -0.000000  -0.000012   0.001802   0.000033   0.412789
     8  C   -0.000010   0.000001   0.000001  -0.000376  -0.001867  -0.045746
     9  I    0.000000   0.000000   0.000000  -0.000006  -0.000318  -0.011656
    10  C    0.000042  -0.000003   0.000003   0.000270   0.003291   0.010015
    11  C   -0.000945   0.000229   0.000408  -0.002215  -0.003874  -0.001199
    12  F    0.000014   0.000196   0.000008  -0.000174  -0.000021   0.000012
    13  H    0.537399  -0.022892  -0.021688  -0.001909   0.000016  -0.000000
    14  H   -0.022892   0.492397  -0.015709  -0.000269   0.000007  -0.000000
    15  H   -0.021688  -0.015709   0.489558   0.000183   0.000003   0.000000
    16  H   -0.001909  -0.000269   0.000183   0.416226   0.000990   0.000010
    17  H    0.000016   0.000007   0.000003   0.000990   0.457487  -0.002040
    18  H   -0.000000  -0.000000   0.000000   0.000010  -0.002040   0.471016
    19  H    0.000000  -0.000000  -0.000000   0.000023   0.000043   0.000097
              19
     1  C   -0.000003
     2  C   -0.000036
     3  O   -0.000065
     4  N   -0.000035
     5  C    0.021891
     6  C   -0.006716
     7  C    0.015226
     8  C   -0.058721
     9  I   -0.013598
    10  C    0.428482
    11  C   -0.049765
    12  F    0.002095
    13  H    0.000000
    14  H   -0.000000
    15  H   -0.000000
    16  H    0.000023
    17  H    0.000043
    18  H    0.000097
    19  H    0.467249
 Mulliken charges:
               1
     1  C   -0.483062
     2  C    0.383713
     3  O   -0.383291
     4  N   -0.431877
     5  C    0.175196
     6  C   -0.189586
     7  C   -0.218341
     8  C    0.085002
     9  I   -0.089175
    10  C   -0.243758
    11  C    0.251842
    12  F   -0.193437
    13  H    0.147156
    14  H    0.179620
    15  H    0.169645
    16  H    0.274960
    17  H    0.183518
    18  H    0.188042
    19  H    0.193833
 Sum of Mulliken charges =   0.00000
 Mulliken charges with hydrogens summed into heavy atoms:
               1
     1  C    0.013358
     2  C    0.383713
     3  O   -0.383291
     4  N   -0.156917
     5  C    0.175196
     6  C   -0.006068
     7  C   -0.030299
     8  C    0.085002
     9  I   -0.089175
    10  C   -0.049925
    11  C    0.251842
    12  F   -0.193437
 Electronic spatial extent (au):  <R**2>=           3862.7906
 Charge=              0.0000 electrons
 Dipole moment (field-independent basis, Debye):
    X=              1.8690    Y=              4.2349    Z=             -2.5626  Tot=              5.2910
 Quadrupole moment (field-independent basis, Debye-Ang):
   XX=            -76.9857   YY=            -84.6463   ZZ=            -95.0500
   XY=             14.5037   XZ=            -10.2029   YZ=              0.7859
 Traceless Quadrupole moment (field-independent basis, Debye-Ang):
   XX=              8.5750   YY=              0.9144   ZZ=             -9.4893
   XY=             14.5037   XZ=            -10.2029   YZ=              0.7859
 Octapole moment (field-independent basis, Debye-Ang**2):
  XXX=            -38.7555  YYY=              1.1721  ZZZ=             -0.7225  XYY=            -40.1880
  XXY=             41.9904  XXZ=            -33.7703  XZZ=            -47.2768  YZZ=             -2.5491
  YYZ=             -3.0688  XYZ=              1.7567
 Hexadecapole moment (field-independent basis, Debye-Ang**3):
 XXXX=          -4044.1556 YYYY=           -480.3875 ZZZZ=           -205.7245 XXXY=            165.7795
 XXXZ=           -155.3819 YYYX=             19.8496 YYYZ=              1.6590 ZZZX=            -31.3804
 ZZZY=              6.9635 XXYY=           -870.1537 XXZZ=           -858.3034 YYZZ=           -125.7513
 XXYZ=             15.8099 YYXZ=            -24.7873 ZZXY=             11.3675
 N-N= 8.089912004341D+02 E-N=-3.509400095211D+03  KE= 6.496760338282D+02
 Calculating spin-rotation constants.
 Leave Link  601 at Tue Sep 17 11:14:44 2024, MaxMem=  1342177280 cpu:               4.3 elap:               4.3
 (Enter /groups/ReismanLab/Software/Gaussian16_RevC/Linux_Binary_AVX2-enabled-CPU/g16/l9999.exe)
 Unable to Open any file for archive entry.
 1\1\GINC-HPC-34-16\SP\RM062X\def2TZVP\C8H7F1I1N1O1\MANTIND\17-Sep-2024
 \0\\#p M062X/def2tzvp geom=check guess=read scf(xqc,tight) integral(gr
 id=ultrafine) scrf(SMD, solvent=1,4-Dioxane) nmr=giao\\spe\\0,1\C,0,-5
 .8032882287,0.5377881052,0.4653803606\C,0,-4.3881753833,0.3228753347,-
 0.0420164913\O,0,-4.1346556165,-0.0830944869,-1.160501535\N,0,-3.40227
 98239,0.5894948757,0.8965861056\C,0,-2.0237478466,0.4449968583,0.63664
 13197\C,0,-1.1305605366,1.492807055,0.87513647\C,0,0.2376937543,1.3476
 461267,0.6500509859\C,0,0.7142692251,0.1359673666,0.1538591512\I,0,2.8
 044294943,-0.1018746667,-0.2251813821\C,0,-0.1472480164,-0.9296893905,
 -0.0952671154\C,0,-1.5019055143,-0.7663251259,0.167148563\F,0,-2.31761
 75588,-1.8146515207,-0.00667277\H,0,-5.8730070506,1.3181687814,1.22930
 12714\H,0,-6.1739015463,-0.3969041578,0.8993485275\H,0,-6.4407372333,0
 .7961471027,-0.3805031915\H,0,-3.6631660193,1.0895307472,1.7334752075\
 H,0,-1.5200006875,2.4412568449,1.2332813329\H,0,0.9118611762,2.1727944
 255,0.8435513012\H,0,0.2028276393,-1.8850826631,-0.4649385797\\Version
 =ES64L-G16RevC.02\State=1-A\HF=-836.5290523\RMSD=1.334e-09\Dipole=-0.6
 0764,1.1395111,1.6326331\Quadrupole=4.6349837,0.3281812,-4.963165,-6.8
 283245,-11.8028439,3.248727\PG=C01 [X(C8H7F1I1N1O1)]\\@
 The archive entry for this job was punched.


 Spring appears, and we are once more children.
                                  -- Anonymous
 Job cpu time:       0 days  0 hours 16 minutes 59.9 seconds.
 Elapsed time:       0 days  0 hours 17 minutes  4.5 seconds.
 File lengths (MBytes):  RWF=    288 Int=      0 D2E=      0 Chk=     32 Scr=     16
 Normal termination of Gaussian 16 at Tue Sep 17 11:14:44 2024.
