 Entering Gaussian System, Link 0=g16
 Input=smiles_00094_conf_3.gjf
 Output=smiles_00094_conf_3.log
 Initial command:
 /groups/ReismanLab/Software/Gaussian16_RevC/Linux_Binary_AVX2-enabled-CPU/g16/l1.exe "/central/groups/ReismanLab/DM/dft_final/smiles_00094/Gau-1300425.inp" -scrdir="/central/groups/ReismanLab/DM/dft_final/smiles_00094/"
 Entering Link 1 = /groups/ReismanLab/Software/Gaussian16_RevC/Linux_Binary_AVX2-enabled-CPU/g16/l1.exe PID=   1300426.
  
 Copyright (c) 1988-2021, Gaussian, Inc.  All Rights Reserved.
  
 This is part of the Gaussian(R) 16 program.  It is based on
 the Gaussian(R) 09 system (copyright 2009, Gaussian, Inc.),
 the Gaussian(R) 03 system (copyright 2003, Gaussian, Inc.),
 the Gaussian(R) 98 system (copyright 1998, Gaussian, Inc.),
 the Gaussian(R) 94 system (copyright 1995, Gaussian, Inc.),
 the Gaussian 92(TM) system (copyright 1992, Gaussian, Inc.),
 the Gaussian 90(TM) system (copyright 1990, Gaussian, Inc.),
 the Gaussian 88(TM) system (copyright 1988, Gaussian, Inc.),
 the Gaussian 86(TM) system (copyright 1986, Carnegie Mellon
 University), and the Gaussian 82(TM) system (copyright 1983,
 Carnegie Mellon University). Gaussian is a federally registered
 trademark of Gaussian, Inc.
  
 This software contains proprietary and confidential information,
 including trade secrets, belonging to Gaussian, Inc.
  
 This software is provided under written license and may be
 used, copied, transmitted, or stored only in accord with that
 written license.
  
 The following legend is applicable only to US Government
 contracts under FAR:
  
                    RESTRICTED RIGHTS LEGEND
  
 Use, reproduction and disclosure by the US Government is
 subject to restrictions as set forth in subparagraphs (a)
 and (c) of the Commercial Computer Software - Restricted
 Rights clause in FAR 52.227-19.
  
 Gaussian, Inc.
 340 Quinnipiac St., Bldg. 40, Wallingford CT 06492
  
  
 ---------------------------------------------------------------
 Warning -- This program may not be used in any manner that
 competes with the business of Gaussian, Inc. or will provide
 assistance to any competitor of Gaussian, Inc.  The licensee
 of this program is prohibited from giving any competitor of
 Gaussian, Inc. access to this program.  By using this program,
 the user acknowledges that Gaussian, Inc. is engaged in the
 business of creating and licensing software in the field of
 computational chemistry and represents and warrants to the
 licensee that it is not a competitor of Gaussian, Inc. and that
 it will not use this program in any manner prohibited above.
 ---------------------------------------------------------------
  

 Cite this work as:
 Gaussian 16, Revision C.02,
 M. J. Frisch, G. W. Trucks, H. B. Schlegel, G. E. Scuseria, 
 M. A. Robb, J. R. Cheeseman, G. Scalmani, V. Barone, 
 G. A. Petersson, H. Nakatsuji, X. Li, M. Caricato, A. V. Marenich, 
 J. Bloino, B. G. Janesko, R. Gomperts, B. Mennucci, H. P. Hratchian, 
 J. V. Ortiz, A. F. Izmaylov, J. L. Sonnenberg, D. Williams-Young, 
 F. Ding, F. Lipparini, F. Egidi, J. Goings, B. Peng, A. Petrone, 
 T. Henderson, D. Ranasinghe, V. G. Zakrzewski, J. Gao, N. Rega, 
 G. Zheng, W. Liang, M. Hada, M. Ehara, K. Toyota, R. Fukuda, 
 J. Hasegawa, M. Ishida, T. Nakajima, Y. Honda, O. Kitao, H. Nakai, 
 T. Vreven, K. Throssell, J. A. Montgomery, Jr., J. E. Peralta, 
 F. Ogliaro, M. J. Bearpark, J. J. Heyd, E. N. Brothers, K. N. Kudin, 
 V. N. Staroverov, T. A. Keith, R. Kobayashi, J. Normand, 
 K. Raghavachari, A. P. Rendell, J. C. Burant, S. S. Iyengar, 
 J. Tomasi, M. Cossi, J. M. Millam, M. Klene, C. Adamo, R. Cammi, 
 J. W. Ochterski, R. L. Martin, K. Morokuma, O. Farkas, 
 J. B. Foresman, and D. J. Fox, Gaussian, Inc., Wallingford CT, 2019.
 
 ******************************************
 Gaussian 16:  ES64L-G16RevC.02  7-Dec-2021
                17-Sep-2024 
 ******************************************
 %nprocshared=8
 Will use up to    8 processors via shared memory.
 %Mem=10GB
 %Chk=smiles_00094_conf_3.chk
 ----------------------------------------------------------------------
 #p B3LYP/gen pseudo=read EmpiricalDispersion=GD3BJ opt freq scf(xqc,ti
 ght) integral(grid=ultrafine)
 ----------------------------------------------------------------------
 1/18=20,19=15,26=4,38=1/1,3;
 2/9=110,12=2,17=6,18=5,40=1/2;
 3/5=7,11=2,16=1,17=8,25=1,30=1,71=1,74=-5,75=-5,124=41/1,2,3;
 4//1;
 5/5=2,8=3,13=1,32=2,38=5/2,8;
 6/7=2,8=2,9=2,10=2,28=1/1;
 7//1,2,3,16;
 1/18=20,19=15,26=4/3(2);
 2/9=110/2;
 99//99;
 2/9=110/2;
 3/5=7,6=1,11=2,16=1,17=8,25=1,30=1,71=1,74=-5,75=-5,82=7,124=41/1,2,3;
 4/5=5,16=3,69=1/1;
 5/5=2,8=3,13=1,32=2,38=5/2,8;
 7//1,2,3,16;
 1/18=20,19=15,26=4/3(-5);
 2/9=110/2;
 6/7=2,8=2,9=2,10=2,19=2,28=1/1;
 99/9=1/99;
 Leave Link    1 at Tue Sep 17 09:47:49 2024, MaxMem=  1342177280 cpu:               0.1 elap:               0.9
 (Enter /groups/ReismanLab/Software/Gaussian16_RevC/Linux_Binary_AVX2-enabled-CPU/g16/l101.exe)
 ----------------------------------
 opt-freq conformers_unique/conf_ad
 ----------------------------------
 Symbolic Z-matrix:
 Charge =  0 Multiplicity = 1
 C                    -4.36122  -0.26817  -0.99778 
 C                    -4.47955   0.63034   0.20078 
 O                    -5.52853   1.0662    0.61283 
 N                    -3.31358   1.00997   0.82705 
 C                    -1.98427   0.68891   0.55976 
 C                    -1.02549   1.70376   0.52718 
 C                     0.30613   1.43713   0.27959 
 C                     0.71102   0.13147   0.05934 
 I                     2.74102  -0.28921  -0.33547 
 C                    -0.20189  -0.90508   0.11336 
 C                    -1.52859  -0.61882   0.37512 
 F                    -2.37995  -1.65586   0.48521 
 H                    -5.20888  -0.07766  -1.65081 
 H                    -4.40759  -1.30787  -0.68057 
 H                    -3.43139  -0.1009   -1.53574 
 H                    -3.4541    1.75892   1.49524 
 H                    -1.34315   2.7216    0.69617 
 H                     1.02171   2.24349   0.25507 
 H                     0.09361  -1.93327  -0.02268 
 
 ITRead=  0  0  0  0  0  0  0  0  0  0  0  0  0  0  0  0  0  0  0
 MicOpt= -1 -1 -1 -1 -1 -1 -1 -1 -1 -1 -1 -1 -1 -1 -1 -1 -1 -1 -1
 NAtoms=     19 NQM=       19 NQMF=       0 NMMI=      0 NMMIF=      0
                NMic=       0 NMicF=      0.
                    Isotopes and Nuclear Properties:
 (Nuclear quadrupole moments (NQMom) in fm**2, nuclear magnetic moments (NMagM)
  in nuclear magnetons)

  Atom         1           2           3           4           5           6           7           8           9          10
 IAtWgt=          12          12          16          14          12          12          12          12         127          12
 AtmWgt=  12.0000000  12.0000000  15.9949146  14.0030740  12.0000000  12.0000000  12.0000000  12.0000000 126.9004000  12.0000000
 NucSpn=           0           0           0           2           0           0           0           0           5           0
 AtZEff=  -0.0000000  -0.0000000  -0.0000000  -0.0000000  -0.0000000  -0.0000000  -0.0000000  -0.0000000  -0.0000000  -0.0000000
 NQMom=    0.0000000   0.0000000   0.0000000   2.0440000   0.0000000   0.0000000   0.0000000   0.0000000 -71.0000000   0.0000000
 NMagM=    0.0000000   0.0000000   0.0000000   0.4037610   0.0000000   0.0000000   0.0000000   0.0000000   2.8132800   0.0000000
 AtZNuc=   6.0000000   6.0000000   8.0000000   7.0000000   6.0000000   6.0000000   6.0000000   6.0000000  53.0000000   6.0000000

  Atom        11          12          13          14          15          16          17          18          19
 IAtWgt=          12          19           1           1           1           1           1           1           1
 AtmWgt=  12.0000000  18.9984032   1.0078250   1.0078250   1.0078250   1.0078250   1.0078250   1.0078250   1.0078250
 NucSpn=           0           1           1           1           1           1           1           1           1
 AtZEff=  -0.0000000  -0.0000000  -0.0000000  -0.0000000  -0.0000000  -0.0000000  -0.0000000  -0.0000000  -0.0000000
 NQMom=    0.0000000   0.0000000   0.0000000   0.0000000   0.0000000   0.0000000   0.0000000   0.0000000   0.0000000
 NMagM=    0.0000000   2.6288670   2.7928460   2.7928460   2.7928460   2.7928460   2.7928460   2.7928460   2.7928460
 AtZNuc=   6.0000000   9.0000000   1.0000000   1.0000000   1.0000000   1.0000000   1.0000000   1.0000000   1.0000000
 Leave Link  101 at Tue Sep 17 09:47:49 2024, MaxMem=  1342177280 cpu:               0.2 elap:               0.2
 (Enter /groups/ReismanLab/Software/Gaussian16_RevC/Linux_Binary_AVX2-enabled-CPU/g16/l103.exe)

 GradGradGradGradGradGradGradGradGradGradGradGradGradGradGradGradGradGrad
 Berny optimization.
 Initialization pass.
                           ----------------------------
                           !    Initial Parameters    !
                           ! (Angstroms and Degrees)  !
 --------------------------                            --------------------------
 ! Name  Definition              Value          Derivative Info.                !
 --------------------------------------------------------------------------------
 ! R1    R(1,2)                  1.5026         estimate D2E/DX2                !
 ! R2    R(1,13)                 1.0869         estimate D2E/DX2                !
 ! R3    R(1,14)                 1.088          estimate D2E/DX2                !
 ! R4    R(1,15)                 1.0872         estimate D2E/DX2                !
 ! R5    R(2,3)                  1.2084         estimate D2E/DX2                !
 ! R6    R(2,4)                  1.3769         estimate D2E/DX2                !
 ! R7    R(4,5)                  1.3934         estimate D2E/DX2                !
 ! R8    R(4,16)                 1.0135         estimate D2E/DX2                !
 ! R9    R(5,6)                  1.3965         estimate D2E/DX2                !
 ! R10   R(5,11)                 1.3971         estimate D2E/DX2                !
 ! R11   R(6,7)                  1.3804         estimate D2E/DX2                !
 ! R12   R(6,17)                 1.0796         estimate D2E/DX2                !
 ! R13   R(7,8)                  1.3846         estimate D2E/DX2                !
 ! R14   R(7,18)                 1.0784         estimate D2E/DX2                !
 ! R15   R(8,9)                  2.1104         estimate D2E/DX2                !
 ! R16   R(8,10)                 1.3823         estimate D2E/DX2                !
 ! R17   R(10,11)                1.3822         estimate D2E/DX2                !
 ! R18   R(10,19)                1.0784         estimate D2E/DX2                !
 ! R19   R(11,12)                1.3462         estimate D2E/DX2                !
 ! A1    A(2,1,13)             108.2419         estimate D2E/DX2                !
 ! A2    A(2,1,14)             109.6034         estimate D2E/DX2                !
 ! A3    A(2,1,15)             111.7184         estimate D2E/DX2                !
 ! A4    A(13,1,14)            108.0251         estimate D2E/DX2                !
 ! A5    A(13,1,15)            110.045          estimate D2E/DX2                !
 ! A6    A(14,1,15)            109.1316         estimate D2E/DX2                !
 ! A7    A(1,2,3)              123.7829         estimate D2E/DX2                !
 ! A8    A(1,2,4)              117.4512         estimate D2E/DX2                !
 ! A9    A(3,2,4)              118.7225         estimate D2E/DX2                !
 ! A10   A(2,4,5)              131.0773         estimate D2E/DX2                !
 ! A11   A(2,4,16)             112.7197         estimate D2E/DX2                !
 ! A12   A(5,4,16)             115.405          estimate D2E/DX2                !
 ! A13   A(4,5,6)              119.4727         estimate D2E/DX2                !
 ! A14   A(4,5,11)             123.5165         estimate D2E/DX2                !
 ! A15   A(6,5,11)             116.9497         estimate D2E/DX2                !
 ! A16   A(5,6,7)              121.7421         estimate D2E/DX2                !
 ! A17   A(5,6,17)             118.6515         estimate D2E/DX2                !
 ! A18   A(7,6,17)             119.6057         estimate D2E/DX2                !
 ! A19   A(6,7,8)              119.521          estimate D2E/DX2                !
 ! A20   A(6,7,18)             119.9839         estimate D2E/DX2                !
 ! A21   A(8,7,18)             120.4947         estimate D2E/DX2                !
 ! A22   A(7,8,9)              119.9344         estimate D2E/DX2                !
 ! A23   A(7,8,10)             120.5154         estimate D2E/DX2                !
 ! A24   A(9,8,10)             119.5445         estimate D2E/DX2                !
 ! A25   A(8,10,11)            119.0775         estimate D2E/DX2                !
 ! A26   A(8,10,19)            121.941          estimate D2E/DX2                !
 ! A27   A(11,10,19)           118.9694         estimate D2E/DX2                !
 ! A28   A(5,11,10)            122.1359         estimate D2E/DX2                !
 ! A29   A(5,11,12)            120.2634         estimate D2E/DX2                !
 ! A30   A(10,11,12)           117.5767         estimate D2E/DX2                !
 ! D1    D(13,1,2,3)            26.0066         estimate D2E/DX2                !
 ! D2    D(13,1,2,4)          -151.5608         estimate D2E/DX2                !
 ! D3    D(14,1,2,3)           -91.5897         estimate D2E/DX2                !
 ! D4    D(14,1,2,4)            90.8428         estimate D2E/DX2                !
 ! D5    D(15,1,2,3)           147.3225         estimate D2E/DX2                !
 ! D6    D(15,1,2,4)           -30.2449         estimate D2E/DX2                !
 ! D7    D(1,2,4,5)             -1.1072         estimate D2E/DX2                !
 ! D8    D(1,2,4,16)           167.9953         estimate D2E/DX2                !
 ! D9    D(3,2,4,5)           -178.8018         estimate D2E/DX2                !
 ! D10   D(3,2,4,16)            -9.6992         estimate D2E/DX2                !
 ! D11   D(2,4,5,6)            133.033          estimate D2E/DX2                !
 ! D12   D(2,4,5,11)           -49.9002         estimate D2E/DX2                !
 ! D13   D(16,4,5,6)           -35.8361         estimate D2E/DX2                !
 ! D14   D(16,4,5,11)          141.2307         estimate D2E/DX2                !
 ! D15   D(4,5,6,7)            179.3743         estimate D2E/DX2                !
 ! D16   D(4,5,6,17)            -0.9375         estimate D2E/DX2                !
 ! D17   D(11,5,6,7)             2.1176         estimate D2E/DX2                !
 ! D18   D(11,5,6,17)         -178.1942         estimate D2E/DX2                !
 ! D19   D(4,5,11,10)         -179.8868         estimate D2E/DX2                !
 ! D20   D(4,5,11,12)           -1.7108         estimate D2E/DX2                !
 ! D21   D(6,5,11,10)           -2.7514         estimate D2E/DX2                !
 ! D22   D(6,5,11,12)          175.4245         estimate D2E/DX2                !
 ! D23   D(5,6,7,8)             -0.1332         estimate D2E/DX2                !
 ! D24   D(5,6,7,18)           179.6321         estimate D2E/DX2                !
 ! D25   D(17,6,7,8)          -179.8185         estimate D2E/DX2                !
 ! D26   D(17,6,7,18)           -0.0532         estimate D2E/DX2                !
 ! D27   D(6,7,8,9)            179.5178         estimate D2E/DX2                !
 ! D28   D(6,7,8,10)            -1.3511         estimate D2E/DX2                !
 ! D29   D(18,7,8,9)            -0.2463         estimate D2E/DX2                !
 ! D30   D(18,7,8,10)          178.8848         estimate D2E/DX2                !
 ! D31   D(7,8,10,11)            0.7452         estimate D2E/DX2                !
 ! D32   D(7,8,10,19)         -177.976          estimate D2E/DX2                !
 ! D33   D(9,8,10,11)          179.8796         estimate D2E/DX2                !
 ! D34   D(9,8,10,19)            1.1584         estimate D2E/DX2                !
 ! D35   D(8,10,11,5)            1.372          estimate D2E/DX2                !
 ! D36   D(8,10,11,12)        -176.8506         estimate D2E/DX2                !
 ! D37   D(19,10,11,5)        -179.8684         estimate D2E/DX2                !
 ! D38   D(19,10,11,12)          1.909          estimate D2E/DX2                !
 --------------------------------------------------------------------------------
 Trust Radius=3.00D-01 FncErr=1.00D-07 GrdErr=1.00D-06 EigMax=2.50D+02 EigMin=1.00D-04
 Number of steps in this run=     97 maximum allowed number of steps=    114.
 GradGradGradGradGradGradGradGradGradGradGradGradGradGradGradGradGradGrad

 Leave Link  103 at Tue Sep 17 09:47:49 2024, MaxMem=  1342177280 cpu:               0.0 elap:               0.0
 (Enter /groups/ReismanLab/Software/Gaussian16_RevC/Linux_Binary_AVX2-enabled-CPU/g16/l202.exe)
                          Input orientation:                          
 ---------------------------------------------------------------------
 Center     Atomic      Atomic             Coordinates (Angstroms)
 Number     Number       Type             X           Y           Z
 ---------------------------------------------------------------------
      1          6           0       -4.361220   -0.268170   -0.997778
      2          6           0       -4.479548    0.630336    0.200779
      3          8           0       -5.528535    1.066204    0.612825
      4          7           0       -3.313583    1.009971    0.827051
      5          6           0       -1.984269    0.688915    0.559755
      6          6           0       -1.025485    1.703764    0.527177
      7          6           0        0.306132    1.437129    0.279592
      8          6           0        0.711019    0.131475    0.059341
      9         53           0        2.741015   -0.289210   -0.335473
     10          6           0       -0.201894   -0.905082    0.113365
     11          6           0       -1.528590   -0.618823    0.375124
     12          9           0       -2.379945   -1.655857    0.485206
     13          1           0       -5.208878   -0.077662   -1.650809
     14          1           0       -4.407592   -1.307870   -0.680574
     15          1           0       -3.431390   -0.100905   -1.535738
     16          1           0       -3.454101    1.758923    1.495237
     17          1           0       -1.343146    2.721600    0.696172
     18          1           0        1.021713    2.243494    0.255067
     19          1           0        0.093607   -1.933271   -0.022685
 ---------------------------------------------------------------------
                    Distance matrix (angstroms):
                    1          2          3          4          5
     1  C    0.000000
     2  C    1.502615   0.000000
     3  O    2.395250   1.208361   0.000000
     4  N    2.461948   1.376886   2.225998   0.000000
     5  C    2.998635   2.521649   3.564686   1.393413   0.000000
     6  C    4.164269   3.631712   4.548766   2.409702   1.396513
     7  C    5.130681   4.853850   5.855935   3.685718   2.425748
     8  C    5.196616   5.216402   6.333411   4.190293   2.797451
     9  I    7.133080   7.298607   8.433379   6.300595   4.907797
    10  C    4.352043   4.545709   5.701625   3.722819   2.432478
    11  C    3.167271   3.209197   4.346881   2.458334   1.397107
    12  F    2.837317   3.117035   4.164075   2.845202   2.379090
    13  H    1.086861   2.112240   2.556296   3.303768   3.984010
    14  H    1.088000   2.130400   2.926708   2.973580   3.376101
    15  H    1.087181   2.156117   3.221255   2.613560   2.666283
    16  H    3.338726   2.000218   2.358344   1.013482   2.044615
    17  H    4.573506   3.802080   4.501640   2.613317   2.135757
    18  H    6.070753   5.733158   6.664815   4.543516   3.397864
    19  H    4.854776   5.247454   6.403843   4.581885   3.395978
                    6          7          8          9         10
     6  C    0.000000
     7  C    1.380434   0.000000
     8  C    2.388810   1.384622   0.000000
     9  I    4.347717   3.047492   2.110388   0.000000
    10  C    2.766879   2.402431   1.382309   3.039979   0.000000
    11  C    2.381312   2.757222   2.382964   4.340867   1.382239
    12  F    3.622620   4.101689   3.595827   5.363345   2.333631
    13  H    5.041614   6.036255   6.165511   8.060748   5.372785
    14  H    4.686923   5.538604   5.368367   7.229063   4.298892
    15  H    3.647029   4.430580   4.444978   6.290841   3.714281
    16  H    2.615025   3.964934   4.696660   6.776859   4.425307
    17  H    1.079563   2.131554   3.366585   5.177803   3.846419
    18  H    2.134566   1.078370   2.143703   3.117584   3.380950
    19  H    3.844833   3.390595   2.156641   3.132019   1.078427
                   11         12         13         14         15
    11  C    0.000000
    12  F    1.346240   0.000000
    13  H    4.235773   3.880221   0.000000
    14  H    3.142918   2.364633   1.759780   0.000000
    15  H    2.745956   2.758192   1.781361   1.772298   0.000000
    16  H    3.258208   3.719502   4.043500   3.879242   3.556161
    17  H    3.360935   4.503508   5.318653   5.246226   4.160375
    18  H    3.835534   5.179689   6.916675   6.554766   5.341658
    19  H    2.125454   2.540349   5.848968   4.591813   4.251176
                   16         17         18         19
    16  H    0.000000
    17  H    2.453850   0.000000
    18  H    4.669662   2.452696   0.000000
    19  H    5.340657   4.924311   4.287644   0.000000
 Stoichiometry    C8H7FINO
 Framework group  C1[X(C8H7FINO)]
 Deg. of freedom    51
 Full point group                 C1      NOp   1
 Largest Abelian subgroup         C1      NOp   1
 Largest concise Abelian subgroup C1      NOp   1
                         Standard orientation:                         
 ---------------------------------------------------------------------
 Center     Atomic      Atomic             Coordinates (Angstroms)
 Number     Number       Type             X           Y           Z
 ---------------------------------------------------------------------
      1          6           0        3.949145   -0.979493    1.144773
      2          6           0        4.247055    0.146821    0.195815
      3          8           0        5.362040    0.545780   -0.044552
      4          7           0        3.175856    0.783735   -0.389580
      5          6           0        1.805088    0.559386   -0.278844
      6          6           0        0.946966    1.640294   -0.065506
      7          6           0       -0.419373    1.473317    0.038580
      8          6           0       -0.962100    0.204388   -0.072979
      9         53           0       -3.047757   -0.067826    0.099279
     10          6           0       -0.149838   -0.887655   -0.314744
     11          6           0        1.214603   -0.697950   -0.428319
     12          9           0        1.970204   -1.771064   -0.728079
     13          1           0        4.756224   -1.035350    1.870563
     14          1           0        3.922207   -1.919857    0.598207
     15          1           0        2.999357   -0.835986    1.653958
     16          1           0        3.439356    1.643564   -0.856921
     17          1           0        1.371850    2.628668    0.024199
     18          1           0       -1.055218    2.327377    0.209357
     19          1           0       -0.551084   -1.881089   -0.437605
 ---------------------------------------------------------------------
 Rotational constants (GHZ):           2.2081363           0.2087112           0.1968245
 Leave Link  202 at Tue Sep 17 09:47:49 2024, MaxMem=  1342177280 cpu:               0.0 elap:               0.0
 (Enter /groups/ReismanLab/Software/Gaussian16_RevC/Linux_Binary_AVX2-enabled-CPU/g16/l301.exe)
 General basis read from cards:  (5D, 7F)
 Centers:       1      2      5      6      7      8     10     11     12     13
 Centers:      14     15     16     17     18     19      4      3
 6-31G(d,p)
 ****
 Centers:       9
 LANL2DZ
 ****
 ======================================================================================================
                                       Pseudopotential Parameters
 ======================================================================================================
  Center     Atomic      Valence      Angular      Power
  Number     Number     Electrons     Momentum     of R      Exponent        Coefficient   SO-Coeffient
 ======================================================================================================
    1          6
                                   No pseudopotential on this center.
    2          6
                                   No pseudopotential on this center.
    3          8
                                   No pseudopotential on this center.
    4          7
                                   No pseudopotential on this center.
    5          6
                                   No pseudopotential on this center.
    6          6
                                   No pseudopotential on this center.
    7          6
                                   No pseudopotential on this center.
    8          6
                                   No pseudopotential on this center.
    9         53            7
                                      F and up 
                                                     0        1.0715702       -0.07476210    0.00000000
                                                     1       44.1936028      -30.08112240    0.00000000
                                                     2       12.9367609      -75.37227210    0.00000000
                                                     2        3.1956412      -22.05637580    0.00000000
                                                     2        0.8589806       -1.69795850    0.00000000
                                      S - F
                                                     0      127.9202670        2.93800360    0.00000000
                                                     1       78.6211465       41.24712670    0.00000000
                                                     2       36.5146237      287.86800950    0.00000000
                                                     2        9.9065681      114.37585060    0.00000000
                                                     2        1.9420086       37.65477140    0.00000000
                                      P - F
                                                     0       13.0035304        2.22226300    0.00000000
                                                     1       76.0331404       39.40908310    0.00000000
                                                     2       24.1961684      177.40750020    0.00000000
                                                     2        6.4053433       77.98894620    0.00000000
                                                     2        1.5851786       25.75476410    0.00000000
                                      D - F
                                                     0       40.4278108        7.05243600    0.00000000
                                                     1       28.9084375       33.30416350    0.00000000
                                                     2       15.6268936      186.94538750    0.00000000
                                                     2        4.1442856       71.96883610    0.00000000
                                                     2        0.9377235        9.36306570    0.00000000
   10          6
                                   No pseudopotential on this center.
   11          6
                                   No pseudopotential on this center.
   12          9
                                   No pseudopotential on this center.
   13          1
                                   No pseudopotential on this center.
   14          1
                                   No pseudopotential on this center.
   15          1
                                   No pseudopotential on this center.
   16          1
                                   No pseudopotential on this center.
   17          1
                                   No pseudopotential on this center.
   18          1
                                   No pseudopotential on this center.
   19          1
                                   No pseudopotential on this center.
 ======================================================================================================
 Ernie: Thresh=  0.10000D-02 Tol=  0.10000D-05 Strict=F.
 There are   208 symmetry adapted cartesian basis functions of A   symmetry.
 There are   197 symmetry adapted basis functions of A   symmetry.
   197 basis functions,   369 primitive gaussians,   208 cartesian basis functions
    43 alpha electrons       43 beta electrons
       nuclear repulsion energy       646.3285919199 Hartrees.
 IExCor=  402 DFT=T Ex+Corr=B3LYP ExCW=0 ScaHFX=  0.200000
 ScaDFX=  0.800000  0.720000  1.000000  0.810000 ScalE2=  1.000000  1.000000
 IRadAn=      5 IRanWt=     -1 IRanGd=            0 ICorTp=0 IEmpDi=141
 NAtoms=   19 NActive=   19 NUniq=   19 SFac= 1.00D+00 NAtFMM=   60 NAOKFM=F Big=F
 Integral buffers will be    131072 words long.
 Raffenetti 2 integral format.
 Two-electron integral symmetry is turned on.
 R6Disp:  Grimme-D3(BJ) Dispersion energy=       -0.0406062970 Hartrees.
 Nuclear repulsion after empirical dispersion term =      646.2879856230 Hartrees.
 Leave Link  301 at Tue Sep 17 09:47:50 2024, MaxMem=  1342177280 cpu:               0.1 elap:               0.1
 (Enter /groups/ReismanLab/Software/Gaussian16_RevC/Linux_Binary_AVX2-enabled-CPU/g16/l302.exe)
 NPDir=0 NMtPBC=     1 NCelOv=     1 NCel=       1 NClECP=     1 NCelD=      1
         NCelK=      1 NCelE2=     1 NClLst=     1 CellRange=     0.0.
 One-electron integrals computed using PRISM.
 One-electron integral symmetry used in STVInt
   1 Symmetry operations used in ECPInt.
 ECPInt:  NShTT=    2415 NPrTT=   13424 LenC2=    2312 LenP2D=    8690.
 LDataN:  DoStor=T MaxTD1= 5 Len=  102
 NBasis=   197 RedAO= T EigKep=  4.51D-04  NBF=   197
 NBsUse=   197 1.00D-06 EigRej= -1.00D+00 NBFU=   197
 Precomputing XC quadrature grid using
 IXCGrd= 4 IRadAn=           5 IRanWt=          -1 IRanGd=           0 AccXCQ= 0.00D+00.
 Defaulting to unpruned grid for atomic number  53.
 Generated NRdTot=       0 NPtTot=           0 NUsed=           0 NTot=          32
 NSgBfM=   208   208   208   208   208 MxSgAt=    19 MxSgA2=    19.
 Leave Link  302 at Tue Sep 17 09:47:50 2024, MaxMem=  1342177280 cpu:               1.3 elap:               0.2
 (Enter /groups/ReismanLab/Software/Gaussian16_RevC/Linux_Binary_AVX2-enabled-CPU/g16/l303.exe)
 DipDrv:  MaxL=1.
 Leave Link  303 at Tue Sep 17 09:47:50 2024, MaxMem=  1342177280 cpu:               0.1 elap:               0.0
 (Enter /groups/ReismanLab/Software/Gaussian16_RevC/Linux_Binary_AVX2-enabled-CPU/g16/l401.exe)
 ExpMin= 1.05D-01 ExpMax= 7.00D+03 ExpMxC= 1.05D+03 IAcc=3 IRadAn=         5 AccDes= 0.00D+00
 Harris functional with IExCor=  402 and IRadAn=       5 diagonalized for initial guess.
 HarFok:  IExCor=  402 AccDes= 0.00D+00 IRadAn=         5 IDoV= 1 UseB2=F ITyADJ=14
 ICtDFT=  3500011 ScaDFX=  1.000000  1.000000  1.000000  1.000000
 Defaulting to unpruned grid for atomic number  53.
 FoFCou: FMM=F IPFlag=           0 FMFlag=      100000 FMFlg1=           0
         NFxFlg=           0 DoJE=T BraDBF=F KetDBF=T FulRan=T
         wScrn=  0.000000 ICntrl=       500 IOpCl=  0 I1Cent=   200000004 NGrid=           0
         NMat0=    1 NMatS0=      1 NMatT0=    0 NMatD0=    1 NMtDS0=    0 NMtDT0=    0
 Petite list used in FoFCou.
 Harris En= -550.242005185836    
 JPrj=0 DoOrth=F DoCkMO=F.
 Leave Link  401 at Tue Sep 17 09:47:51 2024, MaxMem=  1342177280 cpu:               4.9 elap:               0.7
 (Enter /groups/ReismanLab/Software/Gaussian16_RevC/Linux_Binary_AVX2-enabled-CPU/g16/l502.exe)
 Integral symmetry usage will be decided dynamically.
 Closed shell SCF:
 Using DIIS extrapolation, IDIIS=  1040.
 NGot=  1342177280 LenX=  1342086382 LenY=  1342042677
 Requested convergence on RMS density matrix=1.00D-08 within  32 cycles.
 Requested convergence on MAX density matrix=1.00D-06.
 Requested convergence on             energy=1.00D-06.
 No special actions if energy rises.
 Fock matrices will be formed incrementally for  20 cycles.
 Integral accuracy reduced to 1.0D-05 until final iterations.

 Cycle   1  Pass 0  IDiag  1:
 FoFJK:  IHMeth= 1 ICntrl=       0 DoSepK=F KAlg= 0 I1Cent=           0 FoldK=F
 IRaf= 900000000 NMat=       1 IRICut=       1 DoRegI=T DoRafI=F ISym2E= 0 IDoP0=0 IntGTp=1.
 FoFCou: FMM=F IPFlag=           0 FMFlag=      100000 FMFlg1=           0
         NFxFlg=           0 DoJE=F BraDBF=F KetDBF=F FulRan=T
         wScrn=  0.000000 ICntrl=         0 IOpCl=  0 I1Cent=           0 NGrid=           0
         NMat0=    1 NMatS0=      1 NMatT0=    0 NMatD0=    1 NMtDS0=    0 NMtDT0=    0
 Symmetry not used in FoFCou.
 Defaulting to unpruned grid for atomic number  53.
 Defaulting to unpruned grid for atomic number  53.
 Defaulting to unpruned grid for atomic number  53.
 Defaulting to unpruned grid for atomic number  53.
 Defaulting to unpruned grid for atomic number  53.
 Defaulting to unpruned grid for atomic number  53.
 Defaulting to unpruned grid for atomic number  53.
 Defaulting to unpruned grid for atomic number  53.
 E= -550.032541023761    
 DIIS: error= 1.89D-02 at cycle   1 NSaved=   1.
 NSaved= 1 IEnMin= 1 EnMin= -550.032541023761     IErMin= 1 ErrMin= 1.89D-02
 ErrMax= 1.89D-02  0.00D+00 EMaxC= 1.00D-01 BMatC= 2.81D-01 BMatP= 2.81D-01
 IDIUse=3 WtCom= 8.11D-01 WtEn= 1.89D-01
 Coeff-Com:  0.100D+01
 Coeff-En:   0.100D+01
 Coeff:      0.100D+01
 Gap=     0.283 Goal=   None    Shift=    0.000
 GapD=    0.283 DampG=1.000 DampE=0.500 DampFc=0.5000 IDamp=-1.
 Damping current iteration by 5.00D-01
 RMSDP=6.83D-03 MaxDP=2.69D-01              OVMax= 2.62D-01

 Cycle   2  Pass 0  IDiag  1:
 RMSU=  3.40D-03    CP:  9.87D-01
 E= -550.112617122507     Delta-E=       -0.080076098747 Rises=F Damp=T
 DIIS: error= 8.87D-03 at cycle   2 NSaved=   2.
 NSaved= 2 IEnMin= 2 EnMin= -550.112617122507     IErMin= 2 ErrMin= 8.87D-03
 ErrMax= 8.87D-03  0.00D+00 EMaxC= 1.00D-01 BMatC= 4.15D-02 BMatP= 2.81D-01
 IDIUse=3 WtCom= 9.11D-01 WtEn= 8.87D-02
 Coeff-Com:  0.210D+00 0.790D+00
 Coeff-En:   0.328D+00 0.672D+00
 Coeff:      0.221D+00 0.779D+00
 Gap=     0.210 Goal=   None    Shift=    0.000
 RMSDP=2.31D-03 MaxDP=8.58D-02 DE=-8.01D-02 OVMax= 1.76D-01

 Cycle   3  Pass 0  IDiag  1:
 RMSU=  1.95D-03    CP:  9.83D-01  6.33D-01
 E= -550.265560740638     Delta-E=       -0.152943618130 Rises=F Damp=F
 DIIS: error= 1.19D-02 at cycle   3 NSaved=   3.
 NSaved= 3 IEnMin= 3 EnMin= -550.265560740638     IErMin= 2 ErrMin= 8.87D-03
 ErrMax= 1.19D-02  0.00D+00 EMaxC= 1.00D-01 BMatC= 4.65D-02 BMatP= 4.15D-02
 IDIUse=2 WtCom= 0.00D+00 WtEn= 1.00D+00
 Coeff-En:   0.000D+00 0.000D+00 0.100D+01
 Coeff:      0.000D+00 0.000D+00 0.100D+01
 Gap=     0.246 Goal=   None    Shift=    0.000
 RMSDP=3.38D-03 MaxDP=1.14D-01 DE=-1.53D-01 OVMax= 2.01D-01

 Cycle   4  Pass 0  IDiag  1:
 RMSU=  1.72D-03    CP:  9.86D-01  1.13D+00 -2.16D-01
 E= -550.085179228812     Delta-E=        0.180381511825 Rises=F Damp=F
 DIIS: error= 3.15D-02 at cycle   4 NSaved=   4.
 NSaved= 4 IEnMin= 3 EnMin= -550.265560740638     IErMin= 2 ErrMin= 8.87D-03
 ErrMax= 3.15D-02  0.00D+00 EMaxC= 1.00D-01 BMatC= 2.57D-01 BMatP= 4.15D-02
 IDIUse=2 WtCom= 0.00D+00 WtEn= 1.00D+00
 Coeff-En:   0.000D+00 0.000D+00 0.786D+00 0.214D+00
 Coeff:      0.000D+00 0.000D+00 0.786D+00 0.214D+00
 Gap=     0.208 Goal=   None    Shift=    0.000
 RMSDP=1.85D-03 MaxDP=7.74D-02 DE= 1.80D-01 OVMax= 9.35D-02

 Cycle   5  Pass 0  IDiag  1:
 RMSU=  2.65D-04    CP:  9.86D-01  7.93D-01  3.79D-01  5.20D-01
 E= -550.293175672207     Delta-E=       -0.207996443395 Rises=F Damp=F
 DIIS: error= 7.29D-03 at cycle   5 NSaved=   5.
 NSaved= 5 IEnMin= 5 EnMin= -550.293175672207     IErMin= 5 ErrMin= 7.29D-03
 ErrMax= 7.29D-03  0.00D+00 EMaxC= 1.00D-01 BMatC= 1.67D-02 BMatP= 4.15D-02
 IDIUse=3 WtCom= 9.27D-01 WtEn= 7.29D-02
 Coeff-Com: -0.422D-02 0.348D-01 0.328D+00-0.497D-01 0.691D+00
 Coeff-En:   0.000D+00 0.000D+00 0.309D+00 0.000D+00 0.691D+00
 Coeff:     -0.391D-02 0.323D-01 0.326D+00-0.461D-01 0.691D+00
 Gap=     0.199 Goal=   None    Shift=    0.000
 RMSDP=6.43D-04 MaxDP=1.71D-02 DE=-2.08D-01 OVMax= 3.99D-02

 Cycle   6  Pass 0  IDiag  1:
 RMSU=  1.06D-04    CP:  9.85D-01  7.25D-01  6.21D-01  3.21D-01  6.36D-01
 E= -550.308235702127     Delta-E=       -0.015060029920 Rises=F Damp=F
 DIIS: error= 5.63D-04 at cycle   6 NSaved=   6.
 NSaved= 6 IEnMin= 6 EnMin= -550.308235702127     IErMin= 6 ErrMin= 5.63D-04
 ErrMax= 5.63D-04  0.00D+00 EMaxC= 1.00D-01 BMatC= 1.51D-04 BMatP= 1.67D-02
 IDIUse=3 WtCom= 9.94D-01 WtEn= 5.63D-03
 Coeff-Com: -0.839D-02 0.237D-01 0.140D+00-0.601D-01 0.439D+00 0.465D+00
 Coeff-En:   0.000D+00 0.000D+00 0.000D+00 0.000D+00 0.000D+00 0.100D+01
 Coeff:     -0.834D-02 0.235D-01 0.139D+00-0.597D-01 0.437D+00 0.468D+00
 Gap=     0.193 Goal=   None    Shift=    0.000
 RMSDP=7.78D-05 MaxDP=1.98D-03 DE=-1.51D-02 OVMax= 5.34D-03

 Cycle   7  Pass 0  IDiag  1:
 RMSU=  3.09D-05    CP:  9.85D-01  7.31D-01  6.07D-01  3.24D-01  7.80D-01
                    CP:  5.33D-01
 E= -550.308391491287     Delta-E=       -0.000155789160 Rises=F Damp=F
 DIIS: error= 1.39D-04 at cycle   7 NSaved=   7.
 NSaved= 7 IEnMin= 7 EnMin= -550.308391491287     IErMin= 7 ErrMin= 1.39D-04
 ErrMax= 1.39D-04  0.00D+00 EMaxC= 1.00D-01 BMatC= 7.02D-06 BMatP= 1.51D-04
 IDIUse=3 WtCom= 9.99D-01 WtEn= 1.39D-03
 Coeff-Com: -0.381D-02 0.953D-02 0.517D-01-0.280D-01 0.181D+00 0.248D+00
 Coeff-Com:  0.541D+00
 Coeff-En:   0.000D+00 0.000D+00 0.000D+00 0.000D+00 0.000D+00 0.000D+00
 Coeff-En:   0.100D+01
 Coeff:     -0.380D-02 0.952D-02 0.517D-01-0.280D-01 0.181D+00 0.248D+00
 Coeff:      0.542D+00
 Gap=     0.193 Goal=   None    Shift=    0.000
 RMSDP=1.92D-05 MaxDP=6.11D-04 DE=-1.56D-04 OVMax= 1.21D-03

 Cycle   8  Pass 0  IDiag  1:
 RMSU=  1.24D-05    CP:  9.85D-01  7.30D-01  6.10D-01  3.23D-01  7.79D-01
                    CP:  5.77D-01  6.13D-01
 E= -550.308397944695     Delta-E=       -0.000006453408 Rises=F Damp=F
 DIIS: error= 4.65D-05 at cycle   8 NSaved=   8.
 NSaved= 8 IEnMin= 8 EnMin= -550.308397944695     IErMin= 8 ErrMin= 4.65D-05
 ErrMax= 4.65D-05  0.00D+00 EMaxC= 1.00D-01 BMatC= 1.12D-06 BMatP= 7.02D-06
 IDIUse=1 WtCom= 1.00D+00 WtEn= 0.00D+00
 Coeff-Com: -0.612D-03 0.255D-03 0.941D-02-0.497D-02 0.327D-01 0.709D-01
 Coeff-Com:  0.324D+00 0.568D+00
 Coeff:     -0.612D-03 0.255D-03 0.941D-02-0.497D-02 0.327D-01 0.709D-01
 Coeff:      0.324D+00 0.568D+00
 Gap=     0.193 Goal=   None    Shift=    0.000
 RMSDP=6.55D-06 MaxDP=1.58D-04 DE=-6.45D-06 OVMax= 4.07D-04

 Initial convergence to 1.0D-05 achieved.  Increase integral accuracy.
 Cycle   9  Pass 1  IDiag  1:
 E= -550.308352692857     Delta-E=        0.000045251838 Rises=F Damp=F
 DIIS: error= 1.45D-05 at cycle   1 NSaved=   1.
 NSaved= 1 IEnMin= 1 EnMin= -550.308352692857     IErMin= 1 ErrMin= 1.45D-05
 ErrMax= 1.45D-05  0.00D+00 EMaxC= 1.00D-01 BMatC= 1.01D-07 BMatP= 1.01D-07
 IDIUse=1 WtCom= 1.00D+00 WtEn= 0.00D+00
 Coeff-Com:  0.100D+01
 Coeff:      0.100D+01
 Gap=     0.193 Goal=   None    Shift=    0.000
 RMSDP=6.55D-06 MaxDP=1.58D-04 DE= 4.53D-05 OVMax= 3.08D-04

 Cycle  10  Pass 1  IDiag  1:
 RMSU=  7.32D-06    CP:  1.00D+00
 E= -550.308352532702     Delta-E=        0.000000160155 Rises=F Damp=F
 DIIS: error= 2.77D-05 at cycle   2 NSaved=   2.
 NSaved= 2 IEnMin= 1 EnMin= -550.308352692857     IErMin= 1 ErrMin= 1.45D-05
 ErrMax= 2.77D-05  0.00D+00 EMaxC= 1.00D-01 BMatC= 2.47D-07 BMatP= 1.01D-07
 IDIUse=1 WtCom= 1.00D+00 WtEn= 0.00D+00
 Coeff-Com:  0.619D+00 0.381D+00
 Coeff:      0.619D+00 0.381D+00
 Gap=     0.193 Goal=   None    Shift=    0.000
 RMSDP=3.17D-06 MaxDP=1.00D-04 DE= 1.60D-07 OVMax= 2.36D-04

 Cycle  11  Pass 1  IDiag  1:
 RMSU=  2.63D-06    CP:  1.00D+00  7.58D-01
 E= -550.308352795486     Delta-E=       -0.000000262783 Rises=F Damp=F
 DIIS: error= 4.43D-06 at cycle   3 NSaved=   3.
 NSaved= 3 IEnMin= 3 EnMin= -550.308352795486     IErMin= 3 ErrMin= 4.43D-06
 ErrMax= 4.43D-06  0.00D+00 EMaxC= 1.00D-01 BMatC= 6.89D-09 BMatP= 1.01D-07
 IDIUse=1 WtCom= 1.00D+00 WtEn= 0.00D+00
 Coeff-Com:  0.159D+00 0.170D+00 0.672D+00
 Coeff:      0.159D+00 0.170D+00 0.672D+00
 Gap=     0.193 Goal=   None    Shift=    0.000
 RMSDP=7.40D-07 MaxDP=2.55D-05 DE=-2.63D-07 OVMax= 5.35D-05

 Cycle  12  Pass 1  IDiag  1:
 RMSU=  5.67D-07    CP:  1.00D+00  7.95D-01  8.52D-01
 E= -550.308352799776     Delta-E=       -0.000000004290 Rises=F Damp=F
 DIIS: error= 2.39D-06 at cycle   4 NSaved=   4.
 NSaved= 4 IEnMin= 4 EnMin= -550.308352799776     IErMin= 4 ErrMin= 2.39D-06
 ErrMax= 2.39D-06  0.00D+00 EMaxC= 1.00D-01 BMatC= 3.45D-09 BMatP= 6.89D-09
 IDIUse=1 WtCom= 1.00D+00 WtEn= 0.00D+00
 Coeff-Com:  0.165D-02 0.525D-01 0.467D+00 0.479D+00
 Coeff:      0.165D-02 0.525D-01 0.467D+00 0.479D+00
 Gap=     0.193 Goal=   None    Shift=    0.000
 RMSDP=3.20D-07 MaxDP=1.03D-05 DE=-4.29D-09 OVMax= 2.28D-05

 Cycle  13  Pass 1  IDiag  1:
 RMSU=  1.18D-07    CP:  1.00D+00  7.94D-01  8.88D-01  5.03D-01
 E= -550.308352803096     Delta-E=       -0.000000003320 Rises=F Damp=F
 DIIS: error= 5.07D-07 at cycle   5 NSaved=   5.
 NSaved= 5 IEnMin= 5 EnMin= -550.308352803096     IErMin= 5 ErrMin= 5.07D-07
 ErrMax= 5.07D-07  0.00D+00 EMaxC= 1.00D-01 BMatC= 1.44D-10 BMatP= 3.45D-09
 IDIUse=1 WtCom= 1.00D+00 WtEn= 0.00D+00
 Coeff-Com: -0.493D-02 0.274D-01 0.272D+00 0.301D+00 0.405D+00
 Coeff:     -0.493D-02 0.274D-01 0.272D+00 0.301D+00 0.405D+00
 Gap=     0.193 Goal=   None    Shift=    0.000
 RMSDP=6.15D-08 MaxDP=1.86D-06 DE=-3.32D-09 OVMax= 3.08D-06

 Cycle  14  Pass 1  IDiag  1:
 RMSU=  4.51D-08    CP:  1.00D+00  7.94D-01  8.90D-01  5.30D-01  6.79D-01
 E= -550.308352803231     Delta-E=       -0.000000000136 Rises=F Damp=F
 DIIS: error= 1.19D-07 at cycle   6 NSaved=   6.
 NSaved= 6 IEnMin= 6 EnMin= -550.308352803231     IErMin= 6 ErrMin= 1.19D-07
 ErrMax= 1.19D-07  0.00D+00 EMaxC= 1.00D-01 BMatC= 5.91D-12 BMatP= 1.44D-10
 IDIUse=1 WtCom= 1.00D+00 WtEn= 0.00D+00
 Coeff-Com: -0.283D-02 0.873D-02 0.906D-01 0.104D+00 0.197D+00 0.602D+00
 Coeff:     -0.283D-02 0.873D-02 0.906D-01 0.104D+00 0.197D+00 0.602D+00
 Gap=     0.193 Goal=   None    Shift=    0.000
 RMSDP=1.78D-08 MaxDP=5.86D-07 DE=-1.36D-10 OVMax= 1.02D-06

 Cycle  15  Pass 1  IDiag  1:
 RMSU=  1.56D-08    CP:  1.00D+00  7.95D-01  8.89D-01  5.30D-01  6.97D-01
                    CP:  8.22D-01
 E= -550.308352803233     Delta-E=       -0.000000000002 Rises=F Damp=F
 DIIS: error= 5.18D-08 at cycle   7 NSaved=   7.
 NSaved= 7 IEnMin= 7 EnMin= -550.308352803233     IErMin= 7 ErrMin= 5.18D-08
 ErrMax= 5.18D-08  0.00D+00 EMaxC= 1.00D-01 BMatC= 1.28D-12 BMatP= 5.91D-12
 IDIUse=1 WtCom= 1.00D+00 WtEn= 0.00D+00
 Coeff-Com: -0.764D-03 0.101D-02 0.108D-01 0.127D-01 0.403D-01 0.340D+00
 Coeff-Com:  0.596D+00
 Coeff:     -0.764D-03 0.101D-02 0.108D-01 0.127D-01 0.403D-01 0.340D+00
 Coeff:      0.596D+00
 Gap=     0.193 Goal=   None    Shift=    0.000
 RMSDP=6.90D-09 MaxDP=2.25D-07 DE=-1.82D-12 OVMax= 3.39D-07

 SCF Done:  E(RB3LYP) =  -550.308352803     A.U. after   15 cycles
            NFock= 15  Conv=0.69D-08     -V/T= 2.0212
 KE= 5.388958487695D+02 PE=-2.573815870230D+03 EE= 8.383236830342D+02
 Leave Link  502 at Tue Sep 17 09:48:01 2024, MaxMem=  1342177280 cpu:              75.1 elap:              10.0
 (Enter /groups/ReismanLab/Software/Gaussian16_RevC/Linux_Binary_AVX2-enabled-CPU/g16/l508.exe)
 QCSCF skips out because SCF is already converged.
 Leave Link  508 at Tue Sep 17 09:48:01 2024, MaxMem=  1342177280 cpu:               0.0 elap:               0.0
 (Enter /groups/ReismanLab/Software/Gaussian16_RevC/Linux_Binary_AVX2-enabled-CPU/g16/l601.exe)
 Copying SCF densities to generalized density rwf, IOpCl= 0 IROHF=0.

 **********************************************************************

            Population analysis using the SCF Density.

 **********************************************************************

 Orbital symmetries:
       Occupied  (A) (A) (A) (A) (A) (A) (A) (A) (A) (A) (A) (A)
                 (A) (A) (A) (A) (A) (A) (A) (A) (A) (A) (A) (A)
                 (A) (A) (A) (A) (A) (A) (A) (A) (A) (A) (A) (A)
                 (A) (A) (A) (A) (A) (A) (A)
       Virtual   (A) (A) (A) (A) (A) (A) (A) (A) (A) (A) (A) (A)
                 (A) (A) (A) (A) (A) (A) (A) (A) (A) (A) (A) (A)
                 (A) (A) (A) (A) (A) (A) (A) (A) (A) (A) (A) (A)
                 (A) (A) (A) (A) (A) (A) (A) (A) (A) (A) (A) (A)
                 (A) (A) (A) (A) (A) (A) (A) (A) (A) (A) (A) (A)
                 (A) (A) (A) (A) (A) (A) (A) (A) (A) (A) (A) (A)
                 (A) (A) (A) (A) (A) (A) (A) (A) (A) (A) (A) (A)
                 (A) (A) (A) (A) (A) (A) (A) (A) (A) (A) (A) (A)
                 (A) (A) (A) (A) (A) (A) (A) (A) (A) (A) (A) (A)
                 (A) (A) (A) (A) (A) (A) (A) (A) (A) (A) (A) (A)
                 (A) (A) (A) (A) (A) (A) (A) (A) (A) (A) (A) (A)
                 (A) (A) (A) (A) (A) (A) (A) (A) (A) (A) (A) (A)
                 (A) (A) (A) (A) (A) (A) (A) (A) (A) (A)
 The electronic state is 1-A.
 Alpha  occ. eigenvalues --  -24.72472 -19.11418 -14.37364 -10.29267 -10.29213
 Alpha  occ. eigenvalues --  -10.25481 -10.25081 -10.21631 -10.21529 -10.21344
 Alpha  occ. eigenvalues --  -10.18514  -1.24247  -1.04840  -0.95371  -0.88467
 Alpha  occ. eigenvalues --   -0.78577  -0.77797  -0.74773  -0.69841  -0.65255
 Alpha  occ. eigenvalues --   -0.63235  -0.59724  -0.56051  -0.53384  -0.51919
 Alpha  occ. eigenvalues --   -0.49258  -0.47377  -0.46745  -0.46367  -0.45305
 Alpha  occ. eigenvalues --   -0.42183  -0.40915  -0.40179  -0.40075  -0.39205
 Alpha  occ. eigenvalues --   -0.37189  -0.35931  -0.32589  -0.27982  -0.27782
 Alpha  occ. eigenvalues --   -0.27423  -0.25753  -0.23411
 Alpha virt. eigenvalues --   -0.04094  -0.03583  -0.02154   0.02899   0.08350
 Alpha virt. eigenvalues --    0.08995   0.12261   0.13278   0.13976   0.15081
 Alpha virt. eigenvalues --    0.16138   0.17695   0.18892   0.22356   0.23633
 Alpha virt. eigenvalues --    0.27256   0.29500   0.30692   0.31428   0.33337
 Alpha virt. eigenvalues --    0.36313   0.37792   0.38049   0.40373   0.46224
 Alpha virt. eigenvalues --    0.48318   0.49866   0.51697   0.52330   0.54400
 Alpha virt. eigenvalues --    0.55839   0.57208   0.57615   0.58019   0.58826
 Alpha virt. eigenvalues --    0.59500   0.60446   0.62385   0.63811   0.65173
 Alpha virt. eigenvalues --    0.66385   0.67703   0.69241   0.74849   0.75191
 Alpha virt. eigenvalues --    0.78774   0.80236   0.81162   0.82810   0.84442
 Alpha virt. eigenvalues --    0.85146   0.85704   0.87766   0.88564   0.91209
 Alpha virt. eigenvalues --    0.93900   0.94884   0.97336   1.00238   1.01514
 Alpha virt. eigenvalues --    1.02072   1.05013   1.08465   1.09251   1.12307
 Alpha virt. eigenvalues --    1.17466   1.19875   1.21284   1.22653   1.24558
 Alpha virt. eigenvalues --    1.29508   1.33326   1.35460   1.36689   1.37625
 Alpha virt. eigenvalues --    1.40137   1.40671   1.43845   1.44916   1.48577
 Alpha virt. eigenvalues --    1.52710   1.58565   1.61931   1.64353   1.70380
 Alpha virt. eigenvalues --    1.71616   1.72737   1.76411   1.77276   1.79083
 Alpha virt. eigenvalues --    1.81991   1.83867   1.84112   1.87030   1.89073
 Alpha virt. eigenvalues --    1.90780   1.91651   1.92356   1.93413   1.99006
 Alpha virt. eigenvalues --    2.01430   2.03882   2.04808   2.05292   2.06994
 Alpha virt. eigenvalues --    2.09058   2.10687   2.12161   2.16351   2.23639
 Alpha virt. eigenvalues --    2.25413   2.26493   2.28793   2.29973   2.30756
 Alpha virt. eigenvalues --    2.32383   2.35244   2.37509   2.40136   2.42327
 Alpha virt. eigenvalues --    2.43509   2.46577   2.50183   2.52227   2.54361
 Alpha virt. eigenvalues --    2.55173   2.57226   2.58205   2.62312   2.64362
 Alpha virt. eigenvalues --    2.66865   2.69070   2.69768   2.73116   2.74237
 Alpha virt. eigenvalues --    2.79417   2.85787   2.88990   2.91100   2.97353
 Alpha virt. eigenvalues --    3.05762   3.06482   3.12158   3.15193   3.18492
 Alpha virt. eigenvalues --    3.26141   3.28148   3.33965   3.44623   3.44705
 Alpha virt. eigenvalues --    3.45043   3.51799   3.75415  10.03290
          Condensed to atoms (all electrons):
               1          2          3          4          5          6
     1  C    5.145219   0.354939  -0.085202  -0.120311   0.001979   0.000091
     2  C    0.354939   4.315427   0.668735   0.266969  -0.015059   0.002582
     3  O   -0.085202   0.668735   7.938401  -0.099893   0.002547  -0.000099
     4  N   -0.120311   0.266969  -0.099893   7.052914   0.217318  -0.062954
     5  C    0.001979  -0.015059   0.002547   0.217318   4.942196   0.482204
     6  C    0.000091   0.002582  -0.000099  -0.062954   0.482204   4.902512
     7  C    0.000012  -0.000046   0.000001   0.005797  -0.001195   0.527712
     8  C    0.000009   0.000001  -0.000000  -0.000005  -0.051530  -0.024329
     9  I    0.000000  -0.000000   0.000000   0.000012   0.001261   0.000966
    10  C   -0.000495   0.000221   0.000000   0.006969  -0.045609  -0.047019
    11  C   -0.001162  -0.006783   0.000003  -0.051652   0.401903  -0.019606
    12  F    0.001794   0.000471  -0.000004  -0.002747  -0.057535   0.003389
    13  H    0.368208  -0.022743   0.001781   0.004509  -0.000192   0.000011
    14  H    0.370456  -0.020222   0.000255   0.002006  -0.001160  -0.000022
    15  H    0.351095  -0.017077   0.003086  -0.001151   0.006146   0.000072
    16  H    0.008477  -0.011399   0.009340   0.322564  -0.030331  -0.006584
    17  H   -0.000035  -0.000052  -0.000035  -0.005209  -0.046440   0.367447
    18  H   -0.000000  -0.000000  -0.000000  -0.000121   0.004148  -0.026501
    19  H   -0.000006  -0.000003  -0.000000  -0.000102   0.006297   0.000484
               7          8          9         10         11         12
     1  C    0.000012   0.000009   0.000000  -0.000495  -0.001162   0.001794
     2  C   -0.000046   0.000001  -0.000000   0.000221  -0.006783   0.000471
     3  O    0.000001  -0.000000   0.000000   0.000000   0.000003  -0.000004
     4  N    0.005797  -0.000005   0.000012   0.006969  -0.051652  -0.002747
     5  C   -0.001195  -0.051530   0.001261  -0.045609   0.401903  -0.057535
     6  C    0.527712  -0.024329   0.000966  -0.047019  -0.019606   0.003389
     7  C    4.790343   0.493794  -0.063950  -0.021282  -0.044112  -0.000169
     8  C    0.493794   5.333499   0.269261   0.421605   0.002716   0.004206
     9  I   -0.063950   0.269261   6.688587  -0.066688  -0.000454  -0.000057
    10  C   -0.021282   0.421605  -0.066688   5.052503   0.461471  -0.050389
    11  C   -0.044112   0.002716  -0.000454   0.461471   4.594002   0.294462
    12  F   -0.000169   0.004206  -0.000057  -0.050389   0.294462   9.109400
    13  H   -0.000001  -0.000000   0.000000   0.000003   0.000135   0.000312
    14  H    0.000005  -0.000008   0.000000   0.000104  -0.000523   0.006779
    15  H   -0.000048  -0.000019   0.000000  -0.000053   0.002981  -0.002297
    16  H    0.000060   0.000017  -0.000000  -0.000097   0.002973  -0.000046
    17  H   -0.035126   0.006731  -0.000282   0.000099   0.004699  -0.000019
    18  H    0.370134  -0.040611  -0.001700   0.004158   0.000766   0.000000
    19  H    0.004018  -0.039241  -0.003571   0.358893  -0.022243  -0.001461
              13         14         15         16         17         18
     1  C    0.368208   0.370456   0.351095   0.008477  -0.000035  -0.000000
     2  C   -0.022743  -0.020222  -0.017077  -0.011399  -0.000052  -0.000000
     3  O    0.001781   0.000255   0.003086   0.009340  -0.000035  -0.000000
     4  N    0.004509   0.002006  -0.001151   0.322564  -0.005209  -0.000121
     5  C   -0.000192  -0.001160   0.006146  -0.030331  -0.046440   0.004148
     6  C    0.000011  -0.000022   0.000072  -0.006584   0.367447  -0.026501
     7  C   -0.000001   0.000005  -0.000048   0.000060  -0.035126   0.370134
     8  C   -0.000000  -0.000008  -0.000019   0.000017   0.006731  -0.040611
     9  I    0.000000   0.000000   0.000000  -0.000000  -0.000282  -0.001700
    10  C    0.000003   0.000104  -0.000053  -0.000097   0.000099   0.004158
    11  C    0.000135  -0.000523   0.002981   0.002973   0.004699   0.000766
    12  F    0.000312   0.006779  -0.002297  -0.000046  -0.000019   0.000000
    13  H    0.552939  -0.019998  -0.025205  -0.000208   0.000000   0.000000
    14  H   -0.019998   0.535671  -0.026625  -0.000196   0.000000  -0.000000
    15  H   -0.025205  -0.026625   0.591626  -0.000202   0.000022   0.000000
    16  H   -0.000208  -0.000196  -0.000202   0.429361   0.003211  -0.000010
    17  H    0.000000   0.000000   0.000022   0.003211   0.606322  -0.006895
    18  H    0.000000  -0.000000   0.000000  -0.000010  -0.006895   0.584792
    19  H   -0.000000   0.000011   0.000004   0.000002   0.000012  -0.000166
              19
     1  C   -0.000006
     2  C   -0.000003
     3  O   -0.000000
     4  N   -0.000102
     5  C    0.006297
     6  C    0.000484
     7  C    0.004018
     8  C   -0.039241
     9  I   -0.003571
    10  C    0.358893
    11  C   -0.022243
    12  F   -0.001461
    13  H   -0.000000
    14  H    0.000011
    15  H    0.000004
    16  H    0.000002
    17  H    0.000012
    18  H   -0.000166
    19  H    0.571602
 Mulliken charges:
               1
     1  C   -0.395068
     2  C    0.484038
     3  O   -0.438915
     4  N   -0.534913
     5  C    0.183053
     6  C   -0.100356
     7  C   -0.025947
     8  C   -0.376096
     9  I    0.176614
    10  C   -0.074393
    11  C    0.380421
    12  F   -0.306090
    13  H    0.140448
    14  H    0.153467
    15  H    0.117643
    16  H    0.273068
    17  H    0.105551
    18  H    0.112007
    19  H    0.125469
 Sum of Mulliken charges =  -0.00000
 Mulliken charges with hydrogens summed into heavy atoms:
               1
     1  C    0.016490
     2  C    0.484038
     3  O   -0.438915
     4  N   -0.261845
     5  C    0.183053
     6  C    0.005195
     7  C    0.086060
     8  C   -0.376096
     9  I    0.176614
    10  C    0.051076
    11  C    0.380421
    12  F   -0.306090
 Electronic spatial extent (au):  <R**2>=           3169.9735
 Charge=             -0.0000 electrons
 Dipole moment (field-independent basis, Debye):
    X=             -2.2746    Y=              0.7130    Z=              0.4502  Tot=              2.4258
 Quadrupole moment (field-independent basis, Debye-Ang):
   XX=           -106.4658   YY=            -75.2384   ZZ=            -82.7358
   XY=             -1.2725   XZ=              2.1831   YZ=             -1.5118
 Traceless Quadrupole moment (field-independent basis, Debye-Ang):
   XX=            -18.3192   YY=             12.9083   ZZ=              5.4109
   XY=             -1.2725   XZ=              2.1831   YZ=             -1.5118
 Octapole moment (field-independent basis, Debye-Ang**2):
  XXX=           -358.3468  YYY=             -1.9384  ZZZ=              2.2972  XYY=            -49.1263
  XXY=            -28.1642  XXZ=             14.0734  XZZ=            -49.2850  YZZ=             -5.5579
  YYZ=             -1.2174  XYZ=             -8.1096
 Hexadecapole moment (field-independent basis, Debye-Ang**3):
 XXXX=          -5065.0650 YYYY=           -493.4756 ZZZZ=           -201.1611 XXXY=           -139.7893
 XXXZ=             17.9422 YYYX=             22.9391 YYYZ=              6.0507 ZZZX=            -28.2927
 ZZZY=              6.1433 XXYY=           -738.0451 XXZZ=           -690.4715 YYZZ=           -124.9481
 XXYZ=            -22.5026 YYXZ=            -18.1133 ZZXY=              2.5914
 N-N= 6.462879856230D+02 E-N=-2.573815868489D+03  KE= 5.388958487695D+02
 No NMR shielding tensors so no spin-rotation constants.
 Leave Link  601 at Tue Sep 17 09:48:01 2024, MaxMem=  1342177280 cpu:               0.7 elap:               0.2
 (Enter /groups/ReismanLab/Software/Gaussian16_RevC/Linux_Binary_AVX2-enabled-CPU/g16/l701.exe)
 ... and contract with generalized density number  0.
 Compute integral first derivatives.
 R6Disp: Adding Grimme-D3(BJ) dispersion energy 1st derivatives to the gradient.
   1 Symmetry operations used in ECPInt.
 ECPInt:  NShTT=    2415 NPrTT=   13424 LenC2=    2312 LenP2D=    8690.
 LDataN:  DoStor=T MaxTD1= 6 Len=  172
 Leave Link  701 at Tue Sep 17 09:48:01 2024, MaxMem=  1342177280 cpu:               1.0 elap:               0.7
 (Enter /groups/ReismanLab/Software/Gaussian16_RevC/Linux_Binary_AVX2-enabled-CPU/g16/l702.exe)
 L702 exits ... SP integral derivatives will be done elsewhere.
 Leave Link  702 at Tue Sep 17 09:48:01 2024, MaxMem=  1342177280 cpu:               0.0 elap:               0.0
 (Enter /groups/ReismanLab/Software/Gaussian16_RevC/Linux_Binary_AVX2-enabled-CPU/g16/l703.exe)
 Integral derivatives from FoFJK, PRISM(SPDF).
 Compute integral first derivatives, UseDBF=F ICtDFT=           0.
 Calling FoFJK, ICntrl=      2127 FMM=F ISym2X=0 I1Cent= 0 IOpClX= 0 NMat=1 NMatS=1 NMatT=0.
 FoFJK:  IHMeth= 1 ICntrl=    2127 DoSepK=F KAlg= 0 I1Cent=           0 FoldK=F
 IRaf=         0 NMat=       1 IRICut=       1 DoRegI=T DoRafI=F ISym2E= 0 IDoP0=0 IntGTp=1.
 FoFCou: FMM=F IPFlag=           0 FMFlag=      100000 FMFlg1=         800
         NFxFlg=           0 DoJE=F BraDBF=F KetDBF=F FulRan=T
         wScrn=  0.000000 ICntrl=      2127 IOpCl=  0 I1Cent=           0 NGrid=           0
         NMat0=    1 NMatS0=      1 NMatT0=    0 NMatD0=    1 NMtDS0=    0 NMtDT0=    0
 Symmetry not used in FoFCou.
 Defaulting to unpruned grid for atomic number  53.
 Defaulting to unpruned grid for atomic number  53.
 Defaulting to unpruned grid for atomic number  53.
 Defaulting to unpruned grid for atomic number  53.
 Defaulting to unpruned grid for atomic number  53.
 Defaulting to unpruned grid for atomic number  53.
 Defaulting to unpruned grid for atomic number  53.
 Defaulting to unpruned grid for atomic number  53.
 Leave Link  703 at Tue Sep 17 09:48:04 2024, MaxMem=  1342177280 cpu:              17.4 elap:               2.2
 (Enter /groups/ReismanLab/Software/Gaussian16_RevC/Linux_Binary_AVX2-enabled-CPU/g16/l716.exe)
 Dipole        =-8.94882436D-01 2.80512152D-01 1.77134063D-01
 ***** Axes restored to original set *****
 -------------------------------------------------------------------
 Center     Atomic                   Forces (Hartrees/Bohr)
 Number     Number              X              Y              Z
 -------------------------------------------------------------------
      1        6          -0.002569180   -0.001860650   -0.002020064
      2        6           0.007573679   -0.003467073   -0.006583299
      3        8          -0.020449158    0.006027566    0.005516178
      4        7           0.005566972    0.004924210    0.010078578
      5        6           0.001774299   -0.001688689   -0.002947700
      6        6          -0.003177851    0.001462773    0.000087043
      7        6           0.006086011    0.005689151    0.000785306
      8        6           0.002748381   -0.000833739   -0.000311954
      9       53           0.007247360   -0.001528749   -0.001508343
     10        6          -0.000054446   -0.006026240   -0.001785687
     11        6          -0.001380722   -0.001408321    0.002447010
     12        9          -0.003137853   -0.000342370    0.000360256
     13        1          -0.001933667    0.001554728   -0.000961083
     14        1           0.001616726   -0.002968732   -0.000142050
     15        1           0.002586615   -0.001497163   -0.002590581
     16        1          -0.002748366   -0.001835166    0.000139552
     17        1          -0.001987570    0.004220648   -0.000207668
     18        1           0.002178141    0.002959536   -0.000067256
     19        1           0.000060629   -0.003381718   -0.000288237
 -------------------------------------------------------------------
 Cartesian Forces:  Max     0.020449158 RMS     0.004357844
 Leave Link  716 at Tue Sep 17 09:48:04 2024, MaxMem=  1342177280 cpu:               0.0 elap:               0.0
 (Enter /groups/ReismanLab/Software/Gaussian16_RevC/Linux_Binary_AVX2-enabled-CPU/g16/l103.exe)

 GradGradGradGradGradGradGradGradGradGradGradGradGradGradGradGradGradGrad
 Berny optimization.
 FormGI is forming the generalized inverse of G from B-inverse, IUseBI=4.
 Internal  Forces:  Max     0.021807218 RMS     0.004291192
 Search for a local minimum.
 Step number   1 out of a maximum of   97
 All quantities printed in internal units (Hartrees-Bohrs-Radians)
 RMS Force = .42912D-02 SwitMx=.10000D-02 MixMth= 1
 Mixed Optimization -- RFO/linear search
 Second derivative matrix not updated -- first step.
 ITU=  0
     Eigenvalues ---    0.00731   0.01210   0.01779   0.01943   0.01998
     Eigenvalues ---    0.02031   0.02160   0.02221   0.02244   0.02287
     Eigenvalues ---    0.02306   0.02316   0.02324   0.02325   0.07224
     Eigenvalues ---    0.07643   0.13653   0.15894   0.15996   0.16000
     Eigenvalues ---    0.16000   0.16000   0.16000   0.16000   0.22052
     Eigenvalues ---    0.22365   0.23493   0.24600   0.24964   0.24982
     Eigenvalues ---    0.24990   0.24997   0.25000   0.32105   0.35045
     Eigenvalues ---    0.35140   0.35178   0.36047   0.36185   0.36192
     Eigenvalues ---    0.43019   0.43393   0.45394   0.46730   0.46862
     Eigenvalues ---    0.47539   0.48560   0.48885   0.49676   0.55829
     Eigenvalues ---    1.00732
 RFO step:  Lambda=-3.87793833D-03 EMin= 7.31355552D-03
 Linear search not attempted -- first point.
 Iteration  1 RMS(Cart)=  0.04759475 RMS(Int)=  0.00070013
 Iteration  2 RMS(Cart)=  0.00111810 RMS(Int)=  0.00005397
 Iteration  3 RMS(Cart)=  0.00000064 RMS(Int)=  0.00005396
 ITry= 1 IFail=0 DXMaxC= 1.43D-01 DCOld= 1.00D+10 DXMaxT= 3.00D-01 DXLimC= 3.00D+00 Rises=F
 Variable       Old X    -DE/DX   Delta X   Delta X   Delta X     New X
                                 (Linear)    (Quad)   (Total)
    R1        2.83953   0.00739   0.00000   0.02274   0.02274   2.86227
    R2        2.05387   0.00236   0.00000   0.00663   0.00663   2.06050
    R3        2.05602   0.00273   0.00000   0.00770   0.00770   2.06372
    R4        2.05447   0.00326   0.00000   0.00919   0.00919   2.06366
    R5        2.28347   0.02181   0.00000   0.02157   0.02157   2.30504
    R6        2.60194   0.01485   0.00000   0.02966   0.02966   2.63160
    R7        2.63317   0.01074   0.00000   0.02280   0.02280   2.65597
    R8        1.91520  -0.00088   0.00000  -0.00193  -0.00193   1.91327
    R9        2.63903   0.00718   0.00000   0.01505   0.01505   2.65407
   R10        2.64015   0.00386   0.00000   0.00753   0.00752   2.64767
   R11        2.60864   0.01130   0.00000   0.02323   0.02323   2.63188
   R12        2.04008   0.00453   0.00000   0.01244   0.01244   2.05252
   R13        2.61656   0.01076   0.00000   0.02284   0.02285   2.63941
   R14        2.03782   0.00366   0.00000   0.01001   0.01001   2.04783
   R15        3.98806   0.00756   0.00000   0.05383   0.05383   4.04189
   R16        2.61219   0.01053   0.00000   0.02182   0.02183   2.63401
   R17        2.61205   0.00750   0.00000   0.01491   0.01490   2.62696
   R18        2.03793   0.00328   0.00000   0.00896   0.00896   2.04689
   R19        2.54403   0.00228   0.00000   0.00405   0.00405   2.54808
    A1        1.88918  -0.00216   0.00000  -0.01272  -0.01268   1.87650
    A2        1.91294   0.00142   0.00000   0.00893   0.00892   1.92186
    A3        1.94985   0.00286   0.00000   0.01663   0.01663   1.96648
    A4        1.88539   0.00070   0.00000   0.00596   0.00599   1.89139
    A5        1.92065  -0.00041   0.00000  -0.00313  -0.00308   1.91756
    A6        1.90471  -0.00243   0.00000  -0.01577  -0.01582   1.88888
    A7        2.16042  -0.00450   0.00000  -0.01752  -0.01758   2.14284
    A8        2.04991   0.00207   0.00000   0.00840   0.00834   2.05825
    A9        2.07210   0.00243   0.00000   0.00984   0.00978   2.08188
   A10        2.28773   0.00026   0.00000   0.00166   0.00163   2.28936
   A11        1.96733  -0.00286   0.00000  -0.01653  -0.01658   1.95075
   A12        2.01420   0.00267   0.00000   0.01739   0.01736   2.03156
   A13        2.08519   0.00313   0.00000   0.01320   0.01316   2.09836
   A14        2.15577  -0.00318   0.00000  -0.01170  -0.01172   2.14405
   A15        2.04116   0.00003   0.00000  -0.00218  -0.00224   2.03892
   A16        2.12480   0.00060   0.00000   0.00279   0.00277   2.12757
   A17        2.07086  -0.00084   0.00000  -0.00469  -0.00469   2.06617
   A18        2.08751   0.00024   0.00000   0.00189   0.00189   2.08941
   A19        2.08604  -0.00131   0.00000  -0.00337  -0.00339   2.08264
   A20        2.09411   0.00032   0.00000  -0.00040  -0.00043   2.09369
   A21        2.10303   0.00099   0.00000   0.00372   0.00369   2.10672
   A22        2.09325   0.00063   0.00000   0.00144   0.00143   2.09468
   A23        2.10339  -0.00113   0.00000  -0.00224  -0.00226   2.10113
   A24        2.08645   0.00050   0.00000   0.00091   0.00091   2.08735
   A25        2.07829  -0.00041   0.00000  -0.00185  -0.00188   2.07641
   A26        2.12827   0.00110   0.00000   0.00631   0.00630   2.13458
   A27        2.07641  -0.00070   0.00000  -0.00467  -0.00468   2.07173
   A28        2.13167   0.00221   0.00000   0.00676   0.00672   2.13839
   A29        2.09899  -0.00390   0.00000  -0.01423  -0.01424   2.08475
   A30        2.05210   0.00169   0.00000   0.00778   0.00778   2.05988
    D1        0.45390   0.00026   0.00000   0.00216   0.00210   0.45600
    D2       -2.64524  -0.00012   0.00000  -0.01806  -0.01799  -2.66323
    D3       -1.59854  -0.00013   0.00000  -0.00268  -0.00271  -1.60125
    D4        1.58551  -0.00051   0.00000  -0.02290  -0.02280   1.56271
    D5        2.57126   0.00010   0.00000   0.00022   0.00011   2.57137
    D6       -0.52787  -0.00028   0.00000  -0.02000  -0.01998  -0.54785
    D7       -0.01932  -0.00045   0.00000  -0.00955  -0.00939  -0.02871
    D8        2.93207   0.00019   0.00000   0.00897   0.00901   2.94108
    D9       -3.12068  -0.00064   0.00000  -0.02803  -0.02806   3.13444
   D10       -0.16928  -0.00000   0.00000  -0.00950  -0.00967  -0.17895
   D11        2.32186  -0.00092   0.00000  -0.03930  -0.03922   2.28264
   D12       -0.87092  -0.00131   0.00000  -0.05568  -0.05562  -0.92654
   D13       -0.62546  -0.00110   0.00000  -0.05524  -0.05530  -0.68076
   D14        2.46494  -0.00148   0.00000  -0.07162  -0.07170   2.39324
   D15        3.13067  -0.00073   0.00000  -0.02594  -0.02609   3.10458
   D16       -0.01636  -0.00081   0.00000  -0.02954  -0.02964  -0.04600
   D17        0.03696  -0.00028   0.00000  -0.01031  -0.01035   0.02661
   D18       -3.11008  -0.00035   0.00000  -0.01391  -0.01389  -3.12397
   D19       -3.13962   0.00009   0.00000   0.00874   0.00862  -3.13100
   D20       -0.02986   0.00048   0.00000   0.02063   0.02049  -0.00937
   D21       -0.04802  -0.00020   0.00000  -0.00683  -0.00682  -0.05484
   D22        3.06174   0.00020   0.00000   0.00507   0.00505   3.06679
   D23       -0.00233   0.00040   0.00000   0.01540   0.01537   0.01304
   D24        3.13517   0.00008   0.00000   0.00218   0.00222   3.13739
   D25       -3.13843   0.00047   0.00000   0.01905   0.01897  -3.11945
   D26       -0.00093   0.00015   0.00000   0.00583   0.00583   0.00490
   D27        3.13318  -0.00028   0.00000  -0.01171  -0.01166   3.12152
   D28       -0.02358  -0.00006   0.00000  -0.00343  -0.00338  -0.02696
   D29       -0.00430   0.00005   0.00000   0.00158   0.00160  -0.00270
   D30        3.12213   0.00026   0.00000   0.00986   0.00988   3.13201
   D31        0.01301  -0.00031   0.00000  -0.01287  -0.01282   0.00018
   D32       -3.10627  -0.00003   0.00000  -0.00183  -0.00180  -3.10807
   D33        3.13949  -0.00010   0.00000  -0.00462  -0.00457   3.13492
   D34        0.02022   0.00019   0.00000   0.00643   0.00645   0.02667
   D35        0.02395   0.00048   0.00000   0.01832   0.01832   0.04227
   D36       -3.08663   0.00019   0.00000   0.00712   0.00699  -3.07963
   D37       -3.13930   0.00022   0.00000   0.00775   0.00784  -3.13145
   D38        0.03332  -0.00007   0.00000  -0.00346  -0.00349   0.02983
         Item               Value     Threshold  Converged?
 Maximum Force            0.021807     0.000450     NO 
 RMS     Force            0.004291     0.000300     NO 
 Maximum Displacement     0.143005     0.001800     NO 
 RMS     Displacement     0.047921     0.001200     NO 
 Predicted change in Energy=-1.996259D-03
 Lowest energy point so far.  Saving SCF results.
 GradGradGradGradGradGradGradGradGradGradGradGradGradGradGradGradGradGrad

 Leave Link  103 at Tue Sep 17 09:48:04 2024, MaxMem=  1342177280 cpu:               0.1 elap:               0.0
 (Enter /groups/ReismanLab/Software/Gaussian16_RevC/Linux_Binary_AVX2-enabled-CPU/g16/l202.exe)
                          Input orientation:                          
 ---------------------------------------------------------------------
 Center     Atomic      Atomic             Coordinates (Angstroms)
 Number     Number       Type             X           Y           Z
 ---------------------------------------------------------------------
      1          6           0       -4.390496   -0.242304   -1.031668
      2          6           0       -4.497976    0.620409    0.208627
      3          8           0       -5.565506    1.011783    0.650277
      4          7           0       -3.318222    0.996221    0.845992
      5          6           0       -1.975880    0.690481    0.563144
      6          6           0       -1.015321    1.713337    0.502790
      7          6           0        0.331166    1.445606    0.268301
      8          6           0        0.741949    0.125250    0.071515
      9         53           0        2.798378   -0.307437   -0.326816
     10          6           0       -0.180057   -0.917782    0.141036
     11          6           0       -1.511840   -0.622466    0.408606
     12          9           0       -2.373852   -1.650458    0.543910
     13          1           0       -5.265533   -0.039023   -1.649643
     14          1           0       -4.401660   -1.299017   -0.756249
     15          1           0       -3.479897   -0.047656   -1.602173
     16          1           0       -3.479512    1.713665    1.541936
     17          1           0       -1.344898    2.739651    0.636097
     18          1           0        1.045099    2.259658    0.224177
     19          1           0        0.109368   -1.954959    0.023774
 ---------------------------------------------------------------------
                    Distance matrix (angstroms):
                    1          2          3          4          5
     1  C    0.000000
     2  C    1.514647   0.000000
     3  O    2.404645   1.219773   0.000000
     4  N    2.491851   1.392583   2.255843   0.000000
     5  C    3.040376   2.547855   3.605030   1.405476   0.000000
     6  C    4.191766   3.661955   4.606312   2.436267   1.404475
     7  C    5.180063   4.899503   5.924934   3.722057   2.445323
     8  C    5.262518   5.265055   6.395693   4.224145   2.819180
     9  I    7.223639   7.374577   8.523473   6.363002   4.957964
    10  C    4.422590   4.584215   5.743310   3.742787   2.447379
    11  C    3.241230   3.240639   4.377371   2.464645   1.401087
    12  F    2.920992   3.127484   4.157582   2.826305   2.374604
    13  H    1.090370   2.115930   2.546332   3.330457   4.031181
    14  H    1.092073   2.150455   2.944936   3.001521   3.403426
    15  H    1.092042   2.182154   3.247416   2.666333   2.737793
    16  H    3.358443   2.002546   2.374671   1.012461   2.065393
    17  H    4.577026   3.823065   4.560620   2.641517   2.145357
    18  H    6.114136   5.780404   6.740834   4.584921   3.421042
    19  H    4.929090   5.281507   6.434148   4.597161   3.411383
                    6          7          8          9         10
     6  C    0.000000
     7  C    1.392728   0.000000
     8  C    2.407492   1.396713   0.000000
     9  I    4.395005   3.084551   2.138875   0.000000
    10  C    2.784119   2.421393   1.393859   3.076114   0.000000
    11  C    2.389849   2.773675   2.398390   4.383841   1.390126
    12  F    3.628004   4.120521   3.617252   5.414225   2.347735
    13  H    5.076223   6.099645   6.251337   8.176098   5.462675
    14  H    4.703908   5.566174   5.400966   7.280672   4.332712
    15  H    3.688645   4.500300   4.544789   6.411767   3.832081
    16  H    2.674334   4.026819   4.744042   6.854851   4.446733
    17  H    1.086145   2.149190   3.392458   5.232464   3.870239
    18  H    2.149749   1.083665   2.161228   3.157144   3.406471
    19  H    3.866624   3.416552   2.174789   3.173013   1.083168
                   11         12         13         14         15
    11  C    0.000000
    12  F    1.348384   0.000000
    13  H    4.320533   3.971173   0.000000
    14  H    3.188364   2.434323   1.769750   0.000000
    15  H    2.871740   2.897927   1.786288   1.769503   0.000000
    16  H    3.257864   3.679112   4.055608   3.899777   3.603841
    17  H    3.373937   4.510022   5.321374   5.252929   4.163791
    18  H    3.857277   5.203889   6.972748   6.579710   5.397670
    19  H    2.133530   2.555317   5.946486   4.624724   4.377709
                   16         17         18         19
    16  H    0.000000
    17  H    2.535699   0.000000
    18  H    4.744123   2.472278   0.000000
    19  H    5.351979   4.952695   4.321892   0.000000
 Stoichiometry    C8H7FINO
 Framework group  C1[X(C8H7FINO)]
 Deg. of freedom    51
 Full point group                 C1      NOp   1
 RotChk:  IX=0 Diff= 2.11D-02
 Largest Abelian subgroup         C1      NOp   1
 Largest concise Abelian subgroup C1      NOp   1
                         Standard orientation:                         
 ---------------------------------------------------------------------
 Center     Atomic      Atomic             Coordinates (Angstroms)
 Number     Number       Type             X           Y           Z
 ---------------------------------------------------------------------
      1          6           0        4.001766   -0.941817    1.211766
      2          6           0        4.288269    0.145466    0.196931
      3          8           0        5.419634    0.502001   -0.087218
      4          7           0        3.203563    0.773479   -0.409948
      5          6           0        1.820164    0.563553   -0.277650
      6          6           0        0.958678    1.649476   -0.051453
      7          6           0       -0.421409    1.487101    0.041751
      8          6           0       -0.969282    0.207833   -0.077067
      9         53           0       -3.082462   -0.071726    0.099283
     10          6           0       -0.147231   -0.891551   -0.318790
     11          6           0        1.223492   -0.693813   -0.439072
     12          9           0        1.992647   -1.758197   -0.745058
     13          1           0        4.840271   -0.969878    1.908206
     14          1           0        3.934973   -1.911709    0.714302
     15          1           0        3.071213   -0.773268    1.757859
     16          1           0        3.486557    1.599254   -0.922868
     17          1           0        1.393177    2.638595    0.060644
     18          1           0       -1.056569    2.346648    0.220856
     19          1           0       -0.541637   -1.892234   -0.446584
 ---------------------------------------------------------------------
 Rotational constants (GHZ):           2.1921213           0.2039521           0.1929893
 Leave Link  202 at Tue Sep 17 09:48:04 2024, MaxMem=  1342177280 cpu:               0.0 elap:               0.0
 (Enter /groups/ReismanLab/Software/Gaussian16_RevC/Linux_Binary_AVX2-enabled-CPU/g16/l301.exe)
 Basis read from rwf:  (5D, 7F)
 Pseudo-potential data read from rwf file.
 There are   208 symmetry adapted cartesian basis functions of A   symmetry.
 There are   197 symmetry adapted basis functions of A   symmetry.
   197 basis functions,   369 primitive gaussians,   208 cartesian basis functions
    43 alpha electrons       43 beta electrons
       nuclear repulsion energy       641.1214013758 Hartrees.
 IExCor=  402 DFT=T Ex+Corr=B3LYP ExCW=0 ScaHFX=  0.200000
 ScaDFX=  0.800000  0.720000  1.000000  0.810000 ScalE2=  1.000000  1.000000
 IRadAn=      5 IRanWt=     -1 IRanGd=            0 ICorTp=0 IEmpDi=141
 NAtoms=   19 NActive=   19 NUniq=   19 SFac= 1.00D+00 NAtFMM=   60 NAOKFM=F Big=F
 Integral buffers will be    131072 words long.
 Raffenetti 2 integral format.
 Two-electron integral symmetry is turned on.
 R6Disp:  Grimme-D3(BJ) Dispersion energy=       -0.0401879981 Hartrees.
 Nuclear repulsion after empirical dispersion term =      641.0812133777 Hartrees.
 No density basis found on file    724.
 Leave Link  301 at Tue Sep 17 09:48:04 2024, MaxMem=  1342177280 cpu:               0.1 elap:               0.1
 (Enter /groups/ReismanLab/Software/Gaussian16_RevC/Linux_Binary_AVX2-enabled-CPU/g16/l302.exe)
 NPDir=0 NMtPBC=     1 NCelOv=     1 NCel=       1 NClECP=     1 NCelD=      1
         NCelK=      1 NCelE2=     1 NClLst=     1 CellRange=     0.0.
 One-electron integrals computed using PRISM.
 One-electron integral symmetry used in STVInt
   1 Symmetry operations used in ECPInt.
 ECPInt:  NShTT=    2415 NPrTT=   13424 LenC2=    2304 LenP2D=    8631.
 LDataN:  DoStor=T MaxTD1= 5 Len=  102
 NBasis=   197 RedAO= T EigKep=  4.86D-04  NBF=   197
 NBsUse=   197 1.00D-06 EigRej= -1.00D+00 NBFU=   197
 Precomputing XC quadrature grid using
 IXCGrd= 4 IRadAn=           5 IRanWt=          -1 IRanGd=           0 AccXCQ= 0.00D+00.
 Defaulting to unpruned grid for atomic number  53.
 Generated NRdTot=       0 NPtTot=           0 NUsed=           0 NTot=          32
 NSgBfM=   208   208   208   208   208 MxSgAt=    19 MxSgA2=    19.
 Leave Link  302 at Tue Sep 17 09:48:04 2024, MaxMem=  1342177280 cpu:               1.0 elap:               0.2
 (Enter /groups/ReismanLab/Software/Gaussian16_RevC/Linux_Binary_AVX2-enabled-CPU/g16/l303.exe)
 DipDrv:  MaxL=1.
 Leave Link  303 at Tue Sep 17 09:48:04 2024, MaxMem=  1342177280 cpu:               0.1 elap:               0.0
 (Enter /groups/ReismanLab/Software/Gaussian16_RevC/Linux_Binary_AVX2-enabled-CPU/g16/l401.exe)
 Initial guess from the checkpoint file:  "smiles_00094_conf_3.chk"
 B after Tr=    -0.000000    0.000000    0.000000
         Rot=    0.999993    0.003758   -0.000146   -0.000056 Ang=   0.43 deg.
 Guess basis will be translated and rotated to current coordinates.
 JPrj=2 DoOrth=T DoCkMO=T.
 Generating alternative initial guess.
 ExpMin= 1.05D-01 ExpMax= 7.00D+03 ExpMxC= 1.05D+03 IAcc=3 IRadAn=         5 AccDes= 0.00D+00
 Harris functional with IExCor=  402 and IRadAn=       5 diagonalized for initial guess.
 HarFok:  IExCor=  402 AccDes= 0.00D+00 IRadAn=         5 IDoV= 1 UseB2=F ITyADJ=14
 ICtDFT=  3500011 ScaDFX=  1.000000  1.000000  1.000000  1.000000
 Defaulting to unpruned grid for atomic number  53.
 FoFCou: FMM=F IPFlag=           0 FMFlag=      100000 FMFlg1=           0
         NFxFlg=           0 DoJE=T BraDBF=F KetDBF=T FulRan=T
         wScrn=  0.000000 ICntrl=       500 IOpCl=  0 I1Cent=   200000004 NGrid=           0
         NMat0=    1 NMatS0=      1 NMatT0=    0 NMatD0=    1 NMtDS0=    0 NMtDT0=    0
 Petite list used in FoFCou.
 Harris En= -550.236936244238    
 Leave Link  401 at Tue Sep 17 09:48:05 2024, MaxMem=  1342177280 cpu:               3.8 elap:               0.5
 (Enter /groups/ReismanLab/Software/Gaussian16_RevC/Linux_Binary_AVX2-enabled-CPU/g16/l502.exe)
[...]
     18  H    Isotropic =    23.7684   Anisotropy =    11.4867
   XX=    27.0057   YX=     5.6349   ZX=    -0.0541
   XY=     4.6056   YY=    25.4939   ZY=     0.3163
   XZ=     0.0731   YZ=    -0.0548   ZZ=    18.8056
   Eigenvalues:    18.8011    21.0778    31.4262
     19  H    Isotropic =    23.7537   Anisotropy =    12.0767
   XX=    29.8679   YX=    -4.0973   ZX=    -1.6434
   XY=    -3.7362   YY=    22.4069   ZY=     0.9570
   XZ=    -1.4773   YZ=     1.0001   ZZ=    18.9864
   Eigenvalues:    18.6891    20.7673    31.8049
 End of Minotr F.D. properties file   721 does not exist.
 End of Minotr F.D. properties file   722 does not exist.
 End of Minotr F.D. properties file   788 does not exist.
 Leave Link 1002 at Tue Sep 17 10:53:11 2024, MaxMem=  1342177280 cpu:             725.0 elap:             726.6
 (Enter /groups/ReismanLab/Software/Gaussian16_RevC/Linux_Binary_AVX2-enabled-CPU/g16/l601.exe)
 Copying SCF densities to generalized density rwf, IOpCl= 0 IROHF=0.

 **********************************************************************

            Population analysis using the SCF Density.

 **********************************************************************

 Orbital symmetries:
       Occupied  (A) (A) (A) (A) (A) (A) (A) (A) (A) (A) (A) (A)
                 (A) (A) (A) (A) (A) (A) (A) (A) (A) (A) (A) (A)
                 (A) (A) (A) (A) (A) (A) (A) (A) (A) (A) (A) (A)
                 (A) (A) (A) (A) (A) (A) (A) (A) (A) (A) (A) (A)
                 (A) (A) (A) (A)
       Virtual   (A) (A) (A) (A) (A) (A) (A) (A) (A) (A) (A) (A)
                 (A) (A) (A) (A) (A) (A) (A) (A) (A) (A) (A) (A)
                 (A) (A) (A) (A) (A) (A) (A) (A) (A) (A) (A) (A)
                 (A) (A) (A) (A) (A) (A) (A) (A) (A) (A) (A) (A)
                 (A) (A) (A) (A) (A) (A) (A) (A) (A) (A) (A) (A)
                 (A) (A) (A) (A) (A) (A) (A) (A) (A) (A) (A) (A)
                 (A) (A) (A) (A) (A) (A) (A) (A) (A) (A) (A) (A)
                 (A) (A) (A) (A) (A) (A) (A) (A) (A) (A) (A) (A)
                 (A) (A) (A) (A) (A) (A) (A) (A) (A) (A) (A) (A)
                 (A) (A) (A) (A) (A) (A) (A) (A) (A) (A) (A) (A)
                 (A) (A) (A) (A) (A) (A) (A) (A) (A) (A) (A) (A)
                 (A) (A) (A) (A) (A) (A) (A) (A) (A) (A) (A) (A)
                 (A) (A) (A) (A) (A) (A) (A) (A) (A) (A) (A) (A)
                 (A) (A) (A) (A) (A) (A) (A) (A) (A) (A) (A) (A)
                 (A) (A) (A) (A) (A) (A) (A) (A) (A) (A) (A) (A)
                 (A) (A) (A) (A) (A) (A) (A) (A) (A) (A) (A) (A)
                 (A) (A) (A) (A) (A) (A) (A) (A) (A) (A) (A) (A)
                 (A) (A) (A) (A) (A) (A) (A) (A) (A) (A) (A) (A)
                 (A) (A) (A) (A) (A) (A) (A) (A) (A) (A) (A) (A)
                 (A) (A) (A) (A) (A) (A) (A) (A) (A) (A) (A) (A)
                 (A) (A) (A) (A) (A) (A) (A) (A) (A) (A) (A) (A)
                 (A) (A) (A) (A) (A) (A) (A) (A) (A) (A) (A) (A)
                 (A) (A) (A) (A) (A) (A) (A) (A) (A) (A) (A) (A)
                 (A) (A) (A) (A) (A) (A) (A) (A) (A) (A) (A) (A)
                 (A) (A) (A) (A) (A) (A) (A) (A) (A) (A) (A) (A)
                 (A) (A) (A) (A) (A) (A) (A) (A) (A) (A) (A) (A)
                 (A) (A) (A) (A) (A) (A) (A) (A) (A) (A) (A) (A)
                 (A) (A) (A) (A) (A) (A) (A) (A) (A) (A) (A) (A)
                 (A) (A) (A) (A) (A) (A) (A) (A) (A) (A) (A) (A)
                 (A) (A) (A) (A) (A) (A) (A) (A) (A) (A) (A) (A)
                 (A) (A) (A) (A) (A) (A) (A) (A) (A) (A) (A) (A)
                 (A) (A) (A) (A) (A) (A) (A) (A) (A)
 The electronic state is 1-A.
 Alpha  occ. eigenvalues --  -25.27771 -19.60028 -14.78573 -10.65554 -10.65185
 Alpha  occ. eigenvalues --  -10.61397 -10.61213 -10.57425 -10.57239 -10.57009
 Alpha  occ. eigenvalues --  -10.53851  -7.11375  -5.10739  -5.09667  -5.09661
 Alpha  occ. eigenvalues --   -2.07568  -2.07122  -2.07121  -2.06228  -2.06227
 Alpha  occ. eigenvalues --   -1.39234  -1.16803  -1.05632  -0.98330  -0.87648
 Alpha  occ. eigenvalues --   -0.87209  -0.83712  -0.79090  -0.73543  -0.71762
 Alpha  occ. eigenvalues --   -0.67626  -0.63518  -0.61345  -0.60197  -0.59308
 Alpha  occ. eigenvalues --   -0.55617  -0.53821  -0.52737  -0.52190  -0.50902
 Alpha  occ. eigenvalues --   -0.48535  -0.46709  -0.46414  -0.45880  -0.43678
 Alpha  occ. eigenvalues --   -0.40861  -0.38265  -0.34146  -0.33786  -0.33071
 Alpha  occ. eigenvalues --   -0.32986  -0.29291
 Alpha virt. eigenvalues --   -0.01432  -0.01337   0.00183   0.05930   0.06923
 Alpha virt. eigenvalues --    0.08950   0.09557   0.11294   0.12579   0.13441
 Alpha virt. eigenvalues --    0.14419   0.15176   0.15512   0.16552   0.16892
 Alpha virt. eigenvalues --    0.18026   0.19067   0.19490   0.20626   0.21178
 Alpha virt. eigenvalues --    0.21375   0.22067   0.23075   0.23250   0.24010
 Alpha virt. eigenvalues --    0.24675   0.25224   0.26794   0.27535   0.28137
 Alpha virt. eigenvalues --    0.29099   0.30384   0.31551   0.33057   0.33622
 Alpha virt. eigenvalues --    0.35609   0.35866   0.36119   0.36431   0.37477
 Alpha virt. eigenvalues --    0.38226   0.40185   0.40449   0.41331   0.41903
 Alpha virt. eigenvalues --    0.42841   0.43518   0.44016   0.44773   0.45620
 Alpha virt. eigenvalues --    0.46577   0.47044   0.47210   0.48754   0.49588
 Alpha virt. eigenvalues --    0.50382   0.51149   0.52145   0.53222   0.53694
 Alpha virt. eigenvalues --    0.54647   0.55305   0.57222   0.58665   0.59920
 Alpha virt. eigenvalues --    0.61529   0.63698   0.63970   0.65846   0.66347
 Alpha virt. eigenvalues --    0.68001   0.68147   0.69233   0.69993   0.70708
 Alpha virt. eigenvalues --    0.72608   0.73208   0.76167   0.76225   0.77521
 Alpha virt. eigenvalues --    0.78285   0.79567   0.81830   0.82948   0.83266
 Alpha virt. eigenvalues --    0.83882   0.84876   0.87315   0.88773   0.89690
 Alpha virt. eigenvalues --    0.91430   0.92947   0.93142   0.94039   0.94652
 Alpha virt. eigenvalues --    0.95169   0.95970   0.96601   0.97398   0.98725
 Alpha virt. eigenvalues --    1.00053   1.00864   1.03752   1.05325   1.05978
 Alpha virt. eigenvalues --    1.08170   1.10993   1.12554   1.13069   1.14504
 Alpha virt. eigenvalues --    1.15898   1.18236   1.19265   1.20226   1.22180
 Alpha virt. eigenvalues --    1.22413   1.24518   1.25744   1.27279   1.27822
 Alpha virt. eigenvalues --    1.29676   1.30905   1.31425   1.33597   1.35201
 Alpha virt. eigenvalues --    1.36704   1.39624   1.40559   1.42312   1.42793
 Alpha virt. eigenvalues --    1.44145   1.44426   1.47645   1.48181   1.49479
 Alpha virt. eigenvalues --    1.50679   1.52175   1.53418   1.54363   1.54465
 Alpha virt. eigenvalues --    1.55178   1.56524   1.56850   1.58558   1.60487
 Alpha virt. eigenvalues --    1.61723   1.62231   1.64103   1.64743   1.66125
 Alpha virt. eigenvalues --    1.67890   1.68501   1.69171   1.70942   1.71955
 Alpha virt. eigenvalues --    1.76393   1.77318   1.79699   1.82457   1.84541
 Alpha virt. eigenvalues --    1.85971   1.88216   1.89643   1.90075   1.91647
 Alpha virt. eigenvalues --    1.94621   1.97167   1.97966   2.00675   2.02280
 Alpha virt. eigenvalues --    2.05710   2.06491   2.09253   2.09704   2.13366
 Alpha virt. eigenvalues --    2.14258   2.15412   2.17325   2.19184   2.20184
 Alpha virt. eigenvalues --    2.21020   2.22679   2.23344   2.23683   2.27805
 Alpha virt. eigenvalues --    2.29851   2.33204   2.34856   2.36639   2.38191
 Alpha virt. eigenvalues --    2.41043   2.42831   2.44813   2.47606   2.50298
 Alpha virt. eigenvalues --    2.52067   2.53233   2.55058   2.56721   2.57049
 Alpha virt. eigenvalues --    2.58209   2.59788   2.61477   2.62603   2.63714
 Alpha virt. eigenvalues --    2.66278   2.66859   2.68346   2.68576   2.71139
 Alpha virt. eigenvalues --    2.72159   2.73834   2.74946   2.78238   2.78688
 Alpha virt. eigenvalues --    2.80203   2.81883   2.83463   2.85473   2.86719
 Alpha virt. eigenvalues --    2.87697   2.88552   2.89411   2.91922   2.92751
 Alpha virt. eigenvalues --    2.96402   2.96872   2.98510   3.00675   3.00783
 Alpha virt. eigenvalues --    3.03180   3.04559   3.06783   3.07348   3.08416
 Alpha virt. eigenvalues --    3.10050   3.10204   3.11189   3.12348   3.13033
 Alpha virt. eigenvalues --    3.14797   3.14941   3.16311   3.16801   3.17169
 Alpha virt. eigenvalues --    3.18729   3.19033   3.19820   3.21043   3.22020
 Alpha virt. eigenvalues --    3.23019   3.23618   3.25355   3.27526   3.27927
 Alpha virt. eigenvalues --    3.29360   3.31482   3.31992   3.33672   3.35289
 Alpha virt. eigenvalues --    3.36533   3.38048   3.39492   3.39838   3.41170
 Alpha virt. eigenvalues --    3.41783   3.42717   3.43716   3.45854   3.46968
 Alpha virt. eigenvalues --    3.48346   3.50273   3.51111   3.52510   3.53418
 Alpha virt. eigenvalues --    3.55328   3.57005   3.59524   3.60551   3.66884
 Alpha virt. eigenvalues --    3.67805   3.69754   3.74276   3.76219   3.77310
 Alpha virt. eigenvalues --    3.81680   3.83617   3.84729   3.88206   3.90726
 Alpha virt. eigenvalues --    3.93866   3.96245   3.97121   3.99127   4.01061
 Alpha virt. eigenvalues --    4.03711   4.06467   4.09104   4.10413   4.13309
 Alpha virt. eigenvalues --    4.13898   4.15234   4.17472   4.19256   4.21220
 Alpha virt. eigenvalues --    4.22395   4.27457   4.30628   4.36102   4.37758
 Alpha virt. eigenvalues --    4.39199   4.44108   4.45559   4.46782   4.52527
 Alpha virt. eigenvalues --    4.54377   4.58456   4.59300   4.65396   4.68264
 Alpha virt. eigenvalues --    4.70536   4.73044   4.76604   4.78788   4.84023
 Alpha virt. eigenvalues --    4.86374   4.99639   5.01694   5.05749   5.13898
 Alpha virt. eigenvalues --    5.16540   5.16943   5.19702   5.22364   5.25712
 Alpha virt. eigenvalues --    5.31930   5.34650   5.35435   5.47536   5.52025
 Alpha virt. eigenvalues --    5.64209   5.68914   5.74069   5.79233   5.96965
 Alpha virt. eigenvalues --    6.11793   6.32715   6.40369   6.51914   6.65623
 Alpha virt. eigenvalues --    6.81688   6.89544   6.91034   6.99961   7.02161
 Alpha virt. eigenvalues --    7.06256   7.09025   7.23479   7.39851   7.55871
 Alpha virt. eigenvalues --    8.37380   8.53129   8.75321   8.96617   9.00783
 Alpha virt. eigenvalues --   22.17762  22.48466  22.68235  22.72667  22.87399
 Alpha virt. eigenvalues --   22.92473  23.33498  23.35897  32.74158  34.47293
 Alpha virt. eigenvalues --   34.55208  34.80880  42.86072  44.02585  57.55743
 Alpha virt. eigenvalues --  117.57688
          Condensed to atoms (all electrons):
               1          2          3          4          5          6
     1  C    5.346888   0.260994  -0.099764  -0.142469   0.024864  -0.002456
     2  C    0.260994   4.508501   0.699197   0.349610  -0.055236   0.007308
     3  O   -0.099764   0.699197   7.894012  -0.129639  -0.000297  -0.000018
     4  N   -0.142469   0.349610  -0.129639   6.758325   0.186541  -0.036133
     5  C    0.024864  -0.055236  -0.000297   0.186541   5.380343   0.300365
     6  C   -0.002456   0.007308  -0.000018  -0.036133   0.300365   5.151978
     7  C    0.001364   0.000227   0.000012   0.007585   0.024924   0.327922
     8  C   -0.000625   0.000001   0.000005   0.000812  -0.120813   0.048810
     9  I   -0.000008   0.000005   0.000000  -0.000048  -0.005949   0.026791
    10  C    0.002218   0.000047  -0.000075   0.010287   0.043658  -0.132937
    11  C   -0.018881  -0.015785  -0.000709  -0.010589   0.257477   0.113422
    12  F   -0.008866   0.010205  -0.000073  -0.001676  -0.066793   0.010909
    13  H    0.386823  -0.027500   0.007032   0.007725  -0.001472  -0.000051
    14  H    0.376396  -0.019024   0.002985   0.005760  -0.015439   0.000561
    15  H    0.378488  -0.035642   0.004071   0.001323   0.002496  -0.000240
    16  H    0.014866  -0.025452   0.011517   0.357224  -0.036923  -0.003056
    17  H   -0.000379  -0.000352  -0.000272   0.010318  -0.030781   0.388968
    18  H    0.000013  -0.000025  -0.000000  -0.000303   0.008850  -0.031517
    19  H    0.000008  -0.000034  -0.000001  -0.000013   0.019026  -0.006354
               7          8          9         10         11         12
     1  C    0.001364  -0.000625  -0.000008   0.002218  -0.018881  -0.008866
     2  C    0.000227   0.000001   0.000005   0.000047  -0.015785   0.010205
     3  O    0.000012   0.000005   0.000000  -0.000075  -0.000709  -0.000073
     4  N    0.007585   0.000812  -0.000048   0.010287  -0.010589  -0.001676
     5  C    0.024924  -0.120813  -0.005949   0.043658   0.257477  -0.066793
     6  C    0.327922   0.048810   0.026791  -0.132937   0.113422   0.010909
     7  C    5.261818   0.368534  -0.096659   0.018353  -0.128803  -0.000900
     8  C    0.368534   5.012537   0.340338   0.289937   0.068045   0.007889
     9  I   -0.096659   0.340338  24.904041  -0.090781   0.025318  -0.000256
    10  C    0.018353   0.289937  -0.090781   5.375821   0.334022  -0.041195
    11  C   -0.128803   0.068045   0.025318   0.334022   4.915294   0.239165
    12  F   -0.000900   0.007889  -0.000256  -0.041195   0.239165   9.049845
    13  H   -0.000031   0.000010   0.000000  -0.000024   0.001266   0.000539
    14  H    0.000025   0.000194   0.000002   0.001265   0.000625   0.003427
    15  H   -0.000824   0.001082   0.000000  -0.003421   0.004327  -0.000334
    16  H    0.002167  -0.000623  -0.000006   0.000730  -0.009373  -0.000198
    17  H   -0.007361   0.000969  -0.000267   0.000696   0.001837  -0.000035
    18  H    0.417009  -0.048272  -0.011759   0.012140  -0.003071   0.000011
    19  H    0.014520  -0.052095  -0.013214   0.419997  -0.043012   0.002180
              13         14         15         16         17         18
     1  C    0.386823   0.376396   0.378488   0.014866  -0.000379   0.000013
     2  C   -0.027500  -0.019024  -0.035642  -0.025452  -0.000352  -0.000025
     3  O    0.007032   0.002985   0.004071   0.011517  -0.000272  -0.000000
     4  N    0.007725   0.005760   0.001323   0.357224   0.010318  -0.000303
     5  C   -0.001472  -0.015439   0.002496  -0.036923  -0.030781   0.008850
     6  C   -0.000051   0.000561  -0.000240  -0.003056   0.388968  -0.031517
     7  C   -0.000031   0.000025  -0.000824   0.002167  -0.007361   0.417009
     8  C    0.000010   0.000194   0.001082  -0.000623   0.000969  -0.048272
     9  I    0.000000   0.000002   0.000000  -0.000006  -0.000267  -0.011759
    10  C   -0.000024   0.001265  -0.003421   0.000730   0.000696   0.012140
    11  C    0.001266   0.000625   0.004327  -0.009373   0.001837  -0.003071
    12  F    0.000539   0.003427  -0.000334  -0.000198  -0.000035   0.000011
    13  H    0.476257  -0.008680  -0.012536  -0.000469   0.000011   0.000000
    14  H   -0.008680   0.480548  -0.021672  -0.000735   0.000021  -0.000002
    15  H   -0.012536  -0.021672   0.499507  -0.001028   0.000285  -0.000001
    16  H   -0.000469  -0.000735  -0.001028   0.420950  -0.000045   0.000012
    17  H    0.000011   0.000021   0.000285  -0.000045   0.450557  -0.002522
    18  H    0.000000  -0.000002  -0.000001   0.000012  -0.002522   0.467940
    19  H   -0.000000   0.000003  -0.000032   0.000023   0.000035   0.000110
              19
     1  C    0.000008
     2  C   -0.000034
     3  O   -0.000001
     4  N   -0.000013
     5  C    0.019026
     6  C   -0.006354
     7  C    0.014520
     8  C   -0.052095
     9  I   -0.013214
    10  C    0.419997
    11  C   -0.043012
    12  F    0.002180
    13  H   -0.000000
    14  H    0.000003
    15  H   -0.000032
    16  H    0.000023
    17  H    0.000035
    18  H    0.000110
    19  H    0.460382
 Mulliken charges:
               1
     1  C   -0.519475
     2  C    0.342955
     3  O   -0.387983
     4  N   -0.374640
     5  C    0.085159
     6  C   -0.164274
     7  C   -0.209881
     8  C    0.083264
     9  I   -0.077549
    10  C   -0.240740
    11  C    0.269426
    12  F   -0.203843
    13  H    0.171101
    14  H    0.193740
    15  H    0.184151
    16  H    0.270417
    17  H    0.188317
    18  H    0.191387
    19  H    0.198471
 Sum of Mulliken charges =   0.00000
 Mulliken charges with hydrogens summed into heavy atoms:
               1
     1  C    0.029516
     2  C    0.342955
     3  O   -0.387983
     4  N   -0.104223
     5  C    0.085159
     6  C    0.024043
     7  C   -0.018494
     8  C    0.083264
     9  I   -0.077549
    10  C   -0.042270
    11  C    0.269426
    12  F   -0.203843
 Electronic spatial extent (au):  <R**2>=           3809.3424
 Charge=              0.0000 electrons
 Dipole moment (field-independent basis, Debye):
    X=             -3.2503    Y=              1.1096    Z=              0.6270  Tot=              3.4912
 Quadrupole moment (field-independent basis, Debye-Ang):
   XX=           -120.7361   YY=            -82.9422   ZZ=            -89.8419
   XY=              0.0950   XZ=              2.7363   YZ=             -2.2082
 Traceless Quadrupole moment (field-independent basis, Debye-Ang):
   XX=            -22.8960   YY=             14.8979   ZZ=              7.9982
   XY=              0.0950   XZ=              2.7363   YZ=             -2.2082
 Octapole moment (field-independent basis, Debye-Ang**2):
  XXX=           -351.2225  YYY=              0.4427  ZZZ=              1.3613  XYY=            -34.7430
  XXY=            -22.2209  XXZ=             16.5099  XZZ=            -28.2294  YZZ=             -4.3199
  YYZ=             -0.8950  XYZ=            -11.4416
 Hexadecapole moment (field-independent basis, Debye-Ang**3):
 XXXX=          -5808.7869 YYYY=           -484.1151 ZZZZ=           -242.8383 XXXY=           -122.6092
 XXXZ=             32.5593 YYYX=             15.3779 YYYZ=              5.7417 ZZZX=            -24.5575
 ZZZY=              3.3051 XXYY=           -825.4606 XXZZ=           -762.6772 YYZZ=           -131.5681
 XXYZ=            -34.5474 YYXZ=            -15.8031 ZZXY=              3.7210
 N-N= 8.093237914150D+02 E-N=-3.509236828253D+03  KE= 6.496752233691D+02
 Calculating spin-rotation constants.
 Leave Link  601 at Tue Sep 17 10:53:15 2024, MaxMem=  1342177280 cpu:               3.6 elap:               3.6
 (Enter /groups/ReismanLab/Software/Gaussian16_RevC/Linux_Binary_AVX2-enabled-CPU/g16/l9999.exe)
 Unable to Open any file for archive entry.
 1\1\GINC-HPC-34-20\SP\RM062X\def2TZVP\C8H7F1I1N1O1\MANTIND\17-Sep-2024
 \0\\#p M062X/def2tzvp geom=check guess=read scf(xqc,tight) integral(gr
 id=ultrafine) scrf(SMD, solvent=1,4-Dioxane) nmr=giao\\spe\\0,1\C,0,-4
 .3008246411,-0.16369752,-1.0686821278\C,0,-4.4844718452,0.6241822985,0
 .2111005086\O,0,-5.575472767,0.9747872138,0.6290923422\N,0,-3.33705300
 58,0.9687671952,0.913105132\C,0,-1.9930104678,0.679601515,0.6040901404
 \C,0,-1.0506047229,1.7046769782,0.4576260925\C,0,0.2901680111,1.430763
 0832,0.1941108396\C,0,0.6968888898,0.104269328,0.0551312611\I,0,2.7408
 928314,-0.3367253107,-0.3779126329\C,0,-0.2100134463,-0.9436419265,0.1
 959789467\C,0,-1.5329035811,-0.6378209569,0.4877383398\F,0,-2.39858041
 33,-1.6545393382,0.6667062207\H,0,-5.2141968443,-0.0653135146,-1.65421
 28552\H,0,-4.1361109065,-1.2188711876,-0.8379691065\H,0,-3.4434617453,
 0.1895652792,-1.6483089213\H,0,-3.5227194951,1.5861572491,1.6933997352
 \H,0,-1.3870648858,2.7329699402,0.5465529959\H,0,0.9996627618,2.241888
 88,0.0858646088\H,0,0.0841866986,-1.9820594269,0.1102224261\\Version=E
 S64L-G16RevC.02\State=1-A\HF=-836.5284563\RMSD=2.986e-09\Dipole=1.2983
 236,0.3400592,-0.2921469\Quadrupole=-16.218523,10.205568,6.0129549,2.5
 414691,4.3378264,1.9479623\PG=C01 [X(C8H7F1I1N1O1)]\\@
 The archive entry for this job was punched.


 I DO NOT DEFINE TIME, SPACE, PLACE, AND MOTION, AS BEING WELL KNOWN TO ALL.
                                            -- NEWTON (1642-1726), PRINCIPIA
 Job cpu time:       0 days  0 hours 13 minutes 21.3 seconds.
 Elapsed time:       0 days  0 hours 13 minutes 24.0 seconds.
 File lengths (MBytes):  RWF=    288 Int=      0 D2E=      0 Chk=     32 Scr=     16
 Normal termination of Gaussian 16 at Tue Sep 17 10:53:15 2024.
