 Entering Gaussian System, Link 0=g16
 Input=smiles_00089_conf_0.gjf
 Output=smiles_00089_conf_0.log
 Initial command:
 /groups/ReismanLab/Software/Gaussian16_RevC/Linux_Binary_AVX2-enabled-CPU/g16/l1.exe "/central/groups/ReismanLab/DM/dft_final/smiles_00089/Gau-1810159.inp" -scrdir="/central/groups/ReismanLab/DM/dft_final/smiles_00089/"
 Entering Link 1 = /groups/ReismanLab/Software/Gaussian16_RevC/Linux_Binary_AVX2-enabled-CPU/g16/l1.exe PID=   1810160.
  
 Copyright (c) 1988-2021, Gaussian, Inc.  All Rights Reserved.
  
 This is part of the Gaussian(R) 16 program.  It is based on
 the Gaussian(R) 09 system (copyright 2009, Gaussian, Inc.),
 the Gaussian(R) 03 system (copyright 2003, Gaussian, Inc.),
 the Gaussian(R) 98 system (copyright 1998, Gaussian, Inc.),
 the Gaussian(R) 94 system (copyright 1995, Gaussian, Inc.),
 the Gaussian 92(TM) system (copyright 1992, Gaussian, Inc.),
 the Gaussian 90(TM) system (copyright 1990, Gaussian, Inc.),
 the Gaussian 88(TM) system (copyright 1988, Gaussian, Inc.),
 the Gaussian 86(TM) system (copyright 1986, Carnegie Mellon
 University), and the Gaussian 82(TM) system (copyright 1983,
 Carnegie Mellon University). Gaussian is a federally registered
 trademark of Gaussian, Inc.
  
 This software contains proprietary and confidential information,
 including trade secrets, belonging to Gaussian, Inc.
  
 This software is provided under written license and may be
 used, copied, transmitted, or stored only in accord with that
 written license.
  
 The following legend is applicable only to US Government
 contracts under FAR:
  
                    RESTRICTED RIGHTS LEGEND
  
 Use, reproduction and disclosure by the US Government is
 subject to restrictions as set forth in subparagraphs (a)
 and (c) of the Commercial Computer Software - Restricted
 Rights clause in FAR 52.227-19.
  
 Gaussian, Inc.
 340 Quinnipiac St., Bldg. 40, Wallingford CT 06492
  
  
 ---------------------------------------------------------------
 Warning -- This program may not be used in any manner that
 competes with the business of Gaussian, Inc. or will provide
 assistance to any competitor of Gaussian, Inc.  The licensee
 of this program is prohibited from giving any competitor of
 Gaussian, Inc. access to this program.  By using this program,
 the user acknowledges that Gaussian, Inc. is engaged in the
 business of creating and licensing software in the field of
 computational chemistry and represents and warrants to the
 licensee that it is not a competitor of Gaussian, Inc. and that
 it will not use this program in any manner prohibited above.
 ---------------------------------------------------------------
  

 Cite this work as:
 Gaussian 16, Revision C.02,
 M. J. Frisch, G. W. Trucks, H. B. Schlegel, G. E. Scuseria, 
 M. A. Robb, J. R. Cheeseman, G. Scalmani, V. Barone, 
 G. A. Petersson, H. Nakatsuji, X. Li, M. Caricato, A. V. Marenich, 
 J. Bloino, B. G. Janesko, R. Gomperts, B. Mennucci, H. P. Hratchian, 
 J. V. Ortiz, A. F. Izmaylov, J. L. Sonnenberg, D. Williams-Young, 
 F. Ding, F. Lipparini, F. Egidi, J. Goings, B. Peng, A. Petrone, 
 T. Henderson, D. Ranasinghe, V. G. Zakrzewski, J. Gao, N. Rega, 
 G. Zheng, W. Liang, M. Hada, M. Ehara, K. Toyota, R. Fukuda, 
 J. Hasegawa, M. Ishida, T. Nakajima, Y. Honda, O. Kitao, H. Nakai, 
 T. Vreven, K. Throssell, J. A. Montgomery, Jr., J. E. Peralta, 
 F. Ogliaro, M. J. Bearpark, J. J. Heyd, E. N. Brothers, K. N. Kudin, 
 V. N. Staroverov, T. A. Keith, R. Kobayashi, J. Normand, 
 K. Raghavachari, A. P. Rendell, J. C. Burant, S. S. Iyengar, 
 J. Tomasi, M. Cossi, J. M. Millam, M. Klene, C. Adamo, R. Cammi, 
 J. W. Ochterski, R. L. Martin, K. Morokuma, O. Farkas, 
 J. B. Foresman, and D. J. Fox, Gaussian, Inc., Wallingford CT, 2019.
 
 ******************************************
 Gaussian 16:  ES64L-G16RevC.02  7-Dec-2021
                17-Sep-2024 
 ******************************************
 %nprocshared=8
 Will use up to    8 processors via shared memory.
 %Mem=10GB
 %Chk=smiles_00089_conf_0.chk
 ----------------------------------------------------------------------
 #p B3LYP/gen pseudo=read EmpiricalDispersion=GD3BJ opt freq scf(xqc,ti
 ght) integral(grid=ultrafine)
 ----------------------------------------------------------------------
 1/18=20,19=15,26=4,38=1/1,3;
 2/9=110,12=2,17=6,18=5,40=1/2;
 3/5=7,11=2,16=1,17=8,25=1,30=1,71=1,74=-5,75=-5,124=41/1,2,3;
 4//1;
 5/5=2,8=3,13=1,32=2,38=5/2,8;
 6/7=2,8=2,9=2,10=2,28=1/1;
 7//1,2,3,16;
 1/18=20,19=15,26=4/3(2);
 2/9=110/2;
 99//99;
 2/9=110/2;
 3/5=7,6=1,11=2,16=1,17=8,25=1,30=1,71=1,74=-5,75=-5,82=7,124=41/1,2,3;
 4/5=5,16=3,69=1/1;
 5/5=2,8=3,13=1,32=2,38=5/2,8;
 7//1,2,3,16;
 1/18=20,19=15,26=4/3(-5);
 2/9=110/2;
 6/7=2,8=2,9=2,10=2,19=2,28=1/1;
 99/9=1/99;
 Leave Link    1 at Tue Sep 17 09:46:37 2024, MaxMem=  1342177280 cpu:               0.2 elap:               0.9
 (Enter /groups/ReismanLab/Software/Gaussian16_RevC/Linux_Binary_AVX2-enabled-CPU/g16/l101.exe)
 ----------------------------------
 opt-freq conformers_unique/conf_aa
 ----------------------------------
 Symbolic Z-matrix:
 Charge =  0 Multiplicity = 1
 C                    -5.74684   0.83988  -0.00025 
 O                    -4.32751   0.88018  -0.0011 
 C                    -3.71068  -0.30982   0.00029 
 O                    -4.30105  -1.36164   0.00173 
 C                    -2.23147  -0.1844   -0.00023 
 C                    -1.47169  -1.35185  -0.00098 
 C                    -0.09205  -1.28837  -0.00099 
 C                     0.52487  -0.04859  -0.0003 
 I                     2.636     0.06021   0.00008 
 C                    -0.21451   1.1225    0.00048 
 C                    -1.59482   1.05362   0.00048 
 H                    -6.11155   0.3116   -0.88354 
 H                    -6.11073   0.32431   0.89087 
 H                    -6.08038   1.87426  -0.00738 
 H                    -1.98133  -2.30338  -0.00165 
 H                     0.49536  -2.19354  -0.00193 
 H                     0.28081   2.08134   0.00094 
 H                    -2.18245   1.95784   0.00104 
 
 ITRead=  0  0  0  0  0  0  0  0  0  0  0  0  0  0  0  0  0  0
 MicOpt= -1 -1 -1 -1 -1 -1 -1 -1 -1 -1 -1 -1 -1 -1 -1 -1 -1 -1
 NAtoms=     18 NQM=       18 NQMF=       0 NMMI=      0 NMMIF=      0
                NMic=       0 NMicF=      0.
                    Isotopes and Nuclear Properties:
 (Nuclear quadrupole moments (NQMom) in fm**2, nuclear magnetic moments (NMagM)
  in nuclear magnetons)

  Atom         1           2           3           4           5           6           7           8           9          10
 IAtWgt=          12          16          12          16          12          12          12          12         127          12
 AtmWgt=  12.0000000  15.9949146  12.0000000  15.9949146  12.0000000  12.0000000  12.0000000  12.0000000 126.9004000  12.0000000
 NucSpn=           0           0           0           0           0           0           0           0           5           0
 AtZEff=  -0.0000000  -0.0000000  -0.0000000  -0.0000000  -0.0000000  -0.0000000  -0.0000000  -0.0000000  -0.0000000  -0.0000000
 NQMom=    0.0000000   0.0000000   0.0000000   0.0000000   0.0000000   0.0000000   0.0000000   0.0000000 -71.0000000   0.0000000
 NMagM=    0.0000000   0.0000000   0.0000000   0.0000000   0.0000000   0.0000000   0.0000000   0.0000000   2.8132800   0.0000000
 AtZNuc=   6.0000000   8.0000000   6.0000000   8.0000000   6.0000000   6.0000000   6.0000000   6.0000000  53.0000000   6.0000000

  Atom        11          12          13          14          15          16          17          18
 IAtWgt=          12           1           1           1           1           1           1           1
 AtmWgt=  12.0000000   1.0078250   1.0078250   1.0078250   1.0078250   1.0078250   1.0078250   1.0078250
 NucSpn=           0           1           1           1           1           1           1           1
 AtZEff=  -0.0000000  -0.0000000  -0.0000000  -0.0000000  -0.0000000  -0.0000000  -0.0000000  -0.0000000
 NQMom=    0.0000000   0.0000000   0.0000000   0.0000000   0.0000000   0.0000000   0.0000000   0.0000000
 NMagM=    0.0000000   2.7928460   2.7928460   2.7928460   2.7928460   2.7928460   2.7928460   2.7928460
 AtZNuc=   6.0000000   1.0000000   1.0000000   1.0000000   1.0000000   1.0000000   1.0000000   1.0000000
 Leave Link  101 at Tue Sep 17 09:46:38 2024, MaxMem=  1342177280 cpu:               0.2 elap:               0.3
 (Enter /groups/ReismanLab/Software/Gaussian16_RevC/Linux_Binary_AVX2-enabled-CPU/g16/l103.exe)

 GradGradGradGradGradGradGradGradGradGradGradGradGradGradGradGradGradGrad
 Berny optimization.
 Initialization pass.
                           ----------------------------
                           !    Initial Parameters    !
                           ! (Angstroms and Degrees)  !
 --------------------------                            --------------------------
 ! Name  Definition              Value          Derivative Info.                !
 --------------------------------------------------------------------------------
 ! R1    R(1,2)                  1.4199         estimate D2E/DX2                !
 ! R2    R(1,12)                 1.0919         estimate D2E/DX2                !
 ! R3    R(1,13)                 1.0919         estimate D2E/DX2                !
 ! R4    R(1,14)                 1.0868         estimate D2E/DX2                !
 ! R5    R(2,3)                  1.3404         estimate D2E/DX2                !
 ! R6    R(3,4)                  1.2062         estimate D2E/DX2                !
 ! R7    R(3,5)                  1.4845         estimate D2E/DX2                !
 ! R8    R(5,6)                  1.3929         estimate D2E/DX2                !
 ! R9    R(5,11)                 1.3921         estimate D2E/DX2                !
 ! R10   R(6,7)                  1.3811         estimate D2E/DX2                !
 ! R11   R(6,15)                 1.0794         estimate D2E/DX2                !
 ! R12   R(7,8)                  1.3848         estimate D2E/DX2                !
 ! R13   R(7,16)                 1.0791         estimate D2E/DX2                !
 ! R14   R(8,9)                  2.1139         estimate D2E/DX2                !
 ! R15   R(8,10)                 1.385          estimate D2E/DX2                !
 ! R16   R(10,11)                1.382          estimate D2E/DX2                !
 ! R17   R(10,17)                1.0792         estimate D2E/DX2                !
 ! R18   R(11,18)                1.0784         estimate D2E/DX2                !
 ! A1    A(2,1,12)             110.3108         estimate D2E/DX2                !
 ! A2    A(2,1,13)             110.3045         estimate D2E/DX2                !
 ! A3    A(2,1,14)             106.2455         estimate D2E/DX2                !
 ! A4    A(12,1,13)            108.688          estimate D2E/DX2                !
 ! A5    A(12,1,14)            110.6489         estimate D2E/DX2                !
 ! A6    A(13,1,14)            110.6375         estimate D2E/DX2                !
 ! A7    A(1,2,3)              115.7733         estimate D2E/DX2                !
 ! A8    A(2,3,4)              123.2958         estimate D2E/DX2                !
 ! A9    A(2,3,5)              112.5535         estimate D2E/DX2                !
 ! A10   A(4,3,5)              124.1507         estimate D2E/DX2                !
 ! A11   A(3,5,6)              118.2102         estimate D2E/DX2                !
 ! A12   A(3,5,11)             122.0604         estimate D2E/DX2                !
 ! A13   A(6,5,11)             119.7294         estimate D2E/DX2                !
 ! A14   A(5,6,7)              120.4219         estimate D2E/DX2                !
 ! A15   A(5,6,15)             118.7704         estimate D2E/DX2                !
 ! A16   A(7,6,15)             120.8077         estimate D2E/DX2                !
 ! A17   A(6,7,8)              119.0897         estimate D2E/DX2                !
 ! A18   A(6,7,16)             120.3469         estimate D2E/DX2                !
 ! A19   A(8,7,16)             120.5634         estimate D2E/DX2                !
 ! A20   A(7,8,9)              119.4054         estimate D2E/DX2                !
 ! A21   A(7,8,10)             121.278          estimate D2E/DX2                !
 ! A22   A(9,8,10)             119.3166         estimate D2E/DX2                !
 ! A23   A(8,10,11)            119.41           estimate D2E/DX2                !
 ! A24   A(8,10,17)            120.4134         estimate D2E/DX2                !
 ! A25   A(11,10,17)           120.1766         estimate D2E/DX2                !
 ! A26   A(5,11,10)            120.0711         estimate D2E/DX2                !
 ! A27   A(5,11,18)            119.7671         estimate D2E/DX2                !
 ! A28   A(10,11,18)           120.1619         estimate D2E/DX2                !
 ! D1    D(12,1,2,3)           -59.7135         estimate D2E/DX2                !
 ! D2    D(13,1,2,3)            60.3687         estimate D2E/DX2                !
 ! D3    D(14,1,2,3)          -179.6811         estimate D2E/DX2                !
 ! D4    D(1,2,3,4)              0.0243         estimate D2E/DX2                !
 ! D5    D(1,2,3,5)           -179.9795         estimate D2E/DX2                !
 ! D6    D(2,3,5,6)           -179.903          estimate D2E/DX2                !
 ! D7    D(2,3,5,11)             0.1199         estimate D2E/DX2                !
 ! D8    D(4,3,5,6)              0.0932         estimate D2E/DX2                !
 ! D9    D(4,3,5,11)          -179.8839         estimate D2E/DX2                !
 ! D10   D(3,5,6,7)           -179.9763         estimate D2E/DX2                !
 ! D11   D(3,5,6,15)             0.0304         estimate D2E/DX2                !
 ! D12   D(11,5,6,7)             0.0013         estimate D2E/DX2                !
 ! D13   D(11,5,6,15)         -179.992          estimate D2E/DX2                !
 ! D14   D(3,5,11,10)          179.9746         estimate D2E/DX2                !
 ! D15   D(3,5,11,18)           -0.0245         estimate D2E/DX2                !
 ! D16   D(6,5,11,10)           -0.0021         estimate D2E/DX2                !
 ! D17   D(6,5,11,18)          179.9988         estimate D2E/DX2                !
 ! D18   D(5,6,7,8)             -0.0019         estimate D2E/DX2                !
 ! D19   D(5,6,7,16)          -179.9782         estimate D2E/DX2                !
 ! D20   D(15,6,7,8)           179.9912         estimate D2E/DX2                !
 ! D21   D(15,6,7,16)            0.0149         estimate D2E/DX2                !
 ! D22   D(6,7,8,9)            179.9879         estimate D2E/DX2                !
 ! D23   D(6,7,8,10)             0.0034         estimate D2E/DX2                !
 ! D24   D(16,7,8,9)            -0.0358         estimate D2E/DX2                !
 ! D25   D(16,7,8,10)          179.9797         estimate D2E/DX2                !
 ! D26   D(7,8,10,11)           -0.0042         estimate D2E/DX2                !
 ! D27   D(7,8,10,17)         -179.995          estimate D2E/DX2                !
 ! D28   D(9,8,10,11)         -179.9887         estimate D2E/DX2                !
 ! D29   D(9,8,10,17)            0.0206         estimate D2E/DX2                !
 ! D30   D(8,10,11,5)            0.0035         estimate D2E/DX2                !
 ! D31   D(8,10,11,18)        -179.9974         estimate D2E/DX2                !
 ! D32   D(17,10,11,5)         179.9943         estimate D2E/DX2                !
 ! D33   D(17,10,11,18)         -0.0066         estimate D2E/DX2                !
 --------------------------------------------------------------------------------
 Trust Radius=3.00D-01 FncErr=1.00D-07 GrdErr=1.00D-06 EigMax=2.50D+02 EigMin=1.00D-04
 Number of steps in this run=     89 maximum allowed number of steps=    108.
 GradGradGradGradGradGradGradGradGradGradGradGradGradGradGradGradGradGrad

 Leave Link  103 at Tue Sep 17 09:46:38 2024, MaxMem=  1342177280 cpu:               0.0 elap:               0.0
 (Enter /groups/ReismanLab/Software/Gaussian16_RevC/Linux_Binary_AVX2-enabled-CPU/g16/l202.exe)
                          Input orientation:                          
 ---------------------------------------------------------------------
 Center     Atomic      Atomic             Coordinates (Angstroms)
 Number     Number       Type             X           Y           Z
 ---------------------------------------------------------------------
      1          6           0       -5.746839    0.839884   -0.000249
      2          8           0       -4.327512    0.880182   -0.001104
      3          6           0       -3.710684   -0.309816    0.000291
      4          8           0       -4.301050   -1.361641    0.001734
      5          6           0       -2.231471   -0.184402   -0.000231
      6          6           0       -1.471689   -1.351850   -0.000978
      7          6           0       -0.092047   -1.288369   -0.000993
      8          6           0        0.524873   -0.048592   -0.000297
      9         53           0        2.635995    0.060208    0.000075
     10          6           0       -0.214509    1.122497    0.000482
     11          6           0       -1.594825    1.053617    0.000477
     12          1           0       -6.111545    0.311598   -0.883537
     13          1           0       -6.110728    0.324313    0.890867
     14          1           0       -6.080384    1.874261   -0.007384
     15          1           0       -1.981326   -2.303384   -0.001653
     16          1           0        0.495358   -2.193536   -0.001925
     17          1           0        0.280807    2.081342    0.000937
     18          1           0       -2.182455    1.957843    0.001036
 ---------------------------------------------------------------------
                    Distance matrix (angstroms):
                    1          2          3          4          5
     1  C    0.000000
     2  O    1.419899   0.000000
     3  C    2.338319   1.340363   0.000000
     4  O    2.633823   2.241981   1.206181   0.000000
     5  C    3.661553   2.350900   1.484520   2.380977   0.000000
     6  C    4.804228   3.624595   2.469602   2.829379   1.392912
     7  C    6.042031   4.758338   3.748614   4.209642   2.407463
     8  C    6.334332   4.940473   4.243605   5.001364   2.759688
     9  I    8.419015   7.011619   6.357457   7.081261   4.873609
    10  C    5.539544   4.120135   3.778195   4.782339   2.403356
    11  C    4.157512   2.738186   2.517104   3.627276   1.392125
    12  H    1.091922   2.069963   2.632763   2.619414   4.010140
    13  H    1.091932   2.069893   2.637319   2.628295   4.012664
    14  H    1.086848   2.015140   3.222689   3.692854   4.364891
    15  H    4.905020   3.954703   2.639128   2.503600   2.133695
    16  H    6.940220   5.719074   4.608600   4.868017   3.387066
    17  H    6.154164   4.762289   4.652917   5.731278   3.383066
    18  H    3.735595   2.400548   2.734550   3.937947   2.142807
                    6          7          8          9         10
     6  C    0.000000
     7  C    1.381102   0.000000
     8  C    2.384270   1.384788   0.000000
     9  I    4.343614   3.043169   2.113924   0.000000
    10  C    2.775409   2.413975   1.384968   3.042012   0.000000
    11  C    2.408617   2.782669   2.389139   4.345883   1.382033
    12  H    5.007418   6.290719   6.704618   8.795648   6.017813
    13  H    5.012543   6.294496   6.705552   8.795932   6.016251
    14  H    5.625646   6.772182   6.879450   8.903151   5.913856
    15  H    1.079419   2.144675   3.371220   5.187121   3.854647
    16  H    2.139558   1.079060   2.145147   3.108326   3.391164
    17  H    3.854614   3.390277   2.143872   3.103530   1.079223
    18  H    3.385153   3.861050   3.369779   5.178656   2.137899
                   11         12         13         14         15
    11  C    0.000000
    12  H    4.661849   0.000000
    13  H    4.660263   1.774450   0.000000
    14  H    4.560017   1.791795   1.791678   0.000000
    15  H    3.379178   4.967350   4.975273   5.852779   0.000000
    16  H    3.861719   7.120681   7.125798   7.732229   2.479118
    17  H    2.138741   6.691520   6.688111   6.364565   4.933869
    18  H    1.078394   4.350901   4.346441   3.898834   4.265972
                   16         17         18
    16  H    0.000000
    17  H    4.280259   0.000000
    18  H    4.940105   2.466355   0.000000
 Stoichiometry    C8H7IO2
 Framework group  C1[X(C8H7IO2)]
 Deg. of freedom    48
 Full point group                 C1      NOp   1
 Largest Abelian subgroup         C1      NOp   1
 Largest concise Abelian subgroup C1      NOp   1
                         Standard orientation:                         
 ---------------------------------------------------------------------
 Center     Atomic      Atomic             Coordinates (Angstroms)
 Number     Number       Type             X           Y           Z
 ---------------------------------------------------------------------
      1          6           0        5.445743   -0.788218   -0.000236
      2          8           0        4.026832   -0.841169   -0.001091
      3          6           0        3.399419    0.343281    0.000304
      4          8           0        3.980383    1.400328    0.001747
      5          6           0        1.921382    0.204684   -0.000218
      6          6           0        1.151222    1.365310   -0.000965
      7          6           0       -0.227800    1.289531   -0.000980
      8          6           0       -0.833642    0.044303   -0.000284
      9         53           0       -2.943710   -0.083316    0.000088
     10          6           0       -0.083847   -1.120148    0.000495
     11          6           0        1.295800   -1.038963    0.000490
     12          1           0        5.805725   -0.256702   -0.883524
     13          1           0        5.805020   -0.269424    0.890880
     14          1           0        5.788497   -1.819580   -0.007371
     15          1           0        1.652354    2.321350   -0.001640
     16          1           0       -0.823252    2.189424   -0.001913
     17          1           0       -0.570594   -2.083370    0.000950
     18          1           0        1.891469   -1.937914    0.001049
 ---------------------------------------------------------------------
 Rotational constants (GHZ):           3.4471764           0.2214464           0.2083516
 Leave Link  202 at Tue Sep 17 09:46:38 2024, MaxMem=  1342177280 cpu:               0.0 elap:               0.0
 (Enter /groups/ReismanLab/Software/Gaussian16_RevC/Linux_Binary_AVX2-enabled-CPU/g16/l301.exe)
 General basis read from cards:  (5D, 7F)
 Centers:       1      3      5      6      7      8     10     11     12     13
 Centers:      14     15     16     17     18      2      4
 6-31G(d,p)
 ****
 Centers:       9
 LANL2DZ
 ****
 ======================================================================================================
                                       Pseudopotential Parameters
 ======================================================================================================
  Center     Atomic      Valence      Angular      Power
  Number     Number     Electrons     Momentum     of R      Exponent        Coefficient   SO-Coeffient
 ======================================================================================================
    1          6
                                   No pseudopotential on this center.
    2          8
                                   No pseudopotential on this center.
    3          6
                                   No pseudopotential on this center.
    4          8
                                   No pseudopotential on this center.
    5          6
                                   No pseudopotential on this center.
    6          6
                                   No pseudopotential on this center.
    7          6
                                   No pseudopotential on this center.
    8          6
                                   No pseudopotential on this center.
    9         53            7
                                      F and up 
                                                     0        1.0715702       -0.07476210    0.00000000
                                                     1       44.1936028      -30.08112240    0.00000000
                                                     2       12.9367609      -75.37227210    0.00000000
                                                     2        3.1956412      -22.05637580    0.00000000
                                                     2        0.8589806       -1.69795850    0.00000000
                                      S - F
                                                     0      127.9202670        2.93800360    0.00000000
                                                     1       78.6211465       41.24712670    0.00000000
                                                     2       36.5146237      287.86800950    0.00000000
                                                     2        9.9065681      114.37585060    0.00000000
                                                     2        1.9420086       37.65477140    0.00000000
                                      P - F
                                                     0       13.0035304        2.22226300    0.00000000
                                                     1       76.0331404       39.40908310    0.00000000
                                                     2       24.1961684      177.40750020    0.00000000
                                                     2        6.4053433       77.98894620    0.00000000
                                                     2        1.5851786       25.75476410    0.00000000
                                      D - F
                                                     0       40.4278108        7.05243600    0.00000000
                                                     1       28.9084375       33.30416350    0.00000000
                                                     2       15.6268936      186.94538750    0.00000000
                                                     2        4.1442856       71.96883610    0.00000000
                                                     2        0.9377235        9.36306570    0.00000000
   10          6
                                   No pseudopotential on this center.
   11          6
                                   No pseudopotential on this center.
   12          1
                                   No pseudopotential on this center.
   13          1
                                   No pseudopotential on this center.
   14          1
                                   No pseudopotential on this center.
   15          1
                                   No pseudopotential on this center.
   16          1
                                   No pseudopotential on this center.
   17          1
                                   No pseudopotential on this center.
   18          1
                                   No pseudopotential on this center.
 ======================================================================================================
 Ernie: Thresh=  0.10000D-02 Tol=  0.10000D-05 Strict=F.
 There are   193 symmetry adapted cartesian basis functions of A   symmetry.
 There are   183 symmetry adapted basis functions of A   symmetry.
   183 basis functions,   341 primitive gaussians,   193 cartesian basis functions
    39 alpha electrons       39 beta electrons
       nuclear repulsion energy       539.6586489278 Hartrees.
 IExCor=  402 DFT=T Ex+Corr=B3LYP ExCW=0 ScaHFX=  0.200000
 ScaDFX=  0.800000  0.720000  1.000000  0.810000 ScalE2=  1.000000  1.000000
 IRadAn=      5 IRanWt=     -1 IRanGd=            0 ICorTp=0 IEmpDi=141
 NAtoms=   18 NActive=   18 NUniq=   18 SFac= 1.00D+00 NAtFMM=   60 NAOKFM=F Big=F
 Integral buffers will be    131072 words long.
 Raffenetti 2 integral format.
 Two-electron integral symmetry is turned on.
 R6Disp:  Grimme-D3(BJ) Dispersion energy=       -0.0366929874 Hartrees.
 Nuclear repulsion after empirical dispersion term =      539.6219559404 Hartrees.
 Leave Link  301 at Tue Sep 17 09:46:38 2024, MaxMem=  1342177280 cpu:               0.1 elap:               0.1
 (Enter /groups/ReismanLab/Software/Gaussian16_RevC/Linux_Binary_AVX2-enabled-CPU/g16/l302.exe)
 NPDir=0 NMtPBC=     1 NCelOv=     1 NCel=       1 NClECP=     1 NCelD=      1
         NCelK=      1 NCelE2=     1 NClLst=     1 CellRange=     0.0.
 One-electron integrals computed using PRISM.
 One-electron integral symmetry used in STVInt
   1 Symmetry operations used in ECPInt.
 ECPInt:  NShTT=    2145 NPrTT=   11679 LenC2=    2010 LenP2D=    7553.
 LDataN:  DoStor=T MaxTD1= 5 Len=  102
 NBasis=   183 RedAO= T EigKep=  4.42D-04  NBF=   183
 NBsUse=   183 1.00D-06 EigRej= -1.00D+00 NBFU=   183
 Precomputing XC quadrature grid using
 IXCGrd= 4 IRadAn=           5 IRanWt=          -1 IRanGd=           0 AccXCQ= 0.00D+00.
 Defaulting to unpruned grid for atomic number  53.
 Generated NRdTot=       0 NPtTot=           0 NUsed=           0 NTot=          32
 NSgBfM=   193   193   193   193   193 MxSgAt=    18 MxSgA2=    18.
 Leave Link  302 at Tue Sep 17 09:46:38 2024, MaxMem=  1342177280 cpu:               1.2 elap:               0.2
 (Enter /groups/ReismanLab/Software/Gaussian16_RevC/Linux_Binary_AVX2-enabled-CPU/g16/l303.exe)
 DipDrv:  MaxL=1.
 Leave Link  303 at Tue Sep 17 09:46:38 2024, MaxMem=  1342177280 cpu:               0.1 elap:               0.0
 (Enter /groups/ReismanLab/Software/Gaussian16_RevC/Linux_Binary_AVX2-enabled-CPU/g16/l401.exe)
 ExpMin= 1.05D-01 ExpMax= 5.48D+03 ExpMxC= 8.25D+02 IAcc=3 IRadAn=         5 AccDes= 0.00D+00
 Harris functional with IExCor=  402 and IRadAn=       5 diagonalized for initial guess.
 HarFok:  IExCor=  402 AccDes= 0.00D+00 IRadAn=         5 IDoV= 1 UseB2=F ITyADJ=14
 ICtDFT=  3500011 ScaDFX=  1.000000  1.000000  1.000000  1.000000
 Defaulting to unpruned grid for atomic number  53.
 FoFCou: FMM=F IPFlag=           0 FMFlag=      100000 FMFlg1=           0
         NFxFlg=           0 DoJE=T BraDBF=F KetDBF=T FulRan=T
         wScrn=  0.000000 ICntrl=       500 IOpCl=  0 I1Cent=   200000004 NGrid=           0
         NMat0=    1 NMatS0=      1 NMatT0=    0 NMatD0=    1 NMtDS0=    0 NMtDT0=    0
 Petite list used in FoFCou.
 Harris En= -470.882340006064    
 JPrj=0 DoOrth=F DoCkMO=F.
 Leave Link  401 at Tue Sep 17 09:46:39 2024, MaxMem=  1342177280 cpu:               4.9 elap:               0.7
 (Enter /groups/ReismanLab/Software/Gaussian16_RevC/Linux_Binary_AVX2-enabled-CPU/g16/l502.exe)
 Integral symmetry usage will be decided dynamically.
 Closed shell SCF:
 Using DIIS extrapolation, IDIIS=  1040.
 NGot=  1342177280 LenX=  1342098694 LenY=  1342061004
 Requested convergence on RMS density matrix=1.00D-08 within  32 cycles.
 Requested convergence on MAX density matrix=1.00D-06.
 Requested convergence on             energy=1.00D-06.
 No special actions if energy rises.
 Fock matrices will be formed incrementally for  20 cycles.
 Integral accuracy reduced to 1.0D-05 until final iterations.

 Cycle   1  Pass 0  IDiag  1:
 FoFJK:  IHMeth= 1 ICntrl=       0 DoSepK=F KAlg= 0 I1Cent=           0 FoldK=F
 IRaf= 880000000 NMat=       1 IRICut=       1 DoRegI=T DoRafI=F ISym2E= 0 IDoP0=0 IntGTp=1.
 FoFCou: FMM=F IPFlag=           0 FMFlag=      100000 FMFlg1=           0
         NFxFlg=           0 DoJE=F BraDBF=F KetDBF=F FulRan=T
         wScrn=  0.000000 ICntrl=         0 IOpCl=  0 I1Cent=           0 NGrid=           0
         NMat0=    1 NMatS0=      1 NMatT0=    0 NMatD0=    1 NMtDS0=    0 NMtDT0=    0
 Symmetry not used in FoFCou.
 Defaulting to unpruned grid for atomic number  53.
 Defaulting to unpruned grid for atomic number  53.
 Defaulting to unpruned grid for atomic number  53.
 Defaulting to unpruned grid for atomic number  53.
 Defaulting to unpruned grid for atomic number  53.
 Defaulting to unpruned grid for atomic number  53.
 Defaulting to unpruned grid for atomic number  53.
 Defaulting to unpruned grid for atomic number  53.
 E= -470.705247746820    
 DIIS: error= 4.55D-02 at cycle   1 NSaved=   1.
 NSaved= 1 IEnMin= 1 EnMin= -470.705247746820     IErMin= 1 ErrMin= 4.55D-02
 ErrMax= 4.55D-02  0.00D+00 EMaxC= 1.00D-01 BMatC= 2.38D-01 BMatP= 2.38D-01
 IDIUse=3 WtCom= 5.45D-01 WtEn= 4.55D-01
 Coeff-Com:  0.100D+01
 Coeff-En:   0.100D+01
 Coeff:      0.100D+01
 Gap=     0.298 Goal=   None    Shift=    0.000
 GapD=    0.298 DampG=1.000 DampE=0.500 DampFc=0.5000 IDamp=-1.
 Damping current iteration by 5.00D-01
 RMSDP=6.16D-03 MaxDP=2.06D-01              OVMax= 2.19D-01

 Cycle   2  Pass 0  IDiag  1:
 RMSU=  3.05D-03    CP:  9.83D-01
 E= -470.784277551974     Delta-E=       -0.079029805154 Rises=F Damp=T
 DIIS: error= 1.08D-02 at cycle   2 NSaved=   2.
 NSaved= 2 IEnMin= 2 EnMin= -470.784277551974     IErMin= 2 ErrMin= 1.08D-02
 ErrMax= 1.08D-02  0.00D+00 EMaxC= 1.00D-01 BMatC= 3.06D-02 BMatP= 2.38D-01
 IDIUse=3 WtCom= 8.92D-01 WtEn= 1.08D-01
 Coeff-Com:  0.193D+00 0.807D+00
 Coeff-En:   0.284D+00 0.716D+00
 Coeff:      0.203D+00 0.797D+00
 Gap=     0.250 Goal=   None    Shift=    0.000
 RMSDP=1.87D-03 MaxDP=5.38D-02 DE=-7.90D-02 OVMax= 1.57D-01

 Cycle   3  Pass 0  IDiag  1:
 RMSU=  1.74D-03    CP:  9.77D-01  7.76D-01
 E= -470.915235039620     Delta-E=       -0.130957487646 Rises=F Damp=F
 DIIS: error= 1.41D-02 at cycle   3 NSaved=   3.
 NSaved= 3 IEnMin= 3 EnMin= -470.915235039620     IErMin= 2 ErrMin= 1.08D-02
 ErrMax= 1.41D-02  0.00D+00 EMaxC= 1.00D-01 BMatC= 3.18D-02 BMatP= 3.06D-02
 IDIUse=3 WtCom= 8.59D-01 WtEn= 1.41D-01
 Coeff-Com:  0.611D-01 0.501D+00 0.438D+00
 Coeff-En:   0.000D+00 0.000D+00 0.100D+01
 Coeff:      0.525D-01 0.430D+00 0.517D+00
 Gap=     0.192 Goal=   None    Shift=    0.000
 RMSDP=1.28D-03 MaxDP=4.99D-02 DE=-1.31D-01 OVMax= 7.67D-02

 Cycle   4  Pass 0  IDiag  1:
 RMSU=  9.73D-04    CP:  9.79D-01  8.29D-01  5.30D-01
 E= -470.935534430648     Delta-E=       -0.020299391028 Rises=F Damp=F
 DIIS: error= 7.85D-03 at cycle   4 NSaved=   4.
 NSaved= 4 IEnMin= 4 EnMin= -470.935534430648     IErMin= 4 ErrMin= 7.85D-03
 ErrMax= 7.85D-03  0.00D+00 EMaxC= 1.00D-01 BMatC= 8.41D-03 BMatP= 3.06D-02
 IDIUse=3 WtCom= 9.21D-01 WtEn= 7.85D-02
 Coeff-Com:  0.119D-01 0.114D+00 0.344D+00 0.530D+00
 Coeff-En:   0.000D+00 0.000D+00 0.251D+00 0.749D+00
 Coeff:      0.110D-01 0.105D+00 0.337D+00 0.548D+00
 Gap=     0.194 Goal=   None    Shift=    0.000
 RMSDP=4.93D-04 MaxDP=1.72D-02 DE=-2.03D-02 OVMax= 3.03D-02

 Cycle   5  Pass 0  IDiag  1:
 RMSU=  1.69D-04    CP:  9.79D-01  8.04D-01  6.71D-01  6.04D-01
 E= -470.942417711355     Delta-E=       -0.006883280707 Rises=F Damp=F
 DIIS: error= 1.20D-03 at cycle   5 NSaved=   5.
 NSaved= 5 IEnMin= 5 EnMin= -470.942417711355     IErMin= 5 ErrMin= 1.20D-03
 ErrMax= 1.20D-03  0.00D+00 EMaxC= 1.00D-01 BMatC= 2.32D-04 BMatP= 8.41D-03
 IDIUse=3 WtCom= 9.88D-01 WtEn= 1.20D-02
 Coeff-Com:  0.160D-02 0.173D-01 0.128D+00 0.273D+00 0.581D+00
 Coeff-En:   0.000D+00 0.000D+00 0.000D+00 0.000D+00 0.100D+01
 Coeff:      0.158D-02 0.171D-01 0.126D+00 0.269D+00 0.586D+00
 Gap=     0.195 Goal=   None    Shift=    0.000
 RMSDP=8.75D-05 MaxDP=2.86D-03 DE=-6.88D-03 OVMax= 4.30D-03

 Cycle   6  Pass 0  IDiag  1:
 RMSU=  6.36D-05    CP:  9.79D-01  8.11D-01  6.66D-01  6.24D-01  7.00D-01
 E= -470.942597044130     Delta-E=       -0.000179332775 Rises=F Damp=F
 DIIS: error= 3.22D-04 at cycle   6 NSaved=   6.
 NSaved= 6 IEnMin= 6 EnMin= -470.942597044130     IErMin= 6 ErrMin= 3.22D-04
 ErrMax= 3.22D-04  0.00D+00 EMaxC= 1.00D-01 BMatC= 2.65D-05 BMatP= 2.32D-04
 IDIUse=3 WtCom= 9.97D-01 WtEn= 3.22D-03
 Coeff-Com: -0.220D-03-0.129D-02 0.345D-01 0.910D-01 0.324D+00 0.552D+00
 Coeff-En:   0.000D+00 0.000D+00 0.000D+00 0.000D+00 0.542D-01 0.946D+00
 Coeff:     -0.220D-03-0.128D-02 0.344D-01 0.907D-01 0.323D+00 0.554D+00
 Gap=     0.194 Goal=   None    Shift=    0.000
 RMSDP=3.36D-05 MaxDP=7.29D-04 DE=-1.79D-04 OVMax= 1.76D-03

 Cycle   7  Pass 0  IDiag  1:
 RMSU=  1.85D-05    CP:  9.79D-01  8.09D-01  6.69D-01  6.33D-01  7.31D-01
                    CP:  6.08D-01
 E= -470.942619929056     Delta-E=       -0.000022884927 Rises=F Damp=F
 DIIS: error= 9.42D-05 at cycle   7 NSaved=   7.
 NSaved= 7 IEnMin= 7 EnMin= -470.942619929056     IErMin= 7 ErrMin= 9.42D-05
 ErrMax= 9.42D-05  0.00D+00 EMaxC= 1.00D-01 BMatC= 2.06D-06 BMatP= 2.65D-05
 IDIUse=1 WtCom= 1.00D+00 WtEn= 0.00D+00
 Coeff-Com: -0.161D-03-0.217D-02 0.102D-01 0.313D-01 0.143D+00 0.306D+00
 Coeff-Com:  0.511D+00
 Coeff:     -0.161D-03-0.217D-02 0.102D-01 0.313D-01 0.143D+00 0.306D+00
 Coeff:      0.511D+00
 Gap=     0.194 Goal=   None    Shift=    0.000
 RMSDP=1.00D-05 MaxDP=2.89D-04 DE=-2.29D-05 OVMax= 6.73D-04

 Cycle   8  Pass 0  IDiag  1:
 RMSU=  4.81D-06    CP:  9.79D-01  8.09D-01  6.69D-01  6.33D-01  7.33D-01
                    CP:  6.59D-01  5.64D-01
 E= -470.942621974475     Delta-E=       -0.000002045419 Rises=F Damp=F
 DIIS: error= 3.20D-05 at cycle   8 NSaved=   8.
 NSaved= 8 IEnMin= 8 EnMin= -470.942621974475     IErMin= 8 ErrMin= 3.20D-05
 ErrMax= 3.20D-05  0.00D+00 EMaxC= 1.00D-01 BMatC= 1.44D-07 BMatP= 2.06D-06
 IDIUse=1 WtCom= 1.00D+00 WtEn= 0.00D+00
 Coeff-Com: -0.293D-04-0.979D-03 0.208D-02 0.719D-02 0.439D-01 0.101D+00
 Coeff-Com:  0.256D+00 0.590D+00
 Coeff:     -0.293D-04-0.979D-03 0.208D-02 0.719D-02 0.439D-01 0.101D+00
 Coeff:      0.256D+00 0.590D+00
 Gap=     0.194 Goal=   None    Shift=    0.000
 RMSDP=2.92D-06 MaxDP=9.53D-05 DE=-2.05D-06 OVMax= 2.40D-04

 Initial convergence to 1.0D-05 achieved.  Increase integral accuracy.
 Cycle   9  Pass 1  IDiag  1:
 E= -470.942665330785     Delta-E=       -0.000043356310 Rises=F Damp=F
 DIIS: error= 3.40D-05 at cycle   1 NSaved=   1.
 NSaved= 1 IEnMin= 1 EnMin= -470.942665330785     IErMin= 1 ErrMin= 3.40D-05
 ErrMax= 3.40D-05  0.00D+00 EMaxC= 1.00D-01 BMatC= 7.79D-08 BMatP= 7.79D-08
 IDIUse=1 WtCom= 1.00D+00 WtEn= 0.00D+00
 Coeff-Com:  0.100D+01
 Coeff:      0.100D+01
 Gap=     0.194 Goal=   None    Shift=    0.000
 RMSDP=2.92D-06 MaxDP=9.53D-05 DE=-4.34D-05 OVMax= 1.90D-04

 Cycle  10  Pass 1  IDiag  1:
 RMSU=  1.33D-05    CP:  1.00D+00
 E= -470.942665304343     Delta-E=        0.000000026443 Rises=F Damp=F
 DIIS: error= 2.95D-05 at cycle   2 NSaved=   2.
 NSaved= 2 IEnMin= 1 EnMin= -470.942665330785     IErMin= 2 ErrMin= 2.95D-05
 ErrMax= 2.95D-05  0.00D+00 EMaxC= 1.00D-01 BMatC= 9.62D-08 BMatP= 7.79D-08
 IDIUse=1 WtCom= 1.00D+00 WtEn= 0.00D+00
 Coeff-Com:  0.533D+00 0.467D+00
 Coeff:      0.533D+00 0.467D+00
 Gap=     0.194 Goal=   None    Shift=    0.000
 RMSDP=2.78D-06 MaxDP=6.69D-05 DE= 2.64D-08 OVMax= 1.75D-04

 Cycle  11  Pass 1  IDiag  1:
 RMSU=  2.77D-06    CP:  1.00D+00  9.93D-01
 E= -470.942665391913     Delta-E=       -0.000000087571 Rises=F Damp=F
 DIIS: error= 1.33D-05 at cycle   3 NSaved=   3.
 NSaved= 3 IEnMin= 3 EnMin= -470.942665391913     IErMin= 3 ErrMin= 1.33D-05
 ErrMax= 1.33D-05  0.00D+00 EMaxC= 1.00D-01 BMatC= 1.65D-08 BMatP= 7.79D-08
 IDIUse=1 WtCom= 1.00D+00 WtEn= 0.00D+00
 Coeff-Com:  0.513D-01 0.290D+00 0.658D+00
 Coeff:      0.513D-01 0.290D+00 0.658D+00
 Gap=     0.194 Goal=   None    Shift=    0.000
 RMSDP=9.31D-07 MaxDP=2.79D-05 DE=-8.76D-08 OVMax= 5.09D-05

 Cycle  12  Pass 1  IDiag  1:
 RMSU=  4.64D-07    CP:  1.00D+00  1.00D+00  7.12D-01
 E= -470.942665408573     Delta-E=       -0.000000016659 Rises=F Damp=F
 DIIS: error= 3.15D-06 at cycle   4 NSaved=   4.
 NSaved= 4 IEnMin= 4 EnMin= -470.942665408573     IErMin= 4 ErrMin= 3.15D-06
 ErrMax= 3.15D-06  0.00D+00 EMaxC= 1.00D-01 BMatC= 2.24D-09 BMatP= 1.65D-08
 IDIUse=1 WtCom= 1.00D+00 WtEn= 0.00D+00
 Coeff-Com: -0.478D-03 0.156D+00 0.417D+00 0.428D+00
 Coeff:     -0.478D-03 0.156D+00 0.417D+00 0.428D+00
 Gap=     0.194 Goal=   None    Shift=    0.000
 RMSDP=2.63D-07 MaxDP=8.47D-06 DE=-1.67D-08 OVMax= 1.38D-05

 Cycle  13  Pass 1  IDiag  1:
 RMSU=  1.10D-07    CP:  1.00D+00  1.00D+00  7.38D-01  5.14D-01
 E= -470.942665410607     Delta-E=       -0.000000002034 Rises=F Damp=F
 DIIS: error= 5.19D-07 at cycle   5 NSaved=   5.
 NSaved= 5 IEnMin= 5 EnMin= -470.942665410607     IErMin= 5 ErrMin= 5.19D-07
 ErrMax= 5.19D-07  0.00D+00 EMaxC= 1.00D-01 BMatC= 6.00D-11 BMatP= 2.24D-09
 IDIUse=1 WtCom= 1.00D+00 WtEn= 0.00D+00
 Coeff-Com: -0.221D-02 0.778D-01 0.213D+00 0.243D+00 0.468D+00
 Coeff:     -0.221D-02 0.778D-01 0.213D+00 0.243D+00 0.468D+00
 Gap=     0.194 Goal=   None    Shift=    0.000
 RMSDP=5.06D-08 MaxDP=1.40D-06 DE=-2.03D-09 OVMax= 3.15D-06

 Cycle  14  Pass 1  IDiag  1:
 RMSU=  3.91D-08    CP:  1.00D+00  1.00D+00  7.36D-01  5.32D-01  7.20D-01
 E= -470.942665410671     Delta-E=       -0.000000000064 Rises=F Damp=F
 DIIS: error= 1.42D-07 at cycle   6 NSaved=   6.
 NSaved= 6 IEnMin= 6 EnMin= -470.942665410671     IErMin= 6 ErrMin= 1.42D-07
 ErrMax= 1.42D-07  0.00D+00 EMaxC= 1.00D-01 BMatC= 4.45D-12 BMatP= 6.00D-11
 IDIUse=1 WtCom= 1.00D+00 WtEn= 0.00D+00
 Coeff-Com: -0.116D-02 0.304D-01 0.852D-01 0.998D-01 0.264D+00 0.522D+00
 Coeff:     -0.116D-02 0.304D-01 0.852D-01 0.998D-01 0.264D+00 0.522D+00
 Gap=     0.194 Goal=   None    Shift=    0.000
 RMSDP=1.49D-08 MaxDP=4.31D-07 DE=-6.41D-11 OVMax= 8.22D-07

 Cycle  15  Pass 1  IDiag  1:
 RMSU=  1.21D-08    CP:  1.00D+00  1.00D+00  7.35D-01  5.26D-01  7.26D-01
                    CP:  7.99D-01
 E= -470.942665410672     Delta-E=       -0.000000000001 Rises=F Damp=F
 DIIS: error= 7.87D-08 at cycle   7 NSaved=   7.
 NSaved= 7 IEnMin= 7 EnMin= -470.942665410672     IErMin= 7 ErrMin= 7.87D-08
 ErrMax= 7.87D-08  0.00D+00 EMaxC= 1.00D-01 BMatC= 8.81D-13 BMatP= 4.45D-12
 IDIUse=1 WtCom= 1.00D+00 WtEn= 0.00D+00
 Coeff-Com: -0.437D-03 0.823D-02 0.241D-01 0.287D-01 0.105D+00 0.345D+00
 Coeff-Com:  0.490D+00
 Coeff:     -0.437D-03 0.823D-02 0.241D-01 0.287D-01 0.105D+00 0.345D+00
 Coeff:      0.490D+00
 Gap=     0.194 Goal=   None    Shift=    0.000
 RMSDP=5.23D-09 MaxDP=1.61D-07 DE=-6.82D-13 OVMax= 2.99D-07

 SCF Done:  E(RB3LYP) =  -470.942665411     A.U. after   15 cycles
            NFock= 15  Conv=0.52D-08     -V/T= 2.0241
 KE= 4.598812201776D+02 PE=-2.172233205040D+03 EE= 7.017873635116D+02
 Leave Link  502 at Tue Sep 17 09:46:55 2024, MaxMem=  1342177280 cpu:             125.3 elap:              16.4
 (Enter /groups/ReismanLab/Software/Gaussian16_RevC/Linux_Binary_AVX2-enabled-CPU/g16/l508.exe)
 QCSCF skips out because SCF is already converged.
 Leave Link  508 at Tue Sep 17 09:46:55 2024, MaxMem=  1342177280 cpu:               0.0 elap:               0.0
 (Enter /groups/ReismanLab/Software/Gaussian16_RevC/Linux_Binary_AVX2-enabled-CPU/g16/l601.exe)
 Copying SCF densities to generalized density rwf, IOpCl= 0 IROHF=0.

 **********************************************************************

            Population analysis using the SCF Density.

 **********************************************************************

 Orbital symmetries:
       Occupied  (A) (A) (A) (A) (A) (A) (A) (A) (A) (A) (A) (A)
                 (A) (A) (A) (A) (A) (A) (A) (A) (A) (A) (A) (A)
                 (A) (A) (A) (A) (A) (A) (A) (A) (A) (A) (A) (A)
                 (A) (A) (A)
       Virtual   (A) (A) (A) (A) (A) (A) (A) (A) (A) (A) (A) (A)
                 (A) (A) (A) (A) (A) (A) (A) (A) (A) (A) (A) (A)
                 (A) (A) (A) (A) (A) (A) (A) (A) (A) (A) (A) (A)
                 (A) (A) (A) (A) (A) (A) (A) (A) (A) (A) (A) (A)
                 (A) (A) (A) (A) (A) (A) (A) (A) (A) (A) (A) (A)
                 (A) (A) (A) (A) (A) (A) (A) (A) (A) (A) (A) (A)
                 (A) (A) (A) (A) (A) (A) (A) (A) (A) (A) (A) (A)
                 (A) (A) (A) (A) (A) (A) (A) (A) (A) (A) (A) (A)
                 (A) (A) (A) (A) (A) (A) (A) (A) (A) (A) (A) (A)
                 (A) (A) (A) (A) (A) (A) (A) (A) (A) (A) (A) (A)
                 (A) (A) (A) (A) (A) (A) (A) (A) (A) (A) (A) (A)
                 (A) (A) (A) (A) (A) (A) (A) (A) (A) (A) (A) (A)
 The electronic state is 1-A.
 Alpha  occ. eigenvalues --  -19.19400 -19.13483 -10.31514 -10.24605 -10.24057
 Alpha  occ. eigenvalues --  -10.20731 -10.20615 -10.20574 -10.20502 -10.20314
 Alpha  occ. eigenvalues --   -1.11458  -1.02203  -0.88473  -0.79591  -0.77069
 Alpha  occ. eigenvalues --   -0.73769  -0.68898  -0.62924  -0.62002  -0.57613
 Alpha  occ. eigenvalues --   -0.54542  -0.49020  -0.48926  -0.47099  -0.46682
 Alpha  occ. eigenvalues --   -0.45471  -0.44300  -0.41713  -0.41390  -0.38408
 Alpha  occ. eigenvalues --   -0.37038  -0.35764  -0.35143  -0.30795  -0.30175
 Alpha  occ. eigenvalues --   -0.27986  -0.27300  -0.27239  -0.24686
 Alpha virt. eigenvalues --   -0.05271  -0.03352  -0.01812   0.05125   0.10372
 Alpha virt. eigenvalues --    0.11763   0.13407   0.13700   0.15385   0.15572
 Alpha virt. eigenvalues --    0.17280   0.17655   0.19331   0.24791   0.27619
 Alpha virt. eigenvalues --    0.28043   0.28867   0.29846   0.35204   0.37065
 Alpha virt. eigenvalues --    0.38116   0.38510   0.39200   0.49310   0.49602
 Alpha virt. eigenvalues --    0.50742   0.52681   0.53919   0.55788   0.56365
 Alpha virt. eigenvalues --    0.56773   0.57815   0.57983   0.58934   0.60416
 Alpha virt. eigenvalues --    0.61247   0.64118   0.64481   0.65905   0.67682
 Alpha virt. eigenvalues --    0.69782   0.71560   0.76123   0.77550   0.80198
 Alpha virt. eigenvalues --    0.81677   0.82658   0.82868   0.83519   0.84474
 Alpha virt. eigenvalues --    0.89569   0.89887   0.94797   0.95498   0.97367
 Alpha virt. eigenvalues --    0.97445   0.99001   1.04898   1.05485   1.07152
 Alpha virt. eigenvalues --    1.09800   1.12031   1.15552   1.22869   1.23856
 Alpha virt. eigenvalues --    1.27157   1.27833   1.28776   1.31789   1.34286
 Alpha virt. eigenvalues --    1.35225   1.38113   1.39956   1.40412   1.45106
 Alpha virt. eigenvalues --    1.45449   1.46880   1.61359   1.65996   1.68825
 Alpha virt. eigenvalues --    1.71942   1.73758   1.77670   1.78379   1.85300
 Alpha virt. eigenvalues --    1.86237   1.89589   1.91373   1.91971   1.93048
 Alpha virt. eigenvalues --    1.95477   1.95999   1.97244   1.99215   2.00838
 Alpha virt. eigenvalues --    2.01104   2.03304   2.05607   2.06047   2.07776
 Alpha virt. eigenvalues --    2.10457   2.10979   2.13521   2.26070   2.27389
 Alpha virt. eigenvalues --    2.29050   2.35761   2.38812   2.38966   2.40300
 Alpha virt. eigenvalues --    2.43950   2.44928   2.46292   2.47698   2.51021
 Alpha virt. eigenvalues --    2.52461   2.55014   2.58593   2.59422   2.61325
 Alpha virt. eigenvalues --    2.62621   2.67552   2.69943   2.72289   2.73654
 Alpha virt. eigenvalues --    2.76100   2.79369   2.83071   2.84371   2.93293
 Alpha virt. eigenvalues --    2.97469   3.05005   3.06250   3.16002   3.19714
 Alpha virt. eigenvalues --    3.23640   3.25150   3.35282   3.35633   3.40500
 Alpha virt. eigenvalues --    3.44386   3.53526   3.84025  10.03885
          Condensed to atoms (all electrons):
               1          2          3          4          5          6
     1  C    4.703692   0.230063  -0.027469   0.002552   0.007752  -0.000162
     2  O    0.230063   8.193445   0.288022  -0.085869  -0.091036   0.004204
     3  C   -0.027469   0.288022   4.370315   0.611664   0.324371  -0.042702
     4  O    0.002552  -0.085869   0.611664   7.958891  -0.084651   0.001409
     5  C    0.007752  -0.091036   0.324371  -0.084651   4.978889   0.512546
     6  C   -0.000162   0.004204  -0.042702   0.001409   0.512546   4.898361
     7  C    0.000001  -0.000055   0.007638   0.000782  -0.010340   0.494060
     8  C    0.000000   0.000001   0.000056  -0.000010  -0.054480  -0.020895
     9  I   -0.000000  -0.000000   0.000035  -0.000000   0.001879   0.000148
    10  C    0.000002   0.000409   0.006209  -0.000078  -0.003333  -0.044937
    11  C   -0.000337   0.002971  -0.042795   0.004335   0.485096  -0.066440
    12  H    0.386648  -0.033734  -0.004451   0.006301  -0.000156  -0.000001
    13  H    0.386787  -0.033743  -0.004404   0.006090  -0.000160  -0.000001
    14  H    0.387898  -0.031613   0.003591   0.000704   0.000088   0.000001
    15  H   -0.000022   0.000343  -0.010470   0.014218  -0.042682   0.370600
    16  H   -0.000000   0.000000  -0.000191   0.000002   0.003475  -0.028614
    17  H   -0.000000  -0.000001  -0.000178   0.000000   0.003261   0.001060
    18  H   -0.000343   0.011371  -0.010905   0.000158  -0.040365   0.005606
               7          8          9         10         11         12
     1  C    0.000001   0.000000  -0.000000   0.000002  -0.000337   0.386648
     2  O   -0.000055   0.000001  -0.000000   0.000409   0.002971  -0.033734
     3  C    0.007638   0.000056   0.000035   0.006209  -0.042795  -0.004451
     4  O    0.000782  -0.000010  -0.000000  -0.000078   0.004335   0.006301
     5  C   -0.010340  -0.054480   0.001879  -0.003333   0.485096  -0.000156
     6  C    0.494060  -0.020895   0.000148  -0.044937  -0.066440  -0.000001
     7  C    4.848420   0.485050  -0.067653  -0.023801  -0.043141  -0.000000
     8  C    0.485050   5.288215   0.271566   0.490297  -0.024456  -0.000000
     9  I   -0.067653   0.271566   6.702491  -0.068324   0.000301   0.000000
    10  C   -0.023801   0.490297  -0.068324   4.839391   0.498107   0.000001
    11  C   -0.043141  -0.024456   0.000301   0.498107   4.917893   0.000059
    12  H   -0.000000  -0.000000   0.000000   0.000001   0.000059   0.586652
    13  H   -0.000000  -0.000000   0.000000   0.000001   0.000058  -0.038087
    14  H   -0.000000   0.000000  -0.000000  -0.000001  -0.000083  -0.032524
    15  H   -0.043653   0.006143  -0.000255   0.000175   0.005958  -0.000002
    16  H    0.372711  -0.042466  -0.002505   0.003657   0.001096   0.000000
    17  H    0.003758  -0.042074  -0.002567   0.371127  -0.027563  -0.000000
    18  H    0.000238   0.006311  -0.000261  -0.045613   0.373087   0.000028
              13         14         15         16         17         18
     1  C    0.386787   0.387898  -0.000022  -0.000000  -0.000000  -0.000343
     2  O   -0.033743  -0.031613   0.000343   0.000000  -0.000001   0.011371
     3  C   -0.004404   0.003591  -0.010470  -0.000191  -0.000178  -0.010905
     4  O    0.006090   0.000704   0.014218   0.000002   0.000000   0.000158
     5  C   -0.000160   0.000088  -0.042682   0.003475   0.003261  -0.040365
     6  C   -0.000001   0.000001   0.370600  -0.028614   0.001060   0.005606
     7  C   -0.000000  -0.000000  -0.043653   0.372711   0.003758   0.000238
     8  C   -0.000000   0.000000   0.006143  -0.042466  -0.042074   0.006311
     9  I    0.000000  -0.000000  -0.000255  -0.002505  -0.002567  -0.000261
    10  C    0.000001  -0.000001   0.000175   0.003657   0.371127  -0.045613
    11  C    0.000058  -0.000083   0.005958   0.001096  -0.027563   0.373087
    12  H   -0.038087  -0.032524  -0.000002   0.000000  -0.000000   0.000028
    13  H    0.587040  -0.032639  -0.000002   0.000000  -0.000000   0.000028
    14  H   -0.032639   0.585487  -0.000000   0.000000  -0.000000  -0.000040
    15  H   -0.000002  -0.000000   0.580941  -0.005662   0.000017  -0.000171
    16  H    0.000000   0.000000  -0.005662   0.586951  -0.000176   0.000016
    17  H   -0.000000  -0.000000   0.000017  -0.000176   0.589788  -0.006044
    18  H    0.000028  -0.000040  -0.000171   0.000016  -0.006044   0.589521
 Mulliken charges:
               1
     1  C   -0.077063
     2  O   -0.454777
     3  C    0.531666
     4  O   -0.436499
     5  C    0.009846
     6  C   -0.084241
     7  C   -0.024014
     8  C   -0.363257
     9  I    0.165144
    10  C   -0.023290
    11  C   -0.084145
    12  H    0.129267
    13  H    0.129032
    14  H    0.119131
    15  H    0.124523
    16  H    0.111706
    17  H    0.109592
    18  H    0.117379
 Sum of Mulliken charges =  -0.00000
 Mulliken charges with hydrogens summed into heavy atoms:
               1
     1  C    0.300368
     2  O   -0.454777
     3  C    0.531666
     4  O   -0.436499
     5  C    0.009846
     6  C    0.040282
     7  C    0.087692
     8  C   -0.363257
     9  I    0.165144
    10  C    0.086302
    11  C    0.033234
 Electronic spatial extent (au):  <R**2>=           3029.9189
 Charge=             -0.0000 electrons
 Dipole moment (field-independent basis, Debye):
    X=              0.9906    Y=             -1.6331    Z=             -0.0022  Tot=              1.9101
 Quadrupole moment (field-independent basis, Debye-Ang):
   XX=            -70.2189   YY=            -74.7758   ZZ=            -78.7207
   XY=             -9.3175   XZ=             -0.0094   YZ=             -0.0129
 Traceless Quadrupole moment (field-independent basis, Debye-Ang):
   XX=              4.3529   YY=             -0.2040   ZZ=             -4.1489
   XY=             -9.3175   XZ=             -0.0094   YZ=             -0.0129
 Octapole moment (field-independent basis, Debye-Ang**2):
  XXX=           -115.8890  YYY=             -8.9072  ZZZ=              0.0224  XYY=            -66.4737
  XXY=            -49.1183  XXZ=             -0.0417  XZZ=            -52.0719  YZZ=             -1.1704
  YYZ=             -0.0229  XYZ=             -0.0284
 Hexadecapole moment (field-independent basis, Debye-Ang**3):
 XXXX=          -3468.5423 YYYY=           -438.1696 ZZZZ=            -99.4092 XXXY=           -211.4286
 XXXZ=             -0.2907 YYYX=            -10.8510 YYYZ=              0.0068 ZZZX=              0.0542
 ZZZY=              0.0200 XXYY=           -798.4627 XXZZ=           -687.4709 YYZZ=            -99.2940
 XXYZ=             -0.1034 YYXZ=             -0.1124 ZZXY=              9.4732
 N-N= 5.396219559404D+02 E-N=-2.172233205940D+03  KE= 4.598812201776D+02
 No NMR shielding tensors so no spin-rotation constants.
 Leave Link  601 at Tue Sep 17 09:46:55 2024, MaxMem=  1342177280 cpu:               0.6 elap:               0.1
 (Enter /groups/ReismanLab/Software/Gaussian16_RevC/Linux_Binary_AVX2-enabled-CPU/g16/l701.exe)
 ... and contract with generalized density number  0.
 Compute integral first derivatives.
 R6Disp: Adding Grimme-D3(BJ) dispersion energy 1st derivatives to the gradient.
   1 Symmetry operations used in ECPInt.
 ECPInt:  NShTT=    2145 NPrTT=   11679 LenC2=    2010 LenP2D=    7553.
 LDataN:  DoStor=T MaxTD1= 6 Len=  172
 Leave Link  701 at Tue Sep 17 09:46:56 2024, MaxMem=  1342177280 cpu:               1.1 elap:               0.2
 (Enter /groups/ReismanLab/Software/Gaussian16_RevC/Linux_Binary_AVX2-enabled-CPU/g16/l702.exe)
 L702 exits ... SP integral derivatives will be done elsewhere.
 Leave Link  702 at Tue Sep 17 09:46:56 2024, MaxMem=  1342177280 cpu:               0.0 elap:               0.0
 (Enter /groups/ReismanLab/Software/Gaussian16_RevC/Linux_Binary_AVX2-enabled-CPU/g16/l703.exe)
 Integral derivatives from FoFJK, PRISM(SPDF).
 Compute integral first derivatives, UseDBF=F ICtDFT=           0.
 Calling FoFJK, ICntrl=      2127 FMM=F ISym2X=0 I1Cent= 0 IOpClX= 0 NMat=1 NMatS=1 NMatT=0.
 FoFJK:  IHMeth= 1 ICntrl=    2127 DoSepK=F KAlg= 0 I1Cent=           0 FoldK=F
 IRaf=         0 NMat=       1 IRICut=       1 DoRegI=T DoRafI=F ISym2E= 0 IDoP0=0 IntGTp=1.
 FoFCou: FMM=F IPFlag=           0 FMFlag=      100000 FMFlg1=         800
         NFxFlg=           0 DoJE=F BraDBF=F KetDBF=F FulRan=T
         wScrn=  0.000000 ICntrl=      2127 IOpCl=  0 I1Cent=           0 NGrid=           0
         NMat0=    1 NMatS0=      1 NMatT0=    0 NMatD0=    1 NMtDS0=    0 NMtDT0=    0
 Symmetry not used in FoFCou.
 Defaulting to unpruned grid for atomic number  53.
 Defaulting to unpruned grid for atomic number  53.
 Defaulting to unpruned grid for atomic number  53.
 Defaulting to unpruned grid for atomic number  53.
 Defaulting to unpruned grid for atomic number  53.
 Defaulting to unpruned grid for atomic number  53.
 Defaulting to unpruned grid for atomic number  53.
 Defaulting to unpruned grid for atomic number  53.
 Leave Link  703 at Tue Sep 17 09:46:58 2024, MaxMem=  1342177280 cpu:              21.0 elap:               2.7
 (Enter /groups/ReismanLab/Software/Gaussian16_RevC/Linux_Binary_AVX2-enabled-CPU/g16/l716.exe)
 Dipole        = 3.89731885D-01-6.42510688D-01-8.58636798D-04
 ***** Axes restored to original set *****
 -------------------------------------------------------------------
 Center     Atomic                   Forces (Hartrees/Bohr)
 Number     Number              X              Y              Z
 -------------------------------------------------------------------
      1        6          -0.006354200   -0.003007496   -0.000012166
      2        8           0.005455194    0.010752062   -0.000022543
      3        6           0.009006607    0.004022970   -0.000017669
      4        8          -0.008822624   -0.015082155    0.000020787
      5        6          -0.004696625    0.000754400    0.000018826
      6        6          -0.005518484   -0.002881521   -0.000004072
      7        6           0.003629916   -0.006703152   -0.000038521
      8        6           0.004015549    0.000721750    0.000020009
      9       53           0.007533911    0.000347744   -0.000005168
     10        6           0.003972151    0.007469153   -0.000008797
     11        6          -0.004308861    0.002286446   -0.000007200
     12        1          -0.001304220   -0.000265905   -0.000462848
     13        1          -0.001312591   -0.000278548    0.000486750
     14        1          -0.000382009    0.001887198   -0.000001521
     15        1          -0.001970802   -0.003081515    0.000008384
     16        1           0.001680213   -0.002927497    0.000013390
     17        1           0.001413409    0.003018855    0.000008936
     18        1          -0.002036534    0.002967212    0.000003424
 -------------------------------------------------------------------
 Cartesian Forces:  Max     0.015082155 RMS     0.004177432
 Leave Link  716 at Tue Sep 17 09:46:58 2024, MaxMem=  1342177280 cpu:               0.0 elap:               0.0
 (Enter /groups/ReismanLab/Software/Gaussian16_RevC/Linux_Binary_AVX2-enabled-CPU/g16/l103.exe)

 GradGradGradGradGradGradGradGradGradGradGradGradGradGradGradGradGradGrad
 Berny optimization.
 FormGI is forming the generalized inverse of G from B-inverse, IUseBI=4.
 Internal  Forces:  Max     0.017470224 RMS     0.003968450
 Search for a local minimum.
 Step number   1 out of a maximum of   89
 All quantities printed in internal units (Hartrees-Bohrs-Radians)
 RMS Force = .39685D-02 SwitMx=.10000D-02 MixMth= 1
 Mixed Optimization -- RFO/linear search
 Second derivative matrix not updated -- first step.
 ITU=  0
     Eigenvalues ---    0.00971   0.01429   0.01467   0.01820   0.02203
     Eigenvalues ---    0.02252   0.02265   0.02289   0.02292   0.02302
     Eigenvalues ---    0.02309   0.02317   0.02481   0.10309   0.10649
     Eigenvalues ---    0.13536   0.16000   0.16000   0.16000   0.16000
     Eigenvalues ---    0.16000   0.16000   0.16000   0.22000   0.22984
     Eigenvalues ---    0.24000   0.25000   0.25000   0.25000   0.25000
     Eigenvalues ---    0.25000   0.34057   0.34590   0.34591   0.35179
     Eigenvalues ---    0.36065   0.36088   0.36108   0.36189   0.42476
     Eigenvalues ---    0.43213   0.43604   0.47276   0.47636   0.48355
     Eigenvalues ---    0.48823   0.57124   1.01778
 RFO step:  Lambda=-2.62884171D-03 EMin= 9.70715561D-03
 Linear search not attempted -- first point.
 Iteration  1 RMS(Cart)=  0.02025896 RMS(Int)=  0.00001962
 Iteration  2 RMS(Cart)=  0.00003879 RMS(Int)=  0.00001112
 Iteration  3 RMS(Cart)=  0.00000000 RMS(Int)=  0.00001112
 ITry= 1 IFail=0 DXMaxC= 9.95D-02 DCOld= 1.00D+10 DXMaxT= 3.00D-01 DXLimC= 3.00D+00 Rises=F
 Variable       Old X    -DE/DX   Delta X   Delta X   Delta X     New X
                                 (Linear)    (Quad)   (Total)
    R1        2.68322   0.00940   0.00000   0.02198   0.02198   2.70520
    R2        2.06343   0.00094   0.00000   0.00269   0.00269   2.06613
    R3        2.06345   0.00097   0.00000   0.00277   0.00277   2.06622
    R4        2.05385   0.00191   0.00000   0.00540   0.00540   2.05924
    R5        2.53292   0.00986   0.00000   0.01719   0.01719   2.55011
    R6        2.27935   0.01747   0.00000   0.01712   0.01712   2.29647
    R7        2.80534   0.00387   0.00000   0.01127   0.01127   2.81660
    R8        2.63222   0.00660   0.00000   0.01356   0.01355   2.64577
    R9        2.63073   0.00832   0.00000   0.01723   0.01722   2.64796
   R10        2.60990   0.01098   0.00000   0.02226   0.02226   2.63217
   R11        2.03981   0.00365   0.00000   0.01004   0.01004   2.04985
   R12        2.61687   0.01146   0.00000   0.02403   0.02403   2.64090
   R13        2.03913   0.00337   0.00000   0.00927   0.00927   2.04840
   R14        3.99474   0.00754   0.00000   0.05465   0.05465   4.04939
   R15        2.61721   0.01069   0.00000   0.02249   0.02250   2.63971
   R16        2.61166   0.01134   0.00000   0.02320   0.02320   2.63487
   R17        2.03944   0.00333   0.00000   0.00916   0.00916   2.04860
   R18        2.03787   0.00360   0.00000   0.00987   0.00987   2.04774
    A1        1.92529   0.00147   0.00000   0.00944   0.00941   1.93470
    A2        1.92518   0.00146   0.00000   0.00940   0.00938   1.93456
    A3        1.85433  -0.00095   0.00000  -0.00665  -0.00665   1.84769
    A4        1.89696  -0.00091   0.00000  -0.00406  -0.00411   1.89285
    A5        1.93119  -0.00051   0.00000  -0.00392  -0.00391   1.92728
    A6        1.93099  -0.00051   0.00000  -0.00399  -0.00399   1.92700
    A7        2.02063  -0.00110   0.00000  -0.00434  -0.00434   2.01628
    A8        2.15192   0.00001   0.00000   0.00003   0.00003   2.15195
    A9        1.96443  -0.00073   0.00000  -0.00287  -0.00287   1.96155
   A10        2.16684   0.00072   0.00000   0.00284   0.00284   2.16968
   A11        2.06316  -0.00161   0.00000  -0.00553  -0.00552   2.05764
   A12        2.13036   0.00157   0.00000   0.00706   0.00707   2.13742
   A13        2.08967   0.00004   0.00000  -0.00153  -0.00155   2.08812
   A14        2.10176   0.00066   0.00000   0.00177   0.00176   2.10352
   A15        2.07293  -0.00062   0.00000  -0.00266  -0.00265   2.07028
   A16        2.10849  -0.00004   0.00000   0.00089   0.00089   2.10938
   A17        2.07851   0.00009   0.00000   0.00101   0.00101   2.07952
   A18        2.10045  -0.00023   0.00000  -0.00166  -0.00166   2.09879
   A19        2.10423   0.00014   0.00000   0.00065   0.00065   2.10488
   A20        2.08402   0.00050   0.00000   0.00124   0.00124   2.08525
   A21        2.11670  -0.00117   0.00000  -0.00314  -0.00312   2.11358
   A22        2.08247   0.00067   0.00000   0.00189   0.00189   2.08435
   A23        2.08410  -0.00076   0.00000  -0.00241  -0.00240   2.08170
   A24        2.10161   0.00051   0.00000   0.00201   0.00201   2.10362
   A25        2.09748   0.00025   0.00000   0.00039   0.00039   2.09786
   A26        2.09564   0.00114   0.00000   0.00430   0.00429   2.09993
   A27        2.09033  -0.00066   0.00000  -0.00271  -0.00271   2.08762
   A28        2.09722  -0.00048   0.00000  -0.00158  -0.00158   2.09564
    D1       -1.04220  -0.00038   0.00000  -0.00423  -0.00428  -1.04647
    D2        1.05363   0.00036   0.00000   0.00282   0.00287   1.05650
    D3       -3.13603  -0.00002   0.00000  -0.00076  -0.00076  -3.13678
    D4        0.00042  -0.00001   0.00000  -0.00049  -0.00049  -0.00006
    D5       -3.14123  -0.00001   0.00000  -0.00022  -0.00022  -3.14145
    D6       -3.13990  -0.00001   0.00000  -0.00070  -0.00070  -3.14059
    D7        0.00209  -0.00001   0.00000  -0.00092  -0.00092   0.00117
    D8        0.00163  -0.00000   0.00000  -0.00042  -0.00042   0.00120
    D9       -3.13957  -0.00001   0.00000  -0.00065  -0.00065  -3.14022
   D10       -3.14118  -0.00001   0.00000  -0.00027  -0.00027  -3.14145
   D11        0.00053  -0.00001   0.00000  -0.00042  -0.00042   0.00011
   D12        0.00002  -0.00000   0.00000  -0.00004  -0.00004  -0.00002
   D13       -3.14145  -0.00001   0.00000  -0.00019  -0.00019   3.14154
   D14        3.14115   0.00000   0.00000   0.00022   0.00022   3.14137
   D15       -0.00043   0.00000   0.00000   0.00022   0.00022  -0.00020
   D16       -0.00004   0.00000   0.00000  -0.00001  -0.00001  -0.00005
   D17        3.14157   0.00000   0.00000  -0.00001  -0.00001   3.14156
   D18       -0.00003   0.00000   0.00000   0.00012   0.00012   0.00009
   D19       -3.14121  -0.00001   0.00000  -0.00028  -0.00028  -3.14149
   D20        3.14144   0.00001   0.00000   0.00028   0.00028  -3.14147
   D21        0.00026  -0.00000   0.00000  -0.00013  -0.00013   0.00013
   D22        3.14138   0.00000   0.00000   0.00006   0.00006   3.14144
   D23        0.00006  -0.00000   0.00000  -0.00015  -0.00015  -0.00009
   D24       -0.00063   0.00001   0.00000   0.00046   0.00046  -0.00016
   D25        3.14124   0.00001   0.00000   0.00025   0.00025   3.14149
   D26       -0.00007   0.00000   0.00000   0.00010   0.00010   0.00002
   D27       -3.14150  -0.00000   0.00000  -0.00003  -0.00003  -3.14154
   D28       -3.14140  -0.00000   0.00000  -0.00011  -0.00011  -3.14151
   D29        0.00036  -0.00001   0.00000  -0.00024  -0.00024   0.00011
   D30        0.00006  -0.00000   0.00000  -0.00001  -0.00001   0.00005
   D31       -3.14155  -0.00000   0.00000  -0.00002  -0.00002  -3.14156
   D32        3.14149   0.00000   0.00000   0.00012   0.00012  -3.14157
   D33       -0.00012   0.00000   0.00000   0.00011   0.00011  -0.00000
         Item               Value     Threshold  Converged?
 Maximum Force            0.017470     0.000450     NO 
 RMS     Force            0.003968     0.000300     NO 
 Maximum Displacement     0.099531     0.001800     NO 
 RMS     Displacement     0.020262     0.001200     NO 
 Predicted change in Energy=-1.324533D-03
 Lowest energy point so far.  Saving SCF results.
 GradGradGradGradGradGradGradGradGradGradGradGradGradGradGradGradGradGrad

 Leave Link  103 at Tue Sep 17 09:46:58 2024, MaxMem=  1342177280 cpu:               0.1 elap:               0.0
 (Enter /groups/ReismanLab/Software/Gaussian16_RevC/Linux_Binary_AVX2-enabled-CPU/g16/l202.exe)
                          Input orientation:                          
 ---------------------------------------------------------------------
 Center     Atomic      Atomic             Coordinates (Angstroms)
 Number     Number       Type             X           Y           Z
 ---------------------------------------------------------------------
      1          6           0       -5.770506    0.837555   -0.000181
      2          8           0       -4.339772    0.885363   -0.000604
      3          6           0       -3.717951   -0.312291    0.000144
      4          8           0       -4.312005   -1.372436    0.001180
      5          6           0       -2.233253   -0.181105   -0.000166
      6          6           0       -1.471874   -1.356064   -0.000689
      7          6           0       -0.080235   -1.297239   -0.000823
      8          6           0        0.548285   -0.049046   -0.000317
      9         53           0        2.688665    0.053726   -0.000232
     10          6           0       -0.195534    1.133323    0.000207
     11          6           0       -1.588058    1.062756    0.000251
     12          1           0       -6.142596    0.312654   -0.884169
     13          1           0       -6.142282    0.322849    0.889977
     14          1           0       -6.103237    1.875204   -0.005923
     15          1           0       -1.988437   -2.309902   -0.000956
     16          1           0        0.504922   -2.209692   -0.001323
     17          1           0        0.301637    2.096666    0.000547
     18          1           0       -2.177801    1.971837    0.000628
 ---------------------------------------------------------------------
                    Distance matrix (angstroms):
                    1          2          3          4          5
     1  C    0.000000
     2  O    1.431533   0.000000
     3  C    2.352685   1.349458   0.000000
     4  O    2.647884   2.257971   1.215241   0.000000
     5  C    3.681009   2.361096   1.490482   2.395930   0.000000
     6  C    4.825992   3.639895   2.476757   2.840179   1.400081
     7  C    6.077544   4.786169   3.768701   4.232439   2.425128
     8  C    6.380688   4.976567   4.274350   5.037240   2.784671
     9  I    8.495408   7.077467   6.417063   7.144461   4.927517
    10  C    5.582812   4.151650   3.807522   4.819146   2.424876
    11  C    4.188506   2.757426   2.535192   3.653772   1.401238
    12  H    1.093347   2.087788   2.655460   2.640915   4.038344
    13  H    1.093398   2.087725   2.659433   2.648370   4.040647
    14  H    1.089705   2.022281   3.236473   3.708871   4.382375
    15  H    4.920420   3.967178   2.642285   2.505558   2.142828
    16  H    6.976153   5.748950   4.629556   4.889150   3.407751
    17  H    6.201313   4.796867   4.686167   5.772380   3.407919
    18  H    3.767509   2.419617   2.754869   3.967240   2.153656
                    6          7          8          9         10
     6  C    0.000000
     7  C    1.392882   0.000000
     8  C    2.406105   1.397506   0.000000
     9  I    4.392902   3.080894   2.142846   0.000000
    10  C    2.797516   2.433295   1.396876   3.079632   0.000000
    11  C    2.421609   2.800555   2.408333   4.394144   1.394311
    12  H    5.037936   6.334373   6.758692   8.879164   6.068210
    13  H    5.042295   6.337715   6.759779   8.879781   6.067320
    14  H    5.647180   6.807421   6.924269   8.978605   5.954106
    15  H    1.084732   2.160260   3.398004   5.240421   3.882048
    16  H    2.153231   1.083964   2.161081   3.145122   3.415609
    17  H    3.881584   3.415322   2.159842   3.141896   1.084071
    18  H    3.401950   3.884153   3.393452   5.230836   2.152322
                   11         12         13         14         15
    11  C    0.000000
    12  H    4.699858   0.000000
    13  H    4.698939   1.774175   0.000000
    14  H    4.587695   1.792883   1.792754   0.000000
    15  H    3.396340   4.991484   4.997957   5.869133   0.000000
    16  H    3.884519   7.164575   7.168926   7.768793   2.495371
    17  H    2.154047   6.744892   6.742522   6.408705   4.966114
    18  H    1.083617   4.388092   4.384884   3.926630   4.285925
                   16         17         18
    16  H    0.000000
    17  H    4.311154   0.000000
    18  H    4.968117   2.482579   0.000000
 Stoichiometry    C8H7IO2
 Framework group  C1[X(C8H7IO2)]
 Deg. of freedom    48
 Full point group                 C1      NOp   1
 RotChk:  IX=0 Diff= 6.67D-04
 Largest Abelian subgroup         C1      NOp   1
 Largest concise Abelian subgroup C1      NOp   1
                         Standard orientation:                         
 ---------------------------------------------------------------------
 Center     Atomic      Atomic             Coordinates (Angstroms)
 Number     Number       Type             X           Y           Z
 ---------------------------------------------------------------------
      1          6           0        5.491692   -0.785731   -0.000033
      2          8           0        4.061470   -0.846968   -0.000456
      3          6           0        3.428433    0.344796    0.000292
      4          8           0        4.012509    1.410471    0.001328
      5          6           0        1.945033    0.199678   -0.000018
      6          6           0        1.172657    1.367438   -0.000541
      7          6           0       -0.218369    1.295551   -0.000675
      8          6           0       -0.835143    0.041513   -0.000169
      9         53           0       -2.974464   -0.081347   -0.000084
     10          6           0       -0.080258   -1.133821    0.000355
     11          6           0        1.311543   -1.050185    0.000399
     12          1           0        5.858839   -0.257360   -0.884021
     13          1           0        5.858620   -0.267558    0.890125
     14          1           0        5.834149   -1.820210   -0.005775
     15          1           0        1.680242    2.326083   -0.000808
     16          1           0       -0.812065    2.202471   -0.001175
     17          1           0       -0.568363   -2.101790    0.000695
     18          1           0        1.909794   -1.953690    0.000776
 ---------------------------------------------------------------------
 Rotational constants (GHZ):           3.4090237           0.2172902           0.2045323
 Leave Link  202 at Tue Sep 17 09:46:58 2024, MaxMem=  1342177280 cpu:               0.0 elap:               0.0
 (Enter /groups/ReismanLab/Software/Gaussian16_RevC/Linux_Binary_AVX2-enabled-CPU/g16/l301.exe)
 Basis read from rwf:  (5D, 7F)
 Pseudo-potential data read from rwf file.
 There are   193 symmetry adapted cartesian basis functions of A   symmetry.
 There are   183 symmetry adapted basis functions of A   symmetry.
   183 basis functions,   341 primitive gaussians,   193 cartesian basis functions
    39 alpha electrons       39 beta electrons
       nuclear repulsion energy       535.8139240712 Hartrees.
 IExCor=  402 DFT=T Ex+Corr=B3LYP ExCW=0 ScaHFX=  0.200000
 ScaDFX=  0.800000  0.720000  1.000000  0.810000 ScalE2=  1.000000  1.000000
 IRadAn=      5 IRanWt=     -1 IRanGd=            0 ICorTp=0 IEmpDi=141
 NAtoms=   18 NActive=   18 NUniq=   18 SFac= 1.00D+00 NAtFMM=   60 NAOKFM=F Big=F
 Integral buffers will be    131072 words long.
 Raffenetti 2 integral format.
 Two-electron integral symmetry is turned on.
 R6Disp:  Grimme-D3(BJ) Dispersion energy=       -0.0364643839 Hartrees.
 Nuclear repulsion after empirical dispersion term =      535.7774596873 Hartrees.
 No density basis found on file    724.
 Leave Link  301 at Tue Sep 17 09:46:58 2024, MaxMem=  1342177280 cpu:               0.1 elap:               0.0
 (Enter /groups/ReismanLab/Software/Gaussian16_RevC/Linux_Binary_AVX2-enabled-CPU/g16/l302.exe)
 NPDir=0 NMtPBC=     1 NCelOv=     1 NCel=       1 NClECP=     1 NCelD=      1
         NCelK=      1 NCelE2=     1 NClLst=     1 CellRange=     0.0.
 One-electron integrals computed using PRISM.
 One-electron integral symmetry used in STVInt
   1 Symmetry operations used in ECPInt.
 ECPInt:  NShTT=    2145 NPrTT=   11679 LenC2=    2006 LenP2D=    7521.
 LDataN:  DoStor=T MaxTD1= 5 Len=  102
 NBasis=   183 RedAO= T EigKep=  4.80D-04  NBF=   183
 NBsUse=   183 1.00D-06 EigRej= -1.00D+00 NBFU=   183
 Precomputing XC quadrature grid using
 IXCGrd= 4 IRadAn=           5 IRanWt=          -1 IRanGd=           0 AccXCQ= 0.00D+00.
 Defaulting to unpruned grid for atomic number  53.
 Generated NRdTot=       0 NPtTot=           0 NUsed=           0 NTot=          32
 NSgBfM=   193   193   193   193   193 MxSgAt=    18 MxSgA2=    18.
 Leave Link  302 at Tue Sep 17 09:46:59 2024, MaxMem=  1342177280 cpu:               0.9 elap:               0.2
 (Enter /groups/ReismanLab/Software/Gaussian16_RevC/Linux_Binary_AVX2-enabled-CPU/g16/l303.exe)
 DipDrv:  MaxL=1.
 Leave Link  303 at Tue Sep 17 09:46:59 2024, MaxMem=  1342177280 cpu:               0.1 elap:               0.0
 (Enter /groups/ReismanLab/Software/Gaussian16_RevC/Linux_Binary_AVX2-enabled-CPU/g16/l401.exe)
 Initial guess from the checkpoint file:  "smiles_00089_conf_0.chk"
 B after Tr=    -0.000000    0.000000   -0.000000
         Rot=    1.000000    0.000011    0.000020    0.000162 Ang=   0.02 deg.
 Guess basis will be translated and rotated to current coordinates.
 JPrj=2 DoOrth=T DoCkMO=T.
 Generating alternative initial guess.
 ExpMin= 1.05D-01 ExpMax= 5.48D+03 ExpMxC= 8.25D+02 IAcc=3 IRadAn=         5 AccDes= 0.00D+00
 Harris functional with IExCor=  402 and IRadAn=       5 diagonalized for initial guess.
 HarFok:  IExCor=  402 AccDes= 0.00D+00 IRadAn=         5 IDoV= 1 UseB2=F ITyADJ=14
 ICtDFT=  3500011 ScaDFX=  1.000000  1.000000  1.000000  1.000000
 Defaulting to unpruned grid for atomic number  53.
 FoFCou: FMM=F IPFlag=           0 FMFlag=      100000 FMFlg1=           0
         NFxFlg=           0 DoJE=T BraDBF=F KetDBF=T FulRan=T
         wScrn=  0.000000 ICntrl=       500 IOpCl=  0 I1Cent=   200000004 NGrid=           0
         NMat0=    1 NMatS0=      1 NMatT0=    0 NMatD0=    1 NMtDS0=    0 NMtDT0=    0
 Petite list used in FoFCou.
 Harris En= -470.877177980815    
 Leave Link  401 at Tue Sep 17 09:46:59 2024, MaxMem=  1342177280 cpu:               4.3 elap:               0.6
 (Enter /groups/ReismanLab/Software/Gaussian16_RevC/Linux_Binary_AVX2-enabled-CPU/g16/l502.exe)
 Integral symmetry usage will be decided dynamically.
 Closed shell SCF:
 Using DIIS extrapolation, IDIIS=  1040.
 NGot=  1342177280 LenX=  1342098694 LenY=  1342061004
 Requested convergence on RMS density matrix=1.00D-08 within  32 cycles.
 Requested convergence on MAX density matrix=1.00D-06.
 Requested convergence on             energy=1.00D-06.
 No special actions if energy rises.
 Fock matrices will be formed incrementally for  20 cycles.
 Integral accuracy reduced to 1.0D-05 until final iterations.

 Cycle   1  Pass 0  IDiag  1:
 FoFJK:  IHMeth= 1 ICntrl=       0 DoSepK=F KAlg= 0 I1Cent=           0 FoldK=F
 IRaf= 880000000 NMat=       1 IRICut=       1 DoRegI=T DoRafI=F ISym2E= 0 IDoP0=0 IntGTp=1.
 FoFCou: FMM=F IPFlag=           0 FMFlag=      100000 FMFlg1=           0
         NFxFlg=           0 DoJE=F BraDBF=F KetDBF=F FulRan=T
         wScrn=  0.000000 ICntrl=         0 IOpCl=  0 I1Cent=           0 NGrid=           0
         NMat0=    1 NMatS0=      1 NMatT0=    0 NMatD0=    1 NMtDS0=    0 NMtDT0=    0
 Symmetry not used in FoFCou.
 Defaulting to unpruned grid for atomic number  53.
 Defaulting to unpruned grid for atomic number  53.
 Defaulting to unpruned grid for atomic number  53.
 Defaulting to unpruned grid for atomic number  53.
 Defaulting to unpruned grid for atomic number  53.
 Defaulting to unpruned grid for atomic number  53.
 Defaulting to unpruned grid for atomic number  53.
 Defaulting to unpruned grid for atomic number  53.
 E= -470.943324919632    
 DIIS: error= 1.95D-03 at cycle   1 NSaved=   1.
 NSaved= 1 IEnMin= 1 EnMin= -470.943324919632     IErMin= 1 ErrMin= 1.95D-03
 ErrMax= 1.95D-03  0.00D+00 EMaxC= 1.00D-01 BMatC= 5.18D-04 BMatP= 5.18D-04
 IDIUse=3 WtCom= 9.81D-01 WtEn= 1.95D-02
 Coeff-Com:  0.100D+01
 Coeff-En:   0.100D+01
 Coeff:      0.100D+01
 Gap=     0.807 Goal=   None    Shift=    0.000
 GapD=    0.807 DampG=2.000 DampE=1.000 DampFc=2.0000 IDamp=-1.
 RMSDP=2.77D-04 MaxDP=6.27D-03              OVMax= 9.03D-03

 Cycle   2  Pass 0  IDiag  1:
 RMSU=  2.75D-04    CP:  9.99D-01
 E= -470.943541447458     Delta-E=       -0.000216527826 Rises=F Damp=F
 DIIS: error= 1.51D-03 at cycle   2 NSaved=   2.
 NSaved= 2 IEnMin= 2 EnMin= -470.943541447458     IErMin= 2 ErrMin= 1.51D-03
 ErrMax= 1.51D-03  0.00D+00 EMaxC= 1.00D-01 BMatC= 2.01D-04 BMatP= 5.18D-04
 IDIUse=3 WtCom= 9.85D-01 WtEn= 1.51D-02
 Coeff-Com:  0.335D+00 0.665D+00
 Coeff-En:   0.203D+00 0.797D+00
 Coeff:      0.333D+00 0.667D+00
 Gap=     0.192 Goal=   None    Shift=    0.000
 RMSDP=1.81D-04 MaxDP=6.02D-03 DE=-2.17D-04 OVMax= 9.47D-03

 Cycle   3  Pass 0  IDiag  1:
 RMSU=  1.54D-04    CP:  9.99D-01  6.61D-01
 E= -470.943556248386     Delta-E=       -0.000014800927 Rises=F Damp=F
 DIIS: error= 1.39D-03 at cycle   3 NSaved=   3.
 NSaved= 3 IEnMin= 3 EnMin= -470.943556248386     IErMin= 3 ErrMin= 1.39D-03
 ErrMax= 1.39D-03  0.00D+00 EMaxC= 1.00D-01 BMatC= 1.90D-04 BMatP= 2.01D-04
 IDIUse=3 WtCom= 9.86D-01 WtEn= 1.39D-02
 Coeff-Com:  0.318D-01 0.486D+00 0.482D+00
 Coeff-En:   0.000D+00 0.487D+00 0.513D+00
 Coeff:      0.314D-01 0.486D+00 0.482D+00
 Gap=     0.192 Goal=   None    Shift=    0.000
 RMSDP=9.99D-05 MaxDP=3.36D-03 DE=-1.48D-05 OVMax= 4.83D-03

 Cycle   4  Pass 0  IDiag  1:
 RMSU=  3.42D-05    CP:  9.99D-01  8.52D-01  4.97D-01
 E= -470.943767354044     Delta-E=       -0.000211105658 Rises=F Damp=F
 DIIS: error= 3.38D-04 at cycle   4 NSaved=   4.
[...]
   XZ=    -0.0195   YZ=    -0.0001   ZZ=   175.4127
   Eigenvalues:   -84.6797     6.2520   175.4127
     12  H    Isotropic =    27.9488   Anisotropy =     8.2523
   XX=    30.9472   YX=     1.5284   ZX=    -3.7681
   XY=    -0.1757   YY=    25.4045   ZY=    -0.8470
   XZ=    -3.6104   YZ=    -1.1960   ZZ=    27.4946
   Eigenvalues:    24.7014    25.6947    33.4503
     13  H    Isotropic =    27.9566   Anisotropy =     8.2674
   XX=    30.9524   YX=     1.5136   ZX=     3.7814
   XY=    -0.1762   YY=    25.3919   ZY=     0.8381
   XZ=     3.6173   YZ=     1.1815   ZZ=    27.5253
   Eigenvalues:    24.7128    25.6887    33.4682
     14  H    Isotropic =    28.0246   Anisotropy =     7.6878
   XX=    30.8567   YX=    -3.8835   ZX=    -0.0099
   XY=    -2.1397   YY=    29.1944   ZY=     0.0117
   XZ=    -0.0104   YZ=     0.0196   ZZ=    24.0227
   Eigenvalues:    24.0226    26.9014    33.1498
     15  H    Isotropic =    22.7451   Anisotropy =     8.7713
   XX=    27.6860   YX=    -2.9232   ZX=     0.0007
   XY=    -2.0997   YY=    21.6361   ZY=     0.0000
   XZ=     0.0009   YZ=     0.0004   ZZ=    18.9133
   Eigenvalues:    18.9133    20.7294    28.5926
     16  H    Isotropic =    23.3971   Anisotropy =    12.4630
   XX=    27.5406   YX=     5.7338   ZX=     0.0012
   XY=     5.3446   YY=    24.3392   ZY=     0.0009
   XZ=     0.0013   YZ=     0.0008   ZZ=    18.3115
   Eigenvalues:    18.3115    20.1740    31.7057
     17  H    Isotropic =    23.4288   Anisotropy =    12.6241
   XX=    28.9001   YX=    -5.3063   ZX=     0.0008
   XY=    -4.8303   YY=    23.1217   ZY=    -0.0002
   XZ=     0.0008   YZ=    -0.0004   ZZ=    18.2647
   Eigenvalues:    18.2647    20.1770    31.8449
     18  H    Isotropic =    23.0023   Anisotropy =     9.6043
   XX=    28.0499   YX=     3.7672   ZX=     0.0009
   XY=     2.4738   YY=    22.2201   ZY=     0.0005
   XZ=     0.0006   YZ=     0.0003   ZZ=    18.7368
   Eigenvalues:    18.7368    20.8648    29.4052
 End of Minotr F.D. properties file   721 does not exist.
 End of Minotr F.D. properties file   722 does not exist.
 End of Minotr F.D. properties file   788 does not exist.
 Leave Link 1002 at Tue Sep 17 10:58:59 2024, MaxMem=  1342177280 cpu:             780.4 elap:             783.4
 (Enter /groups/ReismanLab/Software/Gaussian16_RevC/Linux_Binary_AVX2-enabled-CPU/g16/l601.exe)
 Copying SCF densities to generalized density rwf, IOpCl= 0 IROHF=0.

 **********************************************************************

            Population analysis using the SCF Density.

 **********************************************************************

 Orbital symmetries:
       Occupied  (A) (A) (A) (A) (A) (A) (A) (A) (A) (A) (A) (A)
                 (A) (A) (A) (A) (A) (A) (A) (A) (A) (A) (A) (A)
                 (A) (A) (A) (A) (A) (A) (A) (A) (A) (A) (A) (A)
                 (A) (A) (A) (A) (A) (A) (A) (A) (A) (A) (A) (A)
       Virtual   (A) (A) (A) (A) (A) (A) (A) (A) (A) (A) (A) (A)
                 (A) (A) (A) (A) (A) (A) (A) (A) (A) (A) (A) (A)
                 (A) (A) (A) (A) (A) (A) (A) (A) (A) (A) (A) (A)
                 (A) (A) (A) (A) (A) (A) (A) (A) (A) (A) (A) (A)
                 (A) (A) (A) (A) (A) (A) (A) (A) (A) (A) (A) (A)
                 (A) (A) (A) (A) (A) (A) (A) (A) (A) (A) (A) (A)
                 (A) (A) (A) (A) (A) (A) (A) (A) (A) (A) (A) (A)
                 (A) (A) (A) (A) (A) (A) (A) (A) (A) (A) (A) (A)
                 (A) (A) (A) (A) (A) (A) (A) (A) (A) (A) (A) (A)
                 (A) (A) (A) (A) (A) (A) (A) (A) (A) (A) (A) (A)
                 (A) (A) (A) (A) (A) (A) (A) (A) (A) (A) (A) (A)
                 (A) (A) (A) (A) (A) (A) (A) (A) (A) (A) (A) (A)
                 (A) (A) (A) (A) (A) (A) (A) (A) (A) (A) (A) (A)
                 (A) (A) (A) (A) (A) (A) (A) (A) (A) (A) (A) (A)
                 (A) (A) (A) (A) (A) (A) (A) (A) (A) (A) (A) (A)
                 (A) (A) (A) (A) (A) (A) (A) (A) (A) (A) (A) (A)
                 (A) (A) (A) (A) (A) (A) (A) (A) (A) (A) (A) (A)
                 (A) (A) (A) (A) (A) (A) (A) (A) (A) (A) (A) (A)
                 (A) (A) (A) (A) (A) (A) (A) (A) (A) (A) (A) (A)
                 (A) (A) (A) (A) (A) (A) (A) (A) (A) (A) (A) (A)
                 (A) (A) (A) (A) (A) (A) (A) (A) (A) (A) (A) (A)
                 (A) (A) (A) (A) (A) (A) (A) (A) (A) (A) (A) (A)
                 (A) (A) (A) (A) (A) (A) (A) (A) (A) (A) (A) (A)
                 (A) (A) (A) (A) (A) (A) (A) (A) (A) (A) (A) (A)
                 (A) (A) (A) (A) (A) (A) (A) (A) (A) (A) (A) (A)
                 (A) (A) (A) (A) (A) (A) (A) (A) (A) (A) (A) (A)
                 (A) (A) (A) (A) (A) (A) (A) (A) (A) (A) (A) (A)
                 (A) (A) (A) (A) (A) (A) (A) (A) (A) (A) (A) (A)
                 (A) (A) (A) (A) (A) (A) (A) (A) (A) (A) (A) (A)
                 (A) (A) (A) (A) (A) (A)
 The electronic state is 1-A.
 Alpha  occ. eigenvalues --  -19.67757 -19.62193 -10.68148 -10.60947 -10.58983
 Alpha  occ. eigenvalues --  -10.57022 -10.56611 -10.56500 -10.56482 -10.56366
 Alpha  occ. eigenvalues --   -7.10942  -5.10288  -5.09247  -5.09233  -2.07119
 Alpha  occ. eigenvalues --   -2.06685  -2.06678  -2.05810  -2.05809  -1.23701
 Alpha  occ. eigenvalues --   -1.14369  -0.98621  -0.89124  -0.86489  -0.82615
 Alpha  occ. eigenvalues --   -0.78339  -0.71238  -0.70584  -0.65564  -0.62568
 Alpha  occ. eigenvalues --   -0.57241  -0.57091  -0.53979  -0.53488  -0.53177
 Alpha  occ. eigenvalues --   -0.50825  -0.48442  -0.48081  -0.45449  -0.43889
 Alpha  occ. eigenvalues --   -0.42153  -0.40185  -0.38273  -0.36566  -0.36046
 Alpha  occ. eigenvalues --   -0.32865  -0.32671  -0.30031
 Alpha virt. eigenvalues --   -0.03108  -0.00873   0.00230   0.08007   0.08317
 Alpha virt. eigenvalues --    0.09653   0.10990   0.11458   0.13013   0.13602
 Alpha virt. eigenvalues --    0.15105   0.15726   0.15762   0.17403   0.17979
 Alpha virt. eigenvalues --    0.18417   0.19398   0.19868   0.21370   0.22253
 Alpha virt. eigenvalues --    0.23078   0.23540   0.24014   0.24391   0.25091
 Alpha virt. eigenvalues --    0.25912   0.26014   0.28524   0.28564   0.28768
 Alpha virt. eigenvalues --    0.29317   0.30789   0.31574   0.33192   0.34554
 Alpha virt. eigenvalues --    0.35511   0.36902   0.37219   0.37810   0.38805
 Alpha virt. eigenvalues --    0.39208   0.40393   0.41206   0.42005   0.42187
 Alpha virt. eigenvalues --    0.43586   0.44601   0.45633   0.46039   0.47185
 Alpha virt. eigenvalues --    0.48770   0.49672   0.50569   0.51540   0.52328
 Alpha virt. eigenvalues --    0.52716   0.54034   0.55400   0.55893   0.56757
 Alpha virt. eigenvalues --    0.57039   0.58142   0.61042   0.64433   0.64783
 Alpha virt. eigenvalues --    0.65279   0.66368   0.68272   0.68787   0.69867
 Alpha virt. eigenvalues --    0.70741   0.71857   0.74117   0.75657   0.76382
 Alpha virt. eigenvalues --    0.78233   0.79092   0.79201   0.80376   0.80705
 Alpha virt. eigenvalues --    0.82033   0.83220   0.85490   0.86439   0.87652
 Alpha virt. eigenvalues --    0.88931   0.90908   0.91215   0.92115   0.93293
 Alpha virt. eigenvalues --    0.93441   0.95347   0.96134   0.96186   0.97348
 Alpha virt. eigenvalues --    0.98203   0.98566   1.02278   1.03835   1.05604
 Alpha virt. eigenvalues --    1.07246   1.07566   1.08643   1.11920   1.12147
 Alpha virt. eigenvalues --    1.13408   1.19851   1.19972   1.20794   1.24657
 Alpha virt. eigenvalues --    1.24799   1.24878   1.26835   1.27667   1.29322
 Alpha virt. eigenvalues --    1.30056   1.31822   1.32565   1.35202   1.36297
 Alpha virt. eigenvalues --    1.37895   1.39120   1.41594   1.43017   1.43258
 Alpha virt. eigenvalues --    1.45623   1.46552   1.50613   1.50780   1.51143
 Alpha virt. eigenvalues --    1.51754   1.52746   1.53878   1.55410   1.55678
 Alpha virt. eigenvalues --    1.57736   1.57750   1.59687   1.59726   1.61580
 Alpha virt. eigenvalues --    1.62830   1.63233   1.63752   1.64497   1.68084
 Alpha virt. eigenvalues --    1.68837   1.70922   1.74942   1.77060   1.77352
 Alpha virt. eigenvalues --    1.79454   1.83771   1.84707   1.86881   1.87430
 Alpha virt. eigenvalues --    1.88726   1.92561   1.95263   1.98469   1.98971
 Alpha virt. eigenvalues --    2.01914   2.04015   2.05102   2.05795   2.07117
 Alpha virt. eigenvalues --    2.10100   2.10890   2.14349   2.14471   2.15245
 Alpha virt. eigenvalues --    2.16716   2.19023   2.19470   2.24069   2.26712
 Alpha virt. eigenvalues --    2.30713   2.31459   2.31871   2.32911   2.34945
 Alpha virt. eigenvalues --    2.35810   2.38087   2.41925   2.42363   2.44298
 Alpha virt. eigenvalues --    2.52718   2.53613   2.54472   2.55357   2.56210
 Alpha virt. eigenvalues --    2.58170   2.60911   2.61863   2.63156   2.64802
 Alpha virt. eigenvalues --    2.65955   2.66689   2.66875   2.69966   2.70228
 Alpha virt. eigenvalues --    2.72635   2.72701   2.72968   2.77368   2.78855
 Alpha virt. eigenvalues --    2.79522   2.80870   2.82025   2.82105   2.84479
 Alpha virt. eigenvalues --    2.84891   2.86160   2.90293   2.91885   2.92415
 Alpha virt. eigenvalues --    2.95418   2.95822   2.98270   2.99608   3.01081
 Alpha virt. eigenvalues --    3.05362   3.05806   3.09343   3.10684   3.11078
 Alpha virt. eigenvalues --    3.12791   3.14067   3.14111   3.14321   3.15304
 Alpha virt. eigenvalues --    3.16055   3.16533   3.18245   3.19246   3.20410
 Alpha virt. eigenvalues --    3.20872   3.22223   3.22489   3.24279   3.25117
 Alpha virt. eigenvalues --    3.27747   3.29603   3.29864   3.30065   3.32447
 Alpha virt. eigenvalues --    3.33101   3.34985   3.35460   3.38073   3.38834
 Alpha virt. eigenvalues --    3.39011   3.39948   3.40009   3.40929   3.42724
 Alpha virt. eigenvalues --    3.44127   3.45226   3.46039   3.47501   3.49016
 Alpha virt. eigenvalues --    3.49400   3.52622   3.52932   3.54747   3.57600
 Alpha virt. eigenvalues --    3.57693   3.60216   3.60988   3.61705   3.64877
 Alpha virt. eigenvalues --    3.72624   3.76384   3.78967   3.80215   3.81532
 Alpha virt. eigenvalues --    3.84132   3.88646   3.95891   4.00341   4.02327
 Alpha virt. eigenvalues --    4.06630   4.08818   4.12951   4.13592   4.14529
 Alpha virt. eigenvalues --    4.15544   4.16854   4.17430   4.18506   4.20211
 Alpha virt. eigenvalues --    4.23638   4.27844   4.29933   4.32028   4.38391
 Alpha virt. eigenvalues --    4.42220   4.44700   4.48299   4.53914   4.55937
 Alpha virt. eigenvalues --    4.57398   4.57759   4.65688   4.69207   4.79068
 Alpha virt. eigenvalues --    4.80945   4.83397   4.88088   4.95151   5.07812
 Alpha virt. eigenvalues --    5.10173   5.18270   5.24241   5.26756   5.30470
 Alpha virt. eigenvalues --    5.31179   5.36633   5.43294   5.49207   5.51822
 Alpha virt. eigenvalues --    5.65508   5.65834   5.86542   5.93929   6.07893
 Alpha virt. eigenvalues --    6.14624   6.21970   6.34942   6.37233   6.53749
 Alpha virt. eigenvalues --    6.63648   6.69879   6.74845   6.86110   6.88790
 Alpha virt. eigenvalues --    7.02724   7.10380   7.27660   7.40067  22.15513
 Alpha virt. eigenvalues --   22.44284  22.66946  22.67967  22.81670  22.86383
 Alpha virt. eigenvalues --   23.22282  23.51364  34.47672  34.55820  34.81135
 Alpha virt. eigenvalues --   42.86520  44.05646  44.25955 117.58136
          Condensed to atoms (all electrons):
               1          2          3          4          5          6
     1  C    4.868960   0.205613  -0.052661   0.001886   0.011267  -0.001645
     2  O    0.205613   7.981767   0.382815  -0.081522  -0.164055   0.007437
     3  C   -0.052661   0.382815   4.449538   0.658220   0.325019  -0.071943
     4  O    0.001886  -0.081522   0.658220   7.873910  -0.140781   0.022530
     5  C    0.011267  -0.164055   0.325019  -0.140781   5.224685   0.441463
     6  C   -0.001645   0.007437  -0.071943   0.022530   0.441463   5.112279
     7  C   -0.000016  -0.000135   0.007223   0.003876  -0.030770   0.367422
     8  C    0.000010   0.000339  -0.003249  -0.000179  -0.054444   0.014422
     9  I   -0.000000  -0.000002  -0.000095  -0.000001  -0.004295   0.022117
    10  C   -0.000065  -0.000414   0.007881   0.000054  -0.040498  -0.055332
    11  C   -0.000598   0.029970  -0.048716   0.006185   0.431344  -0.056965
    12  H    0.419456  -0.033260  -0.008104   0.003756  -0.001849  -0.000168
    13  H    0.419529  -0.033255  -0.008051   0.003686  -0.001860  -0.000167
    14  H    0.397366  -0.031061   0.004134   0.001743   0.003315   0.000069
    15  H   -0.000117   0.000737  -0.009793   0.015058  -0.025592   0.400361
    16  H    0.000000   0.000002   0.000090  -0.000047   0.005396  -0.032183
    17  H    0.000000  -0.000081   0.000061   0.000004   0.006307  -0.002987
    18  H   -0.000184   0.014901  -0.008331   0.000304  -0.023306   0.003913
               7          8          9         10         11         12
     1  C   -0.000016   0.000010  -0.000000  -0.000065  -0.000598   0.419456
     2  O   -0.000135   0.000339  -0.000002  -0.000414   0.029970  -0.033260
     3  C    0.007223  -0.003249  -0.000095   0.007881  -0.048716  -0.008104
     4  O    0.003876  -0.000179  -0.000001   0.000054   0.006185   0.003756
     5  C   -0.030770  -0.054444  -0.004295  -0.040498   0.431344  -0.001849
     6  C    0.367422   0.014422   0.022117  -0.055332  -0.056965  -0.000168
     7  C    5.212330   0.396043  -0.094029  -0.018133  -0.065136  -0.000003
     8  C    0.396043   4.893731   0.347860   0.395052   0.016680   0.000001
     9  I   -0.094029   0.347860  24.913811  -0.094488   0.022253   0.000000
    10  C   -0.018133   0.395052  -0.094488   5.221117   0.368234   0.000011
    11  C   -0.065136   0.016680   0.022253   0.368234   5.102683   0.000518
    12  H   -0.000003   0.000001   0.000000   0.000011   0.000518   0.522752
    13  H   -0.000003   0.000001   0.000000   0.000011   0.000515  -0.040500
    14  H   -0.000004   0.000000  -0.000000  -0.000041  -0.001001  -0.023638
    15  H   -0.024096   0.001356  -0.000315   0.000088   0.005258  -0.000011
    16  H    0.419061  -0.044146  -0.013117   0.011258  -0.002770  -0.000000
    17  H    0.011306  -0.044439  -0.012868   0.416360  -0.029941  -0.000000
    18  H   -0.000126   0.001808  -0.000331  -0.027553   0.402322   0.000096
              13         14         15         16         17         18
     1  C    0.419529   0.397366  -0.000117   0.000000   0.000000  -0.000184
     2  O   -0.033255  -0.031061   0.000737   0.000002  -0.000081   0.014901
     3  C   -0.008051   0.004134  -0.009793   0.000090   0.000061  -0.008331
     4  O    0.003686   0.001743   0.015058  -0.000047   0.000004   0.000304
     5  C   -0.001860   0.003315  -0.025592   0.005396   0.006307  -0.023306
     6  C   -0.000167   0.000069   0.400361  -0.032183  -0.002987   0.003913
     7  C   -0.000003  -0.000004  -0.024096   0.419061   0.011306  -0.000126
     8  C    0.000001   0.000000   0.001356  -0.044146  -0.044439   0.001808
     9  I    0.000000  -0.000000  -0.000315  -0.013117  -0.012868  -0.000331
    10  C    0.000011  -0.000041   0.000088   0.011258   0.416360  -0.027553
    11  C    0.000515  -0.001001   0.005258  -0.002770  -0.029941   0.402322
    12  H   -0.040500  -0.023638  -0.000011  -0.000000  -0.000000   0.000096
    13  H    0.522722  -0.023650  -0.000011  -0.000000  -0.000000   0.000095
    14  H   -0.023650   0.516981  -0.000001   0.000000   0.000001  -0.000277
    15  H   -0.000011  -0.000001   0.450535  -0.001755   0.000057  -0.000182
    16  H   -0.000000   0.000000  -0.001755   0.466887   0.000088   0.000054
    17  H   -0.000000   0.000001   0.000057   0.000088   0.468160  -0.002389
    18  H    0.000095  -0.000277  -0.000182   0.000054  -0.002389   0.457284
 Mulliken charges:
               1
     1  C   -0.268800
     2  O   -0.279795
     3  C    0.375963
     4  O   -0.368681
     5  C    0.038655
     6  C   -0.170623
     7  C   -0.184808
     8  C    0.079152
     9  I   -0.086500
    10  C   -0.183541
    11  C   -0.180835
    12  H    0.160943
    13  H    0.160939
    14  H    0.156065
    15  H    0.188420
    16  H    0.191183
    17  H    0.190363
    18  H    0.181901
 Sum of Mulliken charges =  -0.00000
 Mulliken charges with hydrogens summed into heavy atoms:
               1
     1  C    0.209147
     2  O   -0.279795
     3  C    0.375963
     4  O   -0.368681
     5  C    0.038655
     6  C    0.017798
     7  C    0.006374
     8  C    0.079152
     9  I   -0.086500
    10  C    0.006822
    11  C    0.001065
 Electronic spatial extent (au):  <R**2>=           3653.3912
 Charge=             -0.0000 electrons
 Dipole moment (field-independent basis, Debye):
    X=              0.9528    Y=             -1.8897    Z=             -0.0005  Tot=              2.1163
 Quadrupole moment (field-independent basis, Debye-Ang):
   XX=            -77.2923   YY=            -81.7839   ZZ=            -87.2402
   XY=            -10.6253   XZ=             -0.0024   YZ=             -0.0010
 Traceless Quadrupole moment (field-independent basis, Debye-Ang):
   XX=              4.8132   YY=              0.3216   ZZ=             -5.1348
   XY=            -10.6253   XZ=             -0.0024   YZ=             -0.0010
 Octapole moment (field-independent basis, Debye-Ang**2):
  XXX=            -57.6337  YYY=             -9.0008  ZZZ=             -0.0049  XYY=            -50.1239
  XXY=            -55.2436  XXZ=             -0.0164  XZZ=            -35.8391  YZZ=             -0.9262
  YYZ=             -0.0125  XYZ=             -0.0062
 Hexadecapole moment (field-independent basis, Debye-Ang**3):
 XXXX=          -3875.6921 YYYY=           -446.5172 ZZZZ=           -110.1053 XXXY=           -254.8940
 XXXZ=             -0.2162 YYYX=            -24.7797 YYYZ=             -0.0015 ZZZX=             -0.1536
 ZZZY=             -0.0216 XXYY=           -882.7223 XXZZ=           -769.4568 YYZZ=           -105.8840
 XXYZ=             -0.0328 YYXZ=             -0.1136 ZZXY=              7.0642
 N-N= 6.879735563903D+02 E-N=-3.078543392097D+03  KE= 5.705949423208D+02
 Calculating spin-rotation constants.
 Leave Link  601 at Tue Sep 17 10:59:03 2024, MaxMem=  1342177280 cpu:               4.3 elap:               4.3
 (Enter /groups/ReismanLab/Software/Gaussian16_RevC/Linux_Binary_AVX2-enabled-CPU/g16/l9999.exe)
 Unable to Open any file for archive entry.
 1\1\GINC-HPC-20-32\SP\RM062X\def2TZVP\C8H7I1O2\MANTIND\17-Sep-2024\0\\
 #p M062X/def2tzvp geom=check guess=read scf(xqc,tight) integral(grid=u
 ltrafine) scrf(SMD, solvent=1,4-Dioxane) nmr=giao\\spe\\0,1\C,0,-5.769
 7637243,0.8340458577,-0.0000619564\O,0,-4.3356360167,0.8927041594,-0.0
 000159862\C,0,-3.7147101245,-0.3076545091,0.0000976426\O,0,-4.31167011
 65,-1.3665079381,0.0002907814\C,0,-2.2325773879,-0.1781222702,-0.00006
 68463\C,0,-1.4740784036,-1.3542697221,-0.0000831762\C,0,-0.0833496919,
 -1.2977534899,-0.0002344302\C,0,0.5417822615,-0.0502177484,-0.00035282
 32\I,0,2.6780091672,0.0497848241,-0.0005782512\C,0,-0.1963261976,1.133
 4036843,-0.000325516\C,0,-1.5879100792,1.0643913286,-0.000185811\H,0,-
 6.1318330252,0.3080979606,-0.886735409\H,0,-6.1320332556,0.313263417,0
 .8896129557\H,0,-6.1063952893,1.8703136791,-0.0030027134\H,0,-1.992073
 3192,-2.3069846099,0.0000254527\H,0,0.5023095258,-2.2093145355,-0.0002
 562067\H,0,0.3029026003,2.0950472643,-0.0004102408\H,0,-2.1766788485,1
 .9739282113,-0.0001681116\\Version=ES64L-G16RevC.02\State=1-A\HF=-757.
 1485808\RMSD=1.397e-09\Dipole=-0.3671583,0.7472949,-0.0001942\Quadrupo
 le=3.415084,0.4024914,-3.8175754,-7.9324659,0.0017759,0.0007082\PG=C01
  [X(C8H7I1O2)]\\@
 The archive entry for this job was punched.


 YOU KNOW YOU'RE A TEACHER WHEN YOU SAY 2, WRITE 3, AND MEAN 4.
 -- RONALD ANSTROM, HIGH SCHOOL TEACHER, UNDERWOOD, N.D. 1974
 Job cpu time:       0 days  0 hours 14 minutes 23.8 seconds.
 Elapsed time:       0 days  0 hours 14 minutes 27.8 seconds.
 File lengths (MBytes):  RWF=    272 Int=      0 D2E=      0 Chk=     24 Scr=     16
 Normal termination of Gaussian 16 at Tue Sep 17 10:59:03 2024.
