 Entering Gaussian System, Link 0=g16
 Input=smiles_00077_conf_2.gjf
 Output=smiles_00077_conf_2.log
 Initial command:
 /groups/ReismanLab/Software/Gaussian16_RevC/Linux_Binary_AVX2-enabled-CPU/g16/l1.exe "/central/groups/ReismanLab/DM/dft_final/smiles_00077/Gau-3255103.inp" -scrdir="/central/groups/ReismanLab/DM/dft_final/smiles_00077/"
 Entering Link 1 = /groups/ReismanLab/Software/Gaussian16_RevC/Linux_Binary_AVX2-enabled-CPU/g16/l1.exe PID=   3255104.
  
 Copyright (c) 1988-2021, Gaussian, Inc.  All Rights Reserved.
  
 This is part of the Gaussian(R) 16 program.  It is based on
 the Gaussian(R) 09 system (copyright 2009, Gaussian, Inc.),
 the Gaussian(R) 03 system (copyright 2003, Gaussian, Inc.),
 the Gaussian(R) 98 system (copyright 1998, Gaussian, Inc.),
 the Gaussian(R) 94 system (copyright 1995, Gaussian, Inc.),
 the Gaussian 92(TM) system (copyright 1992, Gaussian, Inc.),
 the Gaussian 90(TM) system (copyright 1990, Gaussian, Inc.),
 the Gaussian 88(TM) system (copyright 1988, Gaussian, Inc.),
 the Gaussian 86(TM) system (copyright 1986, Carnegie Mellon
 University), and the Gaussian 82(TM) system (copyright 1983,
 Carnegie Mellon University). Gaussian is a federally registered
 trademark of Gaussian, Inc.
  
 This software contains proprietary and confidential information,
 including trade secrets, belonging to Gaussian, Inc.
  
 This software is provided under written license and may be
 used, copied, transmitted, or stored only in accord with that
 written license.
  
 The following legend is applicable only to US Government
 contracts under FAR:
  
                    RESTRICTED RIGHTS LEGEND
  
 Use, reproduction and disclosure by the US Government is
 subject to restrictions as set forth in subparagraphs (a)
 and (c) of the Commercial Computer Software - Restricted
 Rights clause in FAR 52.227-19.
  
 Gaussian, Inc.
 340 Quinnipiac St., Bldg. 40, Wallingford CT 06492
  
  
 ---------------------------------------------------------------
 Warning -- This program may not be used in any manner that
 competes with the business of Gaussian, Inc. or will provide
 assistance to any competitor of Gaussian, Inc.  The licensee
 of this program is prohibited from giving any competitor of
 Gaussian, Inc. access to this program.  By using this program,
 the user acknowledges that Gaussian, Inc. is engaged in the
 business of creating and licensing software in the field of
 computational chemistry and represents and warrants to the
 licensee that it is not a competitor of Gaussian, Inc. and that
 it will not use this program in any manner prohibited above.
 ---------------------------------------------------------------
  

 Cite this work as:
 Gaussian 16, Revision C.02,
 M. J. Frisch, G. W. Trucks, H. B. Schlegel, G. E. Scuseria, 
 M. A. Robb, J. R. Cheeseman, G. Scalmani, V. Barone, 
 G. A. Petersson, H. Nakatsuji, X. Li, M. Caricato, A. V. Marenich, 
 J. Bloino, B. G. Janesko, R. Gomperts, B. Mennucci, H. P. Hratchian, 
 J. V. Ortiz, A. F. Izmaylov, J. L. Sonnenberg, D. Williams-Young, 
 F. Ding, F. Lipparini, F. Egidi, J. Goings, B. Peng, A. Petrone, 
 T. Henderson, D. Ranasinghe, V. G. Zakrzewski, J. Gao, N. Rega, 
 G. Zheng, W. Liang, M. Hada, M. Ehara, K. Toyota, R. Fukuda, 
 J. Hasegawa, M. Ishida, T. Nakajima, Y. Honda, O. Kitao, H. Nakai, 
 T. Vreven, K. Throssell, J. A. Montgomery, Jr., J. E. Peralta, 
 F. Ogliaro, M. J. Bearpark, J. J. Heyd, E. N. Brothers, K. N. Kudin, 
 V. N. Staroverov, T. A. Keith, R. Kobayashi, J. Normand, 
 K. Raghavachari, A. P. Rendell, J. C. Burant, S. S. Iyengar, 
 J. Tomasi, M. Cossi, J. M. Millam, M. Klene, C. Adamo, R. Cammi, 
 J. W. Ochterski, R. L. Martin, K. Morokuma, O. Farkas, 
 J. B. Foresman, and D. J. Fox, Gaussian, Inc., Wallingford CT, 2019.
 
 ******************************************
 Gaussian 16:  ES64L-G16RevC.02  7-Dec-2021
                17-Sep-2024 
 ******************************************
 %nprocshared=8
 Will use up to    8 processors via shared memory.
 %Mem=10GB
 %Chk=smiles_00077_conf_2.chk
 ----------------------------------------------------------------------
 #p B3LYP/6-31G(d,p) EmpiricalDispersion=GD3BJ opt freq scf(xqc,tight) 
 integral(grid=ultrafine)
 ----------------------------------------------------------------------
 1/18=20,19=15,26=4,38=1/1,3;
 2/9=110,12=2,17=6,18=5,40=1/2;
 3/5=1,6=6,7=101,11=2,25=1,30=1,71=1,74=-5,75=-5,124=41/1,2,3;
 4//1;
 5/5=2,8=3,13=1,32=2,38=5/2,8;
 6/7=2,8=2,9=2,10=2,28=1/1;
 7//1,2,3,16;
 1/18=20,19=15,26=4/3(2);
 2/9=110/2;
 99//99;
 2/9=110/2;
 3/5=1,6=6,7=101,11=2,25=1,30=1,71=1,74=-5,75=-5,124=41/1,2,3;
 4/5=5,16=3,69=1/1;
 5/5=2,8=3,13=1,32=2,38=5/2,8;
 7//1,2,3,16;
 1/18=20,19=15,26=4/3(-5);
 2/9=110/2;
 6/7=2,8=2,9=2,10=2,19=2,28=1/1;
 99/9=1/99;
 Leave Link    1 at Tue Sep 17 09:45:37 2024, MaxMem=  1342177280 cpu:               0.2 elap:               1.3
 (Enter /groups/ReismanLab/Software/Gaussian16_RevC/Linux_Binary_AVX2-enabled-CPU/g16/l101.exe)
 ----------------------------------
 opt-freq conformers_unique/conf_ac
 ----------------------------------
 Symbolic Z-matrix:
 Charge =  0 Multiplicity = 1
 C                    -3.15835  -2.96542   0.09882 
 O                    -2.03209  -2.09917   0.06022 
 C                    -2.30981  -0.78983  -0.00294 
 O                    -3.42931  -0.35395  -0.02615 
 C                    -1.06127   0.02599  -0.03492 
 C                     0.18254  -0.59426   0.06103 
 C                     1.32886   0.18152   0.03507 
 Br                    3.03609  -0.62577   0.16144 
 C                     1.20924   1.56099  -0.08395 
 N                     0.03741   2.14867  -0.17712 
 C                    -1.06869   1.42664  -0.15641 
 Cl                   -2.5134    2.31597  -0.29169 
 H                    -3.74446  -2.86474  -0.81665 
 H                    -3.79482  -2.7213    0.95149 
 H                    -2.76129  -3.97281   0.19092 
 H                     0.23932  -1.66768   0.15487 
 H                     2.07447   2.20893  -0.10556 
 
 ITRead=  0  0  0  0  0  0  0  0  0  0  0  0  0  0  0  0  0
 MicOpt= -1 -1 -1 -1 -1 -1 -1 -1 -1 -1 -1 -1 -1 -1 -1 -1 -1
 NAtoms=     17 NQM=       17 NQMF=       0 NMMI=      0 NMMIF=      0
                NMic=       0 NMicF=      0.
                    Isotopes and Nuclear Properties:
 (Nuclear quadrupole moments (NQMom) in fm**2, nuclear magnetic moments (NMagM)
  in nuclear magnetons)

  Atom         1           2           3           4           5           6           7           8           9          10
 IAtWgt=          12          16          12          16          12          12          12          79          12          14
 AtmWgt=  12.0000000  15.9949146  12.0000000  15.9949146  12.0000000  12.0000000  12.0000000  78.9183361  12.0000000  14.0030740
 NucSpn=           0           0           0           0           0           0           0           3           0           2
 AtZEff=  -0.0000000  -0.0000000  -0.0000000  -0.0000000  -0.0000000  -0.0000000  -0.0000000  -0.0000000  -0.0000000  -0.0000000
 NQMom=    0.0000000   0.0000000   0.0000000   0.0000000   0.0000000   0.0000000   0.0000000  31.3000000   0.0000000   2.0440000
 NMagM=    0.0000000   0.0000000   0.0000000   0.0000000   0.0000000   0.0000000   0.0000000   2.1063990   0.0000000   0.4037610
 AtZNuc=   6.0000000   8.0000000   6.0000000   8.0000000   6.0000000   6.0000000   6.0000000  35.0000000   6.0000000   7.0000000

  Atom        11          12          13          14          15          16          17
 IAtWgt=          12          35           1           1           1           1           1
 AtmWgt=  12.0000000  34.9688527   1.0078250   1.0078250   1.0078250   1.0078250   1.0078250
 NucSpn=           0           3           1           1           1           1           1
 AtZEff=  -0.0000000  -0.0000000  -0.0000000  -0.0000000  -0.0000000  -0.0000000  -0.0000000
 NQMom=    0.0000000  -8.1650000   0.0000000   0.0000000   0.0000000   0.0000000   0.0000000
 NMagM=    0.0000000   0.8218740   2.7928460   2.7928460   2.7928460   2.7928460   2.7928460
 AtZNuc=   6.0000000  17.0000000   1.0000000   1.0000000   1.0000000   1.0000000   1.0000000
 Leave Link  101 at Tue Sep 17 09:45:37 2024, MaxMem=  1342177280 cpu:               0.3 elap:               0.3
 (Enter /groups/ReismanLab/Software/Gaussian16_RevC/Linux_Binary_AVX2-enabled-CPU/g16/l103.exe)

 GradGradGradGradGradGradGradGradGradGradGradGradGradGradGradGradGradGrad
 Berny optimization.
 Initialization pass.
                           ----------------------------
                           !    Initial Parameters    !
                           ! (Angstroms and Degrees)  !
 --------------------------                            --------------------------
 ! Name  Definition              Value          Derivative Info.                !
 --------------------------------------------------------------------------------
 ! R1    R(1,2)                  1.4214         estimate D2E/DX2                !
 ! R2    R(1,13)                 1.0917         estimate D2E/DX2                !
 ! R3    R(1,14)                 1.0917         estimate D2E/DX2                !
 ! R4    R(1,15)                 1.0867         estimate D2E/DX2                !
 ! R5    R(2,3)                  1.34           estimate D2E/DX2                !
 ! R6    R(3,4)                  1.2016         estimate D2E/DX2                !
 ! R7    R(3,5)                  1.4918         estimate D2E/DX2                !
 ! R8    R(5,6)                  1.3932         estimate D2E/DX2                !
 ! R9    R(5,11)                 1.4059         estimate D2E/DX2                !
 ! R10   R(6,7)                  1.3844         estimate D2E/DX2                !
 ! R11   R(6,16)                 1.079          estimate D2E/DX2                !
 ! R12   R(7,8)                  1.8927         estimate D2E/DX2                !
 ! R13   R(7,9)                  1.3898         estimate D2E/DX2                !
 ! R14   R(9,10)                 1.3142         estimate D2E/DX2                !
 ! R15   R(9,17)                 1.0812         estimate D2E/DX2                !
 ! R16   R(10,11)                1.3211         estimate D2E/DX2                !
 ! R17   R(11,12)                1.7019         estimate D2E/DX2                !
 ! A1    A(2,1,13)             110.2693         estimate D2E/DX2                !
 ! A2    A(2,1,14)             110.298          estimate D2E/DX2                !
 ! A3    A(2,1,15)             106.1252         estimate D2E/DX2                !
 ! A4    A(13,1,14)            108.7446         estimate D2E/DX2                !
 ! A5    A(13,1,15)            110.6545         estimate D2E/DX2                !
 ! A6    A(14,1,15)            110.7399         estimate D2E/DX2                !
 ! A7    A(1,2,3)              115.6307         estimate D2E/DX2                !
 ! A8    A(2,3,4)              123.2624         estimate D2E/DX2                !
 ! A9    A(2,3,5)              111.2182         estimate D2E/DX2                !
 ! A10   A(4,3,5)              125.5191         estimate D2E/DX2                !
 ! A11   A(3,5,6)              120.1495         estimate D2E/DX2                !
 ! A12   A(3,5,11)             122.8375         estimate D2E/DX2                !
 ! A13   A(6,5,11)             117.0128         estimate D2E/DX2                !
 ! A14   A(5,6,7)              119.2403         estimate D2E/DX2                !
 ! A15   A(5,6,16)             119.7267         estimate D2E/DX2                !
 ! A16   A(7,6,16)             121.0329         estimate D2E/DX2                !
 ! A17   A(6,7,8)              120.4391         estimate D2E/DX2                !
 ! A18   A(6,7,9)              119.1147         estimate D2E/DX2                !
 ! A19   A(8,7,9)              120.4462         estimate D2E/DX2                !
 ! A20   A(7,9,10)             121.7811         estimate D2E/DX2                !
 ! A21   A(7,9,17)             121.8492         estimate D2E/DX2                !
 ! A22   A(10,9,17)            116.3697         estimate D2E/DX2                !
 ! A23   A(9,10,11)            120.0688         estimate D2E/DX2                !
 ! A24   A(5,11,10)            122.7818         estimate D2E/DX2                !
 ! A25   A(5,11,12)            122.1366         estimate D2E/DX2                !
 ! A26   A(10,11,12)           115.0815         estimate D2E/DX2                !
 ! D1    D(13,1,2,3)            62.4808         estimate D2E/DX2                !
 ! D2    D(14,1,2,3)           -57.641          estimate D2E/DX2                !
 ! D3    D(15,1,2,3)          -177.6391         estimate D2E/DX2                !
 ! D4    D(1,2,3,4)              0.0184         estimate D2E/DX2                !
 ! D5    D(1,2,3,5)            179.8385         estimate D2E/DX2                !
 ! D6    D(2,3,5,6)             -2.8636         estimate D2E/DX2                !
 ! D7    D(2,3,5,11)           177.314          estimate D2E/DX2                !
 ! D8    D(4,3,5,6)            176.9516         estimate D2E/DX2                !
 ! D9    D(4,3,5,11)            -2.8708         estimate D2E/DX2                !
 ! D10   D(3,5,6,7)           -179.7271         estimate D2E/DX2                !
 ! D11   D(3,5,6,16)             0.2281         estimate D2E/DX2                !
 ! D12   D(11,5,6,7)             0.1054         estimate D2E/DX2                !
 ! D13   D(11,5,6,16)         -179.9394         estimate D2E/DX2                !
 ! D14   D(3,5,11,10)          179.6123         estimate D2E/DX2                !
 ! D15   D(3,5,11,12)           -0.5371         estimate D2E/DX2                !
 ! D16   D(6,5,11,10)           -0.2153         estimate D2E/DX2                !
 ! D17   D(6,5,11,12)          179.6352         estimate D2E/DX2                !
 ! D18   D(5,6,7,8)           -179.9444         estimate D2E/DX2                !
 ! D19   D(5,6,7,9)              0.106          estimate D2E/DX2                !
 ! D20   D(16,6,7,8)             0.101          estimate D2E/DX2                !
 ! D21   D(16,6,7,9)          -179.8486         estimate D2E/DX2                !
 ! D22   D(6,7,9,10)            -0.2361         estimate D2E/DX2                !
 ! D23   D(6,7,9,17)           179.8017         estimate D2E/DX2                !
 ! D24   D(8,7,9,10)           179.8143         estimate D2E/DX2                !
 ! D25   D(8,7,9,17)            -0.1479         estimate D2E/DX2                !
 ! D26   D(7,9,10,11)            0.1345         estimate D2E/DX2                !
 ! D27   D(17,9,10,11)        -179.9013         estimate D2E/DX2                !
 ! D28   D(9,10,11,5)            0.0969         estimate D2E/DX2                !
 ! D29   D(9,10,11,12)        -179.7634         estimate D2E/DX2                !
 --------------------------------------------------------------------------------
 Trust Radius=3.00D-01 FncErr=1.00D-07 GrdErr=1.00D-06 EigMax=2.50D+02 EigMin=1.00D-04
 Number of steps in this run=     82 maximum allowed number of steps=    102.
 GradGradGradGradGradGradGradGradGradGradGradGradGradGradGradGradGradGrad

 Leave Link  103 at Tue Sep 17 09:45:37 2024, MaxMem=  1342177280 cpu:               0.1 elap:               0.1
 (Enter /groups/ReismanLab/Software/Gaussian16_RevC/Linux_Binary_AVX2-enabled-CPU/g16/l202.exe)
                          Input orientation:                          
 ---------------------------------------------------------------------
 Center     Atomic      Atomic             Coordinates (Angstroms)
 Number     Number       Type             X           Y           Z
 ---------------------------------------------------------------------
      1          6           0       -3.158350   -2.965421    0.098824
      2          8           0       -2.032089   -2.099169    0.060220
      3          6           0       -2.309810   -0.789828   -0.002945
      4          8           0       -3.429314   -0.353951   -0.026147
      5          6           0       -1.061272    0.025990   -0.034920
      6          6           0        0.182544   -0.594264    0.061031
      7          6           0        1.328865    0.181517    0.035068
      8         35           0        3.036091   -0.625766    0.161436
      9          6           0        1.209239    1.560991   -0.083955
     10          7           0        0.037412    2.148670   -0.177123
     11          6           0       -1.068686    1.426638   -0.156405
     12         17           0       -2.513397    2.315966   -0.291686
     13          1           0       -3.744463   -2.864739   -0.816648
     14          1           0       -3.794822   -2.721302    0.951489
     15          1           0       -2.761286   -3.972810    0.190922
     16          1           0        0.239322   -1.667679    0.154874
     17          1           0        2.074474    2.208928   -0.105560
 ---------------------------------------------------------------------
                    Distance matrix (angstroms):
                    1          2          3          4          5
     1  C    0.000000
     2  O    1.421389   0.000000
     3  C    2.337431   1.339960   0.000000
     4  O    2.628463   2.237294   1.201589   0.000000
     5  C    3.655703   2.338341   1.491787   2.398344   0.000000
     6  C    4.096997   2.677562   2.500833   3.620893   1.393197
     7  C    5.481093   4.061794   3.766286   4.788605   2.396214
     8  Br   6.621858   5.278978   5.350944   6.473834   4.153519
     9  C    6.292666   4.891193   4.232803   5.018617   2.741141
    10  N    6.036801   4.731100   3.764912   4.278328   2.394389
    11  C    4.870526   3.661473   2.544928   2.959734   1.405926
    12  Cl   5.334933   4.455212   3.125824   2.835113   2.723708
    13  H    1.091676   2.070560   2.650584   2.651088   4.020811
    14  H    1.091664   2.070903   2.616638   2.587223   3.999114
    15  H    1.086726   2.014780   3.220681   3.686397   4.351029
    16  H    3.637506   2.313969   2.700668   3.900967   2.143847
    17  H    7.361936   5.954078   5.312722   6.071765   3.821401
                    6          7          8          9         10
     6  C    0.000000
     7  C    1.384399   0.000000
     8  Br   2.855487   1.892695   0.000000
     9  C    2.391704   1.389758   2.859984   0.000000
    10  N    2.757076   2.362746   4.099292   1.314239   0.000000
    11  C    2.386818   2.708364   4.600280   2.283034   1.321065
    12  Cl   3.982706   4.407450   6.297295   3.804098   2.558855
    13  H    4.620256   5.978608   7.207327   6.683045   6.312356
    14  H    4.597461   5.959728   7.188660   6.667144   6.298921
    15  H    4.483033   5.831986   6.694263   6.816420   6.740971
    16  H    1.079004   2.149647   2.984550   3.379658   3.836080
    17  H    3.386006   2.164741   3.005242   1.081166   2.039209
                   11         12         13         14         15
    11  C    0.000000
    12  Cl   1.701880   0.000000
    13  H    5.100158   5.350776   0.000000
    14  H    5.085730   5.344305   1.774661   0.000000
    15  H    5.669177   6.312136   1.791552   1.792465   0.000000
    16  H    3.373807   4.862746   4.271692   4.244884   3.783990
    17  H    3.239447   4.592892   7.752919   7.737774   7.854066
                   16         17
    16  H    0.000000
    17  H    4.296939   0.000000
 Stoichiometry    C7H5BrClNO2
 Framework group  C1[X(C7H5BrClNO2)]
 Deg. of freedom    45
 Full point group                 C1      NOp   1
 Largest Abelian subgroup         C1      NOp   1
 Largest concise Abelian subgroup C1      NOp   1
                         Standard orientation:                         
 ---------------------------------------------------------------------
 Center     Atomic      Atomic             Coordinates (Angstroms)
 Number     Number       Type             X           Y           Z
 ---------------------------------------------------------------------
      1          6           0       -2.896560    3.061483    0.023419
      2          8           0       -1.806710    2.149085    0.033527
      3          6           0       -2.136686    0.851392   -0.017500
      4          8           0       -3.272131    0.461639   -0.069200
      5          6           0       -0.922548   -0.015301   -0.005599
      6          6           0        0.346933    0.558645   -0.007266
      7          6           0        1.460776   -0.263478   -0.001845
      8         35           0        3.201332    0.480001   -0.002321
      9          6           0        1.283788   -1.641911    0.002880
     10          7           0        0.087546   -2.186165    0.006947
     11          6           0       -0.988401   -1.419652    0.003928
     12         17           0       -2.470329   -2.256392    0.016193
     13          1           0       -3.521404    2.914067    0.906366
     14          1           0       -3.508144    2.911036   -0.868243
     15          1           0       -2.457869    4.055724    0.025929
     16          1           0        0.448449    1.632845   -0.013470
     17          1           0        2.122038   -2.324740    0.004019
 ---------------------------------------------------------------------
 Rotational constants (GHZ):           0.8978488           0.3355329           0.2446567
 Leave Link  202 at Tue Sep 17 09:45:38 2024, MaxMem=  1342177280 cpu:               0.1 elap:               0.0
 (Enter /groups/ReismanLab/Software/Gaussian16_RevC/Linux_Binary_AVX2-enabled-CPU/g16/l301.exe)
 Standard basis: 6-31G(d,p) (6D, 7F)
 Ernie: Thresh=  0.10000D-02 Tol=  0.10000D-05 Strict=F.
 There are   224 symmetry adapted cartesian basis functions of A   symmetry.
 There are   224 symmetry adapted basis functions of A   symmetry.
   224 basis functions,   450 primitive gaussians,   224 cartesian basis functions
    61 alpha electrons       61 beta electrons
       nuclear repulsion energy      1039.9354171599 Hartrees.
 IExCor=  402 DFT=T Ex+Corr=B3LYP ExCW=0 ScaHFX=  0.200000
 ScaDFX=  0.800000  0.720000  1.000000  0.810000 ScalE2=  1.000000  1.000000
 IRadAn=      5 IRanWt=     -1 IRanGd=            0 ICorTp=0 IEmpDi=141
 NAtoms=   17 NActive=   17 NUniq=   17 SFac= 1.00D+00 NAtFMM=   60 NAOKFM=F Big=F
 Integral buffers will be    131072 words long.
 Raffenetti 2 integral format.
 Two-electron integral symmetry is turned on.
 R6Disp:  Grimme-D3(BJ) Dispersion energy=       -0.0379792168 Hartrees.
 Nuclear repulsion after empirical dispersion term =     1039.8974379431 Hartrees.
 Leave Link  301 at Tue Sep 17 09:45:38 2024, MaxMem=  1342177280 cpu:               0.1 elap:               0.1
 (Enter /groups/ReismanLab/Software/Gaussian16_RevC/Linux_Binary_AVX2-enabled-CPU/g16/l302.exe)
 NPDir=0 NMtPBC=     1 NCelOv=     1 NCel=       1 NClECP=     1 NCelD=      1
         NCelK=      1 NCelE2=     1 NClLst=     1 CellRange=     0.0.
 One-electron integrals computed using PRISM.
 One-electron integral symmetry used in STVInt
 NBasis=   224 RedAO= T EigKep=  6.34D-04  NBF=   224
 NBsUse=   224 1.00D-06 EigRej= -1.00D+00 NBFU=   224
 Precomputing XC quadrature grid using
 IXCGrd= 4 IRadAn=           5 IRanWt=          -1 IRanGd=           0 AccXCQ= 0.00D+00.
 Generated NRdTot=       0 NPtTot=           0 NUsed=           0 NTot=          32
 NSgBfM=   223   223   223   223   223 MxSgAt=    17 MxSgA2=    17.
 Leave Link  302 at Tue Sep 17 09:45:38 2024, MaxMem=  1342177280 cpu:               1.1 elap:               0.3
 (Enter /groups/ReismanLab/Software/Gaussian16_RevC/Linux_Binary_AVX2-enabled-CPU/g16/l303.exe)
 DipDrv:  MaxL=1.
 Leave Link  303 at Tue Sep 17 09:45:38 2024, MaxMem=  1342177280 cpu:               0.1 elap:               0.1
 (Enter /groups/ReismanLab/Software/Gaussian16_RevC/Linux_Binary_AVX2-enabled-CPU/g16/l401.exe)
 ExpMin= 1.43D-01 ExpMax= 5.74D+05 ExpMxC= 5.74D+03 IAcc=3 IRadAn=         5 AccDes= 0.00D+00
 Harris functional with IExCor=  402 and IRadAn=       5 diagonalized for initial guess.
 HarFok:  IExCor=  402 AccDes= 0.00D+00 IRadAn=         5 IDoV= 1 UseB2=F ITyADJ=14
 ICtDFT=  3500011 ScaDFX=  1.000000  1.000000  1.000000  1.000000
 FoFCou: FMM=F IPFlag=           0 FMFlag=      100000 FMFlg1=           0
         NFxFlg=           0 DoJE=T BraDBF=F KetDBF=T FulRan=T
         wScrn=  0.000000 ICntrl=       500 IOpCl=  0 I1Cent=   200000004 NGrid=           0
         NMat0=    1 NMatS0=      1 NMatT0=    0 NMatD0=    1 NMtDS0=    0 NMtDT0=    0
 Petite list used in FoFCou.
 Harris En= -3506.91490394299    
 JPrj=0 DoOrth=F DoCkMO=F.
 Leave Link  401 at Tue Sep 17 09:45:39 2024, MaxMem=  1342177280 cpu:               6.2 elap:               0.9
 (Enter /groups/ReismanLab/Software/Gaussian16_RevC/Linux_Binary_AVX2-enabled-CPU/g16/l502.exe)
 Integral symmetry usage will be decided dynamically.
 Closed shell SCF:
 Using DIIS extrapolation, IDIIS=  1040.
 NGot=  1342177280 LenX=  1342072412 LenY=  1342021795
 Requested convergence on RMS density matrix=1.00D-08 within  32 cycles.
 Requested convergence on MAX density matrix=1.00D-06.
 Requested convergence on             energy=1.00D-06.
 No special actions if energy rises.
 Fock matrices will be formed incrementally for  20 cycles.
 Integral accuracy reduced to 1.0D-05 until final iterations.

 Cycle   1  Pass 0  IDiag  1:
 FoFJK:  IHMeth= 1 ICntrl=       0 DoSepK=F KAlg= 0 I1Cent=           0 FoldK=F
 IRaf= 840000000 NMat=       1 IRICut=       1 DoRegI=T DoRafI=F ISym2E= 0 IDoP0=0 IntGTp=1.
 FoFCou: FMM=F IPFlag=           0 FMFlag=      100000 FMFlg1=           0
         NFxFlg=           0 DoJE=F BraDBF=F KetDBF=F FulRan=T
         wScrn=  0.000000 ICntrl=         0 IOpCl=  0 I1Cent=           0 NGrid=           0
         NMat0=    1 NMatS0=      1 NMatT0=    0 NMatD0=    1 NMtDS0=    0 NMtDT0=    0
 Symmetry not used in FoFCou.
 E= -3506.66715373151    
 DIIS: error= 2.05D-01 at cycle   1 NSaved=   1.
 NSaved= 1 IEnMin= 1 EnMin= -3506.66715373151     IErMin= 1 ErrMin= 2.05D-01
 ErrMax= 2.05D-01  0.00D+00 EMaxC= 1.00D-01 BMatC= 6.12D-01 BMatP= 6.12D-01
 IDIUse=3 WtCom= 0.00D+00 WtEn= 1.00D+00
 Coeff-Com:  0.100D+01
 Coeff-En:   0.100D+01
 Coeff:      0.100D+01
 Gap=     0.296 Goal=   None    Shift=    0.000
 GapD=    0.296 DampG=1.000 DampE=0.250 DampFc=0.2500 IDamp=-1.
 Damping current iteration by 2.50D-01
 RMSDP=5.82D-03 MaxDP=2.15D-01              OVMax= 2.81D-01

 Cycle   2  Pass 0  IDiag  1:
 RMSU=  1.43D-03    CP:  9.93D-01
 E= -3506.74745722847     Delta-E=       -0.080303496963 Rises=F Damp=T
 DIIS: error= 1.52D-01 at cycle   2 NSaved=   2.
 NSaved= 2 IEnMin= 2 EnMin= -3506.74745722847     IErMin= 2 ErrMin= 1.52D-01
 ErrMax= 1.52D-01  0.00D+00 EMaxC= 1.00D-01 BMatC= 2.46D-01 BMatP= 6.12D-01
 IDIUse=3 WtCom= 0.00D+00 WtEn= 1.00D+00
 Coeff-Com: -0.103D+01 0.203D+01
 Coeff-En:   0.000D+00 0.100D+01
 Coeff:      0.000D+00 0.100D+01
 Gap=     0.194 Goal=   None    Shift=    0.000
 RMSDP=2.62D-03 MaxDP=1.10D-01 DE=-8.03D-02 OVMax= 1.31D-01

 Cycle   3  Pass 0  IDiag  1:
 RMSU=  1.29D-03    CP:  9.73D-01  2.48D+00
 E= -3506.84877239987     Delta-E=       -0.101315171403 Rises=F Damp=F
 DIIS: error= 1.31D-02 at cycle   3 NSaved=   3.
 NSaved= 3 IEnMin= 3 EnMin= -3506.84877239987     IErMin= 3 ErrMin= 1.31D-02
 ErrMax= 1.31D-02  0.00D+00 EMaxC= 1.00D-01 BMatC= 5.23D-02 BMatP= 2.46D-01
 IDIUse=3 WtCom= 8.69D-01 WtEn= 1.31D-01
 Coeff-Com:  0.688D+00-0.764D+00 0.108D+01
 Coeff-En:   0.131D+00 0.000D+00 0.869D+00
 Coeff:      0.615D+00-0.664D+00 0.105D+01
 Gap=     0.197 Goal=   None    Shift=    0.000
 RMSDP=1.79D-03 MaxDP=4.87D-02 DE=-1.01D-01 OVMax= 7.19D-02

 Cycle   4  Pass 0  IDiag  1:
 RMSU=  1.37D-03    CP:  9.74D-01  1.69D+00  8.49D-01
 E= -3506.86784397313     Delta-E=       -0.019071573261 Rises=F Damp=F
 DIIS: error= 8.73D-03 at cycle   4 NSaved=   4.
 NSaved= 4 IEnMin= 4 EnMin= -3506.86784397313     IErMin= 4 ErrMin= 8.73D-03
 ErrMax= 8.73D-03  0.00D+00 EMaxC= 1.00D-01 BMatC= 2.96D-02 BMatP= 5.23D-02
 IDIUse=3 WtCom= 9.13D-01 WtEn= 8.73D-02
 Coeff-Com:  0.555D+00-0.712D+00 0.727D+00 0.430D+00
 Coeff-En:   0.000D+00 0.000D+00 0.354D+00 0.646D+00
 Coeff:      0.506D+00-0.650D+00 0.695D+00 0.449D+00
 Gap=     0.188 Goal=   None    Shift=    0.000
 RMSDP=9.27D-04 MaxDP=2.85D-02 DE=-1.91D-02 OVMax= 5.45D-02

 Cycle   5  Pass 0  IDiag  1:
 RMSU=  2.28D-04    CP:  9.74D-01  1.81D+00  1.05D+00  3.87D-01
 E= -3506.89451213212     Delta-E=       -0.026668158986 Rises=F Damp=F
 DIIS: error= 1.61D-03 at cycle   5 NSaved=   5.
 NSaved= 5 IEnMin= 5 EnMin= -3506.89451213212     IErMin= 5 ErrMin= 1.61D-03
 ErrMax= 1.61D-03  0.00D+00 EMaxC= 1.00D-01 BMatC= 1.10D-03 BMatP= 2.96D-02
 IDIUse=3 WtCom= 9.84D-01 WtEn= 1.61D-02
 Coeff-Com:  0.242D+00-0.314D+00 0.330D+00 0.249D+00 0.492D+00
 Coeff-En:   0.000D+00 0.000D+00 0.000D+00 0.000D+00 0.100D+01
 Coeff:      0.238D+00-0.309D+00 0.325D+00 0.245D+00 0.501D+00
 Gap=     0.186 Goal=   None    Shift=    0.000
 RMSDP=1.78D-04 MaxDP=6.26D-03 DE=-2.67D-02 OVMax= 1.10D-02

 Cycle   6  Pass 0  IDiag  1:
 RMSU=  1.01D-04    CP:  9.74D-01  1.82D+00  1.04D+00  4.29D-01  4.19D-01
 E= -3506.89533798174     Delta-E=       -0.000825849625 Rises=F Damp=F
 DIIS: error= 7.38D-04 at cycle   6 NSaved=   6.
 NSaved= 6 IEnMin= 6 EnMin= -3506.89533798174     IErMin= 6 ErrMin= 7.38D-04
 ErrMax= 7.38D-04  0.00D+00 EMaxC= 1.00D-01 BMatC= 1.45D-04 BMatP= 1.10D-03
 IDIUse=3 WtCom= 9.93D-01 WtEn= 7.38D-03
 Coeff-Com:  0.794D-01-0.104D+00 0.107D+00 0.893D-01 0.315D+00 0.514D+00
 Coeff-En:   0.000D+00 0.000D+00 0.000D+00 0.000D+00 0.134D+00 0.866D+00
 Coeff:      0.788D-01-0.103D+00 0.106D+00 0.886D-01 0.313D+00 0.516D+00
 Gap=     0.185 Goal=   None    Shift=    0.000
 RMSDP=7.30D-05 MaxDP=2.31D-03 DE=-8.26D-04 OVMax= 4.29D-03

 Cycle   7  Pass 0  IDiag  1:
 RMSU=  3.09D-05    CP:  9.74D-01  1.82D+00  1.04D+00  4.37D-01  5.62D-01
                    CP:  4.49D-01
 E= -3506.89546770746     Delta-E=       -0.000129725714 Rises=F Damp=F
 DIIS: error= 1.87D-04 at cycle   7 NSaved=   7.
 NSaved= 7 IEnMin= 7 EnMin= -3506.89546770746     IErMin= 7 ErrMin= 1.87D-04
 ErrMax= 1.87D-04  0.00D+00 EMaxC= 1.00D-01 BMatC= 1.37D-05 BMatP= 1.45D-04
 IDIUse=3 WtCom= 9.98D-01 WtEn= 1.87D-03
 Coeff-Com:  0.234D-01-0.310D-01 0.294D-01 0.254D-01 0.133D+00 0.307D+00
 Coeff-Com:  0.513D+00
 Coeff-En:   0.000D+00 0.000D+00 0.000D+00 0.000D+00 0.000D+00 0.319D-01
 Coeff-En:   0.968D+00
 Coeff:      0.234D-01-0.310D-01 0.294D-01 0.253D-01 0.132D+00 0.306D+00
 Coeff:      0.514D+00
 Gap=     0.185 Goal=   None    Shift=    0.000
 RMSDP=1.91D-05 MaxDP=6.54D-04 DE=-1.30D-04 OVMax= 1.07D-03

 Cycle   8  Pass 0  IDiag  1:
 RMSU=  9.91D-06    CP:  9.74D-01  1.82D+00  1.05D+00  4.34D-01  5.51D-01
                    CP:  5.35D-01  5.80D-01
 E= -3506.89548108735     Delta-E=       -0.000013379889 Rises=F Damp=F
 DIIS: error= 5.18D-05 at cycle   8 NSaved=   8.
 NSaved= 8 IEnMin= 8 EnMin= -3506.89548108735     IErMin= 8 ErrMin= 5.18D-05
 ErrMax= 5.18D-05  0.00D+00 EMaxC= 1.00D-01 BMatC= 7.65D-07 BMatP= 1.37D-05
 IDIUse=1 WtCom= 1.00D+00 WtEn= 0.00D+00
 Coeff-Com:  0.388D-02-0.524D-02 0.388D-02 0.291D-02 0.307D-01 0.937D-01
 Coeff-Com:  0.246D+00 0.624D+00
 Coeff:      0.388D-02-0.524D-02 0.388D-02 0.291D-02 0.307D-01 0.937D-01
 Coeff:      0.246D+00 0.624D+00
 Gap=     0.185 Goal=   None    Shift=    0.000
 RMSDP=5.01D-06 MaxDP=1.99D-04 DE=-1.34D-05 OVMax= 2.70D-04

 Initial convergence to 1.0D-05 achieved.  Increase integral accuracy.
 Cycle   9  Pass 1  IDiag  1:
 E= -3506.89548516824     Delta-E=       -0.000004080892 Rises=F Damp=F
 DIIS: error= 4.31D-05 at cycle   1 NSaved=   1.
 NSaved= 1 IEnMin= 1 EnMin= -3506.89548516824     IErMin= 1 ErrMin= 4.31D-05
 ErrMax= 4.31D-05  0.00D+00 EMaxC= 1.00D-01 BMatC= 1.99D-07 BMatP= 1.99D-07
 IDIUse=1 WtCom= 1.00D+00 WtEn= 0.00D+00
 Coeff-Com:  0.100D+01
 Coeff:      0.100D+01
 Gap=     0.185 Goal=   None    Shift=    0.000
 RMSDP=5.01D-06 MaxDP=1.99D-04 DE=-4.08D-06 OVMax= 1.73D-04

 Cycle  10  Pass 1  IDiag  1:
 RMSU=  1.13D-05    CP:  1.00D+00
 E= -3506.89548511234     Delta-E=        0.000000055899 Rises=F Damp=F
 DIIS: error= 2.71D-05 at cycle   2 NSaved=   2.
 NSaved= 2 IEnMin= 1 EnMin= -3506.89548516824     IErMin= 2 ErrMin= 2.71D-05
 ErrMax= 2.71D-05  0.00D+00 EMaxC= 1.00D-01 BMatC= 2.28D-07 BMatP= 1.99D-07
 IDIUse=1 WtCom= 1.00D+00 WtEn= 0.00D+00
 Coeff-Com:  0.521D+00 0.479D+00
 Coeff:      0.521D+00 0.479D+00
 Gap=     0.185 Goal=   None    Shift=    0.000
 RMSDP=2.96D-06 MaxDP=1.33D-04 DE= 5.59D-08 OVMax= 1.57D-04

 Cycle  11  Pass 1  IDiag  1:
 RMSU=  2.87D-06    CP:  1.00D+00  9.34D-01
 E= -3506.89548528807     Delta-E=       -0.000000175731 Rises=F Damp=F
 DIIS: error= 1.09D-05 at cycle   3 NSaved=   3.
 NSaved= 3 IEnMin= 3 EnMin= -3506.89548528807     IErMin= 3 ErrMin= 1.09D-05
 ErrMax= 1.09D-05  0.00D+00 EMaxC= 1.00D-01 BMatC= 3.30D-08 BMatP= 1.99D-07
 IDIUse=1 WtCom= 1.00D+00 WtEn= 0.00D+00
 Coeff-Com:  0.711D-01 0.276D+00 0.653D+00
 Coeff:      0.711D-01 0.276D+00 0.653D+00
 Gap=     0.185 Goal=   None    Shift=    0.000
 RMSDP=1.15D-06 MaxDP=4.91D-05 DE=-1.76D-07 OVMax= 6.66D-05

 Cycle  12  Pass 1  IDiag  1:
 RMSU=  6.51D-07    CP:  1.00D+00  9.57D-01  6.81D-01
 E= -3506.89548531273     Delta-E=       -0.000000024662 Rises=F Damp=F
 DIIS: error= 4.50D-06 at cycle   4 NSaved=   4.
 NSaved= 4 IEnMin= 4 EnMin= -3506.89548531273     IErMin= 4 ErrMin= 4.50D-06
 ErrMax= 4.50D-06  0.00D+00 EMaxC= 1.00D-01 BMatC= 6.11D-09 BMatP= 3.30D-08
 IDIUse=1 WtCom= 1.00D+00 WtEn= 0.00D+00
 Coeff-Com:  0.664D-03 0.133D+00 0.416D+00 0.451D+00
 Coeff:      0.664D-03 0.133D+00 0.416D+00 0.451D+00
 Gap=     0.185 Goal=   None    Shift=    0.000
 RMSDP=4.31D-07 MaxDP=1.18D-05 DE=-2.47D-08 OVMax= 3.06D-05

 Cycle  13  Pass 1  IDiag  1:
 RMSU=  1.41D-07    CP:  1.00D+00  9.60D-01  7.38D-01  4.30D-01
 E= -3506.89548531903     Delta-E=       -0.000000006299 Rises=F Damp=F
 DIIS: error= 5.67D-07 at cycle   5 NSaved=   5.
 NSaved= 5 IEnMin= 5 EnMin= -3506.89548531903     IErMin= 5 ErrMin= 5.67D-07
 ErrMax= 5.67D-07  0.00D+00 EMaxC= 1.00D-01 BMatC= 1.67D-10 BMatP= 6.11D-09
 IDIUse=1 WtCom= 1.00D+00 WtEn= 0.00D+00
 Coeff-Com: -0.191D-02 0.697D-01 0.225D+00 0.265D+00 0.441D+00
 Coeff:     -0.191D-02 0.697D-01 0.225D+00 0.265D+00 0.441D+00
 Gap=     0.185 Goal=   None    Shift=    0.000
 RMSDP=7.61D-08 MaxDP=2.26D-06 DE=-6.30D-09 OVMax= 4.24D-06

 Cycle  14  Pass 1  IDiag  1:
 RMSU=  3.90D-08    CP:  1.00D+00  9.60D-01  7.34D-01  4.63D-01  5.70D-01
 E= -3506.89548531914     Delta-E=       -0.000000000107 Rises=F Damp=F
 DIIS: error= 1.77D-07 at cycle   6 NSaved=   6.
 NSaved= 6 IEnMin= 6 EnMin= -3506.89548531914     IErMin= 6 ErrMin= 1.77D-07
 ErrMax= 1.77D-07  0.00D+00 EMaxC= 1.00D-01 BMatC= 1.03D-11 BMatP= 1.67D-10
 IDIUse=1 WtCom= 1.00D+00 WtEn= 0.00D+00
 Coeff-Com: -0.117D-02 0.326D-01 0.107D+00 0.128D+00 0.259D+00 0.475D+00
 Coeff:     -0.117D-02 0.326D-01 0.107D+00 0.128D+00 0.259D+00 0.475D+00
 Gap=     0.185 Goal=   None    Shift=    0.000
 RMSDP=1.71D-08 MaxDP=6.51D-07 DE=-1.07D-10 OVMax= 1.33D-06

 Cycle  15  Pass 1  IDiag  1:
 RMSU=  1.48D-08    CP:  1.00D+00  9.60D-01  7.35D-01  4.63D-01  5.80D-01
                    CP:  7.86D-01
 E= -3506.89548531919     Delta-E=       -0.000000000047 Rises=F Damp=F
 DIIS: error= 7.01D-08 at cycle   7 NSaved=   7.
 NSaved= 7 IEnMin= 7 EnMin= -3506.89548531919     IErMin= 7 ErrMin= 7.01D-08
 ErrMax= 7.01D-08  0.00D+00 EMaxC= 1.00D-01 BMatC= 1.45D-12 BMatP= 1.03D-11
 IDIUse=1 WtCom= 1.00D+00 WtEn= 0.00D+00
 Coeff-Com: -0.366D-03 0.772D-02 0.261D-01 0.322D-01 0.776D-01 0.293D+00
 Coeff-Com:  0.564D+00
 Coeff:     -0.366D-03 0.772D-02 0.261D-01 0.322D-01 0.776D-01 0.293D+00
 Coeff:      0.564D+00
 Gap=     0.185 Goal=   None    Shift=    0.000
 RMSDP=6.35D-09 MaxDP=2.89D-07 DE=-4.73D-11 OVMax= 4.47D-07

 SCF Done:  E(RB3LYP) =  -3506.89548532     A.U. after   15 cycles
            NFock= 15  Conv=0.63D-08     -V/T= 2.0061
 KE= 3.485771816722D+03 PE=-1.041376468945D+04 EE= 2.381199949462D+03
 Leave Link  502 at Tue Sep 17 09:45:55 2024, MaxMem=  1342177280 cpu:             113.9 elap:              15.4
 (Enter /groups/ReismanLab/Software/Gaussian16_RevC/Linux_Binary_AVX2-enabled-CPU/g16/l508.exe)
 QCSCF skips out because SCF is already converged.
 Leave Link  508 at Tue Sep 17 09:45:55 2024, MaxMem=  1342177280 cpu:               0.1 elap:               0.0
 (Enter /groups/ReismanLab/Software/Gaussian16_RevC/Linux_Binary_AVX2-enabled-CPU/g16/l601.exe)
 Copying SCF densities to generalized density rwf, IOpCl= 0 IROHF=0.

 **********************************************************************

            Population analysis using the SCF Density.

 **********************************************************************

 Orbital symmetries:
       Occupied  (A) (A) (A) (A) (A) (A) (A) (A) (A) (A) (A) (A)
                 (A) (A) (A) (A) (A) (A) (A) (A) (A) (A) (A) (A)
                 (A) (A) (A) (A) (A) (A) (A) (A) (A) (A) (A) (A)
                 (A) (A) (A) (A) (A) (A) (A) (A) (A) (A) (A) (A)
                 (A) (A) (A) (A) (A) (A) (A) (A) (A) (A) (A) (A)
                 (A)
       Virtual   (A) (A) (A) (A) (A) (A) (A) (A) (A) (A) (A) (A)
                 (A) (A) (A) (A) (A) (A) (A) (A) (A) (A) (A) (A)
                 (A) (A) (A) (A) (A) (A) (A) (A) (A) (A) (A) (A)
                 (A) (A) (A) (A) (A) (A) (A) (A) (A) (A) (A) (A)
                 (A) (A) (A) (A) (A) (A) (A) (A) (A) (A) (A) (A)
                 (A) (A) (A) (A) (A) (A) (A) (A) (A) (A) (A) (A)
                 (A) (A) (A) (A) (A) (A) (A) (A) (A) (A) (A) (A)
                 (A) (A) (A) (A) (A) (A) (A) (A) (A) (A) (A) (A)
                 (A) (A) (A) (A) (A) (A) (A) (A) (A) (A) (A) (A)
                 (A) (A) (A) (A) (A) (A) (A) (A) (A) (A) (A) (A)
                 (A) (A) (A) (A) (A) (A) (A) (A) (A) (A) (A) (A)
                 (A) (A) (A) (A) (A) (A) (A) (A) (A) (A) (A) (A)
                 (A) (A) (A) (A) (A) (A) (A) (A) (A) (A) (A) (A)
                 (A) (A) (A) (A) (A) (A) (A)
 The electronic state is 1-A.
 Alpha  occ. eigenvalues -- -482.93094-101.55201 -61.89257 -56.41405 -56.40979
 Alpha  occ. eigenvalues --  -56.40969 -19.20921 -19.14949 -14.35993 -10.33379
 Alpha  occ. eigenvalues --  -10.30272 -10.26932 -10.25772 -10.25230 -10.24165
 Alpha  occ. eigenvalues --  -10.24007  -9.46956  -8.60402  -7.23363  -7.22423
 Alpha  occ. eigenvalues --   -7.22259  -6.55821  -6.54512  -6.54483  -2.67391
 Alpha  occ. eigenvalues --   -2.67016  -2.66994  -2.65949  -2.65949  -1.12728
 Alpha  occ. eigenvalues --   -1.03562  -0.99545  -0.88171  -0.85956  -0.81932
 Alpha  occ. eigenvalues --   -0.75284  -0.74001  -0.68096  -0.64120  -0.58971
 Alpha  occ. eigenvalues --   -0.54904  -0.53318  -0.52257  -0.50144  -0.47981
 Alpha  occ. eigenvalues --   -0.45331  -0.45136  -0.44072  -0.43975  -0.41010
 Alpha  occ. eigenvalues --   -0.40778  -0.37304  -0.37200  -0.32936  -0.32539
 Alpha  occ. eigenvalues --   -0.31743  -0.30964  -0.30821  -0.28510  -0.27671
 Alpha  occ. eigenvalues --   -0.25872
 Alpha virt. eigenvalues --   -0.07332  -0.04735  -0.00669   0.03271   0.04828
 Alpha virt. eigenvalues --    0.10267   0.11600   0.13310   0.13813   0.14564
 Alpha virt. eigenvalues --    0.15561   0.16644   0.20506   0.22637   0.23675
 Alpha virt. eigenvalues --    0.26976   0.28635   0.28847   0.32498   0.34576
 Alpha virt. eigenvalues --    0.36881   0.39252   0.40698   0.43798   0.44400
 Alpha virt. eigenvalues --    0.44496   0.44547   0.46570   0.46764   0.47649
 Alpha virt. eigenvalues --    0.48473   0.49715   0.50657   0.51058   0.52902
 Alpha virt. eigenvalues --    0.53176   0.55360   0.55782   0.56207   0.59984
 Alpha virt. eigenvalues --    0.60603   0.61542   0.61807   0.65653   0.70294
 Alpha virt. eigenvalues --    0.70816   0.72474   0.72879   0.73623   0.75483
 Alpha virt. eigenvalues --    0.77693   0.78935   0.80948   0.81550   0.82057
 Alpha virt. eigenvalues --    0.82229   0.84403   0.85887   0.87375   0.88520
 Alpha virt. eigenvalues --    0.90296   0.91316   0.94747   0.95237   0.95331
 Alpha virt. eigenvalues --    0.97020   0.97913   1.04766   1.06738   1.07667
 Alpha virt. eigenvalues --    1.09399   1.12520   1.17974   1.19405   1.20785
 Alpha virt. eigenvalues --    1.23811   1.26665   1.27463   1.30935   1.31670
 Alpha virt. eigenvalues --    1.32771   1.37296   1.40451   1.41082   1.43933
 Alpha virt. eigenvalues --    1.45218   1.51664   1.52042   1.53964   1.56063
 Alpha virt. eigenvalues --    1.61031   1.63938   1.65540   1.70177   1.72027
 Alpha virt. eigenvalues --    1.77092   1.81329   1.81947   1.84300   1.84845
 Alpha virt. eigenvalues --    1.88758   1.91044   1.91847   1.93235   1.97228
 Alpha virt. eigenvalues --    1.98814   2.00075   2.02273   2.02347   2.03556
 Alpha virt. eigenvalues --    2.04958   2.07395   2.12283   2.13806   2.19153
 Alpha virt. eigenvalues --    2.19534   2.27104   2.29170   2.34063   2.37926
 Alpha virt. eigenvalues --    2.39161   2.40840   2.43429   2.49117   2.49892
 Alpha virt. eigenvalues --    2.51539   2.55409   2.56566   2.59713   2.60597
 Alpha virt. eigenvalues --    2.63552   2.64954   2.69064   2.72086   2.72704
 Alpha virt. eigenvalues --    2.73745   2.83590   2.84666   2.91037   2.93245
 Alpha virt. eigenvalues --    2.97968   3.04809   3.15277   3.19501   3.23566
 Alpha virt. eigenvalues --    3.25015   3.38040   3.39836   3.42647   3.61272
 Alpha virt. eigenvalues --    3.98130   4.04300   4.05414   4.18251   4.21221
 Alpha virt. eigenvalues --    4.29010   4.37174   4.41393   4.44432   4.54225
 Alpha virt. eigenvalues --    4.69142   8.58739  72.79927
          Condensed to atoms (all electrons):
               1          2          3          4          5          6
     1  C    4.721533   0.215156  -0.022490   0.002793   0.007997  -0.000327
     2  O    0.215156   8.255606   0.268788  -0.087677  -0.100339   0.002125
     3  C   -0.022490   0.268788   4.389869   0.542665   0.300827  -0.047327
     4  O    0.002793  -0.087677   0.542665   8.067012  -0.065411   0.004114
     5  C    0.007997  -0.100339   0.300827  -0.065411   5.121153   0.440207
     6  C   -0.000327   0.002125  -0.047327   0.004114   0.440207   5.034887
     7  C    0.000005   0.000528   0.006659  -0.000080  -0.010287   0.463945
     8  Br  -0.000000  -0.000009  -0.000068   0.000000   0.006289  -0.061040
     9  C    0.000000   0.000001   0.000645   0.000007  -0.030189  -0.045573
    10  N    0.000001  -0.000038   0.005968   0.000041  -0.017501  -0.061487
    11  C   -0.000054   0.002118  -0.033538  -0.012334   0.443123  -0.067853
    12  Cl   0.000019   0.000077   0.000151  -0.003775  -0.085805   0.003903
    13  H    0.386214  -0.031842  -0.005384   0.005573  -0.000246   0.000065
    14  H    0.385181  -0.031823  -0.005745   0.007017  -0.000099   0.000051
    15  H    0.389748  -0.032702   0.004196   0.000712   0.000097  -0.000101
    16  H   -0.000431   0.014297  -0.013334   0.000194  -0.036439   0.377129
    17  H    0.000000  -0.000000   0.000024  -0.000000   0.000856   0.002709
               7          8          9         10         11         12
     1  C    0.000005  -0.000000   0.000000   0.000001  -0.000054   0.000019
     2  O    0.000528  -0.000009   0.000001  -0.000038   0.002118   0.000077
     3  C    0.006659  -0.000068   0.000645   0.005968  -0.033538   0.000151
     4  O   -0.000080   0.000000   0.000007   0.000041  -0.012334  -0.003775
     5  C   -0.010287   0.006289  -0.030189  -0.017501   0.443123  -0.085805
     6  C    0.463945  -0.061040  -0.045573  -0.061487  -0.067853   0.003903
     7  C    4.977685   0.250699   0.458022  -0.015312  -0.037193   0.000410
     8  Br   0.250699  34.949524  -0.050201   0.004681   0.000363   0.000012
     9  C    0.458022  -0.050201   4.762455   0.463631  -0.072453   0.005077
    10  N   -0.015312   0.004681   0.463631   6.773286   0.406046  -0.091261
    11  C   -0.037193   0.000363  -0.072453   0.406046   4.996808   0.300339
    12  Cl   0.000410   0.000012   0.005077  -0.091261   0.300339  16.792834
    13  H    0.000002  -0.000000  -0.000000  -0.000000   0.000003  -0.000001
    14  H    0.000001  -0.000000  -0.000000  -0.000000   0.000001   0.000000
    15  H   -0.000002  -0.000000  -0.000000  -0.000000   0.000003   0.000000
    16  H   -0.046481  -0.002878   0.004959  -0.000435   0.005986  -0.000132
    17  H   -0.066433   0.002342   0.391397  -0.048423   0.004575  -0.000226
              13         14         15         16         17
     1  C    0.386214   0.385181   0.389748  -0.000431   0.000000
     2  O   -0.031842  -0.031823  -0.032702   0.014297  -0.000000
     3  C   -0.005384  -0.005745   0.004196  -0.013334   0.000024
     4  O    0.005573   0.007017   0.000712   0.000194  -0.000000
     5  C   -0.000246  -0.000099   0.000097  -0.036439   0.000856
     6  C    0.000065   0.000051  -0.000101   0.377129   0.002709
     7  C    0.000002   0.000001  -0.000002  -0.046481  -0.066433
     8  Br  -0.000000  -0.000000  -0.000000  -0.002878   0.002342
     9  C   -0.000000  -0.000000  -0.000000   0.004959   0.391397
    10  N   -0.000000  -0.000000  -0.000000  -0.000435  -0.048423
    11  C    0.000003   0.000001   0.000003   0.005986   0.004575
    12  Cl  -0.000001   0.000000   0.000000  -0.000132  -0.000226
    13  H    0.581048  -0.037686  -0.032707   0.000039   0.000000
    14  H   -0.037686   0.578773  -0.031951   0.000036   0.000000
    15  H   -0.032707  -0.031951   0.578091  -0.000065  -0.000000
    16  H    0.000039   0.000036  -0.000065   0.548277  -0.000152
    17  H    0.000000   0.000000  -0.000000  -0.000152   0.580158
 Mulliken charges:
               1
     1  C   -0.085344
     2  O   -0.474267
     3  C    0.608094
     4  O   -0.460850
     5  C    0.025766
     6  C   -0.045427
     7  C    0.017832
     8  Br  -0.099714
     9  C    0.112220
    10  N   -0.419196
    11  C    0.064059
    12  Cl   0.078378
    13  H    0.134924
    14  H    0.136242
    15  H    0.124681
    16  H    0.149430
    17  H    0.133172
 Sum of Mulliken charges =  -0.00000
 Mulliken charges with hydrogens summed into heavy atoms:
               1
     1  C    0.310504
     2  O   -0.474267
     3  C    0.608094
     4  O   -0.460850
     5  C    0.025766
     6  C    0.104002
     7  C    0.017832
     8  Br  -0.099714
     9  C    0.245392
    10  N   -0.419196
    11  C    0.064059
    12  Cl   0.078378
 Electronic spatial extent (au):  <R**2>=           3844.2507
 Charge=             -0.0000 electrons
 Dipole moment (field-independent basis, Debye):
    X=              1.0985    Y=              3.2036    Z=              0.0527  Tot=              3.3871
 Quadrupole moment (field-independent basis, Debye-Ang):
   XX=            -89.6726   YY=            -82.1711   ZZ=            -85.9962
   XY=             -9.3111   XZ=             -0.3620   YZ=              0.0024
 Traceless Quadrupole moment (field-independent basis, Debye-Ang):
   XX=             -3.7260   YY=              3.7756   ZZ=             -0.0495
   XY=             -9.3111   XZ=             -0.3620   YZ=              0.0024
 Octapole moment (field-independent basis, Debye-Ang**2):
  XXX=             94.8103  YYY=             61.9170  ZZZ=             -0.1407  XYY=              5.4636
  XXY=             24.1229  XXZ=              1.5036  XZZ=             18.7645  YZZ=              7.0528
  YYZ=             -0.1566  XYZ=             -0.1958
 Hexadecapole moment (field-independent basis, Debye-Ang**3):
 XXXX=          -2822.9736 YYYY=          -1373.6842 ZZZZ=            -91.9075 XXXY=              4.1606
 XXXZ=             -5.4266 YYYX=            -51.8373 YYYZ=              0.5892 ZZZX=              0.1999
 ZZZY=             -0.0107 XXYY=           -595.5409 XXZZ=           -480.4618 YYZZ=           -254.6832
 XXYZ=              0.8307 YYXZ=             -0.3406 ZZXY=              8.7594
 N-N= 1.039897437943D+03 E-N=-1.041376469119D+04  KE= 3.485771816722D+03
 No NMR shielding tensors so no spin-rotation constants.
 Leave Link  601 at Tue Sep 17 09:45:55 2024, MaxMem=  1342177280 cpu:               0.8 elap:               0.2
 (Enter /groups/ReismanLab/Software/Gaussian16_RevC/Linux_Binary_AVX2-enabled-CPU/g16/l701.exe)
 ... and contract with generalized density number  0.
 Compute integral first derivatives.
 R6Disp: Adding Grimme-D3(BJ) dispersion energy 1st derivatives to the gradient.
 Leave Link  701 at Tue Sep 17 09:45:55 2024, MaxMem=  1342177280 cpu:               0.8 elap:               0.2
 (Enter /groups/ReismanLab/Software/Gaussian16_RevC/Linux_Binary_AVX2-enabled-CPU/g16/l702.exe)
 L702 exits ... SP integral derivatives will be done elsewhere.
 Leave Link  702 at Tue Sep 17 09:45:55 2024, MaxMem=  1342177280 cpu:               0.1 elap:               0.1
 (Enter /groups/ReismanLab/Software/Gaussian16_RevC/Linux_Binary_AVX2-enabled-CPU/g16/l703.exe)
 Integral derivatives from FoFJK, PRISM(SPDF).
 Compute integral first derivatives, UseDBF=F ICtDFT=           0.
 Calling FoFJK, ICntrl=      2127 FMM=F ISym2X=0 I1Cent= 0 IOpClX= 0 NMat=1 NMatS=1 NMatT=0.
 FoFJK:  IHMeth= 1 ICntrl=    2127 DoSepK=F KAlg= 0 I1Cent=           0 FoldK=F
 IRaf=         0 NMat=       1 IRICut=       1 DoRegI=T DoRafI=F ISym2E= 0 IDoP0=0 IntGTp=1.
 FoFCou: FMM=F IPFlag=           0 FMFlag=      100000 FMFlg1=         800
         NFxFlg=           0 DoJE=F BraDBF=F KetDBF=F FulRan=T
         wScrn=  0.000000 ICntrl=      2127 IOpCl=  0 I1Cent=           0 NGrid=           0
         NMat0=    1 NMatS0=      1 NMatT0=    0 NMatD0=    1 NMtDS0=    0 NMtDT0=    0
 Symmetry not used in FoFCou.
 Leave Link  703 at Tue Sep 17 09:46:00 2024, MaxMem=  1342177280 cpu:              35.8 elap:               4.6
 (Enter /groups/ReismanLab/Software/Gaussian16_RevC/Linux_Binary_AVX2-enabled-CPU/g16/l716.exe)
 Dipole        = 4.32199643D-01 1.26038265D+00 2.07349083D-02
 ***** Axes restored to original set *****
 -------------------------------------------------------------------
 Center     Atomic                   Forces (Hartrees/Bohr)
 Number     Number              X              Y              Z
 -------------------------------------------------------------------
      1        6          -0.007058630   -0.002332712    0.000369070
      2        8           0.011716640   -0.006430350    0.000288324
      3        6           0.009708159    0.002460751    0.000098243
      4        8          -0.016537087    0.002922577   -0.000156102
      5        6          -0.004208504   -0.001233792   -0.000078465
      6        6           0.002836000   -0.001524758    0.000159916
      7        6           0.002346449   -0.003848197    0.000520874
      8       35           0.003485862   -0.001020239    0.000243535
      9        6           0.010839399   -0.004108277    0.000654884
     10        7          -0.009452001    0.013913116   -0.001563990
     11        6           0.008519049   -0.008831600    0.001277604
     12       17          -0.016013053    0.014112696   -0.001981648
     13        1          -0.000999217   -0.000489977   -0.000486382
     14        1          -0.000939000   -0.000560327    0.000362914
     15        1           0.000826441   -0.001479014    0.000050131
     16        1           0.000161677   -0.001719271    0.000093295
     17        1           0.004767817    0.000169373    0.000147795
 -------------------------------------------------------------------
 Cartesian Forces:  Max     0.016537087 RMS     0.005846509
 Leave Link  716 at Tue Sep 17 09:46:00 2024, MaxMem=  1342177280 cpu:               0.1 elap:               0.1
 (Enter /groups/ReismanLab/Software/Gaussian16_RevC/Linux_Binary_AVX2-enabled-CPU/g16/l103.exe)

 GradGradGradGradGradGradGradGradGradGradGradGradGradGradGradGradGradGrad
 Berny optimization.
 FormGI is forming the generalized inverse of G from B-inverse, IUseBI=4.
 Internal  Forces:  Max     0.021125477 RMS     0.005337423
 Search for a local minimum.
 Step number   1 out of a maximum of   82
 All quantities printed in internal units (Hartrees-Bohrs-Radians)
 RMS Force = .53374D-02 SwitMx=.10000D-02 MixMth= 1
 Mixed Optimization -- RFO/linear search
 Second derivative matrix not updated -- first step.
 ITU=  0
     Eigenvalues ---    0.00875   0.01393   0.01409   0.01709   0.02122
     Eigenvalues ---    0.02222   0.02241   0.02262   0.02277   0.02416
     Eigenvalues ---    0.02486   0.02657   0.10306   0.10656   0.16000
     Eigenvalues ---    0.16000   0.16000   0.16000   0.16000   0.18612
     Eigenvalues ---    0.23301   0.23495   0.25000   0.25000   0.25000
     Eigenvalues ---    0.25000   0.25000   0.25000   0.25000   0.33254
     Eigenvalues ---    0.34620   0.34621   0.35194   0.35665   0.35854
     Eigenvalues ---    0.36115   0.42229   0.42252   0.44982   0.46295
     Eigenvalues ---    0.47630   0.57214   0.59536   0.61870   1.04029
 RFO step:  Lambda=-4.81785014D-03 EMin= 8.74588556D-03
 Linear search not attempted -- first point.
 Iteration  1 RMS(Cart)=  0.05428424 RMS(Int)=  0.00055885
 Iteration  2 RMS(Cart)=  0.00207015 RMS(Int)=  0.00001541
 Iteration  3 RMS(Cart)=  0.00000172 RMS(Int)=  0.00001537
 Iteration  4 RMS(Cart)=  0.00000000 RMS(Int)=  0.00001537
 ITry= 1 IFail=0 DXMaxC= 2.62D-01 DCOld= 1.00D+10 DXMaxT= 3.00D-01 DXLimC= 3.00D+00 Rises=F
 Variable       Old X    -DE/DX   Delta X   Delta X   Delta X     New X
                                 (Linear)    (Quad)   (Total)
    R1        2.68604   0.00945   0.00000   0.02210   0.02210   2.70814
    R2        2.06297   0.00090   0.00000   0.00256   0.00256   2.06553
    R3        2.06295   0.00071   0.00000   0.00201   0.00201   2.06496
    R4        2.05361   0.00168   0.00000   0.00470   0.00470   2.05832
    R5        2.53216   0.01180   0.00000   0.02045   0.02045   2.55260
    R6        2.27067   0.01647   0.00000   0.01576   0.01576   2.28643
    R7        2.81907   0.00599   0.00000   0.01776   0.01776   2.83683
    R8        2.63276   0.00856   0.00000   0.01702   0.01703   2.64979
    R9        2.65682   0.01154   0.00000   0.02592   0.02593   2.68275
   R10        2.61614   0.00300   0.00000   0.00483   0.00482   2.62096
   R11        2.03902   0.00173   0.00000   0.00472   0.00472   2.04374
   R12        3.57668   0.00360   0.00000   0.01883   0.01883   3.59551
   R13        2.62626   0.00390   0.00000   0.00793   0.00791   2.63417
   R14        2.48355   0.01874   0.00000   0.03016   0.03015   2.51371
   R15        2.04311   0.00391   0.00000   0.01077   0.01077   2.05388
   R16        2.49645   0.00977   0.00000   0.01676   0.01677   2.51322
   R17        3.21609   0.02113   0.00000   0.05844   0.05844   3.27453
    A1        1.92456   0.00112   0.00000   0.00710   0.00708   1.93164
    A2        1.92506   0.00132   0.00000   0.00846   0.00844   1.93351
    A3        1.85223  -0.00087   0.00000  -0.00599  -0.00598   1.84625
    A4        1.89795  -0.00072   0.00000  -0.00300  -0.00304   1.89491
    A5        1.93129  -0.00043   0.00000  -0.00345  -0.00345   1.92784
    A6        1.93278  -0.00039   0.00000  -0.00294  -0.00293   1.92985
    A7        2.01814  -0.00071   0.00000  -0.00280  -0.00280   2.01534
    A8        2.15133  -0.00177   0.00000  -0.00695  -0.00695   2.14438
    A9        1.94112  -0.00391   0.00000  -0.01533  -0.01533   1.92579
   A10        2.19072   0.00568   0.00000   0.02228   0.02228   2.21300
   A11        2.09700  -0.00894   0.00000  -0.03399  -0.03400   2.06301
   A12        2.14392   0.00959   0.00000   0.03873   0.03872   2.18264
   A13        2.04226  -0.00065   0.00000  -0.00474  -0.00472   2.03754
   A14        2.08114   0.00453   0.00000   0.01415   0.01415   2.09528
   A15        2.08963  -0.00219   0.00000  -0.00665  -0.00665   2.08298
   A16        2.11242  -0.00233   0.00000  -0.00750  -0.00750   2.10492
   A17        2.10206   0.00135   0.00000   0.00711   0.00712   2.10918
   A18        2.07894  -0.00067   0.00000  -0.00627  -0.00630   2.07265
   A19        2.10218  -0.00068   0.00000  -0.00084  -0.00083   2.10136
   A20        2.12548   0.00012   0.00000   0.00165   0.00163   2.12711
   A21        2.12667  -0.00285   0.00000  -0.01776  -0.01775   2.10892
   A22        2.03103   0.00273   0.00000   0.01611   0.01612   2.04715
   A23        2.09560  -0.00071   0.00000   0.00306   0.00307   2.09866
   A24        2.14295  -0.00262   0.00000  -0.00785  -0.00783   2.13512
   A25        2.13169   0.00715   0.00000   0.02686   0.02684   2.15853
   A26        2.00855  -0.00454   0.00000  -0.01902  -0.01904   1.98951
    D1        1.09050   0.00026   0.00000  -0.00199  -0.00196   1.08854
    D2       -1.00603  -0.00041   0.00000  -0.00824  -0.00827  -1.01430
    D3       -3.10039  -0.00015   0.00000  -0.00579  -0.00579  -3.10618
    D4        0.00032  -0.00012   0.00000  -0.00352  -0.00353  -0.00321
    D5        3.13877  -0.00013   0.00000  -0.00485  -0.00484   3.13393
    D6       -0.04998  -0.00004   0.00000  -0.00376  -0.00376  -0.05374
    D7        3.09471  -0.00006   0.00000  -0.00466  -0.00465   3.09006
    D8        3.08839  -0.00007   0.00000  -0.00519  -0.00519   3.08319
    D9       -0.05010  -0.00009   0.00000  -0.00608  -0.00609  -0.05620
   D10       -3.13683   0.00001   0.00000   0.00060   0.00061  -3.13622
   D11        0.00398  -0.00001   0.00000  -0.00013  -0.00012   0.00386
   D12        0.00184   0.00004   0.00000   0.00152   0.00151   0.00335
   D13       -3.14053   0.00003   0.00000   0.00079   0.00079  -3.13975
   D14        3.13483   0.00004   0.00000   0.00163   0.00166   3.13648
   D15       -0.00937  -0.00011   0.00000  -0.00370  -0.00372  -0.01310
   D16       -0.00376   0.00003   0.00000   0.00082   0.00082  -0.00294
   D17        3.13523  -0.00012   0.00000  -0.00452  -0.00456   3.13067
   D18       -3.14062  -0.00005   0.00000  -0.00181  -0.00180   3.14076
   D19        0.00185  -0.00007   0.00000  -0.00280  -0.00280  -0.00095
   D20        0.00176  -0.00003   0.00000  -0.00107  -0.00107   0.00070
   D21       -3.13895  -0.00006   0.00000  -0.00207  -0.00206  -3.14101
   D22       -0.00412   0.00005   0.00000   0.00189   0.00189  -0.00223
   D23        3.13813   0.00004   0.00000   0.00149   0.00148   3.13962
   D24        3.13835   0.00003   0.00000   0.00089   0.00089   3.13925
   D25       -0.00258   0.00001   0.00000   0.00049   0.00049  -0.00209
   D26        0.00235   0.00001   0.00000   0.00043   0.00040   0.00275
   D27       -3.13987   0.00002   0.00000   0.00079   0.00079  -3.13908
   D28        0.00169  -0.00005   0.00000  -0.00179  -0.00177  -0.00008
   D29       -3.13746   0.00007   0.00000   0.00313   0.00306  -3.13440
         Item               Value     Threshold  Converged?
 Maximum Force            0.021125     0.000450     NO 
 RMS     Force            0.005337     0.000300     NO 
 Maximum Displacement     0.262306     0.001800     NO 
 RMS     Displacement     0.055969     0.001200     NO 
 Predicted change in Energy=-2.441991D-03
 Lowest energy point so far.  Saving SCF results.
 GradGradGradGradGradGradGradGradGradGradGradGradGradGradGradGradGradGrad

 Leave Link  103 at Tue Sep 17 09:46:00 2024, MaxMem=  1342177280 cpu:               0.2 elap:               0.1
 (Enter /groups/ReismanLab/Software/Gaussian16_RevC/Linux_Binary_AVX2-enabled-CPU/g16/l202.exe)
                          Input orientation:                          
 ---------------------------------------------------------------------
 Center     Atomic      Atomic             Coordinates (Angstroms)
 Number     Number       Type             X           Y           Z
 ---------------------------------------------------------------------
      1          6           0       -3.124751   -2.993707    0.102111
      2          8           0       -2.016269   -2.086658    0.054549
      3          6           0       -2.339845   -0.776526   -0.004264
      4          8           0       -3.483822   -0.382825   -0.019832
      5          6           0       -1.098241    0.066553   -0.038764
      6          6           0        0.143253   -0.577884    0.059102
      7          6           0        1.314678    0.164371    0.037761
      8         35           0        3.011313   -0.686490    0.170354
      9          6           0        1.228190    1.550367   -0.083127
     10          7           0        0.057978    2.175306   -0.180478
     11          6           0       -1.076013    1.480728   -0.161310
     12         17           0       -2.501418    2.454772   -0.309905
     13          1           0       -3.728490   -2.913199   -0.805487
     14          1           0       -3.762209   -2.782049    0.964029
     15          1           0       -2.689825   -3.989039    0.182972
     16          1           0        0.175491   -1.654877    0.152334
     17          1           0        2.124433    2.164928   -0.101569
 ---------------------------------------------------------------------
                    Distance matrix (angstroms):
                    1          2          3          4          5
     1  C    0.000000
     2  O    1.433085   0.000000
     3  C    2.354418   1.350780   0.000000
     4  O    2.638276   2.249953   1.209928   0.000000
     5  C    3.673115   2.342605   1.501183   2.427612   0.000000
     6  C    4.064222   2.634379   2.491836   3.633174   1.402207
     7  C    5.448497   4.020276   3.773935   4.829942   2.416112
     8  Br   6.555851   5.220197   5.354763   6.505011   4.183209
     9  C    6.295316   4.875799   4.260460   5.093554   2.759701
    10  N    6.076867   4.745742   3.807087   4.371978   2.409100
    11  C    4.928213   3.695527   2.591742   3.048015   1.419649
    12  Cl   5.499474   4.581788   3.249739   3.016823   2.783166
    13  H    1.093031   2.086752   2.671267   2.660810   4.047839
    14  H    1.092728   2.087829   2.642506   2.608017   4.027015
    15  H    1.089214   2.022183   3.236941   3.698153   4.362354
    16  H    3.561823   2.236025   2.668883   3.877928   2.149937
    17  H    7.362536   5.936815   5.347092   6.160378   3.846135
                    6          7          8          9         10
     6  C    0.000000
     7  C    1.386951   0.000000
     8  Br   2.872271   1.902660   0.000000
     9  C    2.393067   1.393943   2.871813   0.000000
    10  N    2.764910   2.381341   4.127366   1.330197   0.000000
    11  C    2.402723   2.736390   4.638218   2.306580   1.329940
    12  Cl   4.040724   4.464235   6.363048   3.844392   2.577859
    13  H    4.603434   5.967918   7.164876   6.709240   6.373450
    14  H    4.574917   5.942570   7.134556   6.691072   6.362318
    15  H    4.435950   5.771303   6.588624   6.790189   6.758821
    16  H    1.081501   2.149543   2.996662   3.381893   3.846411
    17  H    3.387316   2.162717   2.998514   1.086866   2.067988
                   11         12         13         14         15
    11  C    0.000000
    12  Cl   1.732807   0.000000
    13  H    5.172736   5.528691   0.000000
    14  H    5.162684   5.535051   1.774690   0.000000
    15  H    5.713254   6.465379   1.792570   1.793567   0.000000
    16  H    3.390672   4.926329   4.212109   4.175505   3.695847
    17  H    3.273309   4.639602   7.780719   7.762772   7.818527
                   16         17
    16  H    0.000000
    17  H    4.295783   0.000000
 Stoichiometry    C7H5BrClNO2
 Framework group  C1[X(C7H5BrClNO2)]
 Deg. of freedom    45
 Full point group                 C1      NOp   1
 RotChk:  IX=0 Diff= 4.18D-02
 Largest Abelian subgroup         C1      NOp   1
 Largest concise Abelian subgroup C1      NOp   1
                         Standard orientation:                         
 ---------------------------------------------------------------------
 Center     Atomic      Atomic             Coordinates (Angstroms)
 Number     Number       Type             X           Y           Z
 ---------------------------------------------------------------------
      1          6           0       -2.759537    3.175355    0.025451
      2          8           0       -1.717955    2.191172    0.040364
      3          6           0       -2.131602    0.906651   -0.018851
      4          8           0       -3.299218    0.594912   -0.077307
      5          6           0       -0.952441   -0.022322   -0.006876
      6          6           0        0.332825    0.538279   -0.006537
      7          6           0        1.449406   -0.284436   -0.002106
      8         35           0        3.203795    0.451930   -0.002909
      9          6           0        1.264331   -1.666028    0.003113
     10          7           0        0.051459   -2.212246    0.006463
     11          6           0       -1.031124   -1.439763    0.001723
     12         17           0       -2.524157   -2.319076    0.018501
     13          1           0       -3.405240    3.067186    0.900714
     14          1           0       -3.372769    3.077286   -0.873650
     15          1           0       -2.255253    4.140668    0.041369
     16          1           0        0.441752    1.614271   -0.011179
     17          1           0        2.115368   -2.342054    0.004837
 ---------------------------------------------------------------------
 Rotational constants (GHZ):           0.8544846           0.3362255           0.2416850
 Leave Link  202 at Tue Sep 17 09:46:00 2024, MaxMem=  1342177280 cpu:               0.1 elap:               0.0
 (Enter /groups/ReismanLab/Software/Gaussian16_RevC/Linux_Binary_AVX2-enabled-CPU/g16/l301.exe)
 Standard basis: 6-31G(d,p) (6D, 7F)
 Ernie: Thresh=  0.10000D-02 Tol=  0.10000D-05 Strict=F.
 There are   224 symmetry adapted cartesian basis functions of A   symmetry.
 There are   224 symmetry adapted basis functions of A   symmetry.
   224 basis functions,   450 primitive gaussians,   224 cartesian basis functions
    61 alpha electrons       61 beta electrons
       nuclear repulsion energy      1031.0789306587 Hartrees.
 IExCor=  402 DFT=T Ex+Corr=B3LYP ExCW=0 ScaHFX=  0.200000
 ScaDFX=  0.800000  0.720000  1.000000  0.810000 ScalE2=  1.000000  1.000000
 IRadAn=      5 IRanWt=     -1 IRanGd=            0 ICorTp=0 IEmpDi=141
 NAtoms=   17 NActive=   17 NUniq=   17 SFac= 1.00D+00 NAtFMM=   60 NAOKFM=F Big=F
 Integral buffers will be    131072 words long.
 Raffenetti 2 integral format.
 Two-electron integral symmetry is turned on.
 R6Disp:  Grimme-D3(BJ) Dispersion energy=       -0.0376724917 Hartrees.
 Nuclear repulsion after empirical dispersion term =     1031.0412581670 Hartrees.
 Leave Link  301 at Tue Sep 17 09:46:00 2024, MaxMem=  1342177280 cpu:               0.1 elap:               0.1
 (Enter /groups/ReismanLab/Software/Gaussian16_RevC/Linux_Binary_AVX2-enabled-CPU/g16/l302.exe)
 NPDir=0 NMtPBC=     1 NCelOv=     1 NCel=       1 NClECP=     1 NCelD=      1
         NCelK=      1 NCelE2=     1 NClLst=     1 CellRange=     0.0.
 One-electron integrals computed using PRISM.
 One-electron integral symmetry used in STVInt
 NBasis=   224 RedAO= T EigKep=  6.63D-04  NBF=   224
 NBsUse=   224 1.00D-06 EigRej= -1.00D+00 NBFU=   224
 Precomputing XC quadrature grid using
 IXCGrd= 4 IRadAn=           5 IRanWt=          -1 IRanGd=           0 AccXCQ= 0.00D+00.
 Generated NRdTot=       0 NPtTot=           0 NUsed=           0 NTot=          32
 NSgBfM=   223   223   223   223   223 MxSgAt=    17 MxSgA2=    17.
 Leave Link  302 at Tue Sep 17 09:46:00 2024, MaxMem=  1342177280 cpu:               1.1 elap:               0.2
 (Enter /groups/ReismanLab/Software/Gaussian16_RevC/Linux_Binary_AVX2-enabled-CPU/g16/l303.exe)
 DipDrv:  MaxL=1.
 Leave Link  303 at Tue Sep 17 09:46:01 2024, MaxMem=  1342177280 cpu:               0.1 elap:               0.1
 (Enter /groups/ReismanLab/Software/Gaussian16_RevC/Linux_Binary_AVX2-enabled-CPU/g16/l401.exe)
 Initial guess from the checkpoint file:  "smiles_00077_conf_2.chk"
 B after Tr=    -0.000000   -0.000000    0.000000
         Rot=    0.999963   -0.000243   -0.000053    0.008596 Ang=  -0.99 deg.
 Guess basis will be translated and rotated to current coordinates.
 JPrj=2 DoOrth=T DoCkMO=T.
 Generating alternative initial guess.
 ExpMin= 1.43D-01 ExpMax= 5.74D+05 ExpMxC= 5.74D+03 IAcc=3 IRadAn=         5 AccDes= 0.00D+00
 Harris functional with IExCor=  402 and IRadAn=       5 diagonalized for initial guess.
 HarFok:  IExCor=  402 AccDes= 0.00D+00 IRadAn=         5 IDoV= 1 UseB2=F ITyADJ=14
 ICtDFT=  3500011 ScaDFX=  1.000000  1.000000  1.000000  1.000000
 FoFCou: FMM=F IPFlag=           0 FMFlag=      100000 FMFlg1=           0
         NFxFlg=           0 DoJE=T BraDBF=F KetDBF=T FulRan=T
         wScrn=  0.000000 ICntrl=       500 IOpCl=  0 I1Cent=   200000004 NGrid=           0
         NMat0=    1 NMatS0=      1 NMatT0=    0 NMatD0=    1 NMtDS0=    0 NMtDT0=    0
 Petite list used in FoFCou.
 Harris En= -3506.91411981060    
 Leave Link  401 at Tue Sep 17 09:46:02 2024, MaxMem=  1342177280 cpu:               6.3 elap:               0.9
 (Enter /groups/ReismanLab/Software/Gaussian16_RevC/Linux_Binary_AVX2-enabled-CPU/g16/l502.exe)
 Integral symmetry usage will be decided dynamically.
 Closed shell SCF:
 Using DIIS extrapolation, IDIIS=  1040.
 NGot=  1342177280 LenX=  1342072412 LenY=  1342021795
 Requested convergence on RMS density matrix=1.00D-08 within  32 cycles.
 Requested convergence on MAX density matrix=1.00D-06.
 Requested convergence on             energy=1.00D-06.
 No special actions if energy rises.
 Fock matrices will be formed incrementally for  20 cycles.
 Integral accuracy reduced to 1.0D-05 until final iterations.

 Cycle   1  Pass 0  IDiag  1:
 FoFJK:  IHMeth= 1 ICntrl=       0 DoSepK=F KAlg= 0 I1Cent=           0 FoldK=F
 IRaf= 830000000 NMat=       1 IRICut=       1 DoRegI=T DoRafI=F ISym2E= 0 IDoP0=0 IntGTp=1.
 FoFCou: FMM=F IPFlag=           0 FMFlag=      100000 FMFlg1=           0
         NFxFlg=           0 DoJE=F BraDBF=F KetDBF=F FulRan=T
         wScrn=  0.000000 ICntrl=         0 IOpCl=  0 I1Cent=           0 NGrid=           0
         NMat0=    1 NMatS0=      1 NMatT0=    0 NMatD0=    1 NMtDS0=    0 NMtDT0=    0
 Symmetry not used in FoFCou.
 E= -3506.89236405103    
 DIIS: error= 2.79D-03 at cycle   1 NSaved=   1.
 NSaved= 1 IEnMin= 1 EnMin= -3506.89236405103     IErMin= 1 ErrMin= 2.79D-03
 ErrMax= 2.79D-03  0.00D+00 EMaxC= 1.00D-01 BMatC= 4.28D-03 BMatP= 4.28D-03
 IDIUse=3 WtCom= 9.72D-01 WtEn= 2.79D-02
 Coeff-Com:  0.100D+01
 Coeff-En:   0.100D+01
 Coeff:      0.100D+01
 Gap=     1.666 Goal=   None    Shift=    0.000
 GapD=    1.666 DampG=2.000 DampE=1.000 DampFc=2.0000 IDamp=-1.
 RMSDP=4.60D-04 MaxDP=1.24D-02              OVMax= 1.47D-02

 Cycle   2  Pass 0  IDiag  1:
 RMSU=  4.59D-04    CP:  1.00D+00
 E= -3506.89697765100     Delta-E=       -0.004613599967 Rises=F Damp=F
 DIIS: error= 6.64D-04 at cycle   2 NSaved=   2.
 NSaved= 2 IEnMin= 2 EnMin= -3506.89697765100     IErMin= 2 ErrMin= 6.64D-04
 ErrMax= 6.64D-04  0.00D+00 EMaxC= 1.00D-01 BMatC= 1.73D-04 BMatP= 4.28D-03
 IDIUse=3 WtCom= 9.93D-01 WtEn= 6.64D-03
 Coeff-Com:  0.249D-01 0.975D+00
 Coeff-En:   0.000D+00 0.100D+01
 Coeff:      0.247D-01 0.975D+00
 Gap=     0.183 Goal=   None    Shift=    0.000
 RMSDP=1.98D-04 MaxDP=6.40D-03 DE=-4.61D-03 OVMax= 7.21D-03

 Cycle   3  Pass 0  IDiag  1:
 RMSU=  1.98D-04    CP:  1.00D+00  9.91D-01
 E= -3506.89683127157     Delta-E=        0.000146379431 Rises=F Damp=F
 DIIS: error= 9.90D-04 at cycle   3 NSaved=   3.
 NSaved= 3 IEnMin= 2 EnMin= -3506.89697765100     IErMin= 2 ErrMin= 6.64D-04
 ErrMax= 9.90D-04  0.00D+00 EMaxC= 1.00D-01 BMatC= 3.14D-04 BMatP= 1.73D-04
 IDIUse=3 WtCom= 2.41D-01 WtEn= 7.59D-01
 Coeff-Com: -0.241D-01 0.589D+00 0.435D+00
 Coeff-En:   0.000D+00 0.630D+00 0.370D+00
 Coeff:     -0.580D-02 0.620D+00 0.385D+00
 Gap=     0.184 Goal=   None    Shift=    0.000
 RMSDP=1.14D-04 MaxDP=3.95D-03 DE= 1.46D-04 OVMax= 3.85D-03

 Cycle   4  Pass 0  IDiag  1:
 RMSU=  3.38D-05    CP:  1.00D+00  1.03D+00  4.58D-01
 E= -3506.89716143523     Delta-E=       -0.000330163668 Rises=F Damp=F
 DIIS: error= 1.44D-04 at cycle   4 NSaved=   4.
 NSaved= 4 IEnMin= 4 EnMin= -3506.89716143523     IErMin= 4 ErrMin= 1.44D-04
 ErrMax= 1.44D-04  0.00D+00 EMaxC= 1.00D-01 BMatC= 6.12D-06 BMatP= 1.73D-04
 IDIUse=3 WtCom= 9.99D-01 WtEn= 1.44D-03
 Coeff-Com: -0.131D-01 0.249D+00 0.179D+00 0.585D+00
 Coeff-En:   0.000D+00 0.000D+00 0.000D+00 0.100D+01
 Coeff:     -0.131D-01 0.249D+00 0.179D+00 0.585D+00
 Gap=     0.185 Goal=   None    Shift=    0.000
 RMSDP=1.95D-05 MaxDP=4.77D-04 DE=-3.30D-04 OVMax= 1.24D-03

 Cycle   5  Pass 0  IDiag  1:
 RMSU=  1.39D-05    CP:  1.00D+00  1.04D+00  4.29D-01  6.53D-01
 E= -3506.89716571536     Delta-E=       -0.000004280128 Rises=F Damp=F
 DIIS: error= 7.44D-05 at cycle   5 NSaved=   5.
 NSaved= 5 IEnMin= 5 EnMin= -3506.89716571536     IErMin= 5 ErrMin= 7.44D-05
 ErrMax= 7.44D-05  0.00D+00 EMaxC= 1.00D-01 BMatC= 2.10D-06 BMatP= 6.12D-06
 IDIUse=1 WtCom= 1.00D+00 WtEn= 0.00D+00
 Coeff-Com: -0.456D-02 0.664D-01 0.489D-01 0.367D+00 0.522D+00
 Coeff:     -0.456D-02 0.664D-01 0.489D-01 0.367D+00 0.522D+00
 Gap=     0.184 Goal=   None    Shift=    0.000
 RMSDP=8.56D-06 MaxDP=2.58D-04 DE=-4.28D-06 OVMax= 4.81D-04

 Initial convergence to 1.0D-05 achieved.  Increase integral accuracy.
 Cycle   6  Pass 1  IDiag  1:
 E= -3506.89716139030     Delta-E=        0.000004325060 Rises=F Damp=F
 DIIS: error= 4.54D-05 at cycle   1 NSaved=   1.
 NSaved= 1 IEnMin= 1 EnMin= -3506.89716139030     IErMin= 1 ErrMin= 4.54D-05
 ErrMax= 4.54D-05  0.00D+00 EMaxC= 1.00D-01 BMatC= 3.14D-07 BMatP= 3.14D-07
 IDIUse=1 WtCom= 1.00D+00 WtEn= 0.00D+00
 Coeff-Com:  0.100D+01
 Coeff:      0.100D+01
 Gap=     0.184 Goal=   None    Shift=    0.000
 RMSDP=8.56D-06 MaxDP=2.58D-04 DE= 4.33D-06 OVMax= 2.64D-04

 Cycle   7  Pass 1  IDiag  1:
 RMSU=  1.22D-05    CP:  1.00D+00
 E= -3506.89716099693     Delta-E=        0.000000393376 Rises=F Damp=F
 DIIS: error= 4.79D-05 at cycle   2 NSaved=   2.
 NSaved= 2 IEnMin= 1 EnMin= -3506.89716139030     IErMin= 1 ErrMin= 4.54D-05
 ErrMax= 4.79D-05  0.00D+00 EMaxC= 1.00D-01 BMatC= 6.80D-07 BMatP= 3.14D-07
 IDIUse=1 WtCom= 1.00D+00 WtEn= 0.00D+00
 Coeff-Com:  0.608D+00 0.392D+00
 Coeff:      0.608D+00 0.392D+00
 Gap=     0.184 Goal=   None    Shift=    0.000
 RMSDP=4.40D-06 MaxDP=1.63D-04 DE= 3.93D-07 OVMax= 2.33D-04

 Cycle   8  Pass 1  IDiag  1:
 RMSU=  3.96D-06    CP:  1.00D+00  8.42D-01
 E= -3506.89716161437     Delta-E=       -0.000000617443 Rises=F Damp=F
 DIIS: error= 1.19D-05 at cycle   3 NSaved=   3.
 NSaved= 3 IEnMin= 3 EnMin= -3506.89716161437     IErMin= 3 ErrMin= 1.19D-05
 ErrMax= 1.19D-05  0.00D+00 EMaxC= 1.00D-01 BMatC= 4.61D-08 BMatP= 3.14D-07
 IDIUse=1 WtCom= 1.00D+00 WtEn= 0.00D+00
 Coeff-Com:  0.149D+00 0.218D+00 0.634D+00
 Coeff:      0.149D+00 0.218D+00 0.634D+00
 Gap=     0.184 Goal=   None    Shift=    0.000
 RMSDP=1.30D-06 MaxDP=3.98D-05 DE=-6.17D-07 OVMax= 7.65D-05

 Cycle   9  Pass 1  IDiag  1:
 RMSU=  1.01D-06    CP:  1.00D+00  8.71D-01  8.15D-01
 E= -3506.89716164702     Delta-E=       -0.000000032649 Rises=F Damp=F
 DIIS: error= 5.82D-06 at cycle   4 NSaved=   4.
 NSaved= 4 IEnMin= 4 EnMin= -3506.89716164702     IErMin= 4 ErrMin= 5.82D-06
 ErrMax= 5.82D-06  0.00D+00 EMaxC= 1.00D-01 BMatC= 1.23D-08 BMatP= 4.61D-08
 IDIUse=1 WtCom= 1.00D+00 WtEn= 0.00D+00
 Coeff-Com:  0.117D-01 0.871D-01 0.419D+00 0.483D+00
 Coeff:      0.117D-01 0.871D-01 0.419D+00 0.483D+00
 Gap=     0.184 Goal=   None    Shift=    0.000
 RMSDP=5.53D-07 MaxDP=1.49D-05 DE=-3.26D-08 OVMax= 2.69D-05

 Cycle  10  Pass 1  IDiag  1:
 RMSU=  2.76D-07    CP:  1.00D+00  8.75D-01  8.32D-01  5.34D-01
 E= -3506.89716165762     Delta-E=       -0.000000010602 Rises=F Damp=F
 DIIS: error= 1.30D-06 at cycle   5 NSaved=   5.
 NSaved= 5 IEnMin= 5 EnMin= -3506.89716165762     IErMin= 5 ErrMin= 1.30D-06
 ErrMax= 1.30D-06  0.00D+00 EMaxC= 1.00D-01 BMatC= 7.04D-10 BMatP= 1.23D-08
 IDIUse=1 WtCom= 1.00D+00 WtEn= 0.00D+00
 Coeff-Com: -0.167D-02 0.397D-01 0.218D+00 0.292D+00 0.451D+00
 Coeff:     -0.167D-02 0.397D-01 0.218D+00 0.292D+00 0.451D+00
 Gap=     0.184 Goal=   None    Shift=    0.000
 RMSDP=1.36D-07 MaxDP=4.37D-06 DE=-1.06D-08 OVMax= 6.85D-06

 Cycle  11  Pass 1  IDiag  1:
 RMSU=  6.48D-08    CP:  1.00D+00  8.75D-01  8.37D-01  5.37D-01  5.75D-01
 E= -3506.89716165832     Delta-E=       -0.000000000699 Rises=F Damp=F
 DIIS: error= 3.26D-07 at cycle   6 NSaved=   6.
 NSaved= 6 IEnMin= 6 EnMin= -3506.89716165832     IErMin= 6 ErrMin= 3.26D-07
 ErrMax= 3.26D-07  0.00D+00 EMaxC= 1.00D-01 BMatC= 3.97D-11 BMatP= 7.04D-10
 IDIUse=1 WtCom= 1.00D+00 WtEn= 0.00D+00
 Coeff-Com: -0.149D-02 0.218D-01 0.123D+00 0.168D+00 0.288D+00 0.401D+00
 Coeff:     -0.149D-02 0.218D-01 0.123D+00 0.168D+00 0.288D+00 0.401D+00
 Gap=     0.184 Goal=   None    Shift=    0.000
 RMSDP=3.64D-08 MaxDP=1.12D-06 DE=-6.99D-10 OVMax= 1.67D-06

 Cycle  12  Pass 1  IDiag  1:
 RMSU=  2.26D-08    CP:  1.00D+00  8.75D-01  8.36D-01  5.41D-01  5.46D-01
                    CP:  5.88D-01
 E= -3506.89716165835     Delta-E=       -0.000000000029 Rises=F Damp=F
 DIIS: error= 5.05D-08 at cycle   7 NSaved=   7.
 NSaved= 7 IEnMin= 7 EnMin= -3506.89716165835     IErMin= 7 ErrMin= 5.05D-08
 ErrMax= 5.05D-08  0.00D+00 EMaxC= 1.00D-01 BMatC= 1.45D-12 BMatP= 3.97D-11
 IDIUse=1 WtCom= 1.00D+00 WtEn= 0.00D+00
 Coeff-Com: -0.571D-03 0.619D-02 0.354D-01 0.491D-01 0.894D-01 0.194D+00
 Coeff-Com:  0.627D+00
 Coeff:     -0.571D-03 0.619D-02 0.354D-01 0.491D-01 0.894D-01 0.194D+00
 Coeff:      0.627D+00
 Gap=     0.184 Goal=   None    Shift=    0.000
 RMSDP=8.90D-09 MaxDP=3.57D-07 DE=-2.91D-11 OVMax= 3.36D-07

 SCF Done:  E(RB3LYP) =  -3506.89716166     A.U. after   12 cycles
            NFock= 12  Conv=0.89D-08     -V/T= 2.0062
 KE= 3.485421605706D+03 PE=-1.039569914000D+04 EE= 2.372339114464D+03
 Leave Link  502 at Tue Sep 17 09:46:15 2024, MaxMem=  1342177280 cpu:              98.5 elap:              13.2
 (Enter /groups/ReismanLab/Software/Gaussian16_RevC/Linux_Binary_AVX2-enabled-CPU/g16/l508.exe)
 QCSCF skips out because SCF is already converged.
 Leave Link  508 at Tue Sep 17 09:46:15 2024, MaxMem=  1342177280 cpu:               0.1 elap:               0.0
 (Enter /groups/ReismanLab/Software/Gaussian16_RevC/Linux_Binary_AVX2-enabled-CPU/g16/l701.exe)
 ... and contract with generalized density number  0.
 Compute integral first derivatives.
 R6Disp: Adding Grimme-D3(BJ) dispersion energy 1st derivatives to the gradient.
 Leave Link  701 at Tue Sep 17 09:46:15 2024, MaxMem=  1342177280 cpu:               0.8 elap:               0.2
 (Enter /groups/ReismanLab/Software/Gaussian16_RevC/Linux_Binary_AVX2-enabled-CPU/g16/l702.exe)
 L702 exits ... SP integral derivatives will be done elsewhere.
 Leave Link  702 at Tue Sep 17 09:46:15 2024, MaxMem=  1342177280 cpu:               0.1 elap:               0.1
 (Enter /groups/ReismanLab/Software/Gaussian16_RevC/Linux_Binary_AVX2-enabled-CPU/g16/l703.exe)
 Integral derivatives from FoFJK, PRISM(SPDF).
 Compute integral first derivatives, UseDBF=F ICtDFT=           0.
 Calling FoFJK, ICntrl=      2127 FMM=F ISym2X=0 I1Cent= 0 IOpClX= 0 NMat=1 NMatS=1 NMatT=0.
 FoFJK:  IHMeth= 1 ICntrl=    2127 DoSepK=F KAlg= 0 I1Cent=           0 FoldK=F
 IRaf=         0 NMat=       1 IRICut=       1 DoRegI=T DoRafI=F ISym2E= 0 IDoP0=0 IntGTp=1.
 FoFCou: FMM=F IPFlag=           0 FMFlag=      100000 FMFlg1=         800
         NFxFlg=           0 DoJE=F BraDBF=F KetDBF=F FulRan=T
         wScrn=  0.000000 ICntrl=      2127 IOpCl=  0 I1Cent=           0 NGrid=           0
         NMat0=    1 NMatS0=      1 NMatT0=    0 NMatD0=    1 NMtDS0=    0 NMtDT0=    0
 Symmetry not used in FoFCou.
 Leave Link  703 at Tue Sep 17 09:46:19 2024, MaxMem=  1342177280 cpu:              34.4 elap:               4.4
 (Enter /groups/ReismanLab/Software/Gaussian16_RevC/Linux_Binary_AVX2-enabled-CPU/g16/l716.exe)
 Dipole        = 5.33864609D-01 1.26402631D+00 2.30646761D-02
 ***** Axes restored to original set *****
 -------------------------------------------------------------------
 Center     Atomic                   Forces (Hartrees/Bohr)
 Number     Number              X              Y              Z
[...]
   Eigenvalues:   -98.1290    13.0558    96.6025
     12  Cl   Isotropic =   581.0795   Anisotropy =   538.7704
   XX=   746.2625   YX=   325.0062   ZX=   -43.3162
   XY=   248.1146   YY=   504.1248   ZY=   -11.4534
   XZ=   -39.8582   YZ=   -15.7940   ZZ=   492.8513
   Eigenvalues:   313.3421   489.6366   940.2598
     13  H    Isotropic =    27.8959   Anisotropy =     8.2394
   XX=    30.4489   YX=    -1.3730   ZX=    -3.1113
   XY=    -3.3657   YY=    27.0169   ZY=     1.0522
   XZ=    -3.6734   YZ=     1.0995   ZZ=    26.2219
   Eigenvalues:    24.3150    25.9839    33.3888
     14  H    Isotropic =    27.9698   Anisotropy =     8.2875
   XX=    27.5820   YX=    -2.0444   ZX=     2.7678
   XY=    -3.5463   YY=    28.2311   ZY=    -3.1521
   XZ=     2.6446   YZ=    -2.3883   ZZ=    28.0963
   Eigenvalues:    25.0215    25.3931    33.4948
     15  H    Isotropic =    27.9882   Anisotropy =     7.6560
   XX=    27.0505   YX=    -2.0519   ZX=     0.0895
   XY=    -0.3456   YY=    32.6361   ZY=     1.5590
   XZ=     0.3684   YZ=     1.3047   ZZ=    24.2781
   Eigenvalues:    23.9785    26.8940    33.0922
     16  H    Isotropic =    22.5376   Anisotropy =    14.3586
   XX=    31.4839   YX=    -2.5801   ZX=     0.0266
   XY=    -3.1283   YY=    18.9049   ZY=     0.2496
   XZ=    -0.6407   YZ=     0.3224   ZZ=    17.2240
   Eigenvalues:    17.1739    18.3289    32.1100
     17  H    Isotropic =    22.4657   Anisotropy =    11.0075
   XX=    21.4852   YX=     4.1749   ZX=    -0.0464
   XY=     3.5103   YY=    28.0215   ZY=    -0.2821
   XZ=    -0.3697   YZ=    -0.1280   ZZ=    17.8905
   Eigenvalues:    17.8784    19.7147    29.8041
 End of Minotr F.D. properties file   721 does not exist.
 End of Minotr F.D. properties file   722 does not exist.
 End of Minotr F.D. properties file   788 does not exist.
 Leave Link 1002 at Tue Sep 17 10:48:01 2024, MaxMem=  1342177280 cpu:             786.9 elap:             789.4
 (Enter /groups/ReismanLab/Software/Gaussian16_RevC/Linux_Binary_AVX2-enabled-CPU/g16/l601.exe)
 Copying SCF densities to generalized density rwf, IOpCl= 0 IROHF=0.

 **********************************************************************

            Population analysis using the SCF Density.

 **********************************************************************

 Orbital symmetries:
       Occupied  (A) (A) (A) (A) (A) (A) (A) (A) (A) (A) (A) (A)
                 (A) (A) (A) (A) (A) (A) (A) (A) (A) (A) (A) (A)
                 (A) (A) (A) (A) (A) (A) (A) (A) (A) (A) (A) (A)
                 (A) (A) (A) (A) (A) (A) (A) (A) (A) (A) (A) (A)
                 (A) (A) (A) (A) (A) (A) (A) (A) (A) (A) (A) (A)
                 (A)
       Virtual   (A) (A) (A) (A) (A) (A) (A) (A) (A) (A) (A) (A)
                 (A) (A) (A) (A) (A) (A) (A) (A) (A) (A) (A) (A)
                 (A) (A) (A) (A) (A) (A) (A) (A) (A) (A) (A) (A)
                 (A) (A) (A) (A) (A) (A) (A) (A) (A) (A) (A) (A)
                 (A) (A) (A) (A) (A) (A) (A) (A) (A) (A) (A) (A)
                 (A) (A) (A) (A) (A) (A) (A) (A) (A) (A) (A) (A)
                 (A) (A) (A) (A) (A) (A) (A) (A) (A) (A) (A) (A)
                 (A) (A) (A) (A) (A) (A) (A) (A) (A) (A) (A) (A)
                 (A) (A) (A) (A) (A) (A) (A) (A) (A) (A) (A) (A)
                 (A) (A) (A) (A) (A) (A) (A) (A) (A) (A) (A) (A)
                 (A) (A) (A) (A) (A) (A) (A) (A) (A) (A) (A) (A)
                 (A) (A) (A) (A) (A) (A) (A) (A) (A) (A) (A) (A)
                 (A) (A) (A) (A) (A) (A) (A) (A) (A) (A) (A) (A)
                 (A) (A) (A) (A) (A) (A) (A) (A) (A) (A) (A) (A)
                 (A) (A) (A) (A) (A) (A) (A) (A) (A) (A) (A) (A)
                 (A) (A) (A) (A) (A) (A) (A) (A) (A) (A) (A) (A)
                 (A) (A) (A) (A) (A) (A) (A) (A) (A) (A) (A) (A)
                 (A) (A) (A) (A) (A) (A) (A) (A) (A) (A) (A) (A)
                 (A) (A) (A) (A) (A) (A) (A) (A) (A) (A) (A) (A)
                 (A) (A) (A) (A) (A) (A) (A) (A) (A) (A) (A) (A)
                 (A) (A) (A) (A) (A) (A) (A) (A) (A) (A) (A) (A)
                 (A) (A) (A) (A) (A) (A) (A) (A) (A) (A) (A) (A)
                 (A) (A) (A) (A) (A) (A) (A) (A) (A) (A) (A) (A)
                 (A) (A) (A) (A) (A) (A) (A) (A) (A) (A) (A) (A)
                 (A) (A) (A) (A) (A) (A) (A) (A) (A) (A) (A) (A)
                 (A) (A) (A) (A) (A) (A) (A) (A) (A) (A) (A) (A)
                 (A) (A) (A) (A) (A) (A) (A) (A) (A) (A) (A) (A)
                 (A) (A) (A) (A) (A) (A) (A) (A) (A) (A) (A) (A)
                 (A) (A) (A) (A) (A) (A) (A) (A) (A) (A) (A) (A)
                 (A) (A) (A) (A) (A) (A) (A) (A) (A) (A) (A) (A)
                 (A) (A) (A) (A)
 The electronic state is 1-A.
 Alpha  occ. eigenvalues -- -485.39442-102.65319 -63.37912 -57.19865 -57.19617
 Alpha  occ. eigenvalues --  -57.19611 -19.68587 -19.63311 -14.78400 -10.69576
 Alpha  occ. eigenvalues --  -10.66526 -10.62588 -10.61448 -10.60001 -10.59596
 Alpha  occ. eigenvalues --  -10.59523  -9.81587  -9.04556  -7.53790  -7.53280
 Alpha  occ. eigenvalues --   -7.53222  -6.86991  -6.86070  -6.86050  -2.90367
 Alpha  occ. eigenvalues --   -2.90033  -2.90010  -2.89153  -2.89152  -1.24729
 Alpha  occ. eigenvalues --   -1.15533  -1.10159  -0.97445  -0.95738  -0.91418
 Alpha  occ. eigenvalues --   -0.84285  -0.82911  -0.76658  -0.72390  -0.66955
 Alpha  occ. eigenvalues --   -0.62730  -0.60855  -0.59563  -0.58013  -0.56407
 Alpha  occ. eigenvalues --   -0.52685  -0.51343  -0.50772  -0.50254  -0.47864
 Alpha  occ. eigenvalues --   -0.46625  -0.44331  -0.43908  -0.40295  -0.39163
 Alpha  occ. eigenvalues --   -0.38809  -0.37723  -0.36861  -0.36411  -0.35522
 Alpha  occ. eigenvalues --   -0.31523
 Alpha virt. eigenvalues --   -0.04764  -0.02288   0.02163   0.06322   0.06860
 Alpha virt. eigenvalues --    0.08163   0.10178   0.11122   0.11709   0.13150
 Alpha virt. eigenvalues --    0.14538   0.14938   0.16569   0.17047   0.17417
 Alpha virt. eigenvalues --    0.19887   0.20693   0.22060   0.22183   0.23161
 Alpha virt. eigenvalues --    0.24400   0.25215   0.25478   0.26078   0.26705
 Alpha virt. eigenvalues --    0.27232   0.27557   0.28813   0.29857   0.30302
 Alpha virt. eigenvalues --    0.31369   0.31983   0.33587   0.34271   0.35240
 Alpha virt. eigenvalues --    0.35588   0.36444   0.37233   0.38032   0.38568
 Alpha virt. eigenvalues --    0.39015   0.39659   0.40325   0.41661   0.42320
 Alpha virt. eigenvalues --    0.43675   0.44125   0.45484   0.46227   0.47073
 Alpha virt. eigenvalues --    0.48270   0.49045   0.49236   0.49849   0.52464
 Alpha virt. eigenvalues --    0.53062   0.53475   0.54482   0.55653   0.56967
 Alpha virt. eigenvalues --    0.57247   0.58553   0.59180   0.60633   0.61890
 Alpha virt. eigenvalues --    0.62159   0.63643   0.64329   0.64824   0.66146
 Alpha virt. eigenvalues --    0.67578   0.68332   0.69714   0.70593   0.71987
 Alpha virt. eigenvalues --    0.72332   0.73469   0.74136   0.76431   0.77240
 Alpha virt. eigenvalues --    0.79105   0.81599   0.82582   0.84316   0.86067
 Alpha virt. eigenvalues --    0.86887   0.87959   0.89267   0.91465   0.92668
 Alpha virt. eigenvalues --    0.94233   0.95890   0.97180   0.98243   1.00260
 Alpha virt. eigenvalues --    1.01549   1.03772   1.04858   1.06166   1.09967
 Alpha virt. eigenvalues --    1.10866   1.12223   1.12881   1.14072   1.16229
 Alpha virt. eigenvalues --    1.19949   1.21128   1.23331   1.24316   1.24813
 Alpha virt. eigenvalues --    1.27500   1.31086   1.31848   1.34859   1.35648
 Alpha virt. eigenvalues --    1.37392   1.38532   1.40196   1.40510   1.42105
 Alpha virt. eigenvalues --    1.44309   1.45010   1.45973   1.48746   1.49441
 Alpha virt. eigenvalues --    1.50870   1.51749   1.53054   1.54350   1.54733
 Alpha virt. eigenvalues --    1.56031   1.56795   1.57004   1.57859   1.58345
 Alpha virt. eigenvalues --    1.60895   1.61384   1.62532   1.63650   1.64813
 Alpha virt. eigenvalues --    1.65123   1.67085   1.68907   1.71724   1.71938
 Alpha virt. eigenvalues --    1.72868   1.73197   1.75080   1.78101   1.78757
 Alpha virt. eigenvalues --    1.79273   1.80887   1.82982   1.84545   1.85401
 Alpha virt. eigenvalues --    1.85572   1.86444   1.87776   1.88674   1.90355
 Alpha virt. eigenvalues --    1.92668   1.93987   1.95260   1.96576   1.97847
 Alpha virt. eigenvalues --    1.98801   2.00944   2.02098   2.02678   2.03673
 Alpha virt. eigenvalues --    2.06679   2.08511   2.09385   2.10318   2.11325
 Alpha virt. eigenvalues --    2.12948   2.13829   2.15314   2.16958   2.19196
 Alpha virt. eigenvalues --    2.22672   2.23060   2.24692   2.26072   2.27825
 Alpha virt. eigenvalues --    2.29213   2.29605   2.30260   2.30488   2.32126
 Alpha virt. eigenvalues --    2.36068   2.37865   2.38436   2.40580   2.42695
 Alpha virt. eigenvalues --    2.43147   2.44063   2.47165   2.48150   2.52388
 Alpha virt. eigenvalues --    2.53485   2.55762   2.58470   2.59610   2.63473
 Alpha virt. eigenvalues --    2.64057   2.65630   2.68310   2.69855   2.70942
 Alpha virt. eigenvalues --    2.72020   2.75634   2.76236   2.79433   2.80732
 Alpha virt. eigenvalues --    2.81413   2.81812   2.84732   2.84900   2.85906
 Alpha virt. eigenvalues --    2.88128   2.90275   2.91598   2.94224   2.95980
 Alpha virt. eigenvalues --    2.97930   2.99051   3.01293   3.03538   3.04904
 Alpha virt. eigenvalues --    3.06899   3.07241   3.09253   3.09491   3.11394
 Alpha virt. eigenvalues --    3.13654   3.15395   3.18155   3.18312   3.20052
 Alpha virt. eigenvalues --    3.21136   3.22261   3.22582   3.25144   3.26098
 Alpha virt. eigenvalues --    3.27858   3.28524   3.29797   3.30779   3.31532
 Alpha virt. eigenvalues --    3.32705   3.33158   3.36092   3.36266   3.37089
 Alpha virt. eigenvalues --    3.38057   3.40057   3.42607   3.43435   3.44655
 Alpha virt. eigenvalues --    3.46360   3.49163   3.50474   3.51283   3.53079
 Alpha virt. eigenvalues --    3.54767   3.57534   3.58835   3.59828   3.62458
 Alpha virt. eigenvalues --    3.65385   3.69943   3.71673   3.75553   3.79224
 Alpha virt. eigenvalues --    3.80539   3.81945   3.85138   3.89944   3.95567
 Alpha virt. eigenvalues --    4.01864   4.04465   4.04630   4.05749   4.07519
 Alpha virt. eigenvalues --    4.09376   4.10647   4.12941   4.15273   4.17295
 Alpha virt. eigenvalues --    4.21060   4.22855   4.23767   4.27276   4.29230
 Alpha virt. eigenvalues --    4.32622   4.34802   4.36198   4.38381   4.39921
 Alpha virt. eigenvalues --    4.42058   4.45911   4.47165   4.53207   4.59538
 Alpha virt. eigenvalues --    4.61472   4.64888   4.70878   4.75876   4.82440
 Alpha virt. eigenvalues --    4.85315   4.88230   4.91985   5.00946   5.05030
 Alpha virt. eigenvalues --    5.07869   5.10235   5.17599   5.18605   5.21899
 Alpha virt. eigenvalues --    5.23005   5.26848   5.29871   5.33063   5.46035
 Alpha virt. eigenvalues --    5.48288   5.48995   5.57706   5.64025   5.67135
 Alpha virt. eigenvalues --    5.73766   5.81378   5.90907   5.94411   6.06563
 Alpha virt. eigenvalues --    6.16246   6.22630   6.35080   6.36617   6.52976
 Alpha virt. eigenvalues --    6.63371   6.67926   6.75063   6.85616   6.87113
 Alpha virt. eigenvalues --    7.00706   7.09798   7.25076   7.37118   7.85270
 Alpha virt. eigenvalues --   10.81321  10.89750  11.41132  22.40897  22.45355
 Alpha virt. eigenvalues --   22.78781  22.83251  22.92265  23.13836  23.46807
 Alpha virt. eigenvalues --   25.96615  32.57131  44.04454  44.23487
          Condensed to atoms (all electrons):
               1          2          3          4          5          6
     1  C    4.869922   0.206329  -0.050470  -0.000329   0.007862  -0.001089
     2  O    0.206329   8.003143   0.369982  -0.080169  -0.160927   0.028954
     3  C   -0.050470   0.369982   4.513302   0.657636   0.272812  -0.042948
     4  O   -0.000329  -0.080169   0.657636   7.844875  -0.077746   0.006016
     5  C    0.007862  -0.160927   0.272812  -0.077746   5.479344   0.294799
     6  C   -0.001089   0.028954  -0.042948   0.006016   0.294799   5.271693
     7  C   -0.000064   0.000375  -0.001385  -0.000591  -0.030598   0.382424
     8  Br  -0.000003  -0.000020  -0.000881   0.000007   0.015070  -0.104949
     9  C   -0.000002   0.000289   0.005335   0.000428  -0.017244  -0.025388
    10  N    0.000013  -0.000305   0.002997  -0.000371  -0.059042  -0.063631
    11  C   -0.000832  -0.005860  -0.061356  -0.010985   0.439409  -0.062556
    12  Cl  -0.000111  -0.000506  -0.002729  -0.021732  -0.098692   0.007269
    13  H    0.416880  -0.028969  -0.009647   0.003753  -0.003857   0.001072
    14  H    0.421025  -0.036751  -0.006321   0.003466   0.001669  -0.000413
    15  H    0.396289  -0.029905   0.004676   0.001647   0.002694  -0.001016
    16  H   -0.000428   0.014483  -0.001998   0.000287  -0.033332   0.415397
    17  H    0.000000  -0.000001   0.000206   0.000000  -0.001522   0.008453
               7          8          9         10         11         12
     1  C   -0.000064  -0.000003  -0.000002   0.000013  -0.000832  -0.000111
     2  O    0.000375  -0.000020   0.000289  -0.000305  -0.005860  -0.000506
     3  C   -0.001385  -0.000881   0.005335   0.002997  -0.061356  -0.002729
     4  O   -0.000591   0.000007   0.000428  -0.000371  -0.010985  -0.021732
     5  C   -0.030598   0.015070  -0.017244  -0.059042   0.439409  -0.098692
     6  C    0.382424  -0.104949  -0.025388  -0.063631  -0.062556   0.007269
     7  C    4.956190   0.375411   0.442066  -0.025386  -0.008517   0.002590
     8  Br   0.375411  34.857779  -0.075387   0.007641   0.002637   0.000031
     9  C    0.442066  -0.075387   4.896792   0.474445  -0.102973  -0.000222
    10  N   -0.025386   0.007641   0.474445   6.459881   0.535012  -0.092931
    11  C   -0.008517   0.002637  -0.102973   0.535012   4.725551   0.432065
    12  Cl   0.002590   0.000031  -0.000222  -0.092931   0.432065  16.801979
    13  H    0.000075  -0.000000   0.000000  -0.000001  -0.000013   0.000010
    14  H   -0.000072  -0.000000  -0.000003   0.000001  -0.000144   0.000019
    15  H   -0.000036  -0.000001  -0.000002  -0.000000   0.000111   0.000001
    16  H   -0.038897  -0.006087   0.007490  -0.001378   0.001747  -0.000115
    17  H   -0.067664  -0.001464   0.435076  -0.031983   0.005508  -0.000246
              13         14         15         16         17
     1  C    0.416880   0.421025   0.396289  -0.000428   0.000000
     2  O   -0.028969  -0.036751  -0.029905   0.014483  -0.000001
     3  C   -0.009647  -0.006321   0.004676  -0.001998   0.000206
     4  O    0.003753   0.003466   0.001647   0.000287   0.000000
     5  C   -0.003857   0.001669   0.002694  -0.033332  -0.001522
     6  C    0.001072  -0.000413  -0.001016   0.415397   0.008453
     7  C    0.000075  -0.000072  -0.000036  -0.038897  -0.067664
     8  Br  -0.000000  -0.000000  -0.000001  -0.006087  -0.001464
     9  C    0.000000  -0.000003  -0.000002   0.007490   0.435076
    10  N   -0.000001   0.000001  -0.000000  -0.001378  -0.031983
    11  C   -0.000013  -0.000144   0.000111   0.001747   0.005508
    12  Cl   0.000010   0.000019   0.000001  -0.000115  -0.000246
    13  H    0.518444  -0.039291  -0.022626   0.000261  -0.000000
    14  H   -0.039291   0.516680  -0.023653  -0.000159   0.000000
    15  H   -0.022626  -0.023653   0.513494  -0.000314   0.000000
    16  H    0.000261  -0.000159  -0.000314   0.436107   0.000000
    17  H   -0.000000   0.000000   0.000000   0.000000   0.464890
 Mulliken charges:
               1
     1  C   -0.264993
     2  O   -0.280140
     3  C    0.350788
     4  O   -0.326191
     5  C   -0.030700
     6  C   -0.114087
     7  C    0.014078
     8  Br  -0.069785
     9  C   -0.040700
    10  N   -0.204962
    11  C    0.111196
    12  Cl  -0.026682
    13  H    0.163908
    14  H    0.163947
    15  H    0.158642
    16  H    0.206936
    17  H    0.188744
 Sum of Mulliken charges =  -0.00000
 Mulliken charges with hydrogens summed into heavy atoms:
               1
     1  C    0.221504
     2  O   -0.280140
     3  C    0.350788
     4  O   -0.326191
     5  C   -0.030700
     6  C    0.092849
     7  C    0.014078
     8  Br  -0.069785
     9  C    0.148044
    10  N   -0.204962
    11  C    0.111196
    12  Cl  -0.026682
 Electronic spatial extent (au):  <R**2>=           3890.4262
 Charge=             -0.0000 electrons
 Dipole moment (field-independent basis, Debye):
    X=              1.6375    Y=              3.6669    Z=              0.3853  Tot=              4.0343
 Quadrupole moment (field-independent basis, Debye-Ang):
   XX=            -91.6020   YY=            -82.8808   ZZ=            -88.4178
   XY=            -10.6829   XZ=             -2.4506   YZ=              0.1648
 Traceless Quadrupole moment (field-independent basis, Debye-Ang):
   XX=             -3.9685   YY=              4.7528   ZZ=             -0.7843
   XY=            -10.6829   XZ=             -2.4506   YZ=              0.1648
 Octapole moment (field-independent basis, Debye-Ang**2):
  XXX=             98.6455  YYY=             70.1054  ZZZ=             -1.1426  XYY=              5.4026
  XXY=             24.1864  XXZ=             10.4958  XZZ=             21.1222  YZZ=              7.5014
  YYZ=             -0.3496  XYZ=             -1.6825
 Hexadecapole moment (field-independent basis, Debye-Ang**3):
 XXXX=          -2905.2492 YYYY=          -1409.6601 ZZZZ=           -111.3073 XXXY=             -4.6903
 XXXZ=            -40.5844 YYYX=            -72.4745 YYYZ=              8.9752 ZZZX=              0.7305
 ZZZY=             -1.4002 XXYY=           -606.5697 XXZZ=           -503.0358 YYZZ=           -265.2021
 XXYZ=              6.1316 YYXZ=             -2.3830 ZZXY=              8.8508
 N-N= 1.032160150433D+03 E-N=-1.041978453970D+04  KE= 3.503187312757D+03
 Calculating spin-rotation constants.
 Leave Link  601 at Tue Sep 17 10:48:04 2024, MaxMem=  1342177280 cpu:               3.2 elap:               3.2
 (Enter /groups/ReismanLab/Software/Gaussian16_RevC/Linux_Binary_AVX2-enabled-CPU/g16/l9999.exe)
 Unable to Open any file for archive entry.
 1\1\GINC-HPC-53-25\SP\RM062X\def2TZVP\C7H5Br1Cl1N1O2\MANTIND\17-Sep-20
 24\0\\#p M062X/def2tzvp geom=check guess=read scf(xqc,tight) integral(
 grid=ultrafine) scrf(SMD, solvent=1,4-Dioxane) nmr=giao\\spe\\0,1\C,0,
 -3.1620598577,-2.9789834439,0.0286364111\O,0,-2.0333156538,-2.09661129
 35,-0.0932985112\C,0,-2.3166468243,-0.7847979054,0.0821472892\O,0,-3.4
 307984026,-0.3696668368,0.3041833916\C,0,-1.072329519,0.0409010238,-0.
 0159793907\C,0,0.1733211219,-0.5808795912,0.1357024899\C,0,1.329811020
 1,0.1841053284,0.0884636364\Br,0,3.0381635492,-0.6208437464,0.30053492
 76\C,0,1.2244083864,1.5581131126,-0.1163132532\N,0,0.0453275066,2.1595
 653668,-0.2785882698\C,0,-1.0632803439,1.4355384513,-0.2301384265\Cl,0
 ,-2.5327031782,2.3393918006,-0.4941794223\H,0,-3.9206366248,-2.7303516
 263,-0.7165316421\H,0,-3.6043762447,-2.8982592461,1.0241409363\H,0,-2.
 7685378369,-3.9804032683,-0.1396519585\H,0,0.2190638963,-1.6500697227,
 0.292165823\H,0,2.1090446497,2.1870228748,-0.1528183166\\Version=ES64L
 -G16RevC.02\State=1-A\HF=-3509.352137\RMSD=4.463e-09\Dipole=0.5811973,
 -1.4760218,0.0536243\Quadrupole=-2.3758314,2.8241669,-0.4483355,8.3466
 293,0.7614333,0.1616706\PG=C01 [X(C7H5Br1Cl1N1O2)]\\@
 The archive entry for this job was punched.


 THE SCIENTIFIC THEORIST IS NOT TO BE ENVIED. FOR NATURE, OR MORE
 PRECISELY EXPERIMENT, IS AN INEXORABLE AND NOT VERY FRIENDLY JUDGE OF HIS
 WORK.  IT NEVER SAYS "YES" TO A THEORY. IN THE MOST FAVORABLE CASES
 IT SAYS "MAYBE", AND IN THE GREAT MAJORITY OF CASES SIMPLY "NO"...
 PROBABLY EVERY THEORY WILL SOME DAY EXPERIENCE ITS "NO" - MOST
 THEORIES, SOON AFTER CONCEPTION.  -- A.EINSTEIN, NOV 11, 1922.
 Job cpu time:       0 days  0 hours 14 minutes 16.5 seconds.
 Elapsed time:       0 days  0 hours 14 minutes 20.9 seconds.
 File lengths (MBytes):  RWF=    280 Int=      0 D2E=      0 Chk=     32 Scr=     16
 Normal termination of Gaussian 16 at Tue Sep 17 10:48:04 2024.
