 Entering Gaussian System, Link 0=g16
 Input=smiles_00077_conf_0.gjf
 Output=smiles_00077_conf_0.log
 Initial command:
 /groups/ReismanLab/Software/Gaussian16_RevC/Linux_Binary_AVX2-enabled-CPU/g16/l1.exe "/central/groups/ReismanLab/DM/dft_final/smiles_00077/Gau-1004741.inp" -scrdir="/central/groups/ReismanLab/DM/dft_final/smiles_00077/"
 Entering Link 1 = /groups/ReismanLab/Software/Gaussian16_RevC/Linux_Binary_AVX2-enabled-CPU/g16/l1.exe PID=   1004742.
  
 Copyright (c) 1988-2021, Gaussian, Inc.  All Rights Reserved.
  
 This is part of the Gaussian(R) 16 program.  It is based on
 the Gaussian(R) 09 system (copyright 2009, Gaussian, Inc.),
 the Gaussian(R) 03 system (copyright 2003, Gaussian, Inc.),
 the Gaussian(R) 98 system (copyright 1998, Gaussian, Inc.),
 the Gaussian(R) 94 system (copyright 1995, Gaussian, Inc.),
 the Gaussian 92(TM) system (copyright 1992, Gaussian, Inc.),
 the Gaussian 90(TM) system (copyright 1990, Gaussian, Inc.),
 the Gaussian 88(TM) system (copyright 1988, Gaussian, Inc.),
 the Gaussian 86(TM) system (copyright 1986, Carnegie Mellon
 University), and the Gaussian 82(TM) system (copyright 1983,
 Carnegie Mellon University). Gaussian is a federally registered
 trademark of Gaussian, Inc.
  
 This software contains proprietary and confidential information,
 including trade secrets, belonging to Gaussian, Inc.
  
 This software is provided under written license and may be
 used, copied, transmitted, or stored only in accord with that
 written license.
  
 The following legend is applicable only to US Government
 contracts under FAR:
  
                    RESTRICTED RIGHTS LEGEND
  
 Use, reproduction and disclosure by the US Government is
 subject to restrictions as set forth in subparagraphs (a)
 and (c) of the Commercial Computer Software - Restricted
 Rights clause in FAR 52.227-19.
  
 Gaussian, Inc.
 340 Quinnipiac St., Bldg. 40, Wallingford CT 06492
  
  
 ---------------------------------------------------------------
 Warning -- This program may not be used in any manner that
 competes with the business of Gaussian, Inc. or will provide
 assistance to any competitor of Gaussian, Inc.  The licensee
 of this program is prohibited from giving any competitor of
 Gaussian, Inc. access to this program.  By using this program,
 the user acknowledges that Gaussian, Inc. is engaged in the
 business of creating and licensing software in the field of
 computational chemistry and represents and warrants to the
 licensee that it is not a competitor of Gaussian, Inc. and that
 it will not use this program in any manner prohibited above.
 ---------------------------------------------------------------
  

 Cite this work as:
 Gaussian 16, Revision C.02,
 M. J. Frisch, G. W. Trucks, H. B. Schlegel, G. E. Scuseria, 
 M. A. Robb, J. R. Cheeseman, G. Scalmani, V. Barone, 
 G. A. Petersson, H. Nakatsuji, X. Li, M. Caricato, A. V. Marenich, 
 J. Bloino, B. G. Janesko, R. Gomperts, B. Mennucci, H. P. Hratchian, 
 J. V. Ortiz, A. F. Izmaylov, J. L. Sonnenberg, D. Williams-Young, 
 F. Ding, F. Lipparini, F. Egidi, J. Goings, B. Peng, A. Petrone, 
 T. Henderson, D. Ranasinghe, V. G. Zakrzewski, J. Gao, N. Rega, 
 G. Zheng, W. Liang, M. Hada, M. Ehara, K. Toyota, R. Fukuda, 
 J. Hasegawa, M. Ishida, T. Nakajima, Y. Honda, O. Kitao, H. Nakai, 
 T. Vreven, K. Throssell, J. A. Montgomery, Jr., J. E. Peralta, 
 F. Ogliaro, M. J. Bearpark, J. J. Heyd, E. N. Brothers, K. N. Kudin, 
 V. N. Staroverov, T. A. Keith, R. Kobayashi, J. Normand, 
 K. Raghavachari, A. P. Rendell, J. C. Burant, S. S. Iyengar, 
 J. Tomasi, M. Cossi, J. M. Millam, M. Klene, C. Adamo, R. Cammi, 
 J. W. Ochterski, R. L. Martin, K. Morokuma, O. Farkas, 
 J. B. Foresman, and D. J. Fox, Gaussian, Inc., Wallingford CT, 2019.
 
 ******************************************
 Gaussian 16:  ES64L-G16RevC.02  7-Dec-2021
                17-Sep-2024 
 ******************************************
 %nprocshared=8
 Will use up to    8 processors via shared memory.
 %Mem=10GB
 %Chk=smiles_00077_conf_0.chk
 ----------------------------------------------------------------------
 #p B3LYP/6-31G(d,p) EmpiricalDispersion=GD3BJ opt freq scf(xqc,tight) 
 integral(grid=ultrafine)
 ----------------------------------------------------------------------
 1/18=20,19=15,26=4,38=1/1,3;
 2/9=110,12=2,17=6,18=5,40=1/2;
 3/5=1,6=6,7=101,11=2,25=1,30=1,71=1,74=-5,75=-5,124=41/1,2,3;
 4//1;
 5/5=2,8=3,13=1,32=2,38=5/2,8;
 6/7=2,8=2,9=2,10=2,28=1/1;
 7//1,2,3,16;
 1/18=20,19=15,26=4/3(2);
 2/9=110/2;
 99//99;
 2/9=110/2;
 3/5=1,6=6,7=101,11=2,25=1,30=1,71=1,74=-5,75=-5,124=41/1,2,3;
 4/5=5,16=3,69=1/1;
 5/5=2,8=3,13=1,32=2,38=5/2,8;
 7//1,2,3,16;
 1/18=20,19=15,26=4/3(-5);
 2/9=110/2;
 6/7=2,8=2,9=2,10=2,19=2,28=1/1;
 99/9=1/99;
 Leave Link    1 at Tue Sep 17 09:45:37 2024, MaxMem=  1342177280 cpu:               0.2 elap:               1.2
 (Enter /groups/ReismanLab/Software/Gaussian16_RevC/Linux_Binary_AVX2-enabled-CPU/g16/l101.exe)
 ----------------------------------
 opt-freq conformers_unique/conf_aa
 ----------------------------------
 Symbolic Z-matrix:
 Charge =  0 Multiplicity = 1
 C                    -4.26364  -1.77878   0.29837 
 O                    -3.20908  -0.82548   0.31445 
 C                    -2.02267  -1.26197  -0.0917 
 O                    -1.8014   -2.39242  -0.44602 
 C                    -0.95558  -0.21674  -0.04291 
 C                     0.36026  -0.67457  -0.03473 
 C                     1.39813   0.23981   0.01291 
 Br                    3.19696  -0.34188   0.03392 
 C                     1.09576   1.59598   0.04861 
 N                    -0.14503   2.03006   0.01805 
 C                    -1.14672   1.17221  -0.0294 
 Cl                   -2.69395   1.88774  -0.10501 
 H                    -4.41761  -2.15475  -0.71481 
 H                    -5.14734  -1.2553    0.6527 
 H                    -4.0237   -2.61925   0.95264 
 H                     0.53906  -1.73985  -0.06614 
 H                     1.86692   2.35192   0.0972 
 
 ITRead=  0  0  0  0  0  0  0  0  0  0  0  0  0  0  0  0  0
 MicOpt= -1 -1 -1 -1 -1 -1 -1 -1 -1 -1 -1 -1 -1 -1 -1 -1 -1
 NAtoms=     17 NQM=       17 NQMF=       0 NMMI=      0 NMMIF=      0
                NMic=       0 NMicF=      0.
                    Isotopes and Nuclear Properties:
 (Nuclear quadrupole moments (NQMom) in fm**2, nuclear magnetic moments (NMagM)
  in nuclear magnetons)

  Atom         1           2           3           4           5           6           7           8           9          10
 IAtWgt=          12          16          12          16          12          12          12          79          12          14
 AtmWgt=  12.0000000  15.9949146  12.0000000  15.9949146  12.0000000  12.0000000  12.0000000  78.9183361  12.0000000  14.0030740
 NucSpn=           0           0           0           0           0           0           0           3           0           2
 AtZEff=  -0.0000000  -0.0000000  -0.0000000  -0.0000000  -0.0000000  -0.0000000  -0.0000000  -0.0000000  -0.0000000  -0.0000000
 NQMom=    0.0000000   0.0000000   0.0000000   0.0000000   0.0000000   0.0000000   0.0000000  31.3000000   0.0000000   2.0440000
 NMagM=    0.0000000   0.0000000   0.0000000   0.0000000   0.0000000   0.0000000   0.0000000   2.1063990   0.0000000   0.4037610
 AtZNuc=   6.0000000   8.0000000   6.0000000   8.0000000   6.0000000   6.0000000   6.0000000  35.0000000   6.0000000   7.0000000

  Atom        11          12          13          14          15          16          17
 IAtWgt=          12          35           1           1           1           1           1
 AtmWgt=  12.0000000  34.9688527   1.0078250   1.0078250   1.0078250   1.0078250   1.0078250
 NucSpn=           0           3           1           1           1           1           1
 AtZEff=  -0.0000000  -0.0000000  -0.0000000  -0.0000000  -0.0000000  -0.0000000  -0.0000000
 NQMom=    0.0000000  -8.1650000   0.0000000   0.0000000   0.0000000   0.0000000   0.0000000
 NMagM=    0.0000000   0.8218740   2.7928460   2.7928460   2.7928460   2.7928460   2.7928460
 AtZNuc=   6.0000000  17.0000000   1.0000000   1.0000000   1.0000000   1.0000000   1.0000000
 Leave Link  101 at Tue Sep 17 09:45:37 2024, MaxMem=  1342177280 cpu:               0.2 elap:               0.2
 (Enter /groups/ReismanLab/Software/Gaussian16_RevC/Linux_Binary_AVX2-enabled-CPU/g16/l103.exe)

 GradGradGradGradGradGradGradGradGradGradGradGradGradGradGradGradGradGrad
 Berny optimization.
 Initialization pass.
                           ----------------------------
                           !    Initial Parameters    !
                           ! (Angstroms and Degrees)  !
 --------------------------                            --------------------------
 ! Name  Definition              Value          Derivative Info.                !
 --------------------------------------------------------------------------------
 ! R1    R(1,2)                  1.4217         estimate D2E/DX2                !
 ! R2    R(1,13)                 1.0916         estimate D2E/DX2                !
 ! R3    R(1,14)                 1.0865         estimate D2E/DX2                !
 ! R4    R(1,15)                 1.0918         estimate D2E/DX2                !
 ! R5    R(2,3)                  1.3278         estimate D2E/DX2                !
 ! R6    R(3,4)                  1.2052         estimate D2E/DX2                !
 ! R7    R(3,5)                  1.4945         estimate D2E/DX2                !
 ! R8    R(5,6)                  1.3932         estimate D2E/DX2                !
 ! R9    R(5,11)                 1.4021         estimate D2E/DX2                !
 ! R10   R(6,7)                  1.384          estimate D2E/DX2                !
 ! R11   R(6,16)                 1.0806         estimate D2E/DX2                !
 ! R12   R(7,8)                  1.8907         estimate D2E/DX2                !
 ! R13   R(7,9)                  1.3899         estimate D2E/DX2                !
 ! R14   R(9,10)                 1.3149         estimate D2E/DX2                !
 ! R15   R(9,17)                 1.081          estimate D2E/DX2                !
 ! R16   R(10,11)                1.3197         estimate D2E/DX2                !
 ! R17   R(11,12)                1.7063         estimate D2E/DX2                !
 ! A1    A(2,1,13)             110.2479         estimate D2E/DX2                !
 ! A2    A(2,1,14)             106.0547         estimate D2E/DX2                !
 ! A3    A(2,1,15)             110.2673         estimate D2E/DX2                !
 ! A4    A(13,1,14)            110.7262         estimate D2E/DX2                !
 ! A5    A(13,1,15)            108.7883         estimate D2E/DX2                !
 ! A6    A(14,1,15)            110.7444         estimate D2E/DX2                !
 ! A7    A(1,2,3)              116.0334         estimate D2E/DX2                !
 ! A8    A(2,3,4)              124.2172         estimate D2E/DX2                !
 ! A9    A(2,3,5)              113.4584         estimate D2E/DX2                !
 ! A10   A(4,3,5)              122.3119         estimate D2E/DX2                !
 ! A11   A(3,5,6)              116.4049         estimate D2E/DX2                !
 ! A12   A(3,5,11)             126.5692         estimate D2E/DX2                !
 ! A13   A(6,5,11)             117.0149         estimate D2E/DX2                !
 ! A14   A(5,6,7)              119.4282         estimate D2E/DX2                !
 ! A15   A(5,6,16)             118.6874         estimate D2E/DX2                !
 ! A16   A(7,6,16)             121.8843         estimate D2E/DX2                !
 ! A17   A(6,7,8)              120.7028         estimate D2E/DX2                !
 ! A18   A(6,7,9)              118.8405         estimate D2E/DX2                !
 ! A19   A(8,7,9)              120.4565         estimate D2E/DX2                !
 ! A20   A(7,9,10)             121.7896         estimate D2E/DX2                !
 ! A21   A(7,9,17)             121.8902         estimate D2E/DX2                !
 ! A22   A(10,9,17)            116.3192         estimate D2E/DX2                !
 ! A23   A(9,10,11)            120.1659         estimate D2E/DX2                !
 ! A24   A(5,11,10)            122.7391         estimate D2E/DX2                !
 ! A25   A(5,11,12)            122.5876         estimate D2E/DX2                !
 ! A26   A(10,11,12)           114.6623         estimate D2E/DX2                !
 ! D1    D(13,1,2,3)           -59.8837         estimate D2E/DX2                !
 ! D2    D(14,1,2,3)          -179.7962         estimate D2E/DX2                !
 ! D3    D(15,1,2,3)            60.2589         estimate D2E/DX2                !
 ! D4    D(1,2,3,4)             -0.8823         estimate D2E/DX2                !
 ! D5    D(1,2,3,5)           -179.6136         estimate D2E/DX2                !
 ! D6    D(2,3,5,6)            160.2009         estimate D2E/DX2                !
 ! D7    D(2,3,5,11)           -21.0528         estimate D2E/DX2                !
 ! D8    D(4,3,5,6)            -18.5577         estimate D2E/DX2                !
 ! D9    D(4,3,5,11)           160.1886         estimate D2E/DX2                !
 ! D10   D(3,5,6,7)           -179.8465         estimate D2E/DX2                !
 ! D11   D(3,5,6,16)             0.1611         estimate D2E/DX2                !
 ! D12   D(11,5,6,7)             1.2837         estimate D2E/DX2                !
 ! D13   D(11,5,6,16)         -178.7087         estimate D2E/DX2                !
 ! D14   D(3,5,11,10)          179.8246         estimate D2E/DX2                !
 ! D15   D(3,5,11,12)           -1.4484         estimate D2E/DX2                !
 ! D16   D(6,5,11,10)           -1.4358         estimate D2E/DX2                !
 ! D17   D(6,5,11,12)          177.2911         estimate D2E/DX2                !
 ! D18   D(5,6,7,8)            179.7041         estimate D2E/DX2                !
 ! D19   D(5,6,7,9)             -0.1322         estimate D2E/DX2                !
 ! D20   D(16,6,7,8)            -0.3038         estimate D2E/DX2                !
 ! D21   D(16,6,7,9)           179.8599         estimate D2E/DX2                !
 ! D22   D(6,7,9,10)            -1.0388         estimate D2E/DX2                !
 ! D23   D(6,7,9,17)           179.3233         estimate D2E/DX2                !
 ! D24   D(8,7,9,10)           179.1245         estimate D2E/DX2                !
 ! D25   D(8,7,9,17)            -0.5133         estimate D2E/DX2                !
 ! D26   D(7,9,10,11)            0.9486         estimate D2E/DX2                !
 ! D27   D(17,9,10,11)        -179.3944         estimate D2E/DX2                !
 ! D28   D(9,10,11,5)            0.3259         estimate D2E/DX2                !
 ! D29   D(9,10,11,12)        -178.4939         estimate D2E/DX2                !
 --------------------------------------------------------------------------------
 Trust Radius=3.00D-01 FncErr=1.00D-07 GrdErr=1.00D-06 EigMax=2.50D+02 EigMin=1.00D-04
 Number of steps in this run=     82 maximum allowed number of steps=    102.
 GradGradGradGradGradGradGradGradGradGradGradGradGradGradGradGradGradGrad

 Leave Link  103 at Tue Sep 17 09:45:37 2024, MaxMem=  1342177280 cpu:               0.1 elap:               0.0
 (Enter /groups/ReismanLab/Software/Gaussian16_RevC/Linux_Binary_AVX2-enabled-CPU/g16/l202.exe)
                          Input orientation:                          
 ---------------------------------------------------------------------
 Center     Atomic      Atomic             Coordinates (Angstroms)
 Number     Number       Type             X           Y           Z
 ---------------------------------------------------------------------
      1          6           0       -4.263637   -1.778783    0.298371
      2          8           0       -3.209083   -0.825478    0.314452
      3          6           0       -2.022665   -1.261969   -0.091700
      4          8           0       -1.801397   -2.392423   -0.446024
      5          6           0       -0.955578   -0.216741   -0.042913
      6          6           0        0.360261   -0.674569   -0.034731
      7          6           0        1.398128    0.239813    0.012909
      8         35           0        3.196960   -0.341876    0.033923
      9          6           0        1.095758    1.595981    0.048613
     10          7           0       -0.145026    2.030065    0.018054
     11          6           0       -1.146724    1.172211   -0.029402
     12         17           0       -2.693947    1.887742   -0.105008
     13          1           0       -4.417614   -2.154754   -0.714813
     14          1           0       -5.147344   -1.255305    0.652703
     15          1           0       -4.023699   -2.619251    0.952641
     16          1           0        0.539059   -1.739853   -0.066136
     17          1           0        1.866918    2.351923    0.097197
 ---------------------------------------------------------------------
                    Distance matrix (angstroms):
                    1          2          3          4          5
     1  C    0.000000
     2  O    1.421666   0.000000
     3  C    2.332639   1.327807   0.000000
     4  O    2.644485   2.239469   1.205168   0.000000
     5  C    3.674194   2.361473   1.494509   2.368860   0.000000
     6  C    4.765572   3.589557   2.454918   2.791585   1.393236
     7  C    6.017624   4.738371   3.737395   4.168482   2.398226
     8  Br   7.602312   6.430393   5.301589   5.423897   4.155134
     9  C    6.338338   4.946290   4.232273   4.954345   2.739036
    10  N    5.616837   4.198860   3.791446   4.745243   2.389320
    11  C    4.304759   2.891768   2.587738   3.648121   1.402108
    12  Cl   4.008746   2.793362   3.220477   4.385515   2.730316
    13  H    1.091607   2.070485   2.630800   2.640705   4.024057
    14  H    1.086517   2.013956   3.212133   3.700757   4.374174
    15  H    1.091799   2.070871   2.633818   2.635592   4.022008
    16  H    4.816666   3.876790   2.606043   2.459247   2.134093
    17  H    7.395060   5.992400   5.312698   6.021664   3.818920
                    6          7          8          9         10
     6  C    0.000000
     7  C    1.384027   0.000000
     8  Br   2.856967   1.890662   0.000000
     9  C    2.388158   1.389926   2.858418   0.000000
    10  N    2.751935   2.363546   4.098198   1.314879   0.000000
    11  C    2.383617   2.710613   4.600441   2.283504   1.319683
    12  Cl   3.987300   4.413009   6.300261   3.804023   2.555856
    13  H    5.047925   6.331380   7.863133   6.711788   6.025347
    14  H    5.580639   6.744473   8.416926   6.889926   6.018274
    15  H    4.896509   6.201093   7.626821   6.692854   6.126475
    16  H    1.080641   2.159473   3.004795   3.383913   3.832407
    17  H    3.383353   2.165151   3.004924   1.080971   2.039062
                   11         12         13         14         15
    11  C    0.000000
    12  Cl   1.706341   0.000000
    13  H    4.715634   4.436739   0.000000
    14  H    4.728960   4.058574   1.792098   0.000000
    15  H    4.859690   4.816622   1.775199   1.792453   0.000000
    16  H    3.365016   4.859350   5.016127   5.752103   4.757101
    17  H    3.238794   4.588882   7.775914   7.906994   7.755239
                   16         17
    16  H    0.000000
    17  H    4.304942   0.000000
 Stoichiometry    C7H5BrClNO2
 Framework group  C1[X(C7H5BrClNO2)]
 Deg. of freedom    45
 Full point group                 C1      NOp   1
 Largest Abelian subgroup         C1      NOp   1
 Largest concise Abelian subgroup C1      NOp   1
                         Standard orientation:                         
 ---------------------------------------------------------------------
 Center     Atomic      Atomic             Coordinates (Angstroms)
 Number     Number       Type             X           Y           Z
 ---------------------------------------------------------------------
      1          6           0       -4.171617   -1.597139    0.279010
      2          8           0       -3.080454   -0.686071    0.300281
      3          6           0       -1.910813   -1.168132   -0.102991
      4          8           0       -1.733021   -2.305759   -0.458833
      5          6           0       -0.803618   -0.165764   -0.048795
      6          6           0        0.493170   -0.674996   -0.037369
      7          6           0        1.566026    0.197778    0.015331
      8         35           0        3.340520   -0.454235    0.040867
      9          6           0        1.317097    1.564719    0.052744
     10          7           0        0.094445    2.047314    0.019131
     11          6           0       -0.940049    1.229603   -0.033161
     12         17           0       -2.457691    2.005559   -0.112233
     13          1           0       -4.336991   -1.964902   -0.735390
     14          1           0       -5.035196   -1.039967    0.631585
     15          1           0       -3.967019   -2.447592    0.932382
     16          1           0        0.630046   -1.746428   -0.070301
     17          1           0        2.117222    2.289661    0.105237
 ---------------------------------------------------------------------
 Rotational constants (GHZ):           1.1617768           0.2998323           0.2402201
 Leave Link  202 at Tue Sep 17 09:45:37 2024, MaxMem=  1342177280 cpu:               0.1 elap:               0.0
 (Enter /groups/ReismanLab/Software/Gaussian16_RevC/Linux_Binary_AVX2-enabled-CPU/g16/l301.exe)
 Standard basis: 6-31G(d,p) (6D, 7F)
 Ernie: Thresh=  0.10000D-02 Tol=  0.10000D-05 Strict=F.
 There are   224 symmetry adapted cartesian basis functions of A   symmetry.
 There are   224 symmetry adapted basis functions of A   symmetry.
   224 basis functions,   450 primitive gaussians,   224 cartesian basis functions
    61 alpha electrons       61 beta electrons
       nuclear repulsion energy      1040.5075338880 Hartrees.
 IExCor=  402 DFT=T Ex+Corr=B3LYP ExCW=0 ScaHFX=  0.200000
 ScaDFX=  0.800000  0.720000  1.000000  0.810000 ScalE2=  1.000000  1.000000
 IRadAn=      5 IRanWt=     -1 IRanGd=            0 ICorTp=0 IEmpDi=141
 NAtoms=   17 NActive=   17 NUniq=   17 SFac= 1.00D+00 NAtFMM=   60 NAOKFM=F Big=F
 Integral buffers will be    131072 words long.
 Raffenetti 2 integral format.
 Two-electron integral symmetry is turned on.
 R6Disp:  Grimme-D3(BJ) Dispersion energy=       -0.0381408371 Hartrees.
 Nuclear repulsion after empirical dispersion term =     1040.4693930509 Hartrees.
 Leave Link  301 at Tue Sep 17 09:45:37 2024, MaxMem=  1342177280 cpu:               0.1 elap:               0.1
 (Enter /groups/ReismanLab/Software/Gaussian16_RevC/Linux_Binary_AVX2-enabled-CPU/g16/l302.exe)
 NPDir=0 NMtPBC=     1 NCelOv=     1 NCel=       1 NClECP=     1 NCelD=      1
         NCelK=      1 NCelE2=     1 NClLst=     1 CellRange=     0.0.
 One-electron integrals computed using PRISM.
 One-electron integral symmetry used in STVInt
 NBasis=   224 RedAO= T EigKep=  6.44D-04  NBF=   224
 NBsUse=   224 1.00D-06 EigRej= -1.00D+00 NBFU=   224
 Precomputing XC quadrature grid using
 IXCGrd= 4 IRadAn=           5 IRanWt=          -1 IRanGd=           0 AccXCQ= 0.00D+00.
 Generated NRdTot=       0 NPtTot=           0 NUsed=           0 NTot=          32
 NSgBfM=   223   223   223   223   223 MxSgAt=    17 MxSgA2=    17.
 Leave Link  302 at Tue Sep 17 09:45:38 2024, MaxMem=  1342177280 cpu:               1.4 elap:               0.4
 (Enter /groups/ReismanLab/Software/Gaussian16_RevC/Linux_Binary_AVX2-enabled-CPU/g16/l303.exe)
 DipDrv:  MaxL=1.
 Leave Link  303 at Tue Sep 17 09:45:38 2024, MaxMem=  1342177280 cpu:               0.1 elap:               0.1
 (Enter /groups/ReismanLab/Software/Gaussian16_RevC/Linux_Binary_AVX2-enabled-CPU/g16/l401.exe)
 ExpMin= 1.43D-01 ExpMax= 5.74D+05 ExpMxC= 5.74D+03 IAcc=3 IRadAn=         5 AccDes= 0.00D+00
 Harris functional with IExCor=  402 and IRadAn=       5 diagonalized for initial guess.
 HarFok:  IExCor=  402 AccDes= 0.00D+00 IRadAn=         5 IDoV= 1 UseB2=F ITyADJ=14
 ICtDFT=  3500011 ScaDFX=  1.000000  1.000000  1.000000  1.000000
 FoFCou: FMM=F IPFlag=           0 FMFlag=      100000 FMFlg1=           0
         NFxFlg=           0 DoJE=T BraDBF=F KetDBF=T FulRan=T
         wScrn=  0.000000 ICntrl=       500 IOpCl=  0 I1Cent=   200000004 NGrid=           0
         NMat0=    1 NMatS0=      1 NMatT0=    0 NMatD0=    1 NMtDS0=    0 NMtDT0=    0
 Petite list used in FoFCou.
 Harris En= -3506.91409387575    
 JPrj=0 DoOrth=F DoCkMO=F.
 Leave Link  401 at Tue Sep 17 09:45:39 2024, MaxMem=  1342177280 cpu:               4.5 elap:               0.7
 (Enter /groups/ReismanLab/Software/Gaussian16_RevC/Linux_Binary_AVX2-enabled-CPU/g16/l502.exe)
 Integral symmetry usage will be decided dynamically.
 Closed shell SCF:
 Using DIIS extrapolation, IDIIS=  1040.
 NGot=  1342177280 LenX=  1342072412 LenY=  1342021795
 Requested convergence on RMS density matrix=1.00D-08 within  32 cycles.
 Requested convergence on MAX density matrix=1.00D-06.
 Requested convergence on             energy=1.00D-06.
 No special actions if energy rises.
 Fock matrices will be formed incrementally for  20 cycles.
 Integral accuracy reduced to 1.0D-05 until final iterations.

 Cycle   1  Pass 0  IDiag  1:
 FoFJK:  IHMeth= 1 ICntrl=       0 DoSepK=F KAlg= 0 I1Cent=           0 FoldK=F
 IRaf= 830000000 NMat=       1 IRICut=       1 DoRegI=T DoRafI=F ISym2E= 0 IDoP0=0 IntGTp=1.
 FoFCou: FMM=F IPFlag=           0 FMFlag=      100000 FMFlg1=           0
         NFxFlg=           0 DoJE=F BraDBF=F KetDBF=F FulRan=T
         wScrn=  0.000000 ICntrl=         0 IOpCl=  0 I1Cent=           0 NGrid=           0
         NMat0=    1 NMatS0=      1 NMatT0=    0 NMatD0=    1 NMtDS0=    0 NMtDT0=    0
 Symmetry not used in FoFCou.
 E= -3506.66215141268    
 DIIS: error= 2.01D-01 at cycle   1 NSaved=   1.
 NSaved= 1 IEnMin= 1 EnMin= -3506.66215141268     IErMin= 1 ErrMin= 2.01D-01
 ErrMax= 2.01D-01  0.00D+00 EMaxC= 1.00D-01 BMatC= 6.16D-01 BMatP= 6.16D-01
 IDIUse=3 WtCom= 0.00D+00 WtEn= 1.00D+00
 Coeff-Com:  0.100D+01
 Coeff-En:   0.100D+01
 Coeff:      0.100D+01
 Gap=     0.315 Goal=   None    Shift=    0.000
 GapD=    0.315 DampG=1.000 DampE=0.250 DampFc=0.2500 IDamp=-1.
 Damping current iteration by 2.50D-01
 RMSDP=6.05D-03 MaxDP=2.13D-01              OVMax= 2.71D-01

 Cycle   2  Pass 0  IDiag  1:
 RMSU=  1.49D-03    CP:  9.93D-01
 E= -3506.74307407420     Delta-E=       -0.080922661521 Rises=F Damp=T
 DIIS: error= 1.48D-01 at cycle   2 NSaved=   2.
 NSaved= 2 IEnMin= 2 EnMin= -3506.74307407420     IErMin= 2 ErrMin= 1.48D-01
 ErrMax= 1.48D-01  0.00D+00 EMaxC= 1.00D-01 BMatC= 2.46D-01 BMatP= 6.16D-01
 IDIUse=3 WtCom= 0.00D+00 WtEn= 1.00D+00
 Coeff-Com: -0.965D+00 0.197D+01
 Coeff-En:   0.000D+00 0.100D+01
 Coeff:      0.000D+00 0.100D+01
 Gap=     0.202 Goal=   None    Shift=    0.000
 RMSDP=2.59D-03 MaxDP=1.09D-01 DE=-8.09D-02 OVMax= 1.24D-01

 Cycle   3  Pass 0  IDiag  1:
 RMSU=  1.44D-03    CP:  9.73D-01  2.33D+00
 E= -3506.85095246762     Delta-E=       -0.107878393424 Rises=F Damp=F
 DIIS: error= 7.99D-03 at cycle   3 NSaved=   3.
 NSaved= 3 IEnMin= 3 EnMin= -3506.85095246762     IErMin= 3 ErrMin= 7.99D-03
 ErrMax= 7.99D-03  0.00D+00 EMaxC= 1.00D-01 BMatC= 4.97D-02 BMatP= 2.46D-01
 IDIUse=3 WtCom= 9.20D-01 WtEn= 7.99D-02
 Coeff-Com:  0.512D+00-0.508D+00 0.996D+00
 Coeff-En:   0.117D+00 0.000D+00 0.883D+00
 Coeff:      0.481D+00-0.468D+00 0.987D+00
 Gap=     0.207 Goal=   None    Shift=    0.000
 RMSDP=1.77D-03 MaxDP=5.26D-02 DE=-1.08D-01 OVMax= 6.21D-02

 Cycle   4  Pass 0  IDiag  1:
 RMSU=  1.38D-03    CP:  9.74D-01  1.63D+00  7.29D-01
 E= -3506.86739358264     Delta-E=       -0.016441115023 Rises=F Damp=F
 DIIS: error= 8.62D-03 at cycle   4 NSaved=   4.
 NSaved= 4 IEnMin= 4 EnMin= -3506.86739358264     IErMin= 3 ErrMin= 7.99D-03
 ErrMax= 8.62D-03  0.00D+00 EMaxC= 1.00D-01 BMatC= 3.17D-02 BMatP= 4.97D-02
 IDIUse=3 WtCom= 9.14D-01 WtEn= 8.62D-02
 Coeff-Com:  0.452D+00-0.576D+00 0.671D+00 0.453D+00
 Coeff-En:   0.000D+00 0.000D+00 0.374D+00 0.626D+00
 Coeff:      0.413D+00-0.526D+00 0.645D+00 0.467D+00
 Gap=     0.191 Goal=   None    Shift=    0.000
 RMSDP=9.05D-04 MaxDP=3.11D-02 DE=-1.64D-02 OVMax= 3.60D-02

 Cycle   5  Pass 0  IDiag  1:
 RMSU=  2.04D-04    CP:  9.74D-01  1.72D+00  9.64D-01  4.18D-01
 E= -3506.89508130488     Delta-E=       -0.027687722235 Rises=F Damp=F
 DIIS: error= 1.12D-03 at cycle   5 NSaved=   5.
 NSaved= 5 IEnMin= 5 EnMin= -3506.89508130488     IErMin= 5 ErrMin= 1.12D-03
 ErrMax= 1.12D-03  0.00D+00 EMaxC= 1.00D-01 BMatC= 7.51D-04 BMatP= 3.17D-02
 IDIUse=3 WtCom= 9.89D-01 WtEn= 1.12D-02
 Coeff-Com:  0.182D+00-0.235D+00 0.283D+00 0.236D+00 0.534D+00
 Coeff-En:   0.000D+00 0.000D+00 0.000D+00 0.000D+00 0.100D+01
 Coeff:      0.180D+00-0.232D+00 0.279D+00 0.233D+00 0.539D+00
 Gap=     0.189 Goal=   None    Shift=    0.000
 RMSDP=1.35D-04 MaxDP=5.02D-03 DE=-2.77D-02 OVMax= 6.00D-03

 Cycle   6  Pass 0  IDiag  1:
 RMSU=  8.18D-05    CP:  9.74D-01  1.73D+00  9.54D-01  4.53D-01  5.46D-01
 E= -3506.89562079441     Delta-E=       -0.000539489529 Rises=F Damp=F
 DIIS: error= 3.74D-04 at cycle   6 NSaved=   6.
 NSaved= 6 IEnMin= 6 EnMin= -3506.89562079441     IErMin= 6 ErrMin= 3.74D-04
 ErrMax= 3.74D-04  0.00D+00 EMaxC= 1.00D-01 BMatC= 8.14D-05 BMatP= 7.51D-04
 IDIUse=3 WtCom= 9.96D-01 WtEn= 3.74D-03
 Coeff-Com:  0.575D-01-0.750D-01 0.861D-01 0.774D-01 0.303D+00 0.551D+00
 Coeff-En:   0.000D+00 0.000D+00 0.000D+00 0.000D+00 0.738D-01 0.926D+00
 Coeff:      0.573D-01-0.748D-01 0.858D-01 0.771D-01 0.302D+00 0.552D+00
 Gap=     0.188 Goal=   None    Shift=    0.000
 RMSDP=5.32D-05 MaxDP=1.70D-03 DE=-5.39D-04 OVMax= 3.27D-03

 Cycle   7  Pass 0  IDiag  1:
 RMSU=  2.76D-05    CP:  9.74D-01  1.73D+00  9.59D-01  4.60D-01  6.17D-01
                    CP:  4.96D-01
 E= -3506.89568552410     Delta-E=       -0.000064729695 Rises=F Damp=F
 DIIS: error= 1.78D-04 at cycle   7 NSaved=   7.
 NSaved= 7 IEnMin= 7 EnMin= -3506.89568552410     IErMin= 7 ErrMin= 1.78D-04
 ErrMax= 1.78D-04  0.00D+00 EMaxC= 1.00D-01 BMatC= 9.83D-06 BMatP= 8.14D-05
 IDIUse=3 WtCom= 9.98D-01 WtEn= 1.78D-03
 Coeff-Com:  0.200D-01-0.264D-01 0.272D-01 0.241D-01 0.128D+00 0.326D+00
 Coeff-Com:  0.501D+00
 Coeff-En:   0.000D+00 0.000D+00 0.000D+00 0.000D+00 0.000D+00 0.653D-01
 Coeff-En:   0.935D+00
 Coeff:      0.199D-01-0.263D-01 0.272D-01 0.241D-01 0.127D+00 0.326D+00
 Coeff:      0.502D+00
 Gap=     0.188 Goal=   None    Shift=    0.000
 RMSDP=1.71D-05 MaxDP=5.53D-04 DE=-6.47D-05 OVMax= 1.30D-03

 Cycle   8  Pass 0  IDiag  1:
 RMSU=  8.46D-06    CP:  9.74D-01  1.73D+00  9.59D-01  4.57D-01  6.16D-01
                    CP:  5.88D-01  5.74D-01
 E= -3506.89569539431     Delta-E=       -0.000009870209 Rises=F Damp=F
 DIIS: error= 3.57D-05 at cycle   8 NSaved=   8.
 NSaved= 8 IEnMin= 8 EnMin= -3506.89569539431     IErMin= 8 ErrMin= 3.57D-05
 ErrMax= 3.57D-05  0.00D+00 EMaxC= 1.00D-01 BMatC= 7.19D-07 BMatP= 9.83D-06
 IDIUse=1 WtCom= 1.00D+00 WtEn= 0.00D+00
 Coeff-Com:  0.370D-02-0.499D-02 0.373D-02 0.264D-02 0.281D-01 0.100D+00
 Coeff-Com:  0.259D+00 0.608D+00
 Coeff:      0.370D-02-0.499D-02 0.373D-02 0.264D-02 0.281D-01 0.100D+00
 Coeff:      0.259D+00 0.608D+00
 Gap=     0.188 Goal=   None    Shift=    0.000
 RMSDP=4.53D-06 MaxDP=2.10D-04 DE=-9.87D-06 OVMax= 2.67D-04

 Initial convergence to 1.0D-05 achieved.  Increase integral accuracy.
 Cycle   9  Pass 1  IDiag  1:
 E= -3506.89568438893     Delta-E=        0.000011005387 Rises=F Damp=F
 DIIS: error= 5.62D-05 at cycle   1 NSaved=   1.
 NSaved= 1 IEnMin= 1 EnMin= -3506.89568438893     IErMin= 1 ErrMin= 5.62D-05
 ErrMax= 5.62D-05  0.00D+00 EMaxC= 1.00D-01 BMatC= 2.22D-07 BMatP= 2.22D-07
 IDIUse=1 WtCom= 1.00D+00 WtEn= 0.00D+00
 Coeff-Com:  0.100D+01
 Coeff:      0.100D+01
 Gap=     0.188 Goal=   None    Shift=    0.000
 RMSDP=4.53D-06 MaxDP=2.10D-04 DE= 1.10D-05 OVMax= 1.80D-04

 Cycle  10  Pass 1  IDiag  1:
 RMSU=  1.45D-05    CP:  1.00D+00
 E= -3506.89568442024     Delta-E=       -0.000000031318 Rises=F Damp=F
 DIIS: error= 2.02D-05 at cycle   2 NSaved=   2.
 NSaved= 2 IEnMin= 2 EnMin= -3506.89568442024     IErMin= 2 ErrMin= 2.02D-05
 ErrMax= 2.02D-05  0.00D+00 EMaxC= 1.00D-01 BMatC= 1.42D-07 BMatP= 2.22D-07
 IDIUse=1 WtCom= 1.00D+00 WtEn= 0.00D+00
 Coeff-Com:  0.425D+00 0.575D+00
 Coeff:      0.425D+00 0.575D+00
 Gap=     0.188 Goal=   None    Shift=    0.000
 RMSDP=2.70D-06 MaxDP=1.37D-04 DE=-3.13D-08 OVMax= 1.82D-04

 Cycle  11  Pass 1  IDiag  1:
 RMSU=  2.67D-06    CP:  1.00D+00  9.71D-01
 E= -3506.89568450873     Delta-E=       -0.000000088490 Rises=F Damp=F
 DIIS: error= 1.45D-05 at cycle   3 NSaved=   3.
 NSaved= 3 IEnMin= 3 EnMin= -3506.89568450873     IErMin= 3 ErrMin= 1.45D-05
 ErrMax= 1.45D-05  0.00D+00 EMaxC= 1.00D-01 BMatC= 5.26D-08 BMatP= 1.42D-07
 IDIUse=1 WtCom= 1.00D+00 WtEn= 0.00D+00
 Coeff-Com:  0.397D-01 0.374D+00 0.587D+00
 Coeff:      0.397D-01 0.374D+00 0.587D+00
 Gap=     0.188 Goal=   None    Shift=    0.000
 RMSDP=1.29D-06 MaxDP=4.83D-05 DE=-8.85D-08 OVMax= 9.25D-05

 Cycle  12  Pass 1  IDiag  1:
 RMSU=  5.99D-07    CP:  1.00D+00  9.93D-01  5.87D-01
 E= -3506.89568455666     Delta-E=       -0.000000047929 Rises=F Damp=F
 DIIS: error= 3.30D-06 at cycle   4 NSaved=   4.
 NSaved= 4 IEnMin= 4 EnMin= -3506.89568455666     IErMin= 4 ErrMin= 3.30D-06
 ErrMax= 3.30D-06  0.00D+00 EMaxC= 1.00D-01 BMatC= 7.06D-09 BMatP= 5.26D-08
 IDIUse=1 WtCom= 1.00D+00 WtEn= 0.00D+00
 Coeff-Com: -0.118D-02 0.210D+00 0.386D+00 0.405D+00
 Coeff:     -0.118D-02 0.210D+00 0.386D+00 0.405D+00
 Gap=     0.188 Goal=   None    Shift=    0.000
 RMSDP=3.99D-07 MaxDP=1.52D-05 DE=-4.79D-08 OVMax= 2.63D-05

 Cycle  13  Pass 1  IDiag  1:
 RMSU=  1.18D-07    CP:  1.00D+00  9.93D-01  6.37D-01  4.04D-01
 E= -3506.89568456336     Delta-E=       -0.000000006701 Rises=F Damp=F
 DIIS: error= 6.29D-07 at cycle   5 NSaved=   5.
 NSaved= 5 IEnMin= 5 EnMin= -3506.89568456336     IErMin= 5 ErrMin= 6.29D-07
 ErrMax= 6.29D-07  0.00D+00 EMaxC= 1.00D-01 BMatC= 1.74D-10 BMatP= 7.06D-09
 IDIUse=1 WtCom= 1.00D+00 WtEn= 0.00D+00
 Coeff-Com: -0.197D-02 0.115D+00 0.214D+00 0.247D+00 0.426D+00
 Coeff:     -0.197D-02 0.115D+00 0.214D+00 0.247D+00 0.426D+00
 Gap=     0.188 Goal=   None    Shift=    0.000
 RMSDP=6.26D-08 MaxDP=2.18D-06 DE=-6.70D-09 OVMax= 2.86D-06

 Cycle  14  Pass 1  IDiag  1:
 RMSU=  3.82D-08    CP:  1.00D+00  9.93D-01  6.35D-01  4.28D-01  6.04D-01
 E= -3506.89568456358     Delta-E=       -0.000000000215 Rises=F Damp=F
 DIIS: error= 1.40D-07 at cycle   6 NSaved=   6.
 NSaved= 6 IEnMin= 6 EnMin= -3506.89568456358     IErMin= 6 ErrMin= 1.40D-07
 ErrMax= 1.40D-07  0.00D+00 EMaxC= 1.00D-01 BMatC= 1.18D-11 BMatP= 1.74D-10
 IDIUse=1 WtCom= 1.00D+00 WtEn= 0.00D+00
 Coeff-Com: -0.113D-02 0.556D-01 0.104D+00 0.123D+00 0.260D+00 0.459D+00
 Coeff:     -0.113D-02 0.556D-01 0.104D+00 0.123D+00 0.260D+00 0.459D+00
 Gap=     0.188 Goal=   None    Shift=    0.000
 RMSDP=1.75D-08 MaxDP=7.93D-07 DE=-2.15D-10 OVMax= 8.10D-07

 Cycle  15  Pass 1  IDiag  1:
 RMSU=  1.44D-08    CP:  1.00D+00  9.93D-01  6.34D-01  4.31D-01  6.14D-01
                    CP:  7.75D-01
 E= -3506.89568456358     Delta-E=        0.000000000003 Rises=F Damp=F
 DIIS: error= 4.44D-08 at cycle   7 NSaved=   7.
 NSaved= 7 IEnMin= 6 EnMin= -3506.89568456358     IErMin= 7 ErrMin= 4.44D-08
 ErrMax= 4.44D-08  0.00D+00 EMaxC= 1.00D-01 BMatC= 9.38D-13 BMatP= 1.18D-11
 IDIUse=1 WtCom= 1.00D+00 WtEn= 0.00D+00
 Coeff-Com: -0.271D-03 0.104D-01 0.197D-01 0.248D-01 0.666D-01 0.244D+00
 Coeff-Com:  0.635D+00
 Coeff:     -0.271D-03 0.104D-01 0.197D-01 0.248D-01 0.666D-01 0.244D+00
 Coeff:      0.635D+00
 Gap=     0.188 Goal=   None    Shift=    0.000
 RMSDP=5.19D-09 MaxDP=1.79D-07 DE= 2.73D-12 OVMax= 2.53D-07

 SCF Done:  E(RB3LYP) =  -3506.89568456     A.U. after   15 cycles
            NFock= 15  Conv=0.52D-08     -V/T= 2.0061
 KE= 3.485785524405D+03 PE=-1.041486551763D+04 EE= 2.381714915612D+03
 Leave Link  502 at Tue Sep 17 09:45:50 2024, MaxMem=  1342177280 cpu:              81.9 elap:              11.6
 (Enter /groups/ReismanLab/Software/Gaussian16_RevC/Linux_Binary_AVX2-enabled-CPU/g16/l508.exe)
 QCSCF skips out because SCF is already converged.
 Leave Link  508 at Tue Sep 17 09:45:50 2024, MaxMem=  1342177280 cpu:               0.0 elap:               0.0
 (Enter /groups/ReismanLab/Software/Gaussian16_RevC/Linux_Binary_AVX2-enabled-CPU/g16/l601.exe)
 Copying SCF densities to generalized density rwf, IOpCl= 0 IROHF=0.

 **********************************************************************

            Population analysis using the SCF Density.

 **********************************************************************

 Orbital symmetries:
       Occupied  (A) (A) (A) (A) (A) (A) (A) (A) (A) (A) (A) (A)
                 (A) (A) (A) (A) (A) (A) (A) (A) (A) (A) (A) (A)
                 (A) (A) (A) (A) (A) (A) (A) (A) (A) (A) (A) (A)
                 (A) (A) (A) (A) (A) (A) (A) (A) (A) (A) (A) (A)
                 (A) (A) (A) (A) (A) (A) (A) (A) (A) (A) (A) (A)
                 (A)
       Virtual   (A) (A) (A) (A) (A) (A) (A) (A) (A) (A) (A) (A)
                 (A) (A) (A) (A) (A) (A) (A) (A) (A) (A) (A) (A)
                 (A) (A) (A) (A) (A) (A) (A) (A) (A) (A) (A) (A)
                 (A) (A) (A) (A) (A) (A) (A) (A) (A) (A) (A) (A)
                 (A) (A) (A) (A) (A) (A) (A) (A) (A) (A) (A) (A)
                 (A) (A) (A) (A) (A) (A) (A) (A) (A) (A) (A) (A)
                 (A) (A) (A) (A) (A) (A) (A) (A) (A) (A) (A) (A)
                 (A) (A) (A) (A) (A) (A) (A) (A) (A) (A) (A) (A)
                 (A) (A) (A) (A) (A) (A) (A) (A) (A) (A) (A) (A)
                 (A) (A) (A) (A) (A) (A) (A) (A) (A) (A) (A) (A)
                 (A) (A) (A) (A) (A) (A) (A) (A) (A) (A) (A) (A)
                 (A) (A) (A) (A) (A) (A) (A) (A) (A) (A) (A) (A)
                 (A) (A) (A) (A) (A) (A) (A) (A) (A) (A) (A) (A)
                 (A) (A) (A) (A) (A) (A) (A)
 The electronic state is 1-A.
 Alpha  occ. eigenvalues -- -482.93001-101.55628 -61.89165 -56.41314 -56.40885
 Alpha  occ. eigenvalues --  -56.40877 -19.20960 -19.15079 -14.36035 -10.33503
 Alpha  occ. eigenvalues --  -10.30362 -10.26906 -10.25727 -10.25150 -10.24143
 Alpha  occ. eigenvalues --  -10.23865  -9.47399  -8.60311  -7.23801  -7.22855
 Alpha  occ. eigenvalues --   -7.22718  -6.55734  -6.54422  -6.54389  -2.67304
 Alpha  occ. eigenvalues --   -2.66928  -2.66904  -2.65856  -2.65856  -1.12964
 Alpha  occ. eigenvalues --   -1.03658  -0.99635  -0.88415  -0.85862  -0.81765
 Alpha  occ. eigenvalues --   -0.75708  -0.74054  -0.67573  -0.64469  -0.58928
 Alpha  occ. eigenvalues --   -0.55534  -0.53162  -0.52199  -0.50118  -0.48244
 Alpha  occ. eigenvalues --   -0.45305  -0.45239  -0.44373  -0.43380  -0.41146
 Alpha  occ. eigenvalues --   -0.40118  -0.37925  -0.37257  -0.32732  -0.32438
 Alpha  occ. eigenvalues --   -0.31105  -0.30891  -0.30800  -0.29848  -0.27834
 Alpha  occ. eigenvalues --   -0.25933
 Alpha virt. eigenvalues --   -0.07111  -0.04744  -0.00574   0.02904   0.04285
 Alpha virt. eigenvalues --    0.10396   0.12019   0.13436   0.13798   0.14726
 Alpha virt. eigenvalues --    0.15248   0.16531   0.20202   0.23137   0.23438
 Alpha virt. eigenvalues --    0.27389   0.27983   0.29352   0.32709   0.34187
 Alpha virt. eigenvalues --    0.37053   0.39595   0.40526   0.43182   0.44249
 Alpha virt. eigenvalues --    0.44602   0.44653   0.46587   0.46804   0.46951
 Alpha virt. eigenvalues --    0.48383   0.49302   0.50619   0.51040   0.52272
 Alpha virt. eigenvalues --    0.53143   0.55497   0.55729   0.57340   0.60284
 Alpha virt. eigenvalues --    0.60791   0.61932   0.62239   0.65381   0.69702
 Alpha virt. eigenvalues --    0.70150   0.72275   0.72691   0.74709   0.75416
 Alpha virt. eigenvalues --    0.77223   0.78208   0.78813   0.80688   0.82247
 Alpha virt. eigenvalues --    0.83468   0.84281   0.86006   0.86636   0.89102
 Alpha virt. eigenvalues --    0.89708   0.91510   0.93179   0.94401   0.96437
 Alpha virt. eigenvalues --    0.98833   0.99425   1.01770   1.05454   1.07696
 Alpha virt. eigenvalues --    1.10661   1.12490   1.17687   1.18704   1.20956
 Alpha virt. eigenvalues --    1.21563   1.24271   1.25289   1.27142   1.33314
 Alpha virt. eigenvalues --    1.35092   1.37484   1.38221   1.40782   1.43742
 Alpha virt. eigenvalues --    1.48318   1.51227   1.53241   1.53990   1.56180
 Alpha virt. eigenvalues --    1.58375   1.63322   1.66518   1.69780   1.71713
 Alpha virt. eigenvalues --    1.77685   1.79450   1.81400   1.83108   1.85594
 Alpha virt. eigenvalues --    1.90064   1.91286   1.92398   1.93953   1.97274
 Alpha virt. eigenvalues --    2.00066   2.00653   2.01111   2.02281   2.02826
 Alpha virt. eigenvalues --    2.03889   2.06929   2.11684   2.13534   2.18748
 Alpha virt. eigenvalues --    2.19767   2.28217   2.29873   2.32951   2.36452
 Alpha virt. eigenvalues --    2.39446   2.41013   2.43140   2.47892   2.50002
 Alpha virt. eigenvalues --    2.52198   2.55769   2.57438   2.59247   2.60885
 Alpha virt. eigenvalues --    2.62046   2.66674   2.68513   2.69347   2.72691
 Alpha virt. eigenvalues --    2.77908   2.83639   2.85326   2.89244   2.94076
 Alpha virt. eigenvalues --    2.96800   3.03123   3.16961   3.18686   3.22925
 Alpha virt. eigenvalues --    3.24798   3.37977   3.39892   3.42779   3.61524
 Alpha virt. eigenvalues --    3.98376   4.04237   4.05038   4.18456   4.21327
 Alpha virt. eigenvalues --    4.28300   4.34145   4.40436   4.41843   4.49309
 Alpha virt. eigenvalues --    4.68125   8.58812  72.79723
          Condensed to atoms (all electrons):
               1          2          3          4          5          6
     1  C    4.723575   0.212124  -0.019915   0.002730   0.007378  -0.000174
     2  O    0.212124   8.245893   0.262639  -0.084877  -0.080451   0.003265
     3  C   -0.019915   0.262639   4.399711   0.553806   0.298563  -0.044351
     4  O    0.002730  -0.084877   0.553806   8.058976  -0.086615   0.001499
     5  C    0.007378  -0.080451   0.298563  -0.086615   5.119008   0.467885
     6  C   -0.000174   0.003265  -0.044351   0.001499   0.467885   4.998865
     7  C    0.000001  -0.000056   0.008373   0.000870  -0.017960   0.463219
     8  Br  -0.000000   0.000000  -0.000096  -0.000002   0.006348  -0.061424
     9  C    0.000000   0.000002   0.000473  -0.000005  -0.031991  -0.043738
    10  N    0.000005  -0.000035   0.005199  -0.000038  -0.012857  -0.060893
    11  C    0.000056  -0.006792  -0.031953   0.002797   0.413652  -0.059693
    12  Cl   0.001223  -0.011215  -0.001506  -0.000026  -0.084761   0.003609
    13  H    0.385555  -0.031093  -0.005825   0.005860   0.000093  -0.000015
    14  H    0.390861  -0.033089   0.004530   0.000666  -0.000063  -0.000001
    15  H    0.384883  -0.030621  -0.006580   0.006258  -0.000330   0.000051
    16  H   -0.000030   0.000399  -0.011397   0.015276  -0.041872   0.374844
    17  H    0.000000  -0.000000   0.000022  -0.000000   0.000850   0.002771
               7          8          9         10         11         12
     1  C    0.000001  -0.000000   0.000000   0.000005   0.000056   0.001223
     2  O   -0.000056   0.000000   0.000002  -0.000035  -0.006792  -0.011215
     3  C    0.008373  -0.000096   0.000473   0.005199  -0.031953  -0.001506
     4  O    0.000870  -0.000002  -0.000005  -0.000038   0.002797  -0.000026
     5  C   -0.017960   0.006348  -0.031991  -0.012857   0.413652  -0.084761
     6  C    0.463219  -0.061424  -0.043738  -0.060893  -0.059693   0.003609
     7  C    4.979599   0.253551   0.456539  -0.016661  -0.036755   0.000429
     8  Br   0.253551  34.943507  -0.050781   0.004703   0.000404   0.000011
     9  C    0.456539  -0.050781   4.764282   0.465882  -0.073976   0.005057
    10  N   -0.016661   0.004703   0.465882   6.764507   0.410342  -0.091592
    11  C   -0.036755   0.000404  -0.073976   0.410342   5.010592   0.294376
    12  Cl   0.000429   0.000011   0.005057  -0.091592   0.294376  16.825223
    13  H   -0.000000   0.000000  -0.000000   0.000000   0.000001  -0.000027
    14  H   -0.000000   0.000000   0.000000   0.000000  -0.000015   0.000267
    15  H    0.000000   0.000000   0.000000   0.000000  -0.000013  -0.000025
    16  H   -0.043235  -0.002878   0.004839  -0.000449   0.006541  -0.000129
    17  H   -0.066294   0.002366   0.391239  -0.048541   0.004723  -0.000226
              13         14         15         16         17
     1  C    0.385555   0.390861   0.384883  -0.000030   0.000000
     2  O   -0.031093  -0.033089  -0.030621   0.000399  -0.000000
     3  C   -0.005825   0.004530  -0.006580  -0.011397   0.000022
     4  O    0.005860   0.000666   0.006258   0.015276  -0.000000
     5  C    0.000093  -0.000063  -0.000330  -0.041872   0.000850
     6  C   -0.000015  -0.000001   0.000051   0.374844   0.002771
     7  C   -0.000000  -0.000000   0.000000  -0.043235  -0.066294
     8  Br   0.000000   0.000000   0.000000  -0.002878   0.002366
     9  C   -0.000000   0.000000   0.000000   0.004839   0.391239
    10  N    0.000000   0.000000   0.000000  -0.000449  -0.048541
    11  C    0.000001  -0.000015  -0.000013   0.006541   0.004723
    12  Cl  -0.000027   0.000267  -0.000025  -0.000129  -0.000226
    13  H    0.579745  -0.032067  -0.037681  -0.000003  -0.000000
    14  H   -0.032067   0.571858  -0.032585  -0.000000   0.000000
    15  H   -0.037681  -0.032585   0.582783  -0.000001   0.000000
    16  H   -0.000003  -0.000000  -0.000001   0.544714  -0.000148
    17  H   -0.000000   0.000000   0.000000  -0.000148   0.580190
 Mulliken charges:
               1
     1  C   -0.088273
     2  O   -0.446093
     3  C    0.588306
     4  O   -0.477174
     5  C    0.043122
     6  C   -0.045720
     7  C    0.018380
     8  Br  -0.095708
     9  C    0.112178
    10  N   -0.419572
    11  C    0.065712
    12  Cl   0.059310
    13  H    0.135457
    14  H    0.129637
    15  H    0.133860
    16  H    0.153530
    17  H    0.133047
 Sum of Mulliken charges =  -0.00000
 Mulliken charges with hydrogens summed into heavy atoms:
               1
     1  C    0.310682
     2  O   -0.446093
     3  C    0.588306
     4  O   -0.477174
     5  C    0.043122
     6  C    0.107810
     7  C    0.018380
     8  Br  -0.095708
     9  C    0.245226
    10  N   -0.419572
    11  C    0.065712
    12  Cl   0.059310
 Electronic spatial extent (au):  <R**2>=           3924.1515
 Charge=             -0.0000 electrons
 Dipole moment (field-independent basis, Debye):
    X=             -0.8929    Y=             -0.7926    Z=              0.6326  Tot=              1.3512
 Quadrupole moment (field-independent basis, Debye-Ang):
   XX=            -73.8732   YY=            -93.3298   ZZ=            -86.5224
   XY=              5.3344   XZ=             -1.2192   YZ=             -2.1897
 Traceless Quadrupole moment (field-independent basis, Debye-Ang):
   XX=             10.7019   YY=             -8.7547   ZZ=             -1.9473
   XY=              5.3344   XZ=             -1.2192   YZ=             -2.1897
 Octapole moment (field-independent basis, Debye-Ang**2):
  XXX=             14.6856  YYY=            -17.6663  ZZZ=              0.3973  XYY=             33.4677
  XXY=            -25.7611  XXZ=              4.5692  XZZ=             21.2414  YZZ=             -6.5229
  YYZ=              6.7557  XYZ=              5.0329
 Hexadecapole moment (field-independent basis, Debye-Ang**3):
 XXXX=          -2821.3240 YYYY=          -1144.5837 ZZZZ=           -107.0285 XXXY=             49.4745
 XXXZ=            -14.6814 YYYX=            -40.2640 YYYZ=            -14.4797 ZZZX=              4.6036
 ZZZY=              1.0169 XXYY=           -660.6233 XXZZ=           -554.9392 YYZZ=           -196.3993
 XXYZ=            -10.5926 YYXZ=            -10.5781 ZZXY=             -8.5353
 N-N= 1.040469393051D+03 E-N=-1.041486551343D+04  KE= 3.485785524405D+03
 No NMR shielding tensors so no spin-rotation constants.
 Leave Link  601 at Tue Sep 17 09:45:51 2024, MaxMem=  1342177280 cpu:               1.0 elap:               0.2
 (Enter /groups/ReismanLab/Software/Gaussian16_RevC/Linux_Binary_AVX2-enabled-CPU/g16/l701.exe)
 ... and contract with generalized density number  0.
 Compute integral first derivatives.
 R6Disp: Adding Grimme-D3(BJ) dispersion energy 1st derivatives to the gradient.
 Leave Link  701 at Tue Sep 17 09:45:51 2024, MaxMem=  1342177280 cpu:               0.9 elap:               0.2
 (Enter /groups/ReismanLab/Software/Gaussian16_RevC/Linux_Binary_AVX2-enabled-CPU/g16/l702.exe)
 L702 exits ... SP integral derivatives will be done elsewhere.
 Leave Link  702 at Tue Sep 17 09:45:51 2024, MaxMem=  1342177280 cpu:               0.1 elap:               0.0
 (Enter /groups/ReismanLab/Software/Gaussian16_RevC/Linux_Binary_AVX2-enabled-CPU/g16/l703.exe)
 Integral derivatives from FoFJK, PRISM(SPDF).
 Compute integral first derivatives, UseDBF=F ICtDFT=           0.
 Calling FoFJK, ICntrl=      2127 FMM=F ISym2X=0 I1Cent= 0 IOpClX= 0 NMat=1 NMatS=1 NMatT=0.
 FoFJK:  IHMeth= 1 ICntrl=    2127 DoSepK=F KAlg= 0 I1Cent=           0 FoldK=F
 IRaf=         0 NMat=       1 IRICut=       1 DoRegI=T DoRafI=F ISym2E= 0 IDoP0=0 IntGTp=1.
 FoFCou: FMM=F IPFlag=           0 FMFlag=      100000 FMFlg1=         800
         NFxFlg=           0 DoJE=F BraDBF=F KetDBF=F FulRan=T
         wScrn=  0.000000 ICntrl=      2127 IOpCl=  0 I1Cent=           0 NGrid=           0
         NMat0=    1 NMatS0=      1 NMatT0=    0 NMatD0=    1 NMtDS0=    0 NMtDT0=    0
 Symmetry not used in FoFCou.
 Leave Link  703 at Tue Sep 17 09:45:54 2024, MaxMem=  1342177280 cpu:              24.3 elap:               3.2
 (Enter /groups/ReismanLab/Software/Gaussian16_RevC/Linux_Binary_AVX2-enabled-CPU/g16/l716.exe)
 Dipole        =-3.51296999D-01-3.11840815D-01 2.48874878D-01
 ***** Axes restored to original set *****
 -------------------------------------------------------------------
 Center     Atomic                   Forces (Hartrees/Bohr)
 Number     Number              X              Y              Z
 -------------------------------------------------------------------
      1        6          -0.003896231   -0.007142515   -0.001212096
      2        8          -0.002693533    0.006826969    0.004768492
      3        6           0.005238054    0.009501349    0.000876512
      4        8           0.003193459   -0.017532544   -0.004465730
      5        6          -0.004714805   -0.001107544    0.000130211
      6        6           0.001747683   -0.002196328   -0.000313413
      7        6           0.001936927   -0.003705870    0.000324807
      8       35           0.003696452   -0.000733258    0.000109648
      9        6           0.010611406   -0.002094536   -0.000052834
     10        7          -0.009615396    0.013366129   -0.000106648
     11        6           0.010060296   -0.006484955    0.001539528
     12       17          -0.018252794    0.012798983   -0.001848190
     13        1          -0.000798333   -0.000716187   -0.000481081
     14        1          -0.001110090    0.001109516    0.000529590
     15        1          -0.000597527   -0.000895583    0.000348891
     16        1           0.000402337   -0.001798239   -0.000349531
     17        1           0.004792095    0.000804614    0.000201842
 -------------------------------------------------------------------
 Cartesian Forces:  Max     0.018252794 RMS     0.005824643
 Leave Link  716 at Tue Sep 17 09:45:54 2024, MaxMem=  1342177280 cpu:               0.1 elap:               0.1
 (Enter /groups/ReismanLab/Software/Gaussian16_RevC/Linux_Binary_AVX2-enabled-CPU/g16/l103.exe)

 GradGradGradGradGradGradGradGradGradGradGradGradGradGradGradGradGradGrad
 Berny optimization.
 FormGI is forming the generalized inverse of G from B-inverse, IUseBI=4.
 GSVD:  received Info=                   1 from GESDD.
 Internal  Forces:  Max     0.021999514 RMS     0.005754936
 Search for a local minimum.
 Step number   1 out of a maximum of   82
 All quantities printed in internal units (Hartrees-Bohrs-Radians)
 RMS Force = .57549D-02 SwitMx=.10000D-02 MixMth= 1
 Mixed Optimization -- RFO/linear search
 Second derivative matrix not updated -- first step.
 ITU=  0
     Eigenvalues ---    0.00839   0.01405   0.01461   0.01710   0.02150
     Eigenvalues ---    0.02230   0.02264   0.02268   0.02285   0.02414
     Eigenvalues ---    0.02647   0.02663   0.10309   0.10663   0.16000
     Eigenvalues ---    0.16000   0.16000   0.16000   0.16000   0.18715
     Eigenvalues ---    0.23301   0.23492   0.24993   0.24997   0.24997
     Eigenvalues ---    0.24998   0.25000   0.25000   0.25000   0.32960
     Eigenvalues ---    0.34606   0.34628   0.35138   0.35218   0.35877
     Eigenvalues ---    0.35917   0.42210   0.42600   0.45007   0.46467
     Eigenvalues ---    0.47663   0.59758   0.60027   0.61814   1.02268
 RFO step:  Lambda=-6.31198766D-03 EMin= 8.38579800D-03
 Linear search not attempted -- first point.
 Iteration  1 RMS(Cart)=  0.09713397 RMS(Int)=  0.00200631
 Iteration  2 RMS(Cart)=  0.00533634 RMS(Int)=  0.00025296
 Iteration  3 RMS(Cart)=  0.00001302 RMS(Int)=  0.00025288
 Iteration  4 RMS(Cart)=  0.00000000 RMS(Int)=  0.00025288
 ITry= 1 IFail=0 DXMaxC= 4.11D-01 DCOld= 1.00D+10 DXMaxT= 3.00D-01 DXLimC= 3.00D+00 Rises=F
 Variable       Old X    -DE/DX   Delta X   Delta X   Delta X     New X
                                 (Linear)    (Quad)   (Total)
    R1        2.68656   0.00988   0.00000   0.02307   0.02307   2.70963
    R2        2.06284   0.00081   0.00000   0.00229   0.00229   2.06512
    R3        2.05322   0.00161   0.00000   0.00449   0.00449   2.05771
    R4        2.06320   0.00077   0.00000   0.00218   0.00218   2.06538
    R5        2.50919   0.00907   0.00000   0.01495   0.01495   2.52414
    R6        2.27744   0.01834   0.00000   0.01783   0.01783   2.29527
    R7        2.82421   0.00665   0.00000   0.01980   0.01980   2.84401
    R8        2.63283   0.00713   0.00000   0.01394   0.01394   2.64678
    R9        2.64960   0.01427   0.00000   0.03167   0.03171   2.68131
   R10        2.61543   0.00268   0.00000   0.00393   0.00390   2.61933
   R11        2.04212   0.00185   0.00000   0.00506   0.00506   2.04718
   R12        3.57283   0.00374   0.00000   0.01935   0.01935   3.59219
   R13        2.62658   0.00435   0.00000   0.00864   0.00860   2.63518
   R14        2.48476   0.01797   0.00000   0.02895   0.02895   2.51371
   R15        2.04274   0.00399   0.00000   0.01093   0.01093   2.05367
   R16        2.49384   0.01093   0.00000   0.01865   0.01869   2.51253
   R17        3.22452   0.02200   0.00000   0.06150   0.06150   3.28602
    A1        1.92419   0.00127   0.00000   0.00804   0.00802   1.93221
    A2        1.85100  -0.00114   0.00000  -0.00767  -0.00766   1.84334
    A3        1.92453   0.00123   0.00000   0.00783   0.00781   1.93234
    A4        1.93254  -0.00036   0.00000  -0.00305  -0.00304   1.92950
    A5        1.89871  -0.00063   0.00000  -0.00221  -0.00225   1.89646
    A6        1.93285  -0.00033   0.00000  -0.00279  -0.00279   1.93007
    A7        2.02516  -0.00148   0.00000  -0.00579  -0.00579   2.01938
    A8        2.16800  -0.00385   0.00000  -0.01557  -0.01672   2.15128
    A9        1.98022   0.00676   0.00000   0.02582   0.02468   2.00490
   A10        2.13474  -0.00295   0.00000  -0.01200  -0.01315   2.12159
   A11        2.03165  -0.01291   0.00000  -0.04952  -0.04955   1.98210
   A12        2.20905   0.01359   0.00000   0.05388   0.05384   2.26289
   A13        2.04229  -0.00068   0.00000  -0.00448  -0.00443   2.03787
   A14        2.08442   0.00446   0.00000   0.01330   0.01328   2.09770
   A15        2.07149  -0.00213   0.00000  -0.00608  -0.00608   2.06541
   A16        2.12728  -0.00232   0.00000  -0.00721  -0.00721   2.12007
   A17        2.10666   0.00074   0.00000   0.00511   0.00514   2.11180
   A18        2.07416   0.00010   0.00000  -0.00407  -0.00413   2.07003
   A19        2.10236  -0.00084   0.00000  -0.00104  -0.00101   2.10135
   A20        2.12563   0.00018   0.00000   0.00149   0.00147   2.12710
   A21        2.12739  -0.00293   0.00000  -0.01783  -0.01782   2.10957
   A22        2.03015   0.00275   0.00000   0.01633   0.01634   2.04649
   A23        2.09729  -0.00108   0.00000   0.00221   0.00228   2.09957
   A24        2.14220  -0.00298   0.00000  -0.00860  -0.00868   2.13352
   A25        2.13956   0.00781   0.00000   0.02868   0.02846   2.16802
   A26        2.00123  -0.00485   0.00000  -0.02069  -0.02089   1.98035
    D1       -1.04517  -0.00037   0.00000  -0.00180  -0.00184  -1.04701
    D2       -3.13804   0.00005   0.00000   0.00200   0.00200  -3.13604
    D3        1.05172   0.00044   0.00000   0.00562   0.00565   1.05737
    D4       -0.01540  -0.00110   0.00000  -0.04982  -0.04970  -0.06510
    D5       -3.13485   0.00073   0.00000   0.03855   0.03843  -3.09642
    D6        2.79603  -0.00144   0.00000  -0.08221  -0.08217   2.71386
    D7       -0.36744  -0.00163   0.00000  -0.08908  -0.08913  -0.45657
    D8       -0.32389   0.00038   0.00000   0.00432   0.00437  -0.31953
    D9        2.79582   0.00019   0.00000  -0.00255  -0.00259   2.79323
   D10       -3.13891   0.00029   0.00000   0.00437   0.00451  -3.13440
   D11        0.00281   0.00019   0.00000   0.00174   0.00189   0.00470
   D12        0.02241   0.00026   0.00000   0.00973   0.00965   0.03205
   D13       -3.11905   0.00016   0.00000   0.00710   0.00703  -3.11203
   D14        3.13853   0.00032   0.00000   0.00511   0.00535  -3.13930
   D15       -0.02528  -0.00083   0.00000  -0.03069  -0.03079  -0.05607
   D16       -0.02506  -0.00000   0.00000  -0.00229  -0.00225  -0.02731
   D17        3.09431  -0.00115   0.00000  -0.03809  -0.03839   3.05592
   D18        3.13643  -0.00016   0.00000  -0.00547  -0.00544   3.13099
   D19       -0.00231  -0.00022   0.00000  -0.00942  -0.00935  -0.01166
   D20       -0.00530  -0.00006   0.00000  -0.00275  -0.00274  -0.00804
   D21        3.13915  -0.00012   0.00000  -0.00670  -0.00664   3.13250
   D22       -0.01813   0.00003   0.00000   0.00160   0.00161  -0.01652
   D23        3.12978   0.00005   0.00000   0.00353   0.00345   3.13323
   D24        3.12631  -0.00004   0.00000  -0.00235  -0.00229   3.12403
   D25       -0.00896  -0.00002   0.00000  -0.00042  -0.00044  -0.00940
   D26        0.01656   0.00011   0.00000   0.00577   0.00563   0.02218
   D27       -3.13102   0.00007   0.00000   0.00383   0.00373  -3.12729
   D28        0.00569  -0.00012   0.00000  -0.00533  -0.00517   0.00051
   D29       -3.11531   0.00080   0.00000   0.02728   0.02683  -3.08848
         Item               Value     Threshold  Converged?
 Maximum Force            0.022000     0.000450     NO 
 RMS     Force            0.005755     0.000300     NO 
 Maximum Displacement     0.410929     0.001800     NO 
 RMS     Displacement     0.100742     0.001200     NO 
 Predicted change in Energy=-3.279619D-03
 Lowest energy point so far.  Saving SCF results.
 GradGradGradGradGradGradGradGradGradGradGradGradGradGradGradGradGradGrad

 Leave Link  103 at Tue Sep 17 09:45:54 2024, MaxMem=  1342177280 cpu:               0.1 elap:               0.1
 (Enter /groups/ReismanLab/Software/Gaussian16_RevC/Linux_Binary_AVX2-enabled-CPU/g16/l202.exe)
                          Input orientation:                          
 ---------------------------------------------------------------------
 Center     Atomic      Atomic             Coordinates (Angstroms)
 Number     Number       Type             X           Y           Z
 ---------------------------------------------------------------------
      1          6           0       -4.256301   -1.872180    0.329534
      2          8           0       -3.251787   -0.848987    0.334315
      3          6           0       -2.055652   -1.209284   -0.138538
      4          8           0       -1.791828   -2.341574   -0.490072
      5          6           0       -0.998998   -0.139909   -0.068511
      6          6           0        0.307234   -0.644480   -0.038806
      7          6           0        1.387316    0.221156    0.034315
      8         35           0        3.168870   -0.439170    0.093191
      9          6           0        1.142178    1.593622    0.062814
     10          7           0       -0.091203    2.088242    0.003256
     11          6           0       -1.138808    1.272054   -0.060948
     12         17           0       -2.657155    2.105196   -0.216606
     13          1           0       -4.438557   -2.230010   -0.686826
     14          1           0       -5.151884   -1.405613    0.736888
     15          1           0       -3.948663   -2.718855    0.948438
     16          1           0        0.444494   -1.718557   -0.071956
     17          1           0        1.961114    2.305083    0.127649
 ---------------------------------------------------------------------
                    Distance matrix (angstroms):
                    1          2          3          4          5
     1  C    0.000000
     2  O    1.433875   0.000000
     3  C    2.345503   1.335718   0.000000
     4  O    2.639264   2.244751   1.214602   0.000000
     5  C    3.710691   2.395854   1.504986   2.377734   0.000000
     6  C    4.740125   3.584365   2.431498   2.736756   1.400613
     7  C    6.026577   4.770376   3.732300   4.116980   2.415665
     8  Br   7.565881   6.438240   5.286057   5.344891   4.181726
     9  C    6.420787   5.034579   4.257105   4.939620   2.758082
    10  N    5.756688   4.327379   3.840943   4.770615   2.407052
    11  C    4.444935   3.019889   2.646443   3.697146   1.418889
    12  Cl   4.321465   3.063380   3.369522   4.538429   2.794980
    13  H    1.092816   2.087672   2.649668   2.656376   4.072027
    14  H    1.088894   2.020462   3.223596   3.697490   4.415556
    15  H    1.092951   2.087868   2.654018   2.619845   4.047922
    16  H    4.720410   3.818861   2.552356   2.358836   2.139114
    17  H    7.493100   6.096327   5.343785   6.004796   3.844311
                    6          7          8          9         10
     6  C    0.000000
     7  C    1.386091   0.000000
     8  Br   2.872026   1.900903   0.000000
     9  C    2.390933   1.394478   2.870652   0.000000
    10  N    2.761936   2.381805   4.126012   1.330197   0.000000
    11  C    2.400965   2.737657   4.637687   2.306865   1.329572
    12  Cl   4.047213   4.468816   6.364931   3.843790   2.575411
    13  H    5.045431   6.361529   7.854202   6.806374   6.166280
    14  H    5.566238   6.775037   8.401387   7.004642   6.193201
    15  H    4.836357   6.160516   7.522479   6.730413   6.235508
    16  H    1.083319   2.159327   3.014354   3.387544   3.845042
    17  H    3.385697   2.163494   2.998463   1.086754   2.067486
                   11         12         13         14         15
    11  C    0.000000
    12  Cl   1.738888   0.000000
    13  H    4.852269   4.710467   0.000000
    14  H    4.889910   4.411190   1.793161   0.000000
    15  H    4.984125   5.128039   1.775684   1.793627   0.000000
    16  H    3.383892   4.925671   4.948115   5.663181   4.619700
    17  H    3.272955   4.635394   7.885824   8.045818   7.799943
                   16         17
    16  H    0.000000
    17  H    4.304608   0.000000
 Stoichiometry    C7H5BrClNO2
 Framework group  C1[X(C7H5BrClNO2)]
 Deg. of freedom    45
 Full point group                 C1      NOp   1
 RotChk:  IX=0 Diff= 5.36D-02
 Largest Abelian subgroup         C1      NOp   1
 Largest concise Abelian subgroup C1      NOp   1
                         Standard orientation:                         
 ---------------------------------------------------------------------
 Center     Atomic      Atomic             Coordinates (Angstroms)
 Number     Number       Type             X           Y           Z
 ---------------------------------------------------------------------
      1          6           0       -4.114959   -1.813609    0.325248
      2          8           0       -3.095531   -0.805473    0.345858
      3          6           0       -1.910093   -1.170134   -0.150027
      4          8           0       -1.666815   -2.296267   -0.534602
      5          6           0       -0.837138   -0.118337   -0.063562
      6          6           0        0.461789   -0.642268   -0.062200
      7          6           0        1.555209    0.205464    0.021661
      8         35           0        3.327411   -0.481772    0.042614
      9          6           0        1.330587    1.580057    0.089526
     10          7           0        0.104024    2.093794    0.057228
     11          6           0       -0.956101    1.294781   -0.016770
     12         17           0       -2.463666    2.153560   -0.132857
     13          1           0       -4.313624   -2.141392   -0.698147
     14          1           0       -4.999055   -1.345296    0.755071
     15          1           0       -3.813000   -2.680918    0.917817
     16          1           0        0.582884   -1.716933   -0.125531
     17          1           0        2.160549    2.277665    0.163968
 ---------------------------------------------------------------------
 Rotational constants (GHZ):           1.0552246           0.3018866           0.2371479
 Leave Link  202 at Tue Sep 17 09:45:54 2024, MaxMem=  1342177280 cpu:               0.1 elap:               0.0
 (Enter /groups/ReismanLab/Software/Gaussian16_RevC/Linux_Binary_AVX2-enabled-CPU/g16/l301.exe)
 Standard basis: 6-31G(d,p) (6D, 7F)
 Ernie: Thresh=  0.10000D-02 Tol=  0.10000D-05 Strict=F.
 There are   224 symmetry adapted cartesian basis functions of A   symmetry.
 There are   224 symmetry adapted basis functions of A   symmetry.
   224 basis functions,   450 primitive gaussians,   224 cartesian basis functions
    61 alpha electrons       61 beta electrons
       nuclear repulsion energy      1029.4551479272 Hartrees.
 IExCor=  402 DFT=T Ex+Corr=B3LYP ExCW=0 ScaHFX=  0.200000
 ScaDFX=  0.800000  0.720000  1.000000  0.810000 ScalE2=  1.000000  1.000000
 IRadAn=      5 IRanWt=     -1 IRanGd=            0 ICorTp=0 IEmpDi=141
 NAtoms=   17 NActive=   17 NUniq=   17 SFac= 1.00D+00 NAtFMM=   60 NAOKFM=F Big=F
 Integral buffers will be    131072 words long.
 Raffenetti 2 integral format.
 Two-electron integral symmetry is turned on.
 R6Disp:  Grimme-D3(BJ) Dispersion energy=       -0.0375712462 Hartrees.
 Nuclear repulsion after empirical dispersion term =     1029.4175766810 Hartrees.
 Leave Link  301 at Tue Sep 17 09:45:54 2024, MaxMem=  1342177280 cpu:               0.1 elap:               0.1
 (Enter /groups/ReismanLab/Software/Gaussian16_RevC/Linux_Binary_AVX2-enabled-CPU/g16/l302.exe)
 NPDir=0 NMtPBC=     1 NCelOv=     1 NCel=       1 NClECP=     1 NCelD=      1
         NCelK=      1 NCelE2=     1 NClLst=     1 CellRange=     0.0.
 One-electron integrals computed using PRISM.
 One-electron integral symmetry used in STVInt
 NBasis=   224 RedAO= T EigKep=  6.81D-04  NBF=   224
 NBsUse=   224 1.00D-06 EigRej= -1.00D+00 NBFU=   224
 Precomputing XC quadrature grid using
 IXCGrd= 4 IRadAn=           5 IRanWt=          -1 IRanGd=           0 AccXCQ= 0.00D+00.
 Generated NRdTot=       0 NPtTot=           0 NUsed=           0 NTot=          32
 NSgBfM=   223   222   223   223   223 MxSgAt=    17 MxSgA2=    17.
 Leave Link  302 at Tue Sep 17 09:45:55 2024, MaxMem=  1342177280 cpu:               1.5 elap:               0.4
 (Enter /groups/ReismanLab/Software/Gaussian16_RevC/Linux_Binary_AVX2-enabled-CPU/g16/l303.exe)
 DipDrv:  MaxL=1.
 Leave Link  303 at Tue Sep 17 09:45:55 2024, MaxMem=  1342177280 cpu:               0.1 elap:               0.0
 (Enter /groups/ReismanLab/Software/Gaussian16_RevC/Linux_Binary_AVX2-enabled-CPU/g16/l401.exe)
 Initial guess from the checkpoint file:  "smiles_00077_conf_0.chk"
 B after Tr=    -0.000000   -0.000000    0.000000
         Rot=    0.999981   -0.005940    0.000018   -0.001653 Ang=  -0.71 deg.
 Guess basis will be translated and rotated to current coordinates.
 JPrj=2 DoOrth=T DoCkMO=T.
 Generating alternative initial guess.
 ExpMin= 1.43D-01 ExpMax= 5.74D+05 ExpMxC= 5.74D+03 IAcc=3 IRadAn=         5 AccDes= 0.00D+00
 Harris functional with IExCor=  402 and IRadAn=       5 diagonalized for initial guess.
 HarFok:  IExCor=  402 AccDes= 0.00D+00 IRadAn=         5 IDoV= 1 UseB2=F ITyADJ=14
 ICtDFT=  3500011 ScaDFX=  1.000000  1.000000  1.000000  1.000000
 FoFCou: FMM=F IPFlag=           0 FMFlag=      100000 FMFlg1=           0
         NFxFlg=           0 DoJE=T BraDBF=F KetDBF=T FulRan=T
         wScrn=  0.000000 ICntrl=       500 IOpCl=  0 I1Cent=   200000004 NGrid=           0
         NMat0=    1 NMatS0=      1 NMatT0=    0 NMatD0=    1 NMtDS0=    0 NMtDT0=    0
 Petite list used in FoFCou.
 Harris En= -3506.91284083548    
 Leave Link  401 at Tue Sep 17 09:45:56 2024, MaxMem=  1342177280 cpu:               4.5 elap:               0.8
 (Enter /groups/ReismanLab/Software/Gaussian16_RevC/Linux_Binary_AVX2-enabled-CPU/g16/l502.exe)
 Integral symmetry usage will be decided dynamically.
 Closed shell SCF:
 Using DIIS extrapolation, IDIIS=  1040.
 NGot=  1342177280 LenX=  1342072412 LenY=  1342021795
 Requested convergence on RMS density matrix=1.00D-08 within  32 cycles.
 Requested convergence on MAX density matrix=1.00D-06.
 Requested convergence on             energy=1.00D-06.
 No special actions if energy rises.
 Fock matrices will be formed incrementally for  20 cycles.
 Integral accuracy reduced to 1.0D-05 until final iterations.

 Cycle   1  Pass 0  IDiag  1:
 FoFJK:  IHMeth= 1 ICntrl=       0 DoSepK=F KAlg= 0 I1Cent=           0 FoldK=F
 IRaf= 830000000 NMat=       1 IRICut=       1 DoRegI=T DoRafI=F ISym2E= 0 IDoP0=0 IntGTp=1.
 FoFCou: FMM=F IPFlag=           0 FMFlag=      100000 FMFlg1=           0
         NFxFlg=           0 DoJE=F BraDBF=F KetDBF=F FulRan=T
         wScrn=  0.000000 ICntrl=         0 IOpCl=  0 I1Cent=           0 NGrid=           0
         NMat0=    1 NMatS0=      1 NMatT0=    0 NMatD0=    1 NMtDS0=    0 NMtDT0=    0
 Symmetry not used in FoFCou.
 E= -3506.88339232780    
 DIIS: error= 4.14D-03 at cycle   1 NSaved=   1.
 NSaved= 1 IEnMin= 1 EnMin= -3506.88339232780     IErMin= 1 ErrMin= 4.14D-03
 ErrMax= 4.14D-03  0.00D+00 EMaxC= 1.00D-01 BMatC= 1.08D-02 BMatP= 1.08D-02
 IDIUse=3 WtCom= 9.59D-01 WtEn= 4.14D-02
 Coeff-Com:  0.100D+01
 Coeff-En:   0.100D+01
 Coeff:      0.100D+01
 Gap=     1.664 Goal=   None    Shift=    0.000
 GapD=    1.664 DampG=2.000 DampE=1.000 DampFc=2.0000 IDamp=-1.
 RMSDP=7.22D-04 MaxDP=1.57D-02              OVMax= 2.07D-02

 Cycle   2  Pass 0  IDiag  1:
 RMSU=  7.22D-04    CP:  9.99D-01
 E= -3506.89659596814     Delta-E=       -0.013203640342 Rises=F Damp=F
 DIIS: error= 7.59D-04 at cycle   2 NSaved=   2.
 NSaved= 2 IEnMin= 2 EnMin= -3506.89659596814     IErMin= 2 ErrMin= 7.59D-04
 ErrMax= 7.59D-04  0.00D+00 EMaxC= 1.00D-01 BMatC= 2.78D-04 BMatP= 1.08D-02
 IDIUse=3 WtCom= 9.92D-01 WtEn= 7.59D-03
 Coeff-Com: -0.121D-01 0.101D+01
 Coeff-En:   0.000D+00 0.100D+01
 Coeff:     -0.120D-01 0.101D+01
 Gap=     0.187 Goal=   None    Shift=    0.000
 RMSDP=2.28D-04 MaxDP=6.79D-03 DE=-1.32D-02 OVMax= 7.07D-03

 Cycle   3  Pass 0  IDiag  1:
 RMSU=  2.26D-04    CP:  1.00D+00  1.03D+00
 E= -3506.89626572575     Delta-E=        0.000330242392 Rises=F Damp=F
 DIIS: error= 1.45D-03 at cycle   3 NSaved=   3.
 NSaved= 3 IEnMin= 2 EnMin= -3506.89659596814     IErMin= 2 ErrMin= 7.59D-04
 ErrMax= 1.45D-03  0.00D+00 EMaxC= 1.00D-01 BMatC= 7.05D-04 BMatP= 2.78D-04
 IDIUse=3 WtCom= 2.08D-01 WtEn= 7.92D-01
 Coeff-Com: -0.313D-01 0.647D+00 0.385D+00
 Coeff-En:   0.000D+00 0.668D+00 0.332D+00
 Coeff:     -0.651D-02 0.663D+00 0.343D+00
 Gap=     0.187 Goal=   None    Shift=    0.000
 RMSDP=1.39D-04 MaxDP=4.27D-03 DE= 3.30D-04 OVMax= 5.13D-03

 Cycle   4  Pass 0  IDiag  1:
 RMSU=  4.92D-05    CP:  1.00D+00  1.06D+00  4.32D-01
 E= -3506.89690859564     Delta-E=       -0.000642869891 Rises=F Damp=F
 DIIS: error= 2.27D-04 at cycle   4 NSaved=   4.
 NSaved= 4 IEnMin= 4 EnMin= -3506.89690859564     IErMin= 4 ErrMin= 2.27D-04
 ErrMax= 2.27D-04  0.00D+00 EMaxC= 1.00D-01 BMatC= 1.87D-05 BMatP= 2.78D-04
 IDIUse=3 WtCom= 9.98D-01 WtEn= 2.27D-03
 Coeff-Com: -0.161D-01 0.271D+00 0.181D+00 0.564D+00
 Coeff-En:   0.000D+00 0.000D+00 0.000D+00 0.100D+01
 Coeff:     -0.161D-01 0.271D+00 0.180D+00 0.565D+00
 Gap=     0.187 Goal=   None    Shift=    0.000
 RMSDP=2.99D-05 MaxDP=1.11D-03 DE=-6.43D-04 OVMax= 1.20D-03

 Cycle   5  Pass 0  IDiag  1:
 RMSU=  2.43D-05    CP:  1.00D+00  1.06D+00  3.95D-01  7.02D-01
 E= -3506.89692049704     Delta-E=       -0.000011901400 Rises=F Damp=F
 DIIS: error= 1.05D-04 at cycle   5 NSaved=   5.
 NSaved= 5 IEnMin= 5 EnMin= -3506.89692049704     IErMin= 5 ErrMin= 1.05D-04
 ErrMax= 1.05D-04  0.00D+00 EMaxC= 1.00D-01 BMatC= 5.74D-06 BMatP= 1.87D-05
 IDIUse=3 WtCom= 9.99D-01 WtEn= 1.05D-03
 Coeff-Com: -0.380D-02 0.417D-01 0.407D-01 0.358D+00 0.564D+00
 Coeff-En:   0.000D+00 0.000D+00 0.000D+00 0.254D+00 0.746D+00
 Coeff:     -0.379D-02 0.416D-01 0.407D-01 0.358D+00 0.564D+00
 Gap=     0.187 Goal=   None    Shift=    0.000
 RMSDP=1.28D-05 MaxDP=4.19D-04 DE=-1.19D-05 OVMax= 5.13D-04

 Cycle   6  Pass 0  IDiag  1:
 RMSU=  7.01D-06    CP:  1.00D+00  1.07D+00  4.21D-01  7.86D-01  6.75D-01
 E= -3506.89692576856     Delta-E=       -0.000005271526 Rises=F Damp=F
 DIIS: error= 1.95D-05 at cycle   6 NSaved=   6.
 NSaved= 6 IEnMin= 6 EnMin= -3506.89692576856     IErMin= 6 ErrMin= 1.95D-05
 ErrMax= 1.95D-05  0.00D+00 EMaxC= 1.00D-01 BMatC= 2.53D-07 BMatP= 5.74D-06
 IDIUse=1 WtCom= 1.00D+00 WtEn= 0.00D+00
 Coeff-Com: -0.429D-03-0.473D-02 0.344D-02 0.119D+00 0.261D+00 0.621D+00
 Coeff:     -0.429D-03-0.473D-02 0.344D-02 0.119D+00 0.261D+00 0.621D+00
 Gap=     0.187 Goal=   None    Shift=    0.000
 RMSDP=3.06D-06 MaxDP=8.92D-05 DE=-5.27D-06 OVMax= 1.48D-04

 Initial convergence to 1.0D-05 achieved.  Increase integral accuracy.
 Cycle   7  Pass 1  IDiag  1:
 E= -3506.89692352060     Delta-E=        0.000002247965 Rises=F Damp=F
 DIIS: error= 5.07D-05 at cycle   1 NSaved=   1.
 NSaved= 1 IEnMin= 1 EnMin= -3506.89692352060     IErMin= 1 ErrMin= 5.07D-05
 ErrMax= 5.07D-05  0.00D+00 EMaxC= 1.00D-01 BMatC= 1.69D-07 BMatP= 1.69D-07
 IDIUse=1 WtCom= 1.00D+00 WtEn= 0.00D+00
 Coeff-Com:  0.100D+01
 Coeff:      0.100D+01
 Gap=     0.187 Goal=   None    Shift=    0.000
 RMSDP=3.06D-06 MaxDP=8.92D-05 DE= 2.25D-06 OVMax= 1.22D-04

 Cycle   8  Pass 1  IDiag  1:
 RMSU=  1.26D-05    CP:  1.00D+00
 E= -3506.89692358365     Delta-E=       -0.000000063051 Rises=F Damp=F
 DIIS: error= 1.24D-05 at cycle   2 NSaved=   2.
 NSaved= 2 IEnMin= 2 EnMin= -3506.89692358365     IErMin= 2 ErrMin= 1.24D-05
 ErrMax= 1.24D-05  0.00D+00 EMaxC= 1.00D-01 BMatC= 7.56D-08 BMatP= 1.69D-07
 IDIUse=1 WtCom= 1.00D+00 WtEn= 0.00D+00
 Coeff-Com:  0.359D+00 0.641D+00
 Coeff:      0.359D+00 0.641D+00
 Gap=     0.187 Goal=   None    Shift=    0.000
 RMSDP=2.12D-06 MaxDP=8.31D-05 DE=-6.31D-08 OVMax= 1.27D-04

 Cycle   9  Pass 1  IDiag  1:
 RMSU=  2.12D-06    CP:  1.00D+00  9.93D-01
 E= -3506.89692361194     Delta-E=       -0.000000028294 Rises=F Damp=F
 DIIS: error= 9.67D-06 at cycle   3 NSaved=   3.
 NSaved= 3 IEnMin= 3 EnMin= -3506.89692361194     IErMin= 3 ErrMin= 9.67D-06
 ErrMax= 9.67D-06  0.00D+00 EMaxC= 1.00D-01 BMatC= 4.77D-08 BMatP= 7.56D-08
 IDIUse=1 WtCom= 1.00D+00 WtEn= 0.00D+00
 Coeff-Com:  0.203D-01 0.439D+00 0.541D+00
 Coeff:      0.203D-01 0.439D+00 0.541D+00
 Gap=     0.187 Goal=   None    Shift=    0.000
 RMSDP=1.08D-06 MaxDP=3.65D-05 DE=-2.83D-08 OVMax= 5.89D-05

 Cycle  10  Pass 1  IDiag  1:
 RMSU=  5.06D-07    CP:  1.00D+00  1.01D+00  5.60D-01
 E= -3506.89692365307     Delta-E=       -0.000000041126 Rises=F Damp=F
 DIIS: error= 2.46D-06 at cycle   4 NSaved=   4.
 NSaved= 4 IEnMin= 4 EnMin= -3506.89692365307     IErMin= 4 ErrMin= 2.46D-06
 ErrMax= 2.46D-06  0.00D+00 EMaxC= 1.00D-01 BMatC= 3.91D-09 BMatP= 4.77D-08
 IDIUse=1 WtCom= 1.00D+00 WtEn= 0.00D+00
 Coeff-Com: -0.307D-02 0.260D+00 0.355D+00 0.388D+00
 Coeff:     -0.307D-02 0.260D+00 0.355D+00 0.388D+00
 Gap=     0.187 Goal=   None    Shift=    0.000
 RMSDP=2.93D-07 MaxDP=1.00D-05 DE=-4.11D-08 OVMax= 1.28D-05

 Cycle  11  Pass 1  IDiag  1:
 RMSU=  9.33D-08    CP:  1.00D+00  1.01D+00  5.80D-01  4.59D-01
 E= -3506.89692365657     Delta-E=       -0.000000003501 Rises=F Damp=F
 DIIS: error= 3.54D-07 at cycle   5 NSaved=   5.
 NSaved= 5 IEnMin= 5 EnMin= -3506.89692365657     IErMin= 5 ErrMin= 3.54D-07
 ErrMax= 3.54D-07  0.00D+00 EMaxC= 1.00D-01 BMatC= 5.44D-11 BMatP= 3.91D-09
 IDIUse=1 WtCom= 1.00D+00 WtEn= 0.00D+00
 Coeff-Com: -0.225D-02 0.121D+00 0.167D+00 0.202D+00 0.512D+00
 Coeff:     -0.225D-02 0.121D+00 0.167D+00 0.202D+00 0.512D+00
 Gap=     0.187 Goal=   None    Shift=    0.000
 RMSDP=4.79D-08 MaxDP=1.58D-06 DE=-3.50D-09 OVMax= 1.71D-06

 Cycle  12  Pass 1  IDiag  1:
 RMSU=  4.07D-08    CP:  1.00D+00  1.01D+00  5.81D-01  4.42D-01  7.51D-01
 E= -3506.89692365655     Delta-E=        0.000000000015 Rises=F Damp=F
 DIIS: error= 1.18D-07 at cycle   6 NSaved=   6.
 NSaved= 6 IEnMin= 5 EnMin= -3506.89692365657     IErMin= 6 ErrMin= 1.18D-07
 ErrMax= 1.18D-07  0.00D+00 EMaxC= 1.00D-01 BMatC= 7.09D-12 BMatP= 5.44D-11
 IDIUse=1 WtCom= 1.00D+00 WtEn= 0.00D+00
 Coeff-Com: -0.831D-03 0.310D-01 0.436D-01 0.571D-01 0.281D+00 0.588D+00
 Coeff:     -0.831D-03 0.310D-01 0.436D-01 0.571D-01 0.281D+00 0.588D+00
 Gap=     0.187 Goal=   None    Shift=    0.000
 RMSDP=1.89D-08 MaxDP=6.06D-07 DE= 1.55D-11 OVMax= 9.59D-07

 Cycle  13  Pass 1  IDiag  1:
 RMSU=  1.42D-08    CP:  1.00D+00  1.01D+00  5.80D-01  4.52D-01  8.32D-01
                    CP:  7.98D-01
 E= -3506.89692365658     Delta-E=       -0.000000000024 Rises=F Damp=F
 DIIS: error= 7.18D-08 at cycle   7 NSaved=   7.
 NSaved= 7 IEnMin= 7 EnMin= -3506.89692365658     IErMin= 7 ErrMin= 7.18D-08
 ErrMax= 7.18D-08  0.00D+00 EMaxC= 1.00D-01 BMatC= 1.87D-12 BMatP= 7.09D-12
 IDIUse=1 WtCom= 1.00D+00 WtEn= 0.00D+00
 Coeff-Com: -0.117D-03-0.212D-02-0.244D-02-0.183D-03 0.874D-01 0.379D+00
 Coeff-Com:  0.538D+00
 Coeff:     -0.117D-03-0.212D-02-0.244D-02-0.183D-03 0.874D-01 0.379D+00
 Coeff:      0.538D+00
 Gap=     0.187 Goal=   None    Shift=    0.000
 RMSDP=8.58D-09 MaxDP=2.71D-07 DE=-2.36D-11 OVMax= 5.47D-07

 SCF Done:  E(RB3LYP) =  -3506.89692366     A.U. after   13 cycles
            NFock= 13  Conv=0.86D-08     -V/T= 2.0062
 KE= 3.485420199038D+03 PE=-1.039241756627D+04 EE= 2.370682866897D+03
 Leave Link  502 at Tue Sep 17 09:46:07 2024, MaxMem=  1342177280 cpu:              68.5 elap:              10.8
 (Enter /groups/ReismanLab/Software/Gaussian16_RevC/Linux_Binary_AVX2-enabled-CPU/g16/l508.exe)
 QCSCF skips out because SCF is already converged.
 Leave Link  508 at Tue Sep 17 09:46:07 2024, MaxMem=  1342177280 cpu:               0.1 elap:               0.0
 (Enter /groups/ReismanLab/Software/Gaussian16_RevC/Linux_Binary_AVX2-enabled-CPU/g16/l701.exe)
 ... and contract with generalized density number  0.
 Compute integral first derivatives.
 R6Disp: Adding Grimme-D3(BJ) dispersion energy 1st derivatives to the gradient.
 Leave Link  701 at Tue Sep 17 09:46:07 2024, MaxMem=  1342177280 cpu:               0.9 elap:               0.3
 (Enter /groups/ReismanLab/Software/Gaussian16_RevC/Linux_Binary_AVX2-enabled-CPU/g16/l702.exe)
 L702 exits ... SP integral derivatives will be done elsewhere.
 Leave Link  702 at Tue Sep 17 09:46:07 2024, MaxMem=  1342177280 cpu:               0.0 elap:               0.0
 (Enter /groups/ReismanLab/Software/Gaussian16_RevC/Linux_Binary_AVX2-enabled-CPU/g16/l703.exe)
 Integral derivatives from FoFJK, PRISM(SPDF).
 Compute integral first derivatives, UseDBF=F ICtDFT=           0.
 Calling FoFJK, ICntrl=      2127 FMM=F ISym2X=0 I1Cent= 0 IOpClX= 0 NMat=1 NMatS=1 NMatT=0.
 FoFJK:  IHMeth= 1 ICntrl=    2127 DoSepK=F KAlg= 0 I1Cent=           0 FoldK=F
 IRaf=         0 NMat=       1 IRICut=       1 DoRegI=T DoRafI=F ISym2E= 0 IDoP0=0 IntGTp=1.
 FoFCou: FMM=F IPFlag=           0 FMFlag=      100000 FMFlg1=         800
[...]
   XZ=    -6.6512   YZ=    -7.3089   ZZ=   231.1183
   Eigenvalues:  -442.6108  -205.8969   231.7326
     11  C    Isotropic =     6.0659   Anisotropy =   131.6439
   XX=   -72.5976   YX=    74.2559   ZX=    -8.6022
   XY=     1.7726   YY=    -2.6207   ZY=     1.1393
   XZ=    -7.2666   YZ=    -0.9777   ZZ=    93.4161
   Eigenvalues:   -89.5655    13.9347    93.8285
     12  Cl   Isotropic =   570.9597   Anisotropy =   557.1546
   XX=   766.6936   YX=  -309.4319   ZX=    34.0147
   XY=  -244.3844   YY=   497.0424   ZY=   -24.9249
   XZ=    18.7531   YZ=   -24.2250   ZZ=   449.1432
   Eigenvalues:   323.5016   446.9815   942.3961
     13  H    Isotropic =    27.8621   Anisotropy =     8.2735
   XX=    28.8082   YX=     3.5892   ZX=     3.2645
   XY=     2.1809   YY=    27.2088   ZY=     2.4981
   XZ=     2.4080   YZ=     2.3106   ZZ=    27.5695
   Eigenvalues:    24.9151    25.2935    33.3778
     14  H    Isotropic =    27.8824   Anisotropy =     7.5940
   XX=    32.5020   YX=    -0.0908   ZX=    -1.8630
   XY=     1.6260   YY=    26.9241   ZY=     0.1582
   XZ=    -1.6799   YZ=     0.4268   ZZ=    24.2212
   Eigenvalues:    23.7950    26.9072    32.9451
     15  H    Isotropic =    27.8931   Anisotropy =     8.4652
   XX=    27.2793   YX=     3.4518   ZX=    -1.4322
   XY=     1.7173   YY=    29.9631   ZY=    -3.1614
   XZ=    -1.5996   YZ=    -3.8013   ZZ=    26.4369
   Eigenvalues:    24.2956    25.8471    33.5366
     16  H    Isotropic =    22.3270   Anisotropy =    13.4498
   XX=    30.6768   YX=     2.6803   ZX=     0.2437
   XY=     2.7001   YY=    18.6863   ZY=     0.3828
   XZ=     1.0929   YZ=     0.5107   ZZ=    17.6178
   Eigenvalues:    17.4449    18.2425    31.2935
     17  H    Isotropic =    22.4787   Anisotropy =    10.9387
   XX=    21.9440   YX=    -4.4533   ZX=    -0.1378
   XY=    -3.8533   YY=    27.5602   ZY=     0.2629
   XZ=     0.3397   YZ=     0.4229   ZZ=    17.9318
   Eigenvalues:    17.8925    19.7724    29.7711
 End of Minotr F.D. properties file   721 does not exist.
 End of Minotr F.D. properties file   722 does not exist.
 End of Minotr F.D. properties file   788 does not exist.
 Leave Link 1002 at Tue Sep 17 10:37:49 2024, MaxMem=  1342177280 cpu:             724.2 elap:             726.0
 (Enter /groups/ReismanLab/Software/Gaussian16_RevC/Linux_Binary_AVX2-enabled-CPU/g16/l601.exe)
 Copying SCF densities to generalized density rwf, IOpCl= 0 IROHF=0.

 **********************************************************************

            Population analysis using the SCF Density.

 **********************************************************************

 Orbital symmetries:
       Occupied  (A) (A) (A) (A) (A) (A) (A) (A) (A) (A) (A) (A)
                 (A) (A) (A) (A) (A) (A) (A) (A) (A) (A) (A) (A)
                 (A) (A) (A) (A) (A) (A) (A) (A) (A) (A) (A) (A)
                 (A) (A) (A) (A) (A) (A) (A) (A) (A) (A) (A) (A)
                 (A) (A) (A) (A) (A) (A) (A) (A) (A) (A) (A) (A)
                 (A)
       Virtual   (A) (A) (A) (A) (A) (A) (A) (A) (A) (A) (A) (A)
                 (A) (A) (A) (A) (A) (A) (A) (A) (A) (A) (A) (A)
                 (A) (A) (A) (A) (A) (A) (A) (A) (A) (A) (A) (A)
                 (A) (A) (A) (A) (A) (A) (A) (A) (A) (A) (A) (A)
                 (A) (A) (A) (A) (A) (A) (A) (A) (A) (A) (A) (A)
                 (A) (A) (A) (A) (A) (A) (A) (A) (A) (A) (A) (A)
                 (A) (A) (A) (A) (A) (A) (A) (A) (A) (A) (A) (A)
                 (A) (A) (A) (A) (A) (A) (A) (A) (A) (A) (A) (A)
                 (A) (A) (A) (A) (A) (A) (A) (A) (A) (A) (A) (A)
                 (A) (A) (A) (A) (A) (A) (A) (A) (A) (A) (A) (A)
                 (A) (A) (A) (A) (A) (A) (A) (A) (A) (A) (A) (A)
                 (A) (A) (A) (A) (A) (A) (A) (A) (A) (A) (A) (A)
                 (A) (A) (A) (A) (A) (A) (A) (A) (A) (A) (A) (A)
                 (A) (A) (A) (A) (A) (A) (A) (A) (A) (A) (A) (A)
                 (A) (A) (A) (A) (A) (A) (A) (A) (A) (A) (A) (A)
                 (A) (A) (A) (A) (A) (A) (A) (A) (A) (A) (A) (A)
                 (A) (A) (A) (A) (A) (A) (A) (A) (A) (A) (A) (A)
                 (A) (A) (A) (A) (A) (A) (A) (A) (A) (A) (A) (A)
                 (A) (A) (A) (A) (A) (A) (A) (A) (A) (A) (A) (A)
                 (A) (A) (A) (A) (A) (A) (A) (A) (A) (A) (A) (A)
                 (A) (A) (A) (A) (A) (A) (A) (A) (A) (A) (A) (A)
                 (A) (A) (A) (A) (A) (A) (A) (A) (A) (A) (A) (A)
                 (A) (A) (A) (A) (A) (A) (A) (A) (A) (A) (A) (A)
                 (A) (A) (A) (A) (A) (A) (A) (A) (A) (A) (A) (A)
                 (A) (A) (A) (A) (A) (A) (A) (A) (A) (A) (A) (A)
                 (A) (A) (A) (A) (A) (A) (A) (A) (A) (A) (A) (A)
                 (A) (A) (A) (A) (A) (A) (A) (A) (A) (A) (A) (A)
                 (A) (A) (A) (A) (A) (A) (A) (A) (A) (A) (A) (A)
                 (A) (A) (A) (A) (A) (A) (A) (A) (A) (A) (A) (A)
                 (A) (A) (A) (A) (A) (A) (A) (A) (A) (A) (A) (A)
                 (A) (A) (A) (A)
 The electronic state is 1-A.
 Alpha  occ. eigenvalues -- -485.39321-102.65535 -63.37792 -57.19745 -57.19497
 Alpha  occ. eigenvalues --  -57.19490 -19.68727 -19.63202 -14.78423 -10.69683
 Alpha  occ. eigenvalues --  -10.66667 -10.62513 -10.61423 -10.59975 -10.59512
 Alpha  occ. eigenvalues --  -10.59357  -9.81809  -9.04437  -7.54010  -7.53500
 Alpha  occ. eigenvalues --   -7.53447  -6.86872  -6.85952  -6.85930  -2.90249
 Alpha  occ. eigenvalues --   -2.89916  -2.89890  -2.89033  -2.89033  -1.25027
 Alpha  occ. eigenvalues --   -1.15519  -1.10181  -0.97483  -0.95614  -0.91226
 Alpha  occ. eigenvalues --   -0.84615  -0.83018  -0.75994  -0.72898  -0.66977
 Alpha  occ. eigenvalues --   -0.63265  -0.60405  -0.59544  -0.58132  -0.56585
 Alpha  occ. eigenvalues --   -0.52652  -0.51167  -0.50647  -0.50204  -0.47902
 Alpha  occ. eigenvalues --   -0.45844  -0.44804  -0.43892  -0.39585  -0.39165
 Alpha  occ. eigenvalues --   -0.38669  -0.38032  -0.37505  -0.36558  -0.35408
 Alpha  occ. eigenvalues --   -0.31546
 Alpha virt. eigenvalues --   -0.04735  -0.02236   0.02312   0.06182   0.06750
 Alpha virt. eigenvalues --    0.08120   0.10377   0.11287   0.12507   0.13007
 Alpha virt. eigenvalues --    0.14203   0.14965   0.16359   0.16762   0.18347
 Alpha virt. eigenvalues --    0.19256   0.20719   0.22143   0.22846   0.23528
 Alpha virt. eigenvalues --    0.23811   0.24399   0.25162   0.26200   0.26840
 Alpha virt. eigenvalues --    0.27273   0.28465   0.28591   0.29425   0.30005
 Alpha virt. eigenvalues --    0.30552   0.31920   0.33852   0.34606   0.35383
 Alpha virt. eigenvalues --    0.35928   0.36556   0.37310   0.38204   0.38444
 Alpha virt. eigenvalues --    0.39627   0.40113   0.40737   0.41894   0.42013
 Alpha virt. eigenvalues --    0.42992   0.43217   0.44493   0.44757   0.47246
 Alpha virt. eigenvalues --    0.48203   0.49490   0.49726   0.51533   0.52536
 Alpha virt. eigenvalues --    0.53123   0.53778   0.54250   0.56021   0.56163
 Alpha virt. eigenvalues --    0.56788   0.58441   0.58939   0.59475   0.62069
 Alpha virt. eigenvalues --    0.62935   0.63850   0.64173   0.65364   0.66573
 Alpha virt. eigenvalues --    0.67072   0.68123   0.69433   0.70219   0.71455
 Alpha virt. eigenvalues --    0.71923   0.73240   0.74684   0.75411   0.77594
 Alpha virt. eigenvalues --    0.79255   0.80949   0.83256   0.85291   0.85432
 Alpha virt. eigenvalues --    0.87331   0.89499   0.89691   0.91616   0.93253
 Alpha virt. eigenvalues --    0.93805   0.96044   0.96287   0.97517   0.99168
 Alpha virt. eigenvalues --    1.01896   1.04050   1.04459   1.05883   1.09954
 Alpha virt. eigenvalues --    1.10219   1.11911   1.13347   1.14619   1.16294
 Alpha virt. eigenvalues --    1.19219   1.21977   1.22493   1.24135   1.25469
 Alpha virt. eigenvalues --    1.27080   1.31644   1.32287   1.33109   1.35262
 Alpha virt. eigenvalues --    1.38140   1.38832   1.39831   1.40526   1.41954
 Alpha virt. eigenvalues --    1.43819   1.45244   1.45847   1.49218   1.50708
 Alpha virt. eigenvalues --    1.50975   1.51680   1.53844   1.54529   1.55482
 Alpha virt. eigenvalues --    1.55874   1.56548   1.57014   1.57500   1.59445
 Alpha virt. eigenvalues --    1.60813   1.62171   1.62323   1.63465   1.64268
 Alpha virt. eigenvalues --    1.64857   1.65880   1.68557   1.70578   1.72067
 Alpha virt. eigenvalues --    1.72880   1.73619   1.74744   1.77644   1.78188
 Alpha virt. eigenvalues --    1.79048   1.80858   1.82155   1.84486   1.85366
 Alpha virt. eigenvalues --    1.86079   1.86419   1.88156   1.89026   1.90666
 Alpha virt. eigenvalues --    1.92222   1.93742   1.94911   1.96316   1.98368
 Alpha virt. eigenvalues --    1.98585   2.01480   2.02551   2.03531   2.04658
 Alpha virt. eigenvalues --    2.05398   2.06900   2.09802   2.10284   2.12241
 Alpha virt. eigenvalues --    2.13098   2.14933   2.15550   2.17920   2.18236
 Alpha virt. eigenvalues --    2.22427   2.23510   2.24372   2.26431   2.26774
 Alpha virt. eigenvalues --    2.28449   2.29210   2.29624   2.33276   2.33880
 Alpha virt. eigenvalues --    2.36070   2.37659   2.39223   2.40691   2.41377
 Alpha virt. eigenvalues --    2.43741   2.44675   2.45723   2.49183   2.53184
 Alpha virt. eigenvalues --    2.54555   2.54988   2.57269   2.58696   2.62889
 Alpha virt. eigenvalues --    2.64779   2.65789   2.68579   2.69706   2.71375
 Alpha virt. eigenvalues --    2.72644   2.74604   2.76916   2.78558   2.79569
 Alpha virt. eigenvalues --    2.80887   2.82809   2.83513   2.85445   2.86054
 Alpha virt. eigenvalues --    2.88452   2.90774   2.93960   2.95043   2.95495
 Alpha virt. eigenvalues --    2.96966   2.97881   3.01116   3.03271   3.05611
 Alpha virt. eigenvalues --    3.06015   3.07120   3.08805   3.09499   3.11723
 Alpha virt. eigenvalues --    3.13902   3.14898   3.17670   3.19185   3.19823
 Alpha virt. eigenvalues --    3.20951   3.22059   3.22803   3.23807   3.26166
 Alpha virt. eigenvalues --    3.27442   3.29609   3.30052   3.31022   3.31724
 Alpha virt. eigenvalues --    3.32978   3.34350   3.34950   3.35527   3.38583
 Alpha virt. eigenvalues --    3.39578   3.40263   3.42748   3.43156   3.45006
 Alpha virt. eigenvalues --    3.46191   3.47681   3.51032   3.51876   3.52126
 Alpha virt. eigenvalues --    3.54747   3.58567   3.59811   3.61070   3.62363
 Alpha virt. eigenvalues --    3.65890   3.69139   3.72272   3.76419   3.78008
 Alpha virt. eigenvalues --    3.80271   3.83716   3.86389   3.89332   3.93217
 Alpha virt. eigenvalues --    3.98809   4.02873   4.04741   4.05986   4.07069
 Alpha virt. eigenvalues --    4.09376   4.12470   4.13871   4.15230   4.17016
 Alpha virt. eigenvalues --    4.21124   4.21243   4.26981   4.27938   4.28823
 Alpha virt. eigenvalues --    4.32109   4.34942   4.36309   4.38389   4.39159
 Alpha virt. eigenvalues --    4.43124   4.46460   4.46665   4.52488   4.55901
 Alpha virt. eigenvalues --    4.63868   4.65457   4.70504   4.76052   4.82581
 Alpha virt. eigenvalues --    4.87401   4.88268   4.91598   4.98995   5.01836
 Alpha virt. eigenvalues --    5.08377   5.12808   5.17856   5.18517   5.21611
 Alpha virt. eigenvalues --    5.22706   5.28844   5.30114   5.34484   5.44834
 Alpha virt. eigenvalues --    5.48561   5.50522   5.59521   5.63981   5.65544
 Alpha virt. eigenvalues --    5.72195   5.84158   5.90965   5.96193   6.05354
 Alpha virt. eigenvalues --    6.13689   6.20297   6.35313   6.36475   6.53989
 Alpha virt. eigenvalues --    6.63436   6.67997   6.74836   6.85991   6.87642
 Alpha virt. eigenvalues --    7.01059   7.10439   7.26565   7.37836   7.85337
 Alpha virt. eigenvalues --   10.81141  10.90019  11.40829  22.41717  22.44316
 Alpha virt. eigenvalues --   22.78911  22.81376  22.92352  23.16066  23.46794
 Alpha virt. eigenvalues --   25.96505  32.57177  44.04112  44.24026
          Condensed to atoms (all electrons):
               1          2          3          4          5          6
     1  C    4.871079   0.200661  -0.048822   0.001695   0.005860  -0.001014
     2  O    0.200661   7.965887   0.382074  -0.079699  -0.094832   0.004607
     3  C   -0.048822   0.382074   4.513478   0.636933   0.285580  -0.047911
     4  O    0.001695  -0.079699   0.636933   7.885547  -0.132185   0.023941
     5  C    0.005860  -0.094832   0.285580  -0.132185   5.473890   0.295275
     6  C   -0.001014   0.004607  -0.047911   0.023941   0.295275   5.266585
     7  C   -0.000032   0.000030  -0.005961   0.003383  -0.015506   0.389987
     8  Br  -0.000003   0.000005  -0.001462   0.000021   0.016030  -0.109052
     9  C    0.000023   0.000201   0.005766   0.000054  -0.027738  -0.015225
    10  N    0.000039  -0.000288   0.002886  -0.000309  -0.044133  -0.062819
    11  C   -0.000927  -0.000356  -0.075031   0.000979   0.407461  -0.057420
    12  Cl   0.003224  -0.022696  -0.006780  -0.000284  -0.095070   0.006427
    13  H    0.420717  -0.034328  -0.007610   0.003105   0.001357  -0.000502
    14  H    0.395879  -0.029895   0.005055   0.001658   0.001807   0.000021
    15  H    0.418541  -0.029894  -0.008687   0.004074  -0.004743   0.000521
    16  H   -0.000126   0.000662  -0.004393   0.015367  -0.036211   0.416395
    17  H    0.000000  -0.000000   0.000244  -0.000002  -0.001743   0.009090
               7          8          9         10         11         12
     1  C   -0.000032  -0.000003   0.000023   0.000039  -0.000927   0.003224
     2  O    0.000030   0.000005   0.000201  -0.000288  -0.000356  -0.022696
     3  C   -0.005961  -0.001462   0.005766   0.002886  -0.075031  -0.006780
     4  O    0.003383   0.000021   0.000054  -0.000309   0.000979  -0.000284
     5  C   -0.015506   0.016030  -0.027738  -0.044133   0.407461  -0.095070
     6  C    0.389987  -0.109052  -0.015225  -0.062819  -0.057420   0.006427
     7  C    4.934738   0.380489   0.436924  -0.026893  -0.012258   0.002603
     8  Br   0.380489  34.854810  -0.076701   0.007619   0.003186   0.000032
     9  C    0.436924  -0.076701   4.897364   0.476172  -0.099678  -0.000305
    10  N   -0.026893   0.007619   0.476172   6.461432   0.519816  -0.094044
    11  C   -0.012258   0.003186  -0.099678   0.519816   4.770293   0.418013
    12  Cl   0.002603   0.000032  -0.000305  -0.094044   0.418013  16.829929
    13  H    0.000007  -0.000000  -0.000004   0.000001   0.000216  -0.000079
    14  H   -0.000005  -0.000000   0.000000   0.000002  -0.000130   0.000574
    15  H   -0.000001   0.000000   0.000006   0.000001  -0.000212  -0.000088
    16  H   -0.037733  -0.006201   0.007481  -0.001423   0.002991  -0.000109
    17  H   -0.068624  -0.001109   0.435500  -0.031891   0.005292  -0.000262
              13         14         15         16         17
     1  C    0.420717   0.395879   0.418541  -0.000126   0.000000
     2  O   -0.034328  -0.029895  -0.029894   0.000662  -0.000000
     3  C   -0.007610   0.005055  -0.008687  -0.004393   0.000244
     4  O    0.003105   0.001658   0.004074   0.015367  -0.000002
     5  C    0.001357   0.001807  -0.004743  -0.036211  -0.001743
     6  C   -0.000502   0.000021   0.000521   0.416395   0.009090
     7  C    0.000007  -0.000005  -0.000001  -0.037733  -0.068624
     8  Br  -0.000000  -0.000000   0.000000  -0.006201  -0.001109
     9  C   -0.000004   0.000000   0.000006   0.007481   0.435500
    10  N    0.000001   0.000002   0.000001  -0.001423  -0.031891
    11  C    0.000216  -0.000130  -0.000212   0.002991   0.005292
    12  Cl  -0.000079   0.000574  -0.000088  -0.000109  -0.000262
    13  H    0.514884  -0.022904  -0.039614  -0.000038  -0.000000
    14  H   -0.022904   0.509006  -0.022285   0.000003   0.000000
    15  H   -0.039614  -0.022285   0.518945   0.000010   0.000000
    16  H   -0.000038   0.000003   0.000010   0.430548   0.000011
    17  H   -0.000000   0.000000   0.000000   0.000011   0.464970
 Mulliken charges:
               1
     1  C   -0.266795
     2  O   -0.262141
     3  C    0.374641
     4  O   -0.364278
     5  C   -0.035099
     6  C   -0.118906
     7  C    0.018853
     8  Br  -0.067665
     9  C   -0.039839
    10  N   -0.206168
    11  C    0.117765
    12  Cl  -0.041086
    13  H    0.164792
    14  H    0.161211
    15  H    0.163426
    16  H    0.212766
    17  H    0.188524
 Sum of Mulliken charges =  -0.00000
 Mulliken charges with hydrogens summed into heavy atoms:
               1
     1  C    0.222633
     2  O   -0.262141
     3  C    0.374641
     4  O   -0.364278
     5  C   -0.035099
     6  C    0.093860
     7  C    0.018853
     8  Br  -0.067665
     9  C    0.148685
    10  N   -0.206168
    11  C    0.117765
    12  Cl  -0.041086
 Electronic spatial extent (au):  <R**2>=           3975.5262
 Charge=             -0.0000 electrons
 Dipole moment (field-independent basis, Debye):
    X=             -0.7587    Y=             -0.9443    Z=              0.6432  Tot=              1.3716
 Quadrupole moment (field-independent basis, Debye-Ang):
   XX=            -74.1363   YY=            -95.3276   ZZ=            -88.3578
   XY=              6.9193   XZ=             -1.1860   YZ=             -2.1854
 Traceless Quadrupole moment (field-independent basis, Debye-Ang):
   XX=             11.8043   YY=             -9.3870   ZZ=             -2.4172
   XY=              6.9193   XZ=             -1.1860   YZ=             -2.1854
 Octapole moment (field-independent basis, Debye-Ang**2):
  XXX=              8.7628  YYY=            -18.7164  ZZZ=              0.4651  XYY=             33.6372
  XXY=            -28.9119  XXZ=              4.8073  XZZ=             21.3281  YZZ=             -6.8946
  YYZ=              6.9864  XYZ=              5.3013
 Hexadecapole moment (field-independent basis, Debye-Ang**3):
 XXXX=          -2858.4498 YYYY=          -1234.1273 ZZZZ=           -114.5813 XXXY=             73.9553
 XXXZ=            -16.9236 YYYX=            -34.2771 YYYZ=            -16.2944 ZZZX=              3.9268
 ZZZY=              0.1193 XXYY=           -669.2863 XXZZ=           -567.5617 YYZZ=           -210.8479
 XXYZ=            -10.6318 YYXZ=            -10.9958 ZZXY=             -8.4840
 N-N= 1.032044147814D+03 E-N=-1.041957419011D+04  KE= 3.503191060079D+03
 Calculating spin-rotation constants.
 Leave Link  601 at Tue Sep 17 10:37:53 2024, MaxMem=  1342177280 cpu:               3.4 elap:               3.4
 (Enter /groups/ReismanLab/Software/Gaussian16_RevC/Linux_Binary_AVX2-enabled-CPU/g16/l9999.exe)
 Unable to Open any file for archive entry.
 1\1\GINC-HPC-53-27\SP\RM062X\def2TZVP\C7H5Br1Cl1N1O2\MANTIND\17-Sep-20
 24\0\\#p M062X/def2tzvp geom=check guess=read scf(xqc,tight) integral(
 grid=ultrafine) scrf(SMD, solvent=1,4-Dioxane) nmr=giao\\spe\\0,1\C,0,
 -4.2721074275,-1.8275634067,0.2941498555\O,0,-3.2408060436,-0.82415487
 58,0.3109929252\C,0,-2.0328088847,-1.2428575118,-0.0795346126\O,0,-1.7
 849051431,-2.3886392455,-0.4010764546\C,0,-0.9759660913,-0.178703439,-
 0.0431203252\C,0,0.3390461802,-0.6604395256,-0.0427117061\C,0,1.398648
 9667,0.2318125361,0.007723048\Br,0,3.195243997,-0.3841132445,0.0226645
 33\C,0,1.1270873431,1.5981822761,0.0485355779\N,0,-0.1191269018,2.0711
 692042,0.0220300419\C,0,-1.1356137111,1.2223958836,-0.0243848116\Cl,0,
 -2.7044267322,1.9940140597,-0.1129786521\H,0,-4.393081191,-2.231241654
 5,-0.7132053239\H,0,-5.1767336991,-1.3159452043,0.6184014969\H,0,-4.01
 99518196,-2.6425601398,0.9760248675\H,0,0.4950010426,-1.7313769237,-0.
 0834387889\H,0,1.9308701623,2.3267558442,0.098066009\\Version=ES64L-G1
 6RevC.02\State=1-A\HF=-3509.3520284\RMSD=3.992e-09\Dipole=-0.2870881,-
 0.3775625,0.2573094\Quadrupole=8.4785822,-6.7144971,-1.7640851,5.54639
 49,-0.9306349,-1.6403135\PG=C01 [X(C7H5Br1Cl1N1O2)]\\@
 The archive entry for this job was punched.


 MY GROUP MEETINGS AREN'T VERY STRUCTURED.
     -- PROF. M. S. GORDON, OCT. 5, 1984
 Job cpu time:       0 days  0 hours 13 minutes 16.5 seconds.
 Elapsed time:       0 days  0 hours 13 minutes 19.9 seconds.
 File lengths (MBytes):  RWF=    280 Int=      0 D2E=      0 Chk=     32 Scr=     16
 Normal termination of Gaussian 16 at Tue Sep 17 10:37:53 2024.
