 Entering Gaussian System, Link 0=g16
 Input=smiles_00098_conf_3.gjf
 Output=smiles_00098_conf_3.log
 Initial command:
 /groups/ReismanLab/Software/Gaussian16_RevC/Linux_Binary_AVX2-enabled-CPU/g16/l1.exe "/central/groups/ReismanLab/DM/dft_final/smiles_00098/Gau-3081427.inp" -scrdir="/central/groups/ReismanLab/DM/dft_final/smiles_00098/"
 Entering Link 1 = /groups/ReismanLab/Software/Gaussian16_RevC/Linux_Binary_AVX2-enabled-CPU/g16/l1.exe PID=   3081428.
  
 Copyright (c) 1988-2021, Gaussian, Inc.  All Rights Reserved.
  
 This is part of the Gaussian(R) 16 program.  It is based on
 the Gaussian(R) 09 system (copyright 2009, Gaussian, Inc.),
 the Gaussian(R) 03 system (copyright 2003, Gaussian, Inc.),
 the Gaussian(R) 98 system (copyright 1998, Gaussian, Inc.),
 the Gaussian(R) 94 system (copyright 1995, Gaussian, Inc.),
 the Gaussian 92(TM) system (copyright 1992, Gaussian, Inc.),
 the Gaussian 90(TM) system (copyright 1990, Gaussian, Inc.),
 the Gaussian 88(TM) system (copyright 1988, Gaussian, Inc.),
 the Gaussian 86(TM) system (copyright 1986, Carnegie Mellon
 University), and the Gaussian 82(TM) system (copyright 1983,
 Carnegie Mellon University). Gaussian is a federally registered
 trademark of Gaussian, Inc.
  
 This software contains proprietary and confidential information,
 including trade secrets, belonging to Gaussian, Inc.
  
 This software is provided under written license and may be
 used, copied, transmitted, or stored only in accord with that
 written license.
  
 The following legend is applicable only to US Government
 contracts under FAR:
  
                    RESTRICTED RIGHTS LEGEND
  
 Use, reproduction and disclosure by the US Government is
 subject to restrictions as set forth in subparagraphs (a)
 and (c) of the Commercial Computer Software - Restricted
 Rights clause in FAR 52.227-19.
  
 Gaussian, Inc.
 340 Quinnipiac St., Bldg. 40, Wallingford CT 06492
  
  
 ---------------------------------------------------------------
 Warning -- This program may not be used in any manner that
 competes with the business of Gaussian, Inc. or will provide
 assistance to any competitor of Gaussian, Inc.  The licensee
 of this program is prohibited from giving any competitor of
 Gaussian, Inc. access to this program.  By using this program,
 the user acknowledges that Gaussian, Inc. is engaged in the
 business of creating and licensing software in the field of
 computational chemistry and represents and warrants to the
 licensee that it is not a competitor of Gaussian, Inc. and that
 it will not use this program in any manner prohibited above.
 ---------------------------------------------------------------
  

 Cite this work as:
 Gaussian 16, Revision C.02,
 M. J. Frisch, G. W. Trucks, H. B. Schlegel, G. E. Scuseria, 
 M. A. Robb, J. R. Cheeseman, G. Scalmani, V. Barone, 
 G. A. Petersson, H. Nakatsuji, X. Li, M. Caricato, A. V. Marenich, 
 J. Bloino, B. G. Janesko, R. Gomperts, B. Mennucci, H. P. Hratchian, 
 J. V. Ortiz, A. F. Izmaylov, J. L. Sonnenberg, D. Williams-Young, 
 F. Ding, F. Lipparini, F. Egidi, J. Goings, B. Peng, A. Petrone, 
 T. Henderson, D. Ranasinghe, V. G. Zakrzewski, J. Gao, N. Rega, 
 G. Zheng, W. Liang, M. Hada, M. Ehara, K. Toyota, R. Fukuda, 
 J. Hasegawa, M. Ishida, T. Nakajima, Y. Honda, O. Kitao, H. Nakai, 
 T. Vreven, K. Throssell, J. A. Montgomery, Jr., J. E. Peralta, 
 F. Ogliaro, M. J. Bearpark, J. J. Heyd, E. N. Brothers, K. N. Kudin, 
 V. N. Staroverov, T. A. Keith, R. Kobayashi, J. Normand, 
 K. Raghavachari, A. P. Rendell, J. C. Burant, S. S. Iyengar, 
 J. Tomasi, M. Cossi, J. M. Millam, M. Klene, C. Adamo, R. Cammi, 
 J. W. Ochterski, R. L. Martin, K. Morokuma, O. Farkas, 
 J. B. Foresman, and D. J. Fox, Gaussian, Inc., Wallingford CT, 2019.
 
 ******************************************
 Gaussian 16:  ES64L-G16RevC.02  7-Dec-2021
                17-Sep-2024 
 ******************************************
 %nprocshared=8
 Will use up to    8 processors via shared memory.
 %Mem=10GB
 %Chk=smiles_00098_conf_3.chk
 ----------------------------------------------------------------------
 #p B3LYP/6-31G(d,p) EmpiricalDispersion=GD3BJ opt freq scf(xqc,tight) 
 integral(grid=ultrafine)
 ----------------------------------------------------------------------
 1/18=20,19=15,26=4,38=1/1,3;
 2/9=110,12=2,17=6,18=5,40=1/2;
 3/5=1,6=6,7=101,11=2,25=1,30=1,71=1,74=-5,75=-5,124=41/1,2,3;
 4//1;
 5/5=2,8=3,13=1,32=2,38=5/2,8;
 6/7=2,8=2,9=2,10=2,28=1/1;
 7//1,2,3,16;
 1/18=20,19=15,26=4/3(2);
 2/9=110/2;
 99//99;
 2/9=110/2;
 3/5=1,6=6,7=101,11=2,25=1,30=1,71=1,74=-5,75=-5,124=41/1,2,3;
 4/5=5,16=3,69=1/1;
 5/5=2,8=3,13=1,32=2,38=5/2,8;
 7//1,2,3,16;
 1/18=20,19=15,26=4/3(-5);
 2/9=110/2;
 6/7=2,8=2,9=2,10=2,19=2,28=1/1;
 99/9=1/99;
 Leave Link    1 at Tue Sep 17 09:44:04 2024, MaxMem=  1342177280 cpu:               0.1 elap:               0.7
 (Enter /groups/ReismanLab/Software/Gaussian16_RevC/Linux_Binary_AVX2-enabled-CPU/g16/l101.exe)
 ----------------------------------
 opt-freq conformers_unique/conf_ad
 ----------------------------------
 Symbolic Z-matrix:
 Charge =  0 Multiplicity = 1
 C                     2.82191   2.05306   0.99174 
 O                     1.47876   1.58945   1.06038 
 C                     0.85685   1.40854  -0.10513 
 O                     1.33884   1.63364  -1.18162 
 C                    -0.53908   0.9036    0.1105 
 C                    -1.56619   1.78641   0.41619 
 C                    -2.86091   1.32224   0.57199 
 C                    -3.13779  -0.02712   0.42461 
 C                    -2.12296  -0.91931   0.12635 
 C                    -0.83089  -0.44655  -0.02938 
 Br                    0.57033  -1.6728   -0.4136 
 H                     3.47398   1.25533   0.63064 
 H                     3.09695   2.34037   2.00316 
 H                     2.89361   2.90425   0.31198 
 H                    -1.34317   2.83677   0.52638 
 H                    -3.65375   2.01494   0.8085 
 H                    -4.14674  -0.39099   0.54413 
 H                    -2.32665  -1.97309   0.01502 
 
 ITRead=  0  0  0  0  0  0  0  0  0  0  0  0  0  0  0  0  0  0
 MicOpt= -1 -1 -1 -1 -1 -1 -1 -1 -1 -1 -1 -1 -1 -1 -1 -1 -1 -1
 NAtoms=     18 NQM=       18 NQMF=       0 NMMI=      0 NMMIF=      0
                NMic=       0 NMicF=      0.
                    Isotopes and Nuclear Properties:
 (Nuclear quadrupole moments (NQMom) in fm**2, nuclear magnetic moments (NMagM)
  in nuclear magnetons)

  Atom         1           2           3           4           5           6           7           8           9          10
 IAtWgt=          12          16          12          16          12          12          12          12          12          12
 AtmWgt=  12.0000000  15.9949146  12.0000000  15.9949146  12.0000000  12.0000000  12.0000000  12.0000000  12.0000000  12.0000000
 NucSpn=           0           0           0           0           0           0           0           0           0           0
 AtZEff=  -0.0000000  -0.0000000  -0.0000000  -0.0000000  -0.0000000  -0.0000000  -0.0000000  -0.0000000  -0.0000000  -0.0000000
 NQMom=    0.0000000   0.0000000   0.0000000   0.0000000   0.0000000   0.0000000   0.0000000   0.0000000   0.0000000   0.0000000
 NMagM=    0.0000000   0.0000000   0.0000000   0.0000000   0.0000000   0.0000000   0.0000000   0.0000000   0.0000000   0.0000000
 AtZNuc=   6.0000000   8.0000000   6.0000000   8.0000000   6.0000000   6.0000000   6.0000000   6.0000000   6.0000000   6.0000000

  Atom        11          12          13          14          15          16          17          18
 IAtWgt=          79           1           1           1           1           1           1           1
 AtmWgt=  78.9183361   1.0078250   1.0078250   1.0078250   1.0078250   1.0078250   1.0078250   1.0078250
 NucSpn=           3           1           1           1           1           1           1           1
 AtZEff=  -0.0000000  -0.0000000  -0.0000000  -0.0000000  -0.0000000  -0.0000000  -0.0000000  -0.0000000
 NQMom=   31.3000000   0.0000000   0.0000000   0.0000000   0.0000000   0.0000000   0.0000000   0.0000000
 NMagM=    2.1063990   2.7928460   2.7928460   2.7928460   2.7928460   2.7928460   2.7928460   2.7928460
 AtZNuc=  35.0000000   1.0000000   1.0000000   1.0000000   1.0000000   1.0000000   1.0000000   1.0000000
 Leave Link  101 at Tue Sep 17 09:44:05 2024, MaxMem=  1342177280 cpu:               0.2 elap:               0.2
 (Enter /groups/ReismanLab/Software/Gaussian16_RevC/Linux_Binary_AVX2-enabled-CPU/g16/l103.exe)

 GradGradGradGradGradGradGradGradGradGradGradGradGradGradGradGradGradGrad
 Berny optimization.
 Initialization pass.
                           ----------------------------
                           !    Initial Parameters    !
                           ! (Angstroms and Degrees)  !
 --------------------------                            --------------------------
 ! Name  Definition              Value          Derivative Info.                !
 --------------------------------------------------------------------------------
 ! R1    R(1,2)                  1.4226         estimate D2E/DX2                !
 ! R2    R(1,12)                 1.0918         estimate D2E/DX2                !
 ! R3    R(1,13)                 1.0868         estimate D2E/DX2                !
 ! R4    R(1,14)                 1.0917         estimate D2E/DX2                !
 ! R5    R(2,3)                  1.3334         estimate D2E/DX2                !
 ! R6    R(3,4)                  1.2008         estimate D2E/DX2                !
 ! R7    R(3,5)                  1.5            estimate D2E/DX2                !
 ! R8    R(5,6)                  1.3884         estimate D2E/DX2                !
 ! R9    R(5,10)                 1.3884         estimate D2E/DX2                !
 ! R10   R(6,7)                  1.3842         estimate D2E/DX2                !
 ! R11   R(6,15)                 1.0794         estimate D2E/DX2                !
 ! R12   R(7,8)                  1.3853         estimate D2E/DX2                !
 ! R13   R(7,16)                 1.0791         estimate D2E/DX2                !
 ! R14   R(8,9)                  1.3838         estimate D2E/DX2                !
 ! R15   R(8,17)                 1.0792         estimate D2E/DX2                !
 ! R16   R(9,10)                 1.3846         estimate D2E/DX2                !
 ! R17   R(9,18)                 1.079          estimate D2E/DX2                !
 ! R18   R(10,11)                1.9013         estimate D2E/DX2                !
 ! A1    A(2,1,12)             109.9841         estimate D2E/DX2                !
 ! A2    A(2,1,13)             106.2716         estimate D2E/DX2                !
 ! A3    A(2,1,14)             110.2527         estimate D2E/DX2                !
 ! A4    A(12,1,13)            110.476          estimate D2E/DX2                !
 ! A5    A(12,1,14)            108.9381         estimate D2E/DX2                !
 ! A6    A(13,1,14)            110.8994         estimate D2E/DX2                !
 ! A7    A(1,2,3)              116.2584         estimate D2E/DX2                !
 ! A8    A(2,3,4)              124.8186         estimate D2E/DX2                !
 ! A9    A(2,3,5)              110.7364         estimate D2E/DX2                !
 ! A10   A(4,3,5)              124.439          estimate D2E/DX2                !
 ! A11   A(3,5,6)              120.4008         estimate D2E/DX2                !
 ! A12   A(3,5,10)             120.5616         estimate D2E/DX2                !
 ! A13   A(6,5,10)             119.013          estimate D2E/DX2                !
 ! A14   A(5,6,7)              120.2326         estimate D2E/DX2                !
 ! A15   A(5,6,15)             119.2314         estimate D2E/DX2                !
 ! A16   A(7,6,15)             120.5355         estimate D2E/DX2                !
 ! A17   A(6,7,8)              120.1051         estimate D2E/DX2                !
 ! A18   A(6,7,16)             119.7794         estimate D2E/DX2                !
 ! A19   A(8,7,16)             120.1155         estimate D2E/DX2                !
 ! A20   A(7,8,9)              120.2891         estimate D2E/DX2                !
 ! A21   A(7,8,17)             120.2307         estimate D2E/DX2                !
 ! A22   A(9,8,17)             119.48           estimate D2E/DX2                !
 ! A23   A(8,9,10)             119.2389         estimate D2E/DX2                !
 ! A24   A(8,9,18)             120.8944         estimate D2E/DX2                !
 ! A25   A(10,9,18)            119.8668         estimate D2E/DX2                !
 ! A26   A(5,10,9)             121.1201         estimate D2E/DX2                !
 ! A27   A(5,10,11)            119.5157         estimate D2E/DX2                !
 ! A28   A(9,10,11)            119.3567         estimate D2E/DX2                !
 ! D1    D(12,1,2,3)           -71.9701         estimate D2E/DX2                !
 ! D2    D(13,1,2,3)           168.4324         estimate D2E/DX2                !
 ! D3    D(14,1,2,3)            48.1807         estimate D2E/DX2                !
 ! D4    D(1,2,3,4)             -1.5979         estimate D2E/DX2                !
 ! D5    D(1,2,3,5)            179.2646         estimate D2E/DX2                !
 ! D6    D(2,3,5,6)             81.9574         estimate D2E/DX2                !
 ! D7    D(2,3,5,10)           -99.8675         estimate D2E/DX2                !
 ! D8    D(4,3,5,6)            -97.184          estimate D2E/DX2                !
 ! D9    D(4,3,5,10)            80.9911         estimate D2E/DX2                !
 ! D10   D(3,5,6,7)            177.9129         estimate D2E/DX2                !
 ! D11   D(3,5,6,15)            -1.8363         estimate D2E/DX2                !
 ! D12   D(10,5,6,7)            -0.2902         estimate D2E/DX2                !
 ! D13   D(10,5,6,15)          179.9606         estimate D2E/DX2                !
 ! D14   D(3,5,10,9)          -177.9836         estimate D2E/DX2                !
 ! D15   D(3,5,10,11)            3.0135         estimate D2E/DX2                !
 ! D16   D(6,5,10,9)             0.2165         estimate D2E/DX2                !
 ! D17   D(6,5,10,11)         -178.7864         estimate D2E/DX2                !
 ! D18   D(5,6,7,8)              0.0588         estimate D2E/DX2                !
 ! D19   D(5,6,7,16)          -179.9346         estimate D2E/DX2                !
 ! D20   D(15,6,7,8)           179.8047         estimate D2E/DX2                !
 ! D21   D(15,6,7,16)           -0.1887         estimate D2E/DX2                !
 ! D22   D(6,7,8,9)              0.2535         estimate D2E/DX2                !
 ! D23   D(6,7,8,17)          -179.9053         estimate D2E/DX2                !
 ! D24   D(16,7,8,9)          -179.7532         estimate D2E/DX2                !
 ! D25   D(16,7,8,17)            0.0881         estimate D2E/DX2                !
 ! D26   D(7,8,9,10)            -0.3259         estimate D2E/DX2                !
 ! D27   D(7,8,9,18)           179.6457         estimate D2E/DX2                !
 ! D28   D(17,8,9,10)          179.8317         estimate D2E/DX2                !
 ! D29   D(17,8,9,18)           -0.1968         estimate D2E/DX2                !
 ! D30   D(8,9,10,5)             0.0901         estimate D2E/DX2                !
 ! D31   D(8,9,10,11)          179.0946         estimate D2E/DX2                !
 ! D32   D(18,9,10,5)         -179.8818         estimate D2E/DX2                !
 ! D33   D(18,9,10,11)          -0.8773         estimate D2E/DX2                !
 --------------------------------------------------------------------------------
 Trust Radius=3.00D-01 FncErr=1.00D-07 GrdErr=1.00D-06 EigMax=2.50D+02 EigMin=1.00D-04
 Number of steps in this run=     89 maximum allowed number of steps=    108.
 GradGradGradGradGradGradGradGradGradGradGradGradGradGradGradGradGradGrad

 Leave Link  103 at Tue Sep 17 09:44:05 2024, MaxMem=  1342177280 cpu:               0.1 elap:               0.0
 (Enter /groups/ReismanLab/Software/Gaussian16_RevC/Linux_Binary_AVX2-enabled-CPU/g16/l202.exe)
                          Input orientation:                          
 ---------------------------------------------------------------------
 Center     Atomic      Atomic             Coordinates (Angstroms)
 Number     Number       Type             X           Y           Z
 ---------------------------------------------------------------------
      1          6           0        2.821908    2.053056    0.991738
      2          8           0        1.478765    1.589451    1.060377
      3          6           0        0.856850    1.408542   -0.105133
      4          8           0        1.338840    1.633640   -1.181619
      5          6           0       -0.539077    0.903604    0.110496
      6          6           0       -1.566192    1.786406    0.416192
      7          6           0       -2.860913    1.322243    0.571993
      8          6           0       -3.137789   -0.027119    0.424609
      9          6           0       -2.122963   -0.919308    0.126352
     10          6           0       -0.830894   -0.446546   -0.029381
     11         35           0        0.570330   -1.672802   -0.413599
     12          1           0        3.473983    1.255332    0.630645
     13          1           0        3.096946    2.340374    2.003163
     14          1           0        2.893606    2.904246    0.311984
     15          1           0       -1.343166    2.836774    0.526379
     16          1           0       -3.653752    2.014937    0.808504
     17          1           0       -4.146737   -0.390989    0.544130
     18          1           0       -2.326651   -1.973087    0.015016
 ---------------------------------------------------------------------
                    Distance matrix (angstroms):
                    1          2          3          4          5
     1  C    0.000000
     2  O    1.422559   0.000000
     3  C    2.340935   1.333387   0.000000
     4  O    2.664372   2.246793   1.200752   0.000000
     5  C    3.659788   2.333312   1.500024   2.393551   0.000000
     6  C    4.433709   3.118578   2.507128   3.318968   1.388436
     7  C    5.744974   4.375240   3.779908   4.561803   2.403988
     8  C    6.337725   4.932552   4.277720   5.037687   2.778168
     9  C    5.834003   4.487618   3.788371   4.495821   2.414944
    10  C    4.542429   3.266096   2.509098   3.219094   1.388390
    11  Br   4.574559   3.693258   3.109972   3.480376   2.853651
    12  H    1.091766   2.068140   2.722908   2.825996   4.061886
    13  H    1.086820   2.017732   3.214227   3.705839   4.343634
    14  H    1.091664   2.071366   2.561151   2.502517   3.978251
    15  H    4.263639   3.131176   2.697911   3.399698   2.134634
    16  H    6.478365   5.156279   4.641980   5.388131   3.379863
    17  H    7.398360   5.986228   5.356840   6.096629   3.857359
    18  H    6.608439   5.316544   4.645915   5.279794   3.388198
                    6          7          8          9         10
     6  C    0.000000
     7  C    1.384205   0.000000
     8  C    2.399763   1.385337   0.000000
     9  C    2.777569   2.401607   1.383774   0.000000
    10  C    2.392754   2.758847   2.388261   1.384629   0.000000
    11  Br   4.149626   4.659947   4.142585   2.848355   1.901251
    12  H    5.072612   6.335521   6.738150   6.025709   4.675895
    13  H    4.956835   6.211354   6.853377   6.433925   5.227436
    14  H    4.598937   5.973678   6.706960   6.310308   5.021578
    15  H    1.079423   2.144630   3.381258   3.856975   3.369196
    16  H    2.136362   1.079054   2.140930   3.379118   3.837900
    17  H    3.378851   2.142261   1.079195   2.132914   3.365533
    18  H    3.856557   3.384502   2.147674   1.079043   2.137659
                   11         12         13         14         15
    11  Br   0.000000
    12  H    4.253894   0.000000
    13  H    5.322603   1.789771   0.000000
    14  H    5.183961   1.776880   1.794264   0.000000
    15  H    4.988116   5.071170   4.705518   4.242730   0.000000
    16  H    5.738974   7.170303   6.863312   6.626108   2.468566
    17  H    4.981065   7.797002   7.877821   7.776818   4.275369
    18  H    2.943871   6.667011   7.209304   7.150360   4.935939
                   16         17         18
    16  H    0.000000
    17  H    2.470102   0.000000
    18  H    4.277283   2.468949   0.000000
 Stoichiometry    C8H7BrO2
 Framework group  C1[X(C8H7BrO2)]
 Deg. of freedom    48
 Full point group                 C1      NOp   1
 Largest Abelian subgroup         C1      NOp   1
 Largest concise Abelian subgroup C1      NOp   1
                         Standard orientation:                         
 ---------------------------------------------------------------------
 Center     Atomic      Atomic             Coordinates (Angstroms)
 Number     Number       Type             X           Y           Z
 ---------------------------------------------------------------------
      1          6           0        3.398491   -0.909055   -0.654867
      2          8           0        1.981902   -1.006642   -0.741048
      3          6           0        1.305877   -0.789446    0.387551
      4          8           0        1.807455   -0.549985    1.451921
      5          6           0       -0.171095   -0.905415    0.152655
      6          6           0       -0.783910   -2.151155    0.134110
      7          6           0       -2.153448   -2.251648   -0.039933
      8          6           0       -2.919591   -1.108295   -0.197812
      9          6           0       -2.321478    0.139501   -0.187875
     10          6           0       -0.951175    0.231289   -0.011685
     11         35           0       -0.122461    1.942386   -0.023385
     12          1           0        3.694088    0.135343   -0.537350
     13          1           0        3.788690   -1.312186   -1.585677
     14          1           0        3.765227   -1.479478    0.200617
     15          1           0       -0.180704   -3.037281    0.260903
     16          1           0       -2.622256   -3.223465   -0.052110
     17          1           0       -3.987702   -1.184210   -0.332117
     18          1           0       -2.908071    1.036113   -0.315658
 ---------------------------------------------------------------------
 Rotational constants (GHZ):           0.9107334           0.7840291           0.4629922
 Leave Link  202 at Tue Sep 17 09:44:05 2024, MaxMem=  1342177280 cpu:               0.0 elap:               0.0
 (Enter /groups/ReismanLab/Software/Gaussian16_RevC/Linux_Binary_AVX2-enabled-CPU/g16/l301.exe)
 Standard basis: 6-31G(d,p) (6D, 7F)
 Ernie: Thresh=  0.10000D-02 Tol=  0.10000D-05 Strict=F.
 There are   215 symmetry adapted cartesian basis functions of A   symmetry.
 There are   215 symmetry adapted basis functions of A   symmetry.
   215 basis functions,   412 primitive gaussians,   215 cartesian basis functions
    53 alpha electrons       53 beta electrons
       nuclear repulsion energy       861.1391390568 Hartrees.
 IExCor=  402 DFT=T Ex+Corr=B3LYP ExCW=0 ScaHFX=  0.200000
 ScaDFX=  0.800000  0.720000  1.000000  0.810000 ScalE2=  1.000000  1.000000
 IRadAn=      5 IRanWt=     -1 IRanGd=            0 ICorTp=0 IEmpDi=141
 NAtoms=   18 NActive=   18 NUniq=   18 SFac= 1.00D+00 NAtFMM=   60 NAOKFM=F Big=F
 Integral buffers will be    131072 words long.
 Raffenetti 2 integral format.
 Two-electron integral symmetry is turned on.
 R6Disp:  Grimme-D3(BJ) Dispersion energy=       -0.0367740640 Hartrees.
 Nuclear repulsion after empirical dispersion term =      861.1023649928 Hartrees.
 Leave Link  301 at Tue Sep 17 09:44:05 2024, MaxMem=  1342177280 cpu:               0.1 elap:               0.1
 (Enter /groups/ReismanLab/Software/Gaussian16_RevC/Linux_Binary_AVX2-enabled-CPU/g16/l302.exe)
 NPDir=0 NMtPBC=     1 NCelOv=     1 NCel=       1 NClECP=     1 NCelD=      1
         NCelK=      1 NCelE2=     1 NClLst=     1 CellRange=     0.0.
 One-electron integrals computed using PRISM.
 One-electron integral symmetry used in STVInt
 NBasis=   215 RedAO= T EigKep=  3.94D-04  NBF=   215
 NBsUse=   215 1.00D-06 EigRej= -1.00D+00 NBFU=   215
 Precomputing XC quadrature grid using
 IXCGrd= 4 IRadAn=           5 IRanWt=          -1 IRanGd=           0 AccXCQ= 0.00D+00.
 Generated NRdTot=       0 NPtTot=           0 NUsed=           0 NTot=          32
 NSgBfM=   214   214   214   214   214 MxSgAt=    18 MxSgA2=    18.
 Leave Link  302 at Tue Sep 17 09:44:05 2024, MaxMem=  1342177280 cpu:               1.2 elap:               0.2
 (Enter /groups/ReismanLab/Software/Gaussian16_RevC/Linux_Binary_AVX2-enabled-CPU/g16/l303.exe)
 DipDrv:  MaxL=1.
 Leave Link  303 at Tue Sep 17 09:44:05 2024, MaxMem=  1342177280 cpu:               0.1 elap:               0.0
 (Enter /groups/ReismanLab/Software/Gaussian16_RevC/Linux_Binary_AVX2-enabled-CPU/g16/l401.exe)
 ExpMin= 1.43D-01 ExpMax= 5.74D+05 ExpMxC= 5.74D+03 IAcc=3 IRadAn=         5 AccDes= 0.00D+00
 Harris functional with IExCor=  402 and IRadAn=       5 diagonalized for initial guess.
 HarFok:  IExCor=  402 AccDes= 0.00D+00 IRadAn=         5 IDoV= 1 UseB2=F ITyADJ=14
 ICtDFT=  3500011 ScaDFX=  1.000000  1.000000  1.000000  1.000000
 FoFCou: FMM=F IPFlag=           0 FMFlag=      100000 FMFlg1=           0
         NFxFlg=           0 DoJE=T BraDBF=F KetDBF=T FulRan=T
         wScrn=  0.000000 ICntrl=       500 IOpCl=  0 I1Cent=   200000004 NGrid=           0
         NMat0=    1 NMatS0=      1 NMatT0=    0 NMatD0=    1 NMtDS0=    0 NMtDT0=    0
 Petite list used in FoFCou.
 Harris En= -3031.38923284215    
 JPrj=0 DoOrth=F DoCkMO=F.
 Leave Link  401 at Tue Sep 17 09:44:06 2024, MaxMem=  1342177280 cpu:               4.4 elap:               0.7
 (Enter /groups/ReismanLab/Software/Gaussian16_RevC/Linux_Binary_AVX2-enabled-CPU/g16/l502.exe)
 Integral symmetry usage will be decided dynamically.
 Closed shell SCF:
 Using DIIS extrapolation, IDIIS=  1040.
 NGot=  1342177280 LenX=  1342080394 LenY=  1342033728
 Requested convergence on RMS density matrix=1.00D-08 within  32 cycles.
 Requested convergence on MAX density matrix=1.00D-06.
 Requested convergence on             energy=1.00D-06.
 No special actions if energy rises.
 Fock matrices will be formed incrementally for  20 cycles.
 Integral accuracy reduced to 1.0D-05 until final iterations.

 Cycle   1  Pass 0  IDiag  1:
 FoFJK:  IHMeth= 1 ICntrl=       0 DoSepK=F KAlg= 0 I1Cent=           0 FoldK=F
 IRaf= 870000000 NMat=       1 IRICut=       1 DoRegI=T DoRafI=F ISym2E= 0 IDoP0=0 IntGTp=1.
 FoFCou: FMM=F IPFlag=           0 FMFlag=      100000 FMFlg1=           0
         NFxFlg=           0 DoJE=F BraDBF=F KetDBF=F FulRan=T
         wScrn=  0.000000 ICntrl=         0 IOpCl=  0 I1Cent=           0 NGrid=           0
         NMat0=    1 NMatS0=      1 NMatT0=    0 NMatD0=    1 NMtDS0=    0 NMtDT0=    0
 Symmetry not used in FoFCou.
 E= -3031.02288472748    
 DIIS: error= 1.94D-01 at cycle   1 NSaved=   1.
 NSaved= 1 IEnMin= 1 EnMin= -3031.02288472748     IErMin= 1 ErrMin= 1.94D-01
 ErrMax= 1.94D-01  0.00D+00 EMaxC= 1.00D-01 BMatC= 6.13D-01 BMatP= 6.13D-01
 IDIUse=3 WtCom= 0.00D+00 WtEn= 1.00D+00
 Coeff-Com:  0.100D+01
 Coeff-En:   0.100D+01
 Coeff:      0.100D+01
 Gap=     0.292 Goal=   None    Shift=    0.000
 GapD=    0.292 DampG=1.000 DampE=0.250 DampFc=0.2500 IDamp=-1.
 Damping current iteration by 2.50D-01
 RMSDP=5.50D-03 MaxDP=2.04D-01              OVMax= 2.56D-01

 Cycle   2  Pass 0  IDiag  1:
 RMSU=  1.34D-03    CP:  9.92D-01
 E= -3031.10788537792     Delta-E=       -0.085000650438 Rises=F Damp=T
 DIIS: error= 1.43D-01 at cycle   2 NSaved=   2.
 NSaved= 2 IEnMin= 2 EnMin= -3031.10788537792     IErMin= 2 ErrMin= 1.43D-01
 ErrMax= 1.43D-01  0.00D+00 EMaxC= 1.00D-01 BMatC= 2.49D-01 BMatP= 6.13D-01
 IDIUse=3 WtCom= 0.00D+00 WtEn= 1.00D+00
 Coeff-Com: -0.107D+01 0.207D+01
 Coeff-En:   0.000D+00 0.100D+01
 Coeff:      0.000D+00 0.100D+01
 Gap=     0.244 Goal=   None    Shift=    0.000
 RMSDP=2.66D-03 MaxDP=1.11D-01 DE=-8.50D-02 OVMax= 1.34D-01

 Cycle   3  Pass 0  IDiag  1:
 RMSU=  1.30D-03    CP:  9.70D-01  2.58D+00
 E= -3031.21775438906     Delta-E=       -0.109869011146 Rises=F Damp=F
 DIIS: error= 1.18D-02 at cycle   3 NSaved=   3.
 NSaved= 3 IEnMin= 3 EnMin= -3031.21775438906     IErMin= 3 ErrMin= 1.18D-02
 ErrMax= 1.18D-02  0.00D+00 EMaxC= 1.00D-01 BMatC= 5.19D-02 BMatP= 2.49D-01
 IDIUse=3 WtCom= 8.82D-01 WtEn= 1.18D-01
 Coeff-Com:  0.621D+00-0.654D+00 0.103D+01
 Coeff-En:   0.110D+00 0.000D+00 0.890D+00
 Coeff:      0.560D+00-0.577D+00 0.102D+01
 Gap=     0.235 Goal=   None    Shift=    0.000
 RMSDP=1.67D-03 MaxDP=4.42D-02 DE=-1.10D-01 OVMax= 6.53D-02

 Cycle   4  Pass 0  IDiag  1:
 RMSU=  1.26D-03    CP:  9.71D-01  1.78D+00  8.31D-01
 E= -3031.24028453851     Delta-E=       -0.022530149446 Rises=F Damp=F
 DIIS: error= 1.02D-02 at cycle   4 NSaved=   4.
 NSaved= 4 IEnMin= 4 EnMin= -3031.24028453851     IErMin= 4 ErrMin= 1.02D-02
 ErrMax= 1.02D-02  0.00D+00 EMaxC= 1.00D-01 BMatC= 2.76D-02 BMatP= 5.19D-02
 IDIUse=3 WtCom= 8.98D-01 WtEn= 1.02D-01
 Coeff-Com:  0.525D+00-0.673D+00 0.687D+00 0.461D+00
 Coeff-En:   0.000D+00 0.000D+00 0.323D+00 0.677D+00
 Coeff:      0.472D+00-0.605D+00 0.650D+00 0.483D+00
 Gap=     0.233 Goal=   None    Shift=    0.000
 RMSDP=8.62D-04 MaxDP=3.03D-02 DE=-2.25D-02 OVMax= 5.03D-02

 Cycle   5  Pass 0  IDiag  1:
 RMSU=  2.11D-04    CP:  9.71D-01  1.91D+00  1.02D+00  3.81D-01
 E= -3031.26499019446     Delta-E=       -0.024705655947 Rises=F Damp=F
 DIIS: error= 2.14D-03 at cycle   5 NSaved=   5.
 NSaved= 5 IEnMin= 5 EnMin= -3031.26499019446     IErMin= 5 ErrMin= 2.14D-03
 ErrMax= 2.14D-03  0.00D+00 EMaxC= 1.00D-01 BMatC= 9.74D-04 BMatP= 2.76D-02
 IDIUse=3 WtCom= 9.79D-01 WtEn= 2.14D-02
 Coeff-Com:  0.198D+00-0.256D+00 0.278D+00 0.252D+00 0.528D+00
 Coeff-En:   0.000D+00 0.000D+00 0.000D+00 0.000D+00 0.100D+01
 Coeff:      0.194D+00-0.251D+00 0.272D+00 0.247D+00 0.538D+00
 Gap=     0.227 Goal=   None    Shift=    0.000
 RMSDP=1.38D-04 MaxDP=5.98D-03 DE=-2.47D-02 OVMax= 9.82D-03

 Cycle   6  Pass 0  IDiag  1:
 RMSU=  6.45D-05    CP:  9.70D-01  1.93D+00  1.01D+00  4.38D-01  5.59D-01
 E= -3031.26571855682     Delta-E=       -0.000728362363 Rises=F Damp=F
 DIIS: error= 5.31D-04 at cycle   6 NSaved=   6.
 NSaved= 6 IEnMin= 6 EnMin= -3031.26571855682     IErMin= 6 ErrMin= 5.31D-04
 ErrMax= 5.31D-04  0.00D+00 EMaxC= 1.00D-01 BMatC= 6.28D-05 BMatP= 9.74D-04
 IDIUse=3 WtCom= 9.95D-01 WtEn= 5.31D-03
 Coeff-Com:  0.615D-01-0.802D-01 0.840D-01 0.833D-01 0.281D+00 0.571D+00
 Coeff-En:   0.000D+00 0.000D+00 0.000D+00 0.000D+00 0.000D+00 0.100D+01
 Coeff:      0.612D-01-0.798D-01 0.835D-01 0.829D-01 0.279D+00 0.573D+00
 Gap=     0.226 Goal=   None    Shift=    0.000
 RMSDP=4.01D-05 MaxDP=1.44D-03 DE=-7.28D-04 OVMax= 2.55D-03

 Cycle   7  Pass 0  IDiag  1:
 RMSU=  2.18D-05    CP:  9.70D-01  1.92D+00  1.02D+00  4.45D-01  5.80D-01
                    CP:  5.57D-01
 E= -3031.26576727234     Delta-E=       -0.000048715520 Rises=F Damp=F
 DIIS: error= 1.12D-04 at cycle   7 NSaved=   7.
 NSaved= 7 IEnMin= 7 EnMin= -3031.26576727234     IErMin= 7 ErrMin= 1.12D-04
 ErrMax= 1.12D-04  0.00D+00 EMaxC= 1.00D-01 BMatC= 4.71D-06 BMatP= 6.28D-05
 IDIUse=3 WtCom= 9.99D-01 WtEn= 1.12D-03
 Coeff-Com:  0.184D-01-0.244D-01 0.228D-01 0.228D-01 0.999D-01 0.291D+00
 Coeff-Com:  0.569D+00
 Coeff-En:   0.000D+00 0.000D+00 0.000D+00 0.000D+00 0.000D+00 0.000D+00
 Coeff-En:   0.100D+01
 Coeff:      0.184D-01-0.243D-01 0.228D-01 0.227D-01 0.998D-01 0.291D+00
 Coeff:      0.570D+00
 Gap=     0.226 Goal=   None    Shift=    0.000
 RMSDP=1.31D-05 MaxDP=3.95D-04 DE=-4.87D-05 OVMax= 8.89D-04

 Cycle   8  Pass 0  IDiag  1:
 RMSU=  6.78D-06    CP:  9.70D-01  1.92D+00  1.02D+00  4.41D-01  5.92D-01
                    CP:  6.19D-01  5.82D-01
 E= -3031.26577122855     Delta-E=       -0.000003956215 Rises=F Damp=F
 DIIS: error= 5.44D-05 at cycle   8 NSaved=   8.
 NSaved= 8 IEnMin= 8 EnMin= -3031.26577122855     IErMin= 8 ErrMin= 5.44D-05
 ErrMax= 5.44D-05  0.00D+00 EMaxC= 1.00D-01 BMatC= 5.22D-07 BMatP= 4.71D-06
 IDIUse=1 WtCom= 1.00D+00 WtEn= 0.00D+00
 Coeff-Com:  0.484D-02-0.648D-02 0.503D-02 0.475D-02 0.294D-01 0.108D+00
 Coeff-Com:  0.313D+00 0.541D+00
 Coeff:      0.484D-02-0.648D-02 0.503D-02 0.475D-02 0.294D-01 0.108D+00
 Coeff:      0.313D+00 0.541D+00
 Gap=     0.226 Goal=   None    Shift=    0.000
 RMSDP=4.36D-06 MaxDP=1.46D-04 DE=-3.96D-06 OVMax= 3.30D-04

 Initial convergence to 1.0D-05 achieved.  Increase integral accuracy.
 Cycle   9  Pass 1  IDiag  1:
 E= -3031.26573919643     Delta-E=        0.000032032125 Rises=F Damp=F
 DIIS: error= 3.80D-05 at cycle   1 NSaved=   1.
 NSaved= 1 IEnMin= 1 EnMin= -3031.26573919643     IErMin= 1 ErrMin= 3.80D-05
 ErrMax= 3.80D-05  0.00D+00 EMaxC= 1.00D-01 BMatC= 2.12D-07 BMatP= 2.12D-07
 IDIUse=1 WtCom= 1.00D+00 WtEn= 0.00D+00
 Coeff-Com:  0.100D+01
 Coeff:      0.100D+01
 Gap=     0.226 Goal=   None    Shift=    0.000
 RMSDP=4.36D-06 MaxDP=1.46D-04 DE= 3.20D-05 OVMax= 2.64D-04

 Cycle  10  Pass 1  IDiag  1:
 RMSU=  1.28D-05    CP:  1.00D+00
 E= -3031.26573912628     Delta-E=        0.000000070148 Rises=F Damp=F
 DIIS: error= 3.81D-05 at cycle   2 NSaved=   2.
 NSaved= 2 IEnMin= 1 EnMin= -3031.26573919643     IErMin= 1 ErrMin= 3.80D-05
 ErrMax= 3.81D-05  0.00D+00 EMaxC= 1.00D-01 BMatC= 1.96D-07 BMatP= 2.12D-07
 IDIUse=1 WtCom= 1.00D+00 WtEn= 0.00D+00
 Coeff-Com:  0.488D+00 0.512D+00
 Coeff:      0.488D+00 0.512D+00
 Gap=     0.226 Goal=   None    Shift=    0.000
 RMSDP=3.43D-06 MaxDP=1.15D-04 DE= 7.01D-08 OVMax= 2.64D-04

 Cycle  11  Pass 1  IDiag  1:
 RMSU=  3.31D-06    CP:  1.00D+00  9.32D-01
 E= -3031.26573929322     Delta-E=       -0.000000166941 Rises=F Damp=F
 DIIS: error= 1.96D-05 at cycle   3 NSaved=   3.
 NSaved= 3 IEnMin= 3 EnMin= -3031.26573929322     IErMin= 3 ErrMin= 1.96D-05
 ErrMax= 1.96D-05  0.00D+00 EMaxC= 1.00D-01 BMatC= 5.17D-08 BMatP= 1.96D-07
 IDIUse=1 WtCom= 1.00D+00 WtEn= 0.00D+00
 Coeff-Com:  0.277D-01 0.336D+00 0.636D+00
 Coeff:      0.277D-01 0.336D+00 0.636D+00
 Gap=     0.226 Goal=   None    Shift=    0.000
 RMSDP=1.26D-06 MaxDP=3.69D-05 DE=-1.67D-07 OVMax= 9.59D-05

 Cycle  12  Pass 1  IDiag  1:
 RMSU=  4.79D-07    CP:  1.00D+00  9.64D-01  6.73D-01
 E= -3031.26573934905     Delta-E=       -0.000000055827 Rises=F Damp=F
 DIIS: error= 2.89D-06 at cycle   4 NSaved=   4.
 NSaved= 4 IEnMin= 4 EnMin= -3031.26573934905     IErMin= 4 ErrMin= 2.89D-06
 ErrMax= 2.89D-06  0.00D+00 EMaxC= 1.00D-01 BMatC= 4.04D-09 BMatP= 5.17D-08
 IDIUse=1 WtCom= 1.00D+00 WtEn= 0.00D+00
 Coeff-Com: -0.942D-03 0.192D+00 0.395D+00 0.414D+00
 Coeff:     -0.942D-03 0.192D+00 0.395D+00 0.414D+00
 Gap=     0.226 Goal=   None    Shift=    0.000
 RMSDP=2.81D-07 MaxDP=1.37D-05 DE=-5.58D-08 OVMax= 1.35D-05

 Cycle  13  Pass 1  IDiag  1:
 RMSU=  1.22D-07    CP:  1.00D+00  9.65D-01  6.81D-01  4.74D-01
 E= -3031.26573935232     Delta-E=       -0.000000003271 Rises=F Damp=F
 DIIS: error= 9.29D-07 at cycle   5 NSaved=   5.
 NSaved= 5 IEnMin= 5 EnMin= -3031.26573935232     IErMin= 5 ErrMin= 9.29D-07
 ErrMax= 9.29D-07  0.00D+00 EMaxC= 1.00D-01 BMatC= 2.08D-10 BMatP= 4.04D-09
 IDIUse=1 WtCom= 1.00D+00 WtEn= 0.00D+00
 Coeff-Com: -0.188D-02 0.107D+00 0.223D+00 0.266D+00 0.406D+00
 Coeff:     -0.188D-02 0.107D+00 0.223D+00 0.266D+00 0.406D+00
 Gap=     0.226 Goal=   None    Shift=    0.000
 RMSDP=6.18D-08 MaxDP=2.94D-06 DE=-3.27D-09 OVMax= 4.07D-06

 Cycle  14  Pass 1  IDiag  1:
 RMSU=  4.26D-08    CP:  1.00D+00  9.65D-01  6.82D-01  4.73D-01  6.35D-01
 E= -3031.26573935248     Delta-E=       -0.000000000162 Rises=F Damp=F
 DIIS: error= 1.83D-07 at cycle   6 NSaved=   6.
 NSaved= 6 IEnMin= 6 EnMin= -3031.26573935248     IErMin= 6 ErrMin= 1.83D-07
 ErrMax= 1.83D-07  0.00D+00 EMaxC= 1.00D-01 BMatC= 9.25D-12 BMatP= 2.08D-10
 IDIUse=1 WtCom= 1.00D+00 WtEn= 0.00D+00
 Coeff-Com: -0.998D-03 0.468D-01 0.977D-01 0.123D+00 0.234D+00 0.500D+00
 Coeff:     -0.998D-03 0.468D-01 0.977D-01 0.123D+00 0.234D+00 0.500D+00
 Gap=     0.226 Goal=   None    Shift=    0.000
 RMSDP=1.43D-08 MaxDP=5.74D-07 DE=-1.62D-10 OVMax= 9.17D-07

 Cycle  15  Pass 1  IDiag  1:
 RMSU=  1.20D-08    CP:  1.00D+00  9.66D-01  6.81D-01  4.76D-01  6.54D-01
                    CP:  8.42D-01
 E= -3031.26573935248     Delta-E=        0.000000000001 Rises=F Damp=F
 DIIS: error= 4.93D-08 at cycle   7 NSaved=   7.
 NSaved= 7 IEnMin= 6 EnMin= -3031.26573935248     IErMin= 7 ErrMin= 4.93D-08
 ErrMax= 4.93D-08  0.00D+00 EMaxC= 1.00D-01 BMatC= 5.15D-13 BMatP= 9.25D-12
 IDIUse=1 WtCom= 1.00D+00 WtEn= 0.00D+00
 Coeff-Com: -0.222D-03 0.835D-02 0.173D-01 0.241D-01 0.581D-01 0.228D+00
 Coeff-Com:  0.665D+00
 Coeff:     -0.222D-03 0.835D-02 0.173D-01 0.241D-01 0.581D-01 0.228D+00
 Coeff:      0.665D+00
 Gap=     0.226 Goal=   None    Shift=    0.000
 RMSDP=4.01D-09 MaxDP=1.42D-07 DE= 1.36D-12 OVMax= 1.72D-07

 SCF Done:  E(RB3LYP) =  -3031.26573935     A.U. after   15 cycles
            NFock= 15  Conv=0.40D-08     -V/T= 2.0065
 KE= 3.011561904604D+03 PE=-8.926324354172D+03 EE= 2.022394345223D+03
 Leave Link  502 at Tue Sep 17 09:44:16 2024, MaxMem=  1342177280 cpu:              78.7 elap:              10.5
 (Enter /groups/ReismanLab/Software/Gaussian16_RevC/Linux_Binary_AVX2-enabled-CPU/g16/l508.exe)
 QCSCF skips out because SCF is already converged.
 Leave Link  508 at Tue Sep 17 09:44:16 2024, MaxMem=  1342177280 cpu:               0.1 elap:               0.0
 (Enter /groups/ReismanLab/Software/Gaussian16_RevC/Linux_Binary_AVX2-enabled-CPU/g16/l601.exe)
 Copying SCF densities to generalized density rwf, IOpCl= 0 IROHF=0.

 **********************************************************************

            Population analysis using the SCF Density.

 **********************************************************************

 Orbital symmetries:
       Occupied  (A) (A) (A) (A) (A) (A) (A) (A) (A) (A) (A) (A)
                 (A) (A) (A) (A) (A) (A) (A) (A) (A) (A) (A) (A)
                 (A) (A) (A) (A) (A) (A) (A) (A) (A) (A) (A) (A)
                 (A) (A) (A) (A) (A) (A) (A) (A) (A) (A) (A) (A)
                 (A) (A) (A) (A) (A)
       Virtual   (A) (A) (A) (A) (A) (A) (A) (A) (A) (A) (A) (A)
                 (A) (A) (A) (A) (A) (A) (A) (A) (A) (A) (A) (A)
                 (A) (A) (A) (A) (A) (A) (A) (A) (A) (A) (A) (A)
                 (A) (A) (A) (A) (A) (A) (A) (A) (A) (A) (A) (A)
                 (A) (A) (A) (A) (A) (A) (A) (A) (A) (A) (A) (A)
                 (A) (A) (A) (A) (A) (A) (A) (A) (A) (A) (A) (A)
                 (A) (A) (A) (A) (A) (A) (A) (A) (A) (A) (A) (A)
                 (A) (A) (A) (A) (A) (A) (A) (A) (A) (A) (A) (A)
                 (A) (A) (A) (A) (A) (A) (A) (A) (A) (A) (A) (A)
                 (A) (A) (A) (A) (A) (A) (A) (A) (A) (A) (A) (A)
                 (A) (A) (A) (A) (A) (A) (A) (A) (A) (A) (A) (A)
                 (A) (A) (A) (A) (A) (A) (A) (A) (A) (A) (A) (A)
                 (A) (A) (A) (A) (A) (A) (A) (A) (A) (A) (A) (A)
                 (A) (A) (A) (A) (A) (A)
 The electronic state is 1-A.
 Alpha  occ. eigenvalues -- -482.91426 -61.87575 -56.39699 -56.39284 -56.39268
 Alpha  occ. eigenvalues --  -19.19909 -19.14044 -10.32057 -10.25351 -10.24255
 Alpha  occ. eigenvalues --  -10.21822 -10.20881 -10.20762 -10.20556 -10.20315
 Alpha  occ. eigenvalues --   -8.58683  -6.54079  -6.52793  -6.52765  -2.65651
 Alpha  occ. eigenvalues --   -2.65283  -2.65262  -2.64236  -2.64235  -1.11575
 Alpha  occ. eigenvalues --   -1.02498  -0.88865  -0.80996  -0.78599  -0.74016
 Alpha  occ. eigenvalues --   -0.72506  -0.64068  -0.61630  -0.57465  -0.54102
 Alpha  occ. eigenvalues --   -0.49832  -0.49551  -0.47562  -0.46901  -0.45649
 Alpha  occ. eigenvalues --   -0.43033  -0.42392  -0.39740  -0.39303  -0.37965
 Alpha  occ. eigenvalues --   -0.36084  -0.35532  -0.31971  -0.30547  -0.28954
 Alpha  occ. eigenvalues --   -0.28576  -0.26332  -0.24697
 Alpha virt. eigenvalues --   -0.02117  -0.01771   0.00385   0.01315   0.09929
 Alpha virt. eigenvalues --    0.11253   0.12738   0.13822   0.15290   0.15545
 Alpha virt. eigenvalues --    0.16858   0.17280   0.17692   0.23216   0.24302
 Alpha virt. eigenvalues --    0.28237   0.29370   0.30768   0.33055   0.35133
 Alpha virt. eigenvalues --    0.35969   0.41517   0.43568   0.45469   0.46132
 Alpha virt. eigenvalues --    0.46771   0.48238   0.49977   0.51319   0.52095
 Alpha virt. eigenvalues --    0.52666   0.53434   0.55518   0.55967   0.56821
 Alpha virt. eigenvalues --    0.57651   0.59425   0.59895   0.61090   0.62451
 Alpha virt. eigenvalues --    0.63317   0.66005   0.67824   0.68949   0.72331
 Alpha virt. eigenvalues --    0.73874   0.75504   0.78534   0.80056   0.80961
 Alpha virt. eigenvalues --    0.81518   0.82841   0.83600   0.84100   0.86286
 Alpha virt. eigenvalues --    0.88227   0.89095   0.90894   0.94877   0.95394
 Alpha virt. eigenvalues --    0.97008   0.98224   1.00988   1.02148   1.07192
 Alpha virt. eigenvalues --    1.10020   1.10714   1.12576   1.17125   1.18735
 Alpha virt. eigenvalues --    1.22040   1.23141   1.27561   1.30913   1.33412
 Alpha virt. eigenvalues --    1.38600   1.39846   1.40197   1.41730   1.44494
 Alpha virt. eigenvalues --    1.48036   1.51919   1.55083   1.59042   1.63212
 Alpha virt. eigenvalues --    1.65148   1.72037   1.75252   1.76787   1.79469
 Alpha virt. eigenvalues --    1.83707   1.85677   1.86373   1.88341   1.90981
 Alpha virt. eigenvalues --    1.91708   1.92124   1.93609   1.96365   1.97963
 Alpha virt. eigenvalues --    1.98428   1.99315   2.00619   2.01832   2.01843
 Alpha virt. eigenvalues --    2.05358   2.09496   2.10576   2.11861   2.13736
 Alpha virt. eigenvalues --    2.26983   2.28342   2.29714   2.34858   2.37035
 Alpha virt. eigenvalues --    2.39246   2.40465   2.42659   2.45156   2.48555
 Alpha virt. eigenvalues --    2.49526   2.50950   2.51137   2.55925   2.56965
 Alpha virt. eigenvalues --    2.57552   2.61725   2.63475   2.66923   2.68871
 Alpha virt. eigenvalues --    2.72324   2.73321   2.77718   2.80821   2.84777
 Alpha virt. eigenvalues --    2.91504   2.95772   2.97492   3.01786   3.03672
 Alpha virt. eigenvalues --    3.19135   3.20174   3.22360   3.23959   3.32224
 Alpha virt. eigenvalues --    3.33312   3.40927   3.42621   3.47166   3.84563
 Alpha virt. eigenvalues --    4.02367   4.10809   4.13194   4.14287   4.21523
 Alpha virt. eigenvalues --    4.30363   4.39368   4.45458   4.52153   4.81810
 Alpha virt. eigenvalues --    8.62208  73.13563
          Condensed to atoms (all electrons):
               1          2          3          4          5          6
     1  C    4.733319   0.208846  -0.019614   0.003005   0.007546  -0.000108
     2  O    0.208846   8.243450   0.249051  -0.081865  -0.096481   0.002539
     3  C   -0.019614   0.249051   4.507300   0.544138   0.311824  -0.043912
     4  O    0.003005  -0.081865   0.544138   8.036253  -0.063732  -0.000856
     5  C    0.007546  -0.096481   0.311824  -0.063732   4.928400   0.515218
     6  C   -0.000108   0.002539  -0.043912  -0.000856   0.515218   4.844492
     7  C    0.000007   0.000046   0.005857  -0.000050  -0.026655   0.523914
     8  C    0.000000   0.000004   0.000030   0.000003  -0.037823  -0.032094
     9  C    0.000007  -0.000078   0.006962  -0.000037  -0.030828  -0.056208
    10  C   -0.000055  -0.000953  -0.042184  -0.002366   0.523926  -0.015762
    11  Br  -0.000350  -0.000111  -0.000194  -0.001598  -0.074571   0.006668
    12  H    0.387753  -0.031960  -0.004587   0.003014  -0.000282   0.000010
    13  H    0.388537  -0.032824   0.004853   0.000660  -0.000148  -0.000018
    14  H    0.380858  -0.031659  -0.006315   0.010133   0.000306  -0.000006
    15  H   -0.000102   0.001260  -0.007038   0.000395  -0.044233   0.372209
    16  H   -0.000000   0.000000  -0.000170   0.000001   0.004154  -0.036764
    17  H    0.000000  -0.000000   0.000007  -0.000000   0.000894   0.004604
    18  H   -0.000000   0.000001  -0.000144   0.000001   0.005112   0.000677
               7          8          9         10         11         12
     1  C    0.000007   0.000000   0.000007  -0.000055  -0.000350   0.387753
     2  O    0.000046   0.000004  -0.000078  -0.000953  -0.000111  -0.031960
     3  C    0.005857   0.000030   0.006962  -0.042184  -0.000194  -0.004587
     4  O   -0.000050   0.000003  -0.000037  -0.002366  -0.001598   0.003014
     5  C   -0.026655  -0.037823  -0.030828   0.523926  -0.074571  -0.000282
     6  C    0.523914  -0.032094  -0.056208  -0.015762   0.006668   0.000010
     7  C    4.818879   0.544708  -0.026904  -0.047538  -0.000006   0.000000
     8  C    0.544708   4.809335   0.518926  -0.030445   0.005721  -0.000000
     9  C   -0.026904   0.518926   4.911308   0.504915  -0.069372  -0.000000
    10  C   -0.047538  -0.030445   0.504915   4.817261   0.277628   0.000023
    11  Br  -0.000006   0.005721  -0.069372   0.277628  34.970584   0.000577
    12  H    0.000000  -0.000000  -0.000000   0.000023   0.000577   0.583581
    13  H   -0.000000   0.000000  -0.000000  -0.000002  -0.000003  -0.034129
    14  H   -0.000000   0.000000   0.000000  -0.000019   0.000016  -0.037056
    15  H   -0.039611   0.004630   0.000579   0.005077  -0.000129   0.000002
    16  H    0.368103  -0.040268   0.004375   0.001252   0.000010  -0.000000
    17  H   -0.039615   0.370668  -0.038693   0.004347  -0.000162   0.000000
    18  H    0.004522  -0.039257   0.369406  -0.039427  -0.002824   0.000000
              13         14         15         16         17         18
     1  C    0.388537   0.380858  -0.000102  -0.000000   0.000000  -0.000000
     2  O   -0.032824  -0.031659   0.001260   0.000000  -0.000000   0.000001
     3  C    0.004853  -0.006315  -0.007038  -0.000170   0.000007  -0.000144
     4  O    0.000660   0.010133   0.000395   0.000001  -0.000000   0.000001
     5  C   -0.000148   0.000306  -0.044233   0.004154   0.000894   0.005112
     6  C   -0.000018  -0.000006   0.372209  -0.036764   0.004604   0.000677
     7  C   -0.000000  -0.000000  -0.039611   0.368103  -0.039615   0.004522
     8  C    0.000000   0.000000   0.004630  -0.040268   0.370668  -0.039257
     9  C   -0.000000   0.000000   0.000579   0.004375  -0.038693   0.369406
    10  C   -0.000002  -0.000019   0.005077   0.001252   0.004347  -0.039427
    11  Br  -0.000003   0.000016  -0.000129   0.000010  -0.000162  -0.002824
    12  H   -0.034129  -0.037056   0.000002  -0.000000   0.000000   0.000000
    13  H    0.580661  -0.031224  -0.000001   0.000000  -0.000000  -0.000000
    14  H   -0.031224   0.581057  -0.000008  -0.000000   0.000000  -0.000000
    15  H   -0.000001  -0.000008   0.609555  -0.005763  -0.000204   0.000018
    16  H    0.000000  -0.000000  -0.005763   0.615030  -0.006059  -0.000186
    17  H   -0.000000   0.000000  -0.000204  -0.006059   0.612014  -0.006336
    18  H   -0.000000  -0.000000   0.000018  -0.000186  -0.006336   0.596404
 Mulliken charges:
               1
     1  C   -0.089648
     2  O   -0.429267
     3  C    0.494136
     4  O   -0.447101
     5  C    0.077373
     6  C   -0.084604
     7  C   -0.085657
     8  C   -0.074139
     9  C   -0.094359
    10  C    0.044322
    11  Br  -0.111885
    12  H    0.133053
    13  H    0.123638
    14  H    0.133916
    15  H    0.103363
    16  H    0.096286
    17  H    0.098537
    18  H    0.112035
 Sum of Mulliken charges =  -0.00000
 Mulliken charges with hydrogens summed into heavy atoms:
               1
     1  C    0.300958
     2  O   -0.429267
     3  C    0.494136
     4  O   -0.447101
     5  C    0.077373
     6  C    0.018760
     7  C    0.010630
     8  C    0.024398
     9  C    0.017676
    10  C    0.044322
    11  Br  -0.111885
 Electronic spatial extent (au):  <R**2>=           2329.7183
 Charge=             -0.0000 electrons
 Dipole moment (field-independent basis, Debye):
    X=             -0.6827    Y=             -1.7081    Z=             -1.7241  Tot=              2.5212
 Quadrupole moment (field-independent basis, Debye-Ang):
   XX=            -61.1982   YY=            -68.7035   ZZ=            -81.1911
   XY=              0.4361   XZ=             -3.8627   YZ=              0.0249
 Traceless Quadrupole moment (field-independent basis, Debye-Ang):
   XX=              9.1661   YY=              1.6607   ZZ=            -10.8268
   XY=              0.4361   XZ=             -3.8627   YZ=              0.0249
 Octapole moment (field-independent basis, Debye-Ang**2):
  XXX=             21.9920  YYY=             42.0554  ZZZ=             -5.2388  XYY=              3.3272
  XXY=              6.2561  XXZ=            -16.9796  XZZ=              3.5908  YZZ=             22.5556
  YYZ=              1.9798  XYZ=              1.8825
 Hexadecapole moment (field-independent basis, Debye-Ang**3):
 XXXX=          -1390.2495 YYYY=           -953.1517 ZZZZ=           -205.2062 XXXY=            -33.3716
 XXXZ=            -25.8761 YYYX=              6.0371 YYYZ=             -6.4273 ZZZX=            -14.3501
 ZZZY=              3.8651 XXYY=           -404.1972 XXZZ=           -318.0774 YYZZ=           -213.9846
 XXYZ=              9.9784 YYXZ=              2.0183 ZZXY=            -12.2925
 N-N= 8.611023649928D+02 E-N=-8.926324356366D+03  KE= 3.011561904604D+03
 No NMR shielding tensors so no spin-rotation constants.
 Leave Link  601 at Tue Sep 17 09:44:17 2024, MaxMem=  1342177280 cpu:               0.7 elap:               0.2
 (Enter /groups/ReismanLab/Software/Gaussian16_RevC/Linux_Binary_AVX2-enabled-CPU/g16/l701.exe)
 ... and contract with generalized density number  0.
 Compute integral first derivatives.
 R6Disp: Adding Grimme-D3(BJ) dispersion energy 1st derivatives to the gradient.
 Leave Link  701 at Tue Sep 17 09:44:17 2024, MaxMem=  1342177280 cpu:               0.6 elap:               0.2
 (Enter /groups/ReismanLab/Software/Gaussian16_RevC/Linux_Binary_AVX2-enabled-CPU/g16/l702.exe)
 L702 exits ... SP integral derivatives will be done elsewhere.
 Leave Link  702 at Tue Sep 17 09:44:17 2024, MaxMem=  1342177280 cpu:               0.1 elap:               0.0
 (Enter /groups/ReismanLab/Software/Gaussian16_RevC/Linux_Binary_AVX2-enabled-CPU/g16/l703.exe)
 Integral derivatives from FoFJK, PRISM(SPDF).
 Compute integral first derivatives, UseDBF=F ICtDFT=           0.
 Calling FoFJK, ICntrl=      2127 FMM=F ISym2X=0 I1Cent= 0 IOpClX= 0 NMat=1 NMatS=1 NMatT=0.
 FoFJK:  IHMeth= 1 ICntrl=    2127 DoSepK=F KAlg= 0 I1Cent=           0 FoldK=F
 IRaf=         0 NMat=       1 IRICut=       1 DoRegI=T DoRafI=F ISym2E= 0 IDoP0=0 IntGTp=1.
 FoFCou: FMM=F IPFlag=           0 FMFlag=      100000 FMFlg1=         800
         NFxFlg=           0 DoJE=F BraDBF=F KetDBF=F FulRan=T
         wScrn=  0.000000 ICntrl=      2127 IOpCl=  0 I1Cent=           0 NGrid=           0
         NMat0=    1 NMatS0=      1 NMatT0=    0 NMatD0=    1 NMtDS0=    0 NMtDT0=    0
 Symmetry not used in FoFCou.
 Leave Link  703 at Tue Sep 17 09:44:20 2024, MaxMem=  1342177280 cpu:              23.6 elap:               3.1
 (Enter /groups/ReismanLab/Software/Gaussian16_RevC/Linux_Binary_AVX2-enabled-CPU/g16/l716.exe)
 Dipole        =-2.68587519D-01-6.72030974D-01-6.78328192D-01
 ***** Axes restored to original set *****
 -------------------------------------------------------------------
 Center     Atomic                   Forces (Hartrees/Bohr)
 Number     Number              X              Y              Z
 -------------------------------------------------------------------
      1        6           0.006380698    0.003177333   -0.003740560
      2        8          -0.004416769   -0.001348598    0.012646840
      3        6          -0.009674421   -0.003079720    0.004177822
      4        8           0.007148764    0.003123530   -0.014580201
      5        6           0.007377946    0.000675019   -0.001660905
      6        6           0.001178704    0.003336894    0.000620517
      7        6          -0.004476612    0.004760149    0.001095799
      8        6          -0.005047575   -0.001204840    0.000812249
      9        6           0.000600085   -0.006412325   -0.001266208
     10        6           0.002875876   -0.002569097   -0.000488091
     11       35           0.002152815   -0.002567738   -0.000717497
     12        1           0.001175205   -0.000454375   -0.000430722
     13        1           0.000396189    0.000071402    0.001692574
     14        1           0.001273342    0.000510069    0.000050669
     15        1           0.000742897    0.003985060    0.000705585
     16        1          -0.003205879    0.002796773    0.000873169
     17        1          -0.004079748   -0.001512314    0.000524488
     18        1          -0.000401516   -0.003287221   -0.000315527
 -------------------------------------------------------------------
 Cartesian Forces:  Max     0.014580201 RMS     0.004138295
 Leave Link  716 at Tue Sep 17 09:44:20 2024, MaxMem=  1342177280 cpu:               0.1 elap:               0.0
 (Enter /groups/ReismanLab/Software/Gaussian16_RevC/Linux_Binary_AVX2-enabled-CPU/g16/l103.exe)

 GradGradGradGradGradGradGradGradGradGradGradGradGradGradGradGradGradGrad
 Berny optimization.
 FormGI is forming the generalized inverse of G from B-inverse, IUseBI=4.
 Internal  Forces:  Max     0.016526514 RMS     0.003780694
 Search for a local minimum.
 Step number   1 out of a maximum of   89
 All quantities printed in internal units (Hartrees-Bohrs-Radians)
 RMS Force = .37807D-02 SwitMx=.10000D-02 MixMth= 1
 Mixed Optimization -- RFO/linear search
 Second derivative matrix not updated -- first step.
 ITU=  0
     Eigenvalues ---    0.00766   0.01373   0.01393   0.01785   0.02248
     Eigenvalues ---    0.02266   0.02271   0.02283   0.02289   0.02293
     Eigenvalues ---    0.02295   0.02298   0.02573   0.10323   0.10651
     Eigenvalues ---    0.16000   0.16000   0.16000   0.16000   0.16000
     Eigenvalues ---    0.16000   0.16000   0.18190   0.22000   0.22491
     Eigenvalues ---    0.24485   0.24987   0.24997   0.24998   0.25000
     Eigenvalues ---    0.25000   0.32375   0.34609   0.34621   0.35183
     Eigenvalues ---    0.36064   0.36092   0.36109   0.36110   0.42077
     Eigenvalues ---    0.43515   0.43589   0.47728   0.47935   0.48290
     Eigenvalues ---    0.48324   0.58713   1.04446
 RFO step:  Lambda=-2.21521780D-03 EMin= 7.65634929D-03
 Linear search not attempted -- first point.
 Iteration  1 RMS(Cart)=  0.02037680 RMS(Int)=  0.00007787
 Iteration  2 RMS(Cart)=  0.00012157 RMS(Int)=  0.00000973
 Iteration  3 RMS(Cart)=  0.00000001 RMS(Int)=  0.00000973
 ITry= 1 IFail=0 DXMaxC= 5.90D-02 DCOld= 1.00D+10 DXMaxT= 3.00D-01 DXLimC= 3.00D+00 Rises=F
 Variable       Old X    -DE/DX   Delta X   Delta X   Delta X     New X
                                 (Linear)    (Quad)   (Total)
    R1        2.68825   0.00990   0.00000   0.02342   0.02342   2.71166
    R2        2.06314   0.00118   0.00000   0.00338   0.00338   2.06652
    R3        2.05379   0.00169   0.00000   0.00478   0.00478   2.05858
    R4        2.06295   0.00045   0.00000   0.00129   0.00129   2.06424
    R5        2.51974   0.01144   0.00000   0.01941   0.01941   2.53914
    R6        2.26909   0.01653   0.00000   0.01579   0.01579   2.28488
    R7        2.83463   0.00282   0.00000   0.00867   0.00867   2.84330
    R8        2.62376   0.00933   0.00000   0.01939   0.01939   2.64315
    R9        2.62368   0.00856   0.00000   0.01772   0.01772   2.64139
   R10        2.61577   0.00920   0.00000   0.01901   0.01901   2.63478
   R11        2.03981   0.00410   0.00000   0.01131   0.01131   2.05112
   R12        2.61791   0.00948   0.00000   0.01978   0.01979   2.63769
   R13        2.03912   0.00434   0.00000   0.01195   0.01195   2.05107
   R14        2.61495   0.01044   0.00000   0.02158   0.02158   2.63654
   R15        2.03938   0.00438   0.00000   0.01207   0.01207   2.05145
   R16        2.61657   0.00816   0.00000   0.01677   0.01677   2.63334
   R17        2.03910   0.00332   0.00000   0.00913   0.00913   2.04823
   R18        3.59284   0.00339   0.00000   0.01840   0.01840   3.61124
    A1        1.91958   0.00061   0.00000   0.00375   0.00372   1.92331
    A2        1.85479  -0.00081   0.00000  -0.00567  -0.00567   1.84912
    A3        1.92427   0.00203   0.00000   0.01325   0.01323   1.93751
    A4        1.92817  -0.00050   0.00000  -0.00469  -0.00470   1.92347
    A5        1.90133  -0.00084   0.00000  -0.00384  -0.00388   1.89745
    A6        1.93556  -0.00045   0.00000  -0.00258  -0.00258   1.93298
    A7        2.02909  -0.00271   0.00000  -0.01073  -0.01073   2.01836
    A8        2.17850  -0.00097   0.00000  -0.00380  -0.00381   2.17468
    A9        1.93271   0.00069   0.00000   0.00275   0.00274   1.93546
   A10        2.17187   0.00028   0.00000   0.00114   0.00114   2.17301
   A11        2.10139  -0.00111   0.00000  -0.00405  -0.00405   2.09734
   A12        2.10420   0.00176   0.00000   0.00732   0.00732   2.11152
   A13        2.07717  -0.00065   0.00000  -0.00321  -0.00322   2.07395
   A14        2.09846   0.00122   0.00000   0.00531   0.00530   2.10376
   A15        2.08098  -0.00045   0.00000  -0.00168  -0.00168   2.07930
   A16        2.10374  -0.00077   0.00000  -0.00363  -0.00363   2.10011
   A17        2.09623  -0.00103   0.00000  -0.00417  -0.00417   2.09206
   A18        2.09055   0.00052   0.00000   0.00210   0.00210   2.09265
   A19        2.09641   0.00051   0.00000   0.00207   0.00207   2.09848
   A20        2.09944  -0.00015   0.00000  -0.00007  -0.00007   2.09937
   A21        2.09842   0.00011   0.00000   0.00022   0.00022   2.09864
   A22        2.08532   0.00005   0.00000  -0.00015  -0.00015   2.08516
   A23        2.08111   0.00025   0.00000   0.00119   0.00119   2.08230
   A24        2.11000   0.00010   0.00000   0.00079   0.00079   2.11079
   A25        2.09207  -0.00035   0.00000  -0.00198  -0.00198   2.09009
   A26        2.11394   0.00036   0.00000   0.00092   0.00092   2.11486
   A27        2.08594   0.00074   0.00000   0.00323   0.00323   2.08917
   A28        2.08317  -0.00110   0.00000  -0.00409  -0.00409   2.07908
    D1       -1.25611  -0.00008   0.00000   0.01920   0.01917  -1.23694
    D2        2.93970   0.00066   0.00000   0.02608   0.02608   2.96578
    D3        0.84091   0.00056   0.00000   0.02525   0.02528   0.86619
    D4       -0.02789   0.00000   0.00000   0.00130   0.00130  -0.02659
    D5        3.12876  -0.00010   0.00000  -0.00465  -0.00464   3.12411
    D6        1.43043  -0.00006   0.00000  -0.00695  -0.00695   1.42348
    D7       -1.74302  -0.00002   0.00000  -0.00475  -0.00475  -1.74776
    D8       -1.69618  -0.00015   0.00000  -0.01283  -0.01283  -1.70901
    D9        1.41356  -0.00011   0.00000  -0.01062  -0.01063   1.40293
   D10        3.10517  -0.00012   0.00000  -0.00573  -0.00575   3.09941
   D11       -0.03205  -0.00009   0.00000  -0.00437  -0.00438  -0.03643
   D12       -0.00506  -0.00020   0.00000  -0.00810  -0.00810  -0.01317
   D13        3.14091  -0.00017   0.00000  -0.00674  -0.00673   3.13417
   D14       -3.10640   0.00010   0.00000   0.00336   0.00335  -3.10305
   D15        0.05260   0.00001   0.00000  -0.00054  -0.00055   0.05204
   D16        0.00378   0.00013   0.00000   0.00552   0.00551   0.00929
   D17       -3.12041   0.00004   0.00000   0.00162   0.00160  -3.11881
   D18        0.00103   0.00017   0.00000   0.00687   0.00688   0.00790
   D19       -3.14045   0.00009   0.00000   0.00363   0.00364  -3.13681
   D20        3.13818   0.00015   0.00000   0.00550   0.00549  -3.13951
   D21       -0.00329   0.00006   0.00000   0.00226   0.00226  -0.00104
   D22        0.00442  -0.00008   0.00000  -0.00293  -0.00292   0.00151
   D23       -3.13994  -0.00008   0.00000  -0.00326  -0.00326   3.13999
   D24       -3.13728   0.00001   0.00000   0.00032   0.00033  -3.13695
   D25        0.00154   0.00000   0.00000  -0.00001  -0.00001   0.00152
   D26       -0.00569   0.00001   0.00000   0.00031   0.00032  -0.00537
   D27        3.13541  -0.00002   0.00000  -0.00099  -0.00100   3.13441
   D28        3.13865   0.00001   0.00000   0.00065   0.00066   3.13931
   D29       -0.00343  -0.00001   0.00000  -0.00066  -0.00066  -0.00410
   D30        0.00157  -0.00004   0.00000  -0.00166  -0.00167  -0.00010
   D31        3.12579   0.00007   0.00000   0.00230   0.00228   3.12807
   D32       -3.13953  -0.00001   0.00000  -0.00037  -0.00037  -3.13990
   D33       -0.01531   0.00010   0.00000   0.00360   0.00359  -0.01173
         Item               Value     Threshold  Converged?
 Maximum Force            0.016527     0.000450     NO 
 RMS     Force            0.003781     0.000300     NO 
 Maximum Displacement     0.059022     0.001800     NO 
 RMS     Displacement     0.020342     0.001200     NO 
 Predicted change in Energy=-1.115718D-03
 Lowest energy point so far.  Saving SCF results.
 GradGradGradGradGradGradGradGradGradGradGradGradGradGradGradGradGradGrad

 Leave Link  103 at Tue Sep 17 09:44:20 2024, MaxMem=  1342177280 cpu:               0.1 elap:               0.1
 (Enter /groups/ReismanLab/Software/Gaussian16_RevC/Linux_Binary_AVX2-enabled-CPU/g16/l202.exe)
                          Input orientation:                          
 ---------------------------------------------------------------------
 Center     Atomic      Atomic             Coordinates (Angstroms)
 Number     Number       Type             X           Y           Z
 ---------------------------------------------------------------------
      1          6           0        2.841046    2.068470    0.988876
      2          8           0        1.487237    1.600443    1.073939
      3          6           0        0.862968    1.409904   -0.100539
      4          8           0        1.354661    1.629785   -1.183050
      5          6           0       -0.535728    0.897770    0.112110
      6          6           0       -1.570463    1.786807    0.420796
      7          6           0       -2.878347    1.327293    0.569997
      8          6           0       -3.158953   -0.031761    0.419968
      9          6           0       -2.135971   -0.932836    0.123085
     10          6           0       -0.833664   -0.460647   -0.028192
     11         35           0        0.567063   -1.702412   -0.412718
     12          1           0        3.491932    1.274753    0.611751
     13          1           0        3.128179    2.340022    2.004012
     14          1           0        2.916372    2.930140    0.321738
     15          1           0       -1.343503    2.841757    0.537745
     16          1           0       -3.674104    2.026933    0.805201
     17          1           0       -4.174819   -0.396419    0.536279
     18          1           0       -2.340812   -1.991246    0.010847
 ---------------------------------------------------------------------
                    Distance matrix (angstroms):
                    1          2          3          4          5
     1  C    0.000000
     2  O    1.434951   0.000000
     3  C    2.352303   1.343658   0.000000
     4  O    2.668154   2.261070   1.209107   0.000000
     5  C    3.679926   2.347605   1.504609   2.405588   0.000000
     6  C    4.456844   3.132228   2.517028   3.339659   1.398696
     7  C    5.782409   4.403054   3.801825   4.591626   2.425286
     8  C    6.382368   4.967782   4.304088   5.069824   2.800021
     9  C    5.876064   4.522086   3.812095   4.523000   2.431464
    10  C    4.575407   3.293838   2.526411   3.239192   1.397765
    11  Br   4.621149   3.737074   3.141898   3.509595   2.872723
    12  H    1.093554   2.082905   2.727100   2.813412   4.076003
    13  H    1.089352   2.026007   3.228844   3.715799   4.368478
    14  H    1.092347   2.091967   2.589577   2.528686   4.011417
    15  H    4.279246   3.137109   2.706681   3.422003   2.147732
    16  H    6.517872   5.185900   4.667559   5.422117   3.406581
    17  H    7.450026   6.027887   5.389586   6.134879   3.885593
    18  H    6.655034   5.355778   4.673802   5.309781   3.408078
                    6          7          8          9         10
     6  C    0.000000
     7  C    1.394265   0.000000
     8  C    2.414641   1.395807   0.000000
     9  C    2.793723   2.420545   1.395195   0.000000
    10  C    2.407387   2.781239   2.406608   1.393503   0.000000
    11  Br   4.175932   4.692088   4.167450   2.861070   1.910988
    12  H    5.091807   6.370632   6.780711   6.065108   4.704457
    13  H    4.988973   6.257825   6.903810   6.477713   5.260209
    14  H    4.631275   6.017434   6.759593   6.363035   5.067806
    15  H    1.085407   2.156475   3.401006   3.879111   3.389114
    16  H    2.151915   1.085379   2.156851   3.404610   3.866614
    17  H    3.400365   2.157119   1.085581   2.148342   3.389111
    18  H    3.877522   3.407975   2.162479   1.083877   2.148430
                   11         12         13         14         15
    11  Br   0.000000
    12  H    4.297430   0.000000
    13  H    5.361079   1.790392   0.000000
    14  H    5.245877   1.776425   1.795312   0.000000
    15  H    5.020270   5.083543   4.732612   4.266264   0.000000
    16  H    5.777442   7.208001   6.914205   6.669625   2.483380
    17  H    5.009157   7.847139   7.935750   7.835625   4.301411
    18  H    2.952722   6.711835   7.255512   7.207959   4.962879
                   16         17         18
    16  H    0.000000
    17  H    2.489110   0.000000
    18  H    4.307485   2.486591   0.000000
 Stoichiometry    C8H7BrO2
 Framework group  C1[X(C8H7BrO2)]
 Deg. of freedom    48
 Full point group                 C1      NOp   1
 RotChk:  IX=0 Diff= 2.05D-02
 Largest Abelian subgroup         C1      NOp   1
 Largest concise Abelian subgroup C1      NOp   1
                         Standard orientation:                         
 ---------------------------------------------------------------------
 Center     Atomic      Atomic             Coordinates (Angstroms)
 Number     Number       Type             X           Y           Z
 ---------------------------------------------------------------------
      1          6           0        3.439671   -0.872805   -0.645874
      2          8           0        2.013660   -0.994865   -0.749205
      3          6           0        1.327804   -0.779134    0.385907
      4          8           0        1.832053   -0.524066    1.454838
      5          6           0       -0.152648   -0.910037    0.151443
      6          6           0       -0.751901   -2.173676    0.129963
      7          6           0       -2.130287   -2.301297   -0.036583
      8          6           0       -2.920066   -1.161067   -0.192800
      9          6           0       -2.335936    0.105936   -0.184825
     10          6           0       -0.957842    0.220627   -0.012911
     11         35           0       -0.160412    1.957241   -0.025181
     12          1           0        3.720038    0.175458   -0.510223
     13          1           0        3.841286   -1.251208   -1.585131
     14          1           0        3.821970   -1.450043    0.199032
     15          1           0       -0.130406   -3.055384    0.250144
     16          1           0       -2.585036   -3.286760   -0.047226
     17          1           0       -3.993679   -1.253396   -0.324395
     18          1           0       -2.938243    0.998056   -0.311850
 ---------------------------------------------------------------------
 Rotational constants (GHZ):           0.8971843           0.7735661           0.4559179
 Leave Link  202 at Tue Sep 17 09:44:20 2024, MaxMem=  1342177280 cpu:               0.0 elap:               0.0
 (Enter /groups/ReismanLab/Software/Gaussian16_RevC/Linux_Binary_AVX2-enabled-CPU/g16/l301.exe)
 Standard basis: 6-31G(d,p) (6D, 7F)
 Ernie: Thresh=  0.10000D-02 Tol=  0.10000D-05 Strict=F.
 There are   215 symmetry adapted cartesian basis functions of A   symmetry.
 There are   215 symmetry adapted basis functions of A   symmetry.
   215 basis functions,   412 primitive gaussians,   215 cartesian basis functions
    53 alpha electrons       53 beta electrons
       nuclear repulsion energy       855.2639449726 Hartrees.
 IExCor=  402 DFT=T Ex+Corr=B3LYP ExCW=0 ScaHFX=  0.200000
 ScaDFX=  0.800000  0.720000  1.000000  0.810000 ScalE2=  1.000000  1.000000
 IRadAn=      5 IRanWt=     -1 IRanGd=            0 ICorTp=0 IEmpDi=141
 NAtoms=   18 NActive=   18 NUniq=   18 SFac= 1.00D+00 NAtFMM=   60 NAOKFM=F Big=F
 Integral buffers will be    131072 words long.
 Raffenetti 2 integral format.
 Two-electron integral symmetry is turned on.
 R6Disp:  Grimme-D3(BJ) Dispersion energy=       -0.0365477001 Hartrees.
 Nuclear repulsion after empirical dispersion term =      855.2273972725 Hartrees.
 Leave Link  301 at Tue Sep 17 09:44:20 2024, MaxMem=  1342177280 cpu:               0.1 elap:               0.1
 (Enter /groups/ReismanLab/Software/Gaussian16_RevC/Linux_Binary_AVX2-enabled-CPU/g16/l302.exe)
 NPDir=0 NMtPBC=     1 NCelOv=     1 NCel=       1 NClECP=     1 NCelD=      1
         NCelK=      1 NCelE2=     1 NClLst=     1 CellRange=     0.0.
 One-electron integrals computed using PRISM.
 One-electron integral symmetry used in STVInt
 NBasis=   215 RedAO= T EigKep=  4.23D-04  NBF=   215
 NBsUse=   215 1.00D-06 EigRej= -1.00D+00 NBFU=   215
 Precomputing XC quadrature grid using
 IXCGrd= 4 IRadAn=           5 IRanWt=          -1 IRanGd=           0 AccXCQ= 0.00D+00.
 Generated NRdTot=       0 NPtTot=           0 NUsed=           0 NTot=          32
 NSgBfM=   214   214   214   214   214 MxSgAt=    18 MxSgA2=    18.
 Leave Link  302 at Tue Sep 17 09:44:20 2024, MaxMem=  1342177280 cpu:               1.1 elap:               0.3
 (Enter /groups/ReismanLab/Software/Gaussian16_RevC/Linux_Binary_AVX2-enabled-CPU/g16/l303.exe)
 DipDrv:  MaxL=1.
 Leave Link  303 at Tue Sep 17 09:44:20 2024, MaxMem=  1342177280 cpu:               0.2 elap:               0.1
 (Enter /groups/ReismanLab/Software/Gaussian16_RevC/Linux_Binary_AVX2-enabled-CPU/g16/l401.exe)
 Initial guess from the checkpoint file:  "smiles_00098_conf_3.chk"
 B after Tr=     0.000000    0.000000   -0.000000
         Rot=    0.999969    0.000401   -0.000028   -0.007815 Ang=   0.90 deg.
 Guess basis will be translated and rotated to current coordinates.
 JPrj=2 DoOrth=T DoCkMO=T.
 Generating alternative initial guess.
 ExpMin= 1.43D-01 ExpMax= 5.74D+05 ExpMxC= 5.74D+03 IAcc=3 IRadAn=         5 AccDes= 0.00D+00
 Harris functional with IExCor=  402 and IRadAn=       5 diagonalized for initial guess.
 HarFok:  IExCor=  402 AccDes= 0.00D+00 IRadAn=         5 IDoV= 1 UseB2=F ITyADJ=14
 ICtDFT=  3500011 ScaDFX=  1.000000  1.000000  1.000000  1.000000
 FoFCou: FMM=F IPFlag=           0 FMFlag=      100000 FMFlg1=           0
         NFxFlg=           0 DoJE=T BraDBF=F KetDBF=T FulRan=T
         wScrn=  0.000000 ICntrl=       500 IOpCl=  0 I1Cent=   200000004 NGrid=           0
         NMat0=    1 NMatS0=      1 NMatT0=    0 NMatD0=    1 NMtDS0=    0 NMtDT0=    0
 Petite list used in FoFCou.
 Harris En= -3031.38439100899    
 Leave Link  401 at Tue Sep 17 09:44:21 2024, MaxMem=  1342177280 cpu:               4.2 elap:               0.6
 (Enter /groups/ReismanLab/Software/Gaussian16_RevC/Linux_Binary_AVX2-enabled-CPU/g16/l502.exe)
 Integral symmetry usage will be decided dynamically.
 Closed shell SCF:
 Using DIIS extrapolation, IDIIS=  1040.
 NGot=  1342177280 LenX=  1342080394 LenY=  1342033728
 Requested convergence on RMS density matrix=1.00D-08 within  32 cycles.
 Requested convergence on MAX density matrix=1.00D-06.
 Requested convergence on             energy=1.00D-06.
 No special actions if energy rises.
 Fock matrices will be formed incrementally for  20 cycles.
 Integral accuracy reduced to 1.0D-05 until final iterations.

 Cycle   1  Pass 0  IDiag  1:
 FoFJK:  IHMeth= 1 ICntrl=       0 DoSepK=F KAlg= 0 I1Cent=           0 FoldK=F
 IRaf= 860000000 NMat=       1 IRICut=       1 DoRegI=T DoRafI=F ISym2E= 0 IDoP0=0 IntGTp=1.
 FoFCou: FMM=F IPFlag=           0 FMFlag=      100000 FMFlg1=           0
         NFxFlg=           0 DoJE=F BraDBF=F KetDBF=F FulRan=T
         wScrn=  0.000000 ICntrl=         0 IOpCl=  0 I1Cent=           0 NGrid=           0
         NMat0=    1 NMatS0=      1 NMatT0=    0 NMatD0=    1 NMtDS0=    0 NMtDT0=    0
 Symmetry not used in FoFCou.
 E= -3031.26631612685    
 DIIS: error= 2.19D-03 at cycle   1 NSaved=   1.
 NSaved= 1 IEnMin= 1 EnMin= -3031.26631612685     IErMin= 1 ErrMin= 2.19D-03
 ErrMax= 2.19D-03  0.00D+00 EMaxC= 1.00D-01 BMatC= 1.16D-03 BMatP= 1.16D-03
 IDIUse=3 WtCom= 9.78D-01 WtEn= 2.19D-02
 Coeff-Com:  0.100D+01
 Coeff-En:   0.100D+01
 Coeff:      0.100D+01
 Gap=     1.813 Goal=   None    Shift=    0.000
 GapD=    1.813 DampG=2.000 DampE=1.000 DampFc=2.0000 IDamp=-1.
 RMSDP=2.03D-04 MaxDP=2.89D-03              OVMax= 3.78D-03

 Cycle   2  Pass 0  IDiag  1:
 RMSU=  2.02D-04    CP:  1.00D+00
 E= -3031.26678088963     Delta-E=       -0.000464762777 Rises=F Damp=F
 DIIS: error= 5.20D-04 at cycle   2 NSaved=   2.
 NSaved= 2 IEnMin= 2 EnMin= -3031.26678088963     IErMin= 2 ErrMin= 5.20D-04
 ErrMax= 5.20D-04  0.00D+00 EMaxC= 1.00D-01 BMatC= 5.30D-05 BMatP= 1.16D-03
 IDIUse=3 WtCom= 9.95D-01 WtEn= 5.20D-03
 Coeff-Com:  0.718D-01 0.928D+00
 Coeff-En:   0.000D+00 0.100D+01
 Coeff:      0.715D-01 0.929D+00
 Gap=     0.222 Goal=   None    Shift=    0.000
 RMSDP=7.82D-05 MaxDP=1.94D-03 DE=-4.65D-04 OVMax= 2.97D-03

 Cycle   3  Pass 0  IDiag  1:
 RMSU=  7.73D-05    CP:  1.00D+00  9.42D-01
 E= -3031.26677295688     Delta-E=        0.000007932753 Rises=F Damp=F
 DIIS: error= 4.64D-04 at cycle   3 NSaved=   3.
 NSaved= 3 IEnMin= 2 EnMin= -3031.26678088963     IErMin= 3 ErrMin= 4.64D-04
 ErrMax= 4.64D-04  0.00D+00 EMaxC= 1.00D-01 BMatC= 6.06D-05 BMatP= 5.30D-05
 IDIUse=3 WtCom= 3.17D-01 WtEn= 6.83D-01
 Coeff-Com: -0.143D-02 0.517D+00 0.484D+00
 Coeff-En:   0.000D+00 0.530D+00 0.470D+00
 Coeff:     -0.453D-03 0.526D+00 0.474D+00
 Gap=     0.223 Goal=   None    Shift=    0.000
 RMSDP=4.62D-05 MaxDP=1.36D-03 DE= 7.93D-06 OVMax= 1.69D-03

 Cycle   4  Pass 0  IDiag  1:
 RMSU=  1.65D-05    CP:  1.00D+00  9.88D-01  4.54D-01
 E= -3031.26683649963     Delta-E=       -0.000063542753 Rises=F Damp=F
 DIIS: error= 9.16D-05 at cycle   4 NSaved=   4.
 NSaved= 4 IEnMin= 4 EnMin= -3031.26683649963     IErMin= 4 ErrMin= 9.16D-05
 ErrMax= 9.16D-05  0.00D+00 EMaxC= 1.00D-01 BMatC= 2.56D-06 BMatP= 5.30D-05
 IDIUse=1 WtCom= 1.00D+00 WtEn= 0.00D+00
 Coeff-Com: -0.341D-02 0.256D+00 0.268D+00 0.480D+00
 Coeff:     -0.341D-02 0.256D+00 0.268D+00 0.480D+00
 Gap=     0.223 Goal=   None    Shift=    0.000
 RMSDP=8.44D-06 MaxDP=3.64D-04 DE=-6.35D-05 OVMax= 5.50D-04

 Initial convergence to 1.0D-05 achieved.  Increase integral accuracy.
 Cycle   5  Pass 1  IDiag  1:
 E= -3031.26680648509     Delta-E=        0.000030014544 Rises=F Damp=F
 DIIS: error= 3.49D-05 at cycle   1 NSaved=   1.
 NSaved= 1 IEnMin= 1 EnMin= -3031.26680648509     IErMin= 1 ErrMin= 3.49D-05
 ErrMax= 3.49D-05  0.00D+00 EMaxC= 1.00D-01 BMatC= 5.30D-07 BMatP= 5.30D-07
 IDIUse=1 WtCom= 1.00D+00 WtEn= 0.00D+00
 Coeff-Com:  0.100D+01
 Coeff:      0.100D+01
 Gap=     0.223 Goal=   None    Shift=    0.000
 RMSDP=8.44D-06 MaxDP=3.64D-04 DE= 3.00D-05 OVMax= 5.20D-04

 Cycle   6  Pass 1  IDiag  1:
 RMSU=  1.63D-05    CP:  1.00D+00
 E= -3031.26680547343     Delta-E=        0.000001011659 Rises=F Damp=F
 DIIS: error= 7.38D-05 at cycle   2 NSaved=   2.
 NSaved= 2 IEnMin= 1 EnMin= -3031.26680648509     IErMin= 1 ErrMin= 3.49D-05
 ErrMax= 7.38D-05  0.00D+00 EMaxC= 1.00D-01 BMatC= 1.76D-06 BMatP= 5.30D-07
 IDIUse=1 WtCom= 1.00D+00 WtEn= 0.00D+00
 Coeff-Com:  0.658D+00 0.342D+00
 Coeff:      0.658D+00 0.342D+00
 Gap=     0.223 Goal=   None    Shift=    0.000
 RMSDP=5.48D-06 MaxDP=2.86D-04 DE= 1.01D-06 OVMax= 4.16D-04

 Cycle   7  Pass 1  IDiag  1:
 RMSU=  4.92D-06    CP:  1.00D+00  8.51D-01
 E= -3031.26680687803     Delta-E=       -0.000001404604 Rises=F Damp=F
 DIIS: error= 1.06D-05 at cycle   3 NSaved=   3.
 NSaved= 3 IEnMin= 3 EnMin= -3031.26680687803     IErMin= 3 ErrMin= 1.06D-05
 ErrMax= 1.06D-05  0.00D+00 EMaxC= 1.00D-01 BMatC= 3.93D-08 BMatP= 5.30D-07
 IDIUse=1 WtCom= 1.00D+00 WtEn= 0.00D+00
 Coeff-Com:  0.124D+00 0.147D+00 0.730D+00
 Coeff:      0.124D+00 0.147D+00 0.730D+00
 Gap=     0.223 Goal=   None    Shift=    0.000
 RMSDP=1.42D-06 MaxDP=4.43D-05 DE=-1.40D-06 OVMax= 6.36D-05

 Cycle   8  Pass 1  IDiag  1:
 RMSU=  1.36D-06    CP:  1.00D+00  8.62D-01  9.26D-01
 E= -3031.26680689589     Delta-E=       -0.000000017862 Rises=F Damp=F
 DIIS: error= 7.25D-06 at cycle   4 NSaved=   4.
 NSaved= 4 IEnMin= 4 EnMin= -3031.26680689589     IErMin= 4 ErrMin= 7.25D-06
 ErrMax= 7.25D-06  0.00D+00 EMaxC= 1.00D-01 BMatC= 1.39D-08 BMatP= 3.93D-08
 IDIUse=1 WtCom= 1.00D+00 WtEn= 0.00D+00
 Coeff-Com:  0.300D-02 0.530D-01 0.465D+00 0.479D+00
 Coeff:      0.300D-02 0.530D-01 0.465D+00 0.479D+00
 Gap=     0.223 Goal=   None    Shift=    0.000
 RMSDP=7.09D-07 MaxDP=1.92D-05 DE=-1.79D-08 OVMax= 4.61D-05

 Cycle   9  Pass 1  IDiag  1:
 RMSU=  2.16D-07    CP:  1.00D+00  8.70D-01  9.20D-01  5.16D-01
 E= -3031.26680691069     Delta-E=       -0.000000014801 Rises=F Damp=F
 DIIS: error= 2.25D-06 at cycle   5 NSaved=   5.
 NSaved= 5 IEnMin= 5 EnMin= -3031.26680691069     IErMin= 5 ErrMin= 2.25D-06
 ErrMax= 2.25D-06  0.00D+00 EMaxC= 1.00D-01 BMatC= 6.30D-10 BMatP= 1.39D-08
 IDIUse=1 WtCom= 1.00D+00 WtEn= 0.00D+00
 Coeff-Com: -0.208D-02 0.288D-01 0.271D+00 0.301D+00 0.401D+00
 Coeff:     -0.208D-02 0.288D-01 0.271D+00 0.301D+00 0.401D+00
 Gap=     0.223 Goal=   None    Shift=    0.000
 RMSDP=1.36D-07 MaxDP=4.88D-06 DE=-1.48D-08 OVMax= 9.80D-06

 Cycle  10  Pass 1  IDiag  1:
 RMSU=  7.41D-08    CP:  1.00D+00  8.70D-01  9.23D-01  5.16D-01  4.76D-01
 E= -3031.26680691135     Delta-E=       -0.000000000656 Rises=F Damp=F
 DIIS: error= 2.23D-07 at cycle   6 NSaved=   6.
 NSaved= 6 IEnMin= 6 EnMin= -3031.26680691135     IErMin= 6 ErrMin= 2.23D-07
 ErrMax= 2.23D-07  0.00D+00 EMaxC= 1.00D-01 BMatC= 1.20D-11 BMatP= 6.30D-10
 IDIUse=1 WtCom= 1.00D+00 WtEn= 0.00D+00
 Coeff-Com: -0.107D-02 0.851D-02 0.829D-01 0.947D-01 0.178D+00 0.637D+00
 Coeff:     -0.107D-02 0.851D-02 0.829D-01 0.947D-01 0.178D+00 0.637D+00
 Gap=     0.223 Goal=   None    Shift=    0.000
 RMSDP=2.35D-08 MaxDP=7.24D-07 DE=-6.56D-10 OVMax= 1.19D-06

 Cycle  11  Pass 1  IDiag  1:
 RMSU=  1.81D-08    CP:  1.00D+00  8.70D-01  9.23D-01  5.17D-01  5.24D-01
                    CP:  8.52D-01
 E= -3031.26680691135     Delta-E=       -0.000000000005 Rises=F Damp=F
 DIIS: error= 4.42D-08 at cycle   7 NSaved=   7.
 NSaved= 7 IEnMin= 7 EnMin= -3031.26680691135     IErMin= 7 ErrMin= 4.42D-08
 ErrMax= 4.42D-08  0.00D+00 EMaxC= 1.00D-01 BMatC= 1.25D-12 BMatP= 1.20D-11
 IDIUse=1 WtCom= 1.00D+00 WtEn= 0.00D+00
 Coeff-Com: -0.324D-03 0.145D-02 0.150D-01 0.180D-01 0.472D-01 0.293D+00
 Coeff-Com:  0.625D+00
 Coeff:     -0.324D-03 0.145D-02 0.150D-01 0.180D-01 0.472D-01 0.293D+00
 Coeff:      0.625D+00
 Gap=     0.223 Goal=   None    Shift=    0.000
 RMSDP=7.73D-09 MaxDP=3.13D-07 DE=-4.55D-12 OVMax= 4.65D-07

 SCF Done:  E(RB3LYP) =  -3031.26680691     A.U. after   11 cycles
            NFock= 11  Conv=0.77D-08     -V/T= 2.0066
 KE= 3.011263822727D+03 PE=-8.914349710145D+03 EE= 2.016591683234D+03
 Leave Link  502 at Tue Sep 17 09:44:30 2024, MaxMem=  1342177280 cpu:              64.9 elap:               8.8
 (Enter /groups/ReismanLab/Software/Gaussian16_RevC/Linux_Binary_AVX2-enabled-CPU/g16/l508.exe)
 QCSCF skips out because SCF is already converged.
 Leave Link  508 at Tue Sep 17 09:44:30 2024, MaxMem=  1342177280 cpu:               0.0 elap:               0.0
 (Enter /groups/ReismanLab/Software/Gaussian16_RevC/Linux_Binary_AVX2-enabled-CPU/g16/l701.exe)
 ... and contract with generalized density number  0.
 Compute integral first derivatives.
 R6Disp: Adding Grimme-D3(BJ) dispersion energy 1st derivatives to the gradient.
 Leave Link  701 at Tue Sep 17 09:44:30 2024, MaxMem=  1342177280 cpu:               0.8 elap:               0.2
[...]
     12  H    Isotropic =    27.9145   Anisotropy =     8.0667
   XX=    28.3770   YX=     3.6802   ZX=    -1.6787
   XY=     1.7377   YY=    29.1717   ZY=    -2.8239
   XZ=    -1.9327   YZ=    -3.4093   ZZ=    26.1948
   Eigenvalues:    24.2269    26.2243    33.2923
     13  H    Isotropic =    28.0454   Anisotropy =     7.8573
   XX=    33.0343   YX=    -1.0620   ZX=    -1.5881
   XY=     0.5526   YY=    26.7205   ZY=     0.4688
   XZ=    -1.2799   YZ=     0.6559   ZZ=    24.3814
   Eigenvalues:    24.0503    26.8023    33.2836
     14  H    Isotropic =    27.9862   Anisotropy =     8.2520
   XX=    29.6337   YX=     3.0009   ZX=     3.6705
   XY=     1.4760   YY=    26.2752   ZY=     2.0162
   XZ=     2.9132   YZ=     2.0399   ZZ=    28.0498
   Eigenvalues:    24.9442    25.5269    33.4876
     15  H    Isotropic =    22.7294   Anisotropy =    10.0074
   XX=    21.6591   YX=     3.4581   ZX=    -0.3116
   XY=     2.6174   YY=    28.1820   ZY=    -0.0418
   XZ=    -0.4796   YZ=    -0.7396   ZZ=    18.3470
   Eigenvalues:    18.3003    20.4869    29.4010
     16  H    Isotropic =    23.6713   Anisotropy =     5.9201
   XX=    27.2156   YX=     1.3239   ZX=     0.1415
   XY=     1.3794   YY=    23.0453   ZY=     0.0870
   XZ=     0.1040   YZ=     0.0402   ZZ=    20.7530
   Eigenvalues:    20.7500    22.6458    27.6180
     17  H    Isotropic =    23.5065   Anisotropy =     6.2204
   XX=    24.4119   YX=    -2.4865   ZX=     0.1165
   XY=    -2.8617   YY=    25.4422   ZY=    -0.0810
   XZ=    -0.0552   YZ=    -0.2525   ZZ=    20.6654
   Eigenvalues:    20.6579    22.2082    27.6535
     18  H    Isotropic =    23.4028   Anisotropy =    11.4767
   XX=    21.7224   YX=     3.2746   ZX=    -0.0016
   XY=     4.0916   YY=    29.5997   ZY=     0.0715
   XZ=     0.1128   YZ=     0.0457   ZZ=    18.8864
   Eigenvalues:    18.8853    20.2692    31.0539
 End of Minotr F.D. properties file   721 does not exist.
 End of Minotr F.D. properties file   722 does not exist.
 End of Minotr F.D. properties file   788 does not exist.
 Leave Link 1002 at Tue Sep 17 10:48:58 2024, MaxMem=  1342177280 cpu:             870.7 elap:             874.4
 (Enter /groups/ReismanLab/Software/Gaussian16_RevC/Linux_Binary_AVX2-enabled-CPU/g16/l601.exe)
 Copying SCF densities to generalized density rwf, IOpCl= 0 IROHF=0.

 **********************************************************************

            Population analysis using the SCF Density.

 **********************************************************************

 Orbital symmetries:
       Occupied  (A) (A) (A) (A) (A) (A) (A) (A) (A) (A) (A) (A)
                 (A) (A) (A) (A) (A) (A) (A) (A) (A) (A) (A) (A)
                 (A) (A) (A) (A) (A) (A) (A) (A) (A) (A) (A) (A)
                 (A) (A) (A) (A) (A) (A) (A) (A) (A) (A) (A) (A)
                 (A) (A) (A) (A) (A)
       Virtual   (A) (A) (A) (A) (A) (A) (A) (A) (A) (A) (A) (A)
                 (A) (A) (A) (A) (A) (A) (A) (A) (A) (A) (A) (A)
                 (A) (A) (A) (A) (A) (A) (A) (A) (A) (A) (A) (A)
                 (A) (A) (A) (A) (A) (A) (A) (A) (A) (A) (A) (A)
                 (A) (A) (A) (A) (A) (A) (A) (A) (A) (A) (A) (A)
                 (A) (A) (A) (A) (A) (A) (A) (A) (A) (A) (A) (A)
                 (A) (A) (A) (A) (A) (A) (A) (A) (A) (A) (A) (A)
                 (A) (A) (A) (A) (A) (A) (A) (A) (A) (A) (A) (A)
                 (A) (A) (A) (A) (A) (A) (A) (A) (A) (A) (A) (A)
                 (A) (A) (A) (A) (A) (A) (A) (A) (A) (A) (A) (A)
                 (A) (A) (A) (A) (A) (A) (A) (A) (A) (A) (A) (A)
                 (A) (A) (A) (A) (A) (A) (A) (A) (A) (A) (A) (A)
                 (A) (A) (A) (A) (A) (A) (A) (A) (A) (A) (A) (A)
                 (A) (A) (A) (A) (A) (A) (A) (A) (A) (A) (A) (A)
                 (A) (A) (A) (A) (A) (A) (A) (A) (A) (A) (A) (A)
                 (A) (A) (A) (A) (A) (A) (A) (A) (A) (A) (A) (A)
                 (A) (A) (A) (A) (A) (A) (A) (A) (A) (A) (A) (A)
                 (A) (A) (A) (A) (A) (A) (A) (A) (A) (A) (A) (A)
                 (A) (A) (A) (A) (A) (A) (A) (A) (A) (A) (A) (A)
                 (A) (A) (A) (A) (A) (A) (A) (A) (A) (A) (A) (A)
                 (A) (A) (A) (A) (A) (A) (A) (A) (A) (A) (A) (A)
                 (A) (A) (A) (A) (A) (A) (A) (A) (A) (A) (A) (A)
                 (A) (A) (A) (A) (A) (A) (A) (A) (A) (A) (A) (A)
                 (A) (A) (A) (A) (A) (A) (A) (A) (A) (A) (A) (A)
                 (A) (A) (A) (A) (A) (A) (A) (A) (A) (A) (A) (A)
                 (A) (A) (A) (A) (A) (A) (A) (A) (A) (A) (A) (A)
                 (A) (A) (A) (A) (A) (A) (A) (A) (A) (A) (A) (A)
                 (A) (A) (A) (A) (A) (A) (A) (A) (A) (A) (A) (A)
                 (A) (A) (A) (A) (A) (A) (A) (A) (A) (A) (A)
 The electronic state is 1-A.
 Alpha  occ. eigenvalues -- -485.37304 -63.35779 -57.17733 -57.17492 -57.17467
 Alpha  occ. eigenvalues --  -19.67508 -19.62172 -10.68280 -10.61651 -10.58826
 Alpha  occ. eigenvalues --  -10.57900 -10.56350 -10.56308 -10.56146 -10.55659
 Alpha  occ. eigenvalues --   -9.02426  -6.84862  -6.83970  -6.83888  -2.88240
 Alpha  occ. eigenvalues --   -2.87934  -2.87852  -2.87020  -2.87018  -1.23615
 Alpha  occ. eigenvalues --   -1.14354  -0.99006  -0.90357  -0.88470  -0.82790
 Alpha  occ. eigenvalues --   -0.81185  -0.72672  -0.69495  -0.65479  -0.62107
 Alpha  occ. eigenvalues --   -0.57197  -0.56913  -0.56420  -0.53490  -0.52738
 Alpha  occ. eigenvalues --   -0.49132  -0.48855  -0.48384  -0.45392  -0.43791
 Alpha  occ. eigenvalues --   -0.43721  -0.41382  -0.38526  -0.38203  -0.37317
 Alpha  occ. eigenvalues --   -0.33232  -0.32780  -0.30365
 Alpha virt. eigenvalues --   -0.02780   0.00334   0.03770   0.08036   0.08497
 Alpha virt. eigenvalues --    0.09532   0.11106   0.11784   0.13243   0.13651
 Alpha virt. eigenvalues --    0.15250   0.15969   0.16181   0.18218   0.18774
 Alpha virt. eigenvalues --    0.21022   0.21306   0.21964   0.23581   0.24021
 Alpha virt. eigenvalues --    0.24982   0.25094   0.26296   0.26783   0.26990
 Alpha virt. eigenvalues --    0.27842   0.28908   0.29632   0.31160   0.31343
 Alpha virt. eigenvalues --    0.32728   0.34024   0.34365   0.34796   0.35381
 Alpha virt. eigenvalues --    0.36743   0.36986   0.37640   0.39310   0.39358
 Alpha virt. eigenvalues --    0.41625   0.42337   0.42525   0.43744   0.44487
 Alpha virt. eigenvalues --    0.45341   0.45865   0.47219   0.48467   0.48776
 Alpha virt. eigenvalues --    0.49284   0.49771   0.51387   0.52587   0.53175
 Alpha virt. eigenvalues --    0.54064   0.54593   0.57044   0.57695   0.58196
 Alpha virt. eigenvalues --    0.60207   0.61246   0.62969   0.63613   0.65832
 Alpha virt. eigenvalues --    0.67324   0.68161   0.69372   0.71306   0.71752
 Alpha virt. eigenvalues --    0.73090   0.73819   0.75195   0.76588   0.78273
 Alpha virt. eigenvalues --    0.78378   0.80466   0.82789   0.84200   0.85691
 Alpha virt. eigenvalues --    0.86216   0.86898   0.88160   0.89701   0.91421
 Alpha virt. eigenvalues --    0.92698   0.93799   0.95205   0.96626   0.99134
 Alpha virt. eigenvalues --    1.02161   1.02547   1.03507   1.05095   1.06576
 Alpha virt. eigenvalues --    1.09069   1.10098   1.11058   1.12031   1.14223
 Alpha virt. eigenvalues --    1.14924   1.20900   1.21329   1.21806   1.22944
 Alpha virt. eigenvalues --    1.25495   1.25939   1.27901   1.29163   1.30751
 Alpha virt. eigenvalues --    1.33994   1.35915   1.36994   1.38941   1.40821
 Alpha virt. eigenvalues --    1.41794   1.42623   1.46184   1.47087   1.48478
 Alpha virt. eigenvalues --    1.49463   1.51221   1.51853   1.53362   1.54717
 Alpha virt. eigenvalues --    1.55910   1.57137   1.57330   1.57744   1.58455
 Alpha virt. eigenvalues --    1.58945   1.60389   1.62132   1.62376   1.64161
 Alpha virt. eigenvalues --    1.64627   1.65601   1.66720   1.68081   1.69393
 Alpha virt. eigenvalues --    1.71785   1.72557   1.72832   1.75009   1.75700
 Alpha virt. eigenvalues --    1.78281   1.79169   1.80926   1.81665   1.84309
 Alpha virt. eigenvalues --    1.86522   1.87530   1.89705   1.90264   1.92081
 Alpha virt. eigenvalues --    1.95617   1.96744   1.98250   1.99702   2.03082
 Alpha virt. eigenvalues --    2.03804   2.05573   2.05971   2.06535   2.09276
 Alpha virt. eigenvalues --    2.10899   2.12007   2.14661   2.15936   2.17189
 Alpha virt. eigenvalues --    2.19477   2.22578   2.25432   2.25632   2.28351
 Alpha virt. eigenvalues --    2.30719   2.32435   2.35561   2.38309   2.38949
 Alpha virt. eigenvalues --    2.41593   2.42442   2.43712   2.47972   2.49316
 Alpha virt. eigenvalues --    2.52505   2.53993   2.55285   2.56230   2.58577
 Alpha virt. eigenvalues --    2.59382   2.60827   2.62795   2.65587   2.65922
 Alpha virt. eigenvalues --    2.67534   2.69415   2.70605   2.71617   2.71951
 Alpha virt. eigenvalues --    2.74249   2.75772   2.77387   2.79133   2.80215
 Alpha virt. eigenvalues --    2.81659   2.83172   2.83472   2.85032   2.86907
 Alpha virt. eigenvalues --    2.87433   2.88258   2.89247   2.94553   2.95824
 Alpha virt. eigenvalues --    2.98850   2.99444   3.01355   3.02539   3.06610
 Alpha virt. eigenvalues --    3.07496   3.08201   3.08720   3.10243   3.11527
 Alpha virt. eigenvalues --    3.13564   3.14144   3.16502   3.17044   3.17791
 Alpha virt. eigenvalues --    3.19187   3.21323   3.22324   3.24578   3.26649
 Alpha virt. eigenvalues --    3.27767   3.29025   3.30161   3.30488   3.32095
 Alpha virt. eigenvalues --    3.32649   3.34930   3.35730   3.37030   3.38213
 Alpha virt. eigenvalues --    3.39542   3.41135   3.43115   3.43613   3.44805
 Alpha virt. eigenvalues --    3.46155   3.47910   3.49695   3.51121   3.51747
 Alpha virt. eigenvalues --    3.52374   3.54244   3.55225   3.57800   3.60224
 Alpha virt. eigenvalues --    3.61048   3.62619   3.64271   3.69589   3.72240
 Alpha virt. eigenvalues --    3.76586   3.80865   3.83714   3.86161   3.89261
 Alpha virt. eigenvalues --    3.93077   3.96718   4.05467   4.06844   4.07749
 Alpha virt. eigenvalues --    4.08910   4.11197   4.11996   4.14892   4.14939
 Alpha virt. eigenvalues --    4.17134   4.17793   4.18171   4.18709   4.20234
 Alpha virt. eigenvalues --    4.22596   4.26782   4.27126   4.28833   4.32152
 Alpha virt. eigenvalues --    4.35668   4.38312   4.43926   4.45801   4.51228
 Alpha virt. eigenvalues --    4.53869   4.57335   4.58425   4.61719   4.65809
 Alpha virt. eigenvalues --    4.72400   4.76371   4.78697   4.83793   4.91493
 Alpha virt. eigenvalues --    5.03827   5.08235   5.11412   5.18691   5.21536
 Alpha virt. eigenvalues --    5.27770   5.28548   5.32660   5.38365   5.46143
 Alpha virt. eigenvalues --    5.48986   5.51937   5.65848   5.68016   5.84144
 Alpha virt. eigenvalues --    5.93908   6.06624   6.16538   6.21212   6.36722
 Alpha virt. eigenvalues --    6.37142   6.53785   6.64480   6.69062   6.76438
 Alpha virt. eigenvalues --    6.86353   6.87786   7.01891   7.10697   7.26145
 Alpha virt. eigenvalues --    7.37604   7.87892  22.10022  22.43809  22.67564
 Alpha virt. eigenvalues --   22.73956  22.85139  22.89405  23.26165  23.51269
 Alpha virt. eigenvalues --   44.05977  44.23454
          Condensed to atoms (all electrons):
               1          2          3          4          5          6
     1  C    4.868070   0.206736  -0.051607  -0.000976   0.008985  -0.000358
     2  O    0.206736   8.010919   0.374534  -0.081810  -0.161091   0.023320
     3  C   -0.051607   0.374534   4.534677   0.655076   0.312503  -0.082182
     4  O   -0.000976  -0.081810   0.655076   7.874025  -0.078307   0.001792
     5  C    0.008985  -0.161091   0.312503  -0.078307   5.674253   0.181631
     6  C   -0.000358   0.023320  -0.082182   0.001792   0.181631   5.234825
     7  C   -0.000136  -0.000706   0.016049   0.000510   0.051749   0.388326
     8  C    0.000021   0.000369  -0.010717  -0.000686  -0.161404   0.061252
     9  C   -0.000045   0.000064   0.027307   0.004961   0.110999  -0.175348
    10  C   -0.001310  -0.006262  -0.097970  -0.016588   0.112472   0.134255
    11  Br  -0.000080  -0.000775  -0.023889  -0.026728  -0.142342   0.028373
    12  H    0.417845  -0.030310  -0.010078   0.004111  -0.003534   0.001086
    13  H    0.395416  -0.030202   0.004607   0.001805   0.002878  -0.000986
    14  H    0.421536  -0.037032  -0.006562   0.003806   0.001213  -0.000204
    15  H   -0.000526   0.016272  -0.007463   0.000295  -0.036590   0.410745
    16  H   -0.000000  -0.000138   0.000007   0.000006   0.008857  -0.035880
    17  H    0.000000  -0.000000   0.000048  -0.000002  -0.001254   0.005420
    18  H   -0.000000   0.000011   0.000834   0.000096   0.022675  -0.005885
               7          8          9         10         11         12
     1  C   -0.000136   0.000021  -0.000045  -0.001310  -0.000080   0.417845
     2  O   -0.000706   0.000369   0.000064  -0.006262  -0.000775  -0.030310
     3  C    0.016049  -0.010717   0.027307  -0.097970  -0.023889  -0.010078
     4  O    0.000510  -0.000686   0.004961  -0.016588  -0.026728   0.004111
     5  C    0.051749  -0.161404   0.110999   0.112472  -0.142342  -0.003534
     6  C    0.388326   0.061252  -0.175348   0.134255   0.028373   0.001086
     7  C    5.013211   0.425951   0.023499  -0.114262  -0.005502   0.000011
     8  C    0.425951   5.006529   0.375144   0.084787   0.019815   0.000008
     9  C    0.023499   0.375144   5.177793   0.304554  -0.101221  -0.000023
    10  C   -0.114262   0.084787   0.304554   5.269091   0.436343   0.000097
    11  Br  -0.005502   0.019815  -0.101221   0.436343  34.889527   0.000035
    12  H    0.000011   0.000008  -0.000023   0.000097   0.000035   0.523684
    13  H   -0.000044   0.000001  -0.000005   0.000200   0.000006  -0.023319
    14  H   -0.000023  -0.000002  -0.000000  -0.000356   0.000050  -0.040540
    15  H   -0.031194   0.005547  -0.001826   0.008203   0.000008   0.000324
    16  H    0.417993  -0.036697   0.006170  -0.001983   0.000021  -0.000001
    17  H   -0.033350   0.412988  -0.031936   0.005277  -0.000387   0.000000
    18  H    0.008110  -0.039824   0.431014  -0.066731  -0.001778  -0.000000
              13         14         15         16         17         18
     1  C    0.395416   0.421536  -0.000526  -0.000000   0.000000  -0.000000
     2  O   -0.030202  -0.037032   0.016272  -0.000138  -0.000000   0.000011
     3  C    0.004607  -0.006562  -0.007463   0.000007   0.000048   0.000834
     4  O    0.001805   0.003806   0.000295   0.000006  -0.000002   0.000096
     5  C    0.002878   0.001213  -0.036590   0.008857  -0.001254   0.022675
     6  C   -0.000986  -0.000204   0.410745  -0.035880   0.005420  -0.005885
     7  C   -0.000044  -0.000023  -0.031194   0.417993  -0.033350   0.008110
     8  C    0.000001  -0.000002   0.005547  -0.036697   0.412988  -0.039824
     9  C   -0.000005  -0.000000  -0.001826   0.006170  -0.031936   0.431014
    10  C    0.000200  -0.000356   0.008203  -0.001983   0.005277  -0.066731
    11  Br   0.000006   0.000050   0.000008   0.000021  -0.000387  -0.001778
    12  H   -0.023319  -0.040540   0.000324  -0.000001   0.000000  -0.000000
    13  H    0.519344  -0.024215  -0.000275   0.000001   0.000000  -0.000000
    14  H   -0.024215   0.522139  -0.000223   0.000000   0.000000  -0.000000
    15  H   -0.000275  -0.000223   0.459955  -0.003834  -0.000145   0.000011
    16  H    0.000001   0.000000  -0.003834   0.480021  -0.003442  -0.000129
    17  H    0.000000   0.000000  -0.000145  -0.003442   0.478767  -0.003565
    18  H   -0.000000  -0.000000   0.000011  -0.000129  -0.003565   0.478723
 Mulliken charges:
               1
     1  C   -0.263569
     2  O   -0.283899
     3  C    0.364826
     4  O   -0.341386
     5  C    0.096307
     6  C   -0.170181
     7  C   -0.160192
     8  C   -0.143081
     9  C   -0.151099
    10  C   -0.049817
    11  Br  -0.071476
    12  H    0.160604
    13  H    0.154788
    14  H    0.160413
    15  H    0.180716
    16  H    0.169027
    17  H    0.171582
    18  H    0.176437
 Sum of Mulliken charges =   0.00000
 Mulliken charges with hydrogens summed into heavy atoms:
               1
     1  C    0.212236
     2  O   -0.283899
     3  C    0.364826
     4  O   -0.341386
     5  C    0.096307
     6  C    0.010535
     7  C    0.008835
     8  C    0.028501
     9  C    0.025338
    10  C   -0.049817
    11  Br  -0.071476
 Electronic spatial extent (au):  <R**2>=           2491.3388
 Charge=             -0.0000 electrons
 Dipole moment (field-independent basis, Debye):
    X=              1.0821    Y=             -3.6933    Z=             -0.4449  Tot=              3.8742
 Quadrupole moment (field-independent basis, Debye-Ang):
   XX=            -61.4295   YY=            -70.9311   ZZ=            -79.1086
   XY=              3.1334   XZ=             -0.5605   YZ=             -1.8619
 Traceless Quadrupole moment (field-independent basis, Debye-Ang):
   XX=              9.0602   YY=             -0.4414   ZZ=             -8.6189
   XY=              3.1334   XZ=             -0.5605   YZ=             -1.8619
 Octapole moment (field-independent basis, Debye-Ang**2):
  XXX=             13.5884  YYY=             17.8205  ZZZ=             -1.1225  XYY=            -21.0172
  XXY=             13.5666  XXZ=             -2.6342  XZZ=             -5.2608  YZZ=             24.2113
  YYZ=             -2.9836  XYZ=             -3.3850
 Hexadecapole moment (field-independent basis, Debye-Ang**3):
 XXXX=          -1422.8196 YYYY=          -1113.4234 ZZZZ=           -104.9540 XXXY=             -4.2904
 XXXZ=             -7.1483 YYYX=            -62.9988 YYYZ=             -7.6715 ZZZX=              3.8739
 ZZZY=             -0.2072 XXYY=           -458.6268 XXZZ=           -305.6713 YYZZ=           -247.1347
 XXYZ=             -3.9779 YYXZ=             -2.8349 ZZXY=            -23.3214
 N-N= 8.498012060428D+02 E-N=-8.924701034389D+03  KE= 3.028005429060D+03
 Calculating spin-rotation constants.
 Leave Link  601 at Tue Sep 17 10:49:03 2024, MaxMem=  1342177280 cpu:               4.7 elap:               4.7
 (Enter /groups/ReismanLab/Software/Gaussian16_RevC/Linux_Binary_AVX2-enabled-CPU/g16/l9999.exe)
 Unable to Open any file for archive entry.
 1\1\GINC-HPC-82-11\SP\RM062X\def2TZVP\C8H7Br1O2\MANTIND\17-Sep-2024\0\
 \#p M062X/def2tzvp geom=check guess=read scf(xqc,tight) integral(grid=
 ultrafine) scrf(SMD, solvent=1,4-Dioxane) nmr=giao\\spe\\0,1\C,0,2.673
 1043132,2.5019017536,0.8690479565\O,0,1.3129845143,2.0479803672,0.9328
 470886\C,0,1.0204841248,1.0152035269,0.1037156172\O,0,1.8483815251,0.5
 008424158,-0.616040914\C,0,-0.4228407774,0.6405947862,0.1988201851\C,0
 ,-1.3316609706,1.570600793,0.7332646866\C,0,-2.6914015408,1.2969787307
 ,0.8106411569\C,0,-3.1728622308,0.068461779,0.3586710877\C,0,-2.292859
 6662,-0.8741074928,-0.1650973102\C,0,-0.9287853746,-0.591996205,-0.249
 7840836\Br,0,0.170660437,-1.9787419607,-0.9560359983\H,0,3.358583113,1
 .6953233663,1.1388457016\H,0,2.7421038581,3.3210924728,1.5839457362\H,
 0,2.917024478,2.8468977865,-0.138604405\H,0,-0.9446070032,2.5190167113
 ,1.0829838221\H,0,-3.3703575043,2.0366753808,1.2214351205\H,0,-4.23209
 30915,-0.1622587296,0.4137612152\H,0,-2.6527635209,-1.835710309,-0.510
 5710203\\Version=ES64L-G16RevC.02\State=1-A\HF=-3033.70908\RMSD=1.463e
 -09\Dipole=-0.8704741,0.9910807,0.7637636\Quadrupole=4.6765378,1.17460
 48,-5.8511425,3.5711102,1.6506977,2.5628005\PG=C01 [X(C8H7Br1O2)]\\@
 The archive entry for this job was punched.


 Some scientists claim that hydrogen, because it is so
 plentiful, is the basic building block of the universe. 
 I dispute that. I say that stupidity is far more
 abundant than hydrogen, and THAT is the basic building 
 block of the universe.
                   --Frank Zappa
 Job cpu time:       0 days  0 hours 15 minutes 55.2 seconds.
 Elapsed time:       0 days  0 hours 15 minutes 59.9 seconds.
 File lengths (MBytes):  RWF=    256 Int=      0 D2E=      0 Chk=     24 Scr=     16
 Normal termination of Gaussian 16 at Tue Sep 17 10:49:03 2024.
