 Entering Gaussian System, Link 0=g16
 Input=smiles_00098_conf_2.gjf
 Output=smiles_00098_conf_2.log
 Initial command:
 /groups/ReismanLab/Software/Gaussian16_RevC/Linux_Binary_AVX2-enabled-CPU/g16/l1.exe "/central/groups/ReismanLab/DM/dft_final/smiles_00098/Gau-3081207.inp" -scrdir="/central/groups/ReismanLab/DM/dft_final/smiles_00098/"
 Entering Link 1 = /groups/ReismanLab/Software/Gaussian16_RevC/Linux_Binary_AVX2-enabled-CPU/g16/l1.exe PID=   3081208.
  
 Copyright (c) 1988-2021, Gaussian, Inc.  All Rights Reserved.
  
 This is part of the Gaussian(R) 16 program.  It is based on
 the Gaussian(R) 09 system (copyright 2009, Gaussian, Inc.),
 the Gaussian(R) 03 system (copyright 2003, Gaussian, Inc.),
 the Gaussian(R) 98 system (copyright 1998, Gaussian, Inc.),
 the Gaussian(R) 94 system (copyright 1995, Gaussian, Inc.),
 the Gaussian 92(TM) system (copyright 1992, Gaussian, Inc.),
 the Gaussian 90(TM) system (copyright 1990, Gaussian, Inc.),
 the Gaussian 88(TM) system (copyright 1988, Gaussian, Inc.),
 the Gaussian 86(TM) system (copyright 1986, Carnegie Mellon
 University), and the Gaussian 82(TM) system (copyright 1983,
 Carnegie Mellon University). Gaussian is a federally registered
 trademark of Gaussian, Inc.
  
 This software contains proprietary and confidential information,
 including trade secrets, belonging to Gaussian, Inc.
  
 This software is provided under written license and may be
 used, copied, transmitted, or stored only in accord with that
 written license.
  
 The following legend is applicable only to US Government
 contracts under FAR:
  
                    RESTRICTED RIGHTS LEGEND
  
 Use, reproduction and disclosure by the US Government is
 subject to restrictions as set forth in subparagraphs (a)
 and (c) of the Commercial Computer Software - Restricted
 Rights clause in FAR 52.227-19.
  
 Gaussian, Inc.
 340 Quinnipiac St., Bldg. 40, Wallingford CT 06492
  
  
 ---------------------------------------------------------------
 Warning -- This program may not be used in any manner that
 competes with the business of Gaussian, Inc. or will provide
 assistance to any competitor of Gaussian, Inc.  The licensee
 of this program is prohibited from giving any competitor of
 Gaussian, Inc. access to this program.  By using this program,
 the user acknowledges that Gaussian, Inc. is engaged in the
 business of creating and licensing software in the field of
 computational chemistry and represents and warrants to the
 licensee that it is not a competitor of Gaussian, Inc. and that
 it will not use this program in any manner prohibited above.
 ---------------------------------------------------------------
  

 Cite this work as:
 Gaussian 16, Revision C.02,
 M. J. Frisch, G. W. Trucks, H. B. Schlegel, G. E. Scuseria, 
 M. A. Robb, J. R. Cheeseman, G. Scalmani, V. Barone, 
 G. A. Petersson, H. Nakatsuji, X. Li, M. Caricato, A. V. Marenich, 
 J. Bloino, B. G. Janesko, R. Gomperts, B. Mennucci, H. P. Hratchian, 
 J. V. Ortiz, A. F. Izmaylov, J. L. Sonnenberg, D. Williams-Young, 
 F. Ding, F. Lipparini, F. Egidi, J. Goings, B. Peng, A. Petrone, 
 T. Henderson, D. Ranasinghe, V. G. Zakrzewski, J. Gao, N. Rega, 
 G. Zheng, W. Liang, M. Hada, M. Ehara, K. Toyota, R. Fukuda, 
 J. Hasegawa, M. Ishida, T. Nakajima, Y. Honda, O. Kitao, H. Nakai, 
 T. Vreven, K. Throssell, J. A. Montgomery, Jr., J. E. Peralta, 
 F. Ogliaro, M. J. Bearpark, J. J. Heyd, E. N. Brothers, K. N. Kudin, 
 V. N. Staroverov, T. A. Keith, R. Kobayashi, J. Normand, 
 K. Raghavachari, A. P. Rendell, J. C. Burant, S. S. Iyengar, 
 J. Tomasi, M. Cossi, J. M. Millam, M. Klene, C. Adamo, R. Cammi, 
 J. W. Ochterski, R. L. Martin, K. Morokuma, O. Farkas, 
 J. B. Foresman, and D. J. Fox, Gaussian, Inc., Wallingford CT, 2019.
 
 ******************************************
 Gaussian 16:  ES64L-G16RevC.02  7-Dec-2021
                17-Sep-2024 
 ******************************************
 %nprocshared=8
 Will use up to    8 processors via shared memory.
 %Mem=10GB
 %Chk=smiles_00098_conf_2.chk
 ----------------------------------------------------------------------
 #p B3LYP/6-31G(d,p) EmpiricalDispersion=GD3BJ opt freq scf(xqc,tight) 
 integral(grid=ultrafine)
 ----------------------------------------------------------------------
 1/18=20,19=15,26=4,38=1/1,3;
 2/9=110,12=2,17=6,18=5,40=1/2;
 3/5=1,6=6,7=101,11=2,25=1,30=1,71=1,74=-5,75=-5,124=41/1,2,3;
 4//1;
 5/5=2,8=3,13=1,32=2,38=5/2,8;
 6/7=2,8=2,9=2,10=2,28=1/1;
 7//1,2,3,16;
 1/18=20,19=15,26=4/3(2);
 2/9=110/2;
 99//99;
 2/9=110/2;
 3/5=1,6=6,7=101,11=2,25=1,30=1,71=1,74=-5,75=-5,124=41/1,2,3;
 4/5=5,16=3,69=1/1;
 5/5=2,8=3,13=1,32=2,38=5/2,8;
 7//1,2,3,16;
 1/18=20,19=15,26=4/3(-5);
 2/9=110/2;
 6/7=2,8=2,9=2,10=2,19=2,28=1/1;
 99/9=1/99;
 Leave Link    1 at Tue Sep 17 09:43:34 2024, MaxMem=  1342177280 cpu:               0.2 elap:               0.6
 (Enter /groups/ReismanLab/Software/Gaussian16_RevC/Linux_Binary_AVX2-enabled-CPU/g16/l101.exe)
 ----------------------------------
 opt-freq conformers_unique/conf_ac
 ----------------------------------
 Symbolic Z-matrix:
 Charge =  0 Multiplicity = 1
 C                     2.5772    2.97936   0.11625 
 O                     1.23169   2.52892   0.16494 
 C                     1.0403    1.24193  -0.1632 
 O                     1.93749   0.50442  -0.47929 
 C                    -0.39646   0.86734  -0.09706 
 C                    -1.37388   1.8606   -0.16025 
 C                    -2.71625   1.53865  -0.13083 
 C                    -3.10602   0.21144  -0.03339 
 C                    -2.153    -0.78728   0.03616 
 C                    -0.80451  -0.46287   0.00047 
 Br                    0.4376   -1.88645   0.12782 
 H                     2.56318   4.01286   0.45223 
 H                     2.96346   2.91104  -0.90294 
 H                     3.20505   2.37024   0.7698 
 H                    -1.05858   2.88895  -0.23905 
 H                    -3.4586    2.31995  -0.18446 
 H                    -4.15331  -0.04859  -0.01006 
 H                    -2.44586  -1.82271   0.11738 
 
 ITRead=  0  0  0  0  0  0  0  0  0  0  0  0  0  0  0  0  0  0
 MicOpt= -1 -1 -1 -1 -1 -1 -1 -1 -1 -1 -1 -1 -1 -1 -1 -1 -1 -1
 NAtoms=     18 NQM=       18 NQMF=       0 NMMI=      0 NMMIF=      0
                NMic=       0 NMicF=      0.
                    Isotopes and Nuclear Properties:
 (Nuclear quadrupole moments (NQMom) in fm**2, nuclear magnetic moments (NMagM)
  in nuclear magnetons)

  Atom         1           2           3           4           5           6           7           8           9          10
 IAtWgt=          12          16          12          16          12          12          12          12          12          12
 AtmWgt=  12.0000000  15.9949146  12.0000000  15.9949146  12.0000000  12.0000000  12.0000000  12.0000000  12.0000000  12.0000000
 NucSpn=           0           0           0           0           0           0           0           0           0           0
 AtZEff=  -0.0000000  -0.0000000  -0.0000000  -0.0000000  -0.0000000  -0.0000000  -0.0000000  -0.0000000  -0.0000000  -0.0000000
 NQMom=    0.0000000   0.0000000   0.0000000   0.0000000   0.0000000   0.0000000   0.0000000   0.0000000   0.0000000   0.0000000
 NMagM=    0.0000000   0.0000000   0.0000000   0.0000000   0.0000000   0.0000000   0.0000000   0.0000000   0.0000000   0.0000000
 AtZNuc=   6.0000000   8.0000000   6.0000000   8.0000000   6.0000000   6.0000000   6.0000000   6.0000000   6.0000000   6.0000000

  Atom        11          12          13          14          15          16          17          18
 IAtWgt=          79           1           1           1           1           1           1           1
 AtmWgt=  78.9183361   1.0078250   1.0078250   1.0078250   1.0078250   1.0078250   1.0078250   1.0078250
 NucSpn=           3           1           1           1           1           1           1           1
 AtZEff=  -0.0000000  -0.0000000  -0.0000000  -0.0000000  -0.0000000  -0.0000000  -0.0000000  -0.0000000
 NQMom=   31.3000000   0.0000000   0.0000000   0.0000000   0.0000000   0.0000000   0.0000000   0.0000000
 NMagM=    2.1063990   2.7928460   2.7928460   2.7928460   2.7928460   2.7928460   2.7928460   2.7928460
 AtZNuc=  35.0000000   1.0000000   1.0000000   1.0000000   1.0000000   1.0000000   1.0000000   1.0000000
 Leave Link  101 at Tue Sep 17 09:43:34 2024, MaxMem=  1342177280 cpu:               0.2 elap:               0.3
 (Enter /groups/ReismanLab/Software/Gaussian16_RevC/Linux_Binary_AVX2-enabled-CPU/g16/l103.exe)

 GradGradGradGradGradGradGradGradGradGradGradGradGradGradGradGradGradGrad
 Berny optimization.
 Initialization pass.
                           ----------------------------
                           !    Initial Parameters    !
                           ! (Angstroms and Degrees)  !
 --------------------------                            --------------------------
 ! Name  Definition              Value          Derivative Info.                !
 --------------------------------------------------------------------------------
 ! R1    R(1,2)                  1.4197         estimate D2E/DX2                !
 ! R2    R(1,12)                 1.0868         estimate D2E/DX2                !
 ! R3    R(1,13)                 1.0921         estimate D2E/DX2                !
 ! R4    R(1,14)                 1.0919         estimate D2E/DX2                !
 ! R5    R(2,3)                  1.3419         estimate D2E/DX2                !
 ! R6    R(3,4)                  1.2037         estimate D2E/DX2                !
 ! R7    R(3,5)                  1.4863         estimate D2E/DX2                !
 ! R8    R(5,6)                  1.395          estimate D2E/DX2                !
 ! R9    R(5,10)                 1.3948         estimate D2E/DX2                !
 ! R10   R(6,7)                  1.3808         estimate D2E/DX2                !
 ! R11   R(6,15)                 1.0785         estimate D2E/DX2                !
 ! R12   R(7,8)                  1.3867         estimate D2E/DX2                !
 ! R13   R(7,16)                 1.0791         estimate D2E/DX2                !
 ! R14   R(8,9)                  1.3822         estimate D2E/DX2                !
 ! R15   R(8,17)                 1.0793         estimate D2E/DX2                !
 ! R16   R(9,10)                 1.3874         estimate D2E/DX2                !
 ! R17   R(9,18)                 1.0791         estimate D2E/DX2                !
 ! R18   R(10,11)                1.8936         estimate D2E/DX2                !
 ! A1    A(2,1,12)             106.1927         estimate D2E/DX2                !
 ! A2    A(2,1,13)             110.3259         estimate D2E/DX2                !
 ! A3    A(2,1,14)             110.3292         estimate D2E/DX2                !
 ! A4    A(12,1,13)            110.6438         estimate D2E/DX2                !
 ! A5    A(12,1,14)            110.6616         estimate D2E/DX2                !
 ! A6    A(13,1,14)            108.6821         estimate D2E/DX2                !
 ! A7    A(1,2,3)              115.5356         estimate D2E/DX2                !
 ! A8    A(2,3,4)              123.0633         estimate D2E/DX2                !
 ! A9    A(2,3,5)              111.6366         estimate D2E/DX2                !
 ! A10   A(4,3,5)              125.2975         estimate D2E/DX2                !
 ! A11   A(3,5,6)              119.7273         estimate D2E/DX2                !
 ! A12   A(3,5,10)             121.7544         estimate D2E/DX2                !
 ! A13   A(6,5,10)             118.5056         estimate D2E/DX2                !
 ! A14   A(5,6,7)              120.945          estimate D2E/DX2                !
 ! A15   A(5,6,15)             118.5155         estimate D2E/DX2                !
 ! A16   A(7,6,15)             120.5385         estimate D2E/DX2                !
 ! A17   A(6,7,8)              119.863          estimate D2E/DX2                !
 ! A18   A(6,7,16)             119.9307         estimate D2E/DX2                !
 ! A19   A(8,7,16)             120.2062         estimate D2E/DX2                !
 ! A20   A(7,8,9)              120.0857         estimate D2E/DX2                !
 ! A21   A(7,8,17)             120.3197         estimate D2E/DX2                !
 ! A22   A(9,8,17)             119.5945         estimate D2E/DX2                !
 ! A23   A(8,9,10)             119.9935         estimate D2E/DX2                !
 ! A24   A(8,9,18)             120.6615         estimate D2E/DX2                !
 ! A25   A(10,9,18)            119.345          estimate D2E/DX2                !
 ! A26   A(5,10,9)             120.6058         estimate D2E/DX2                !
 ! A27   A(5,10,11)            121.9907         estimate D2E/DX2                !
 ! A28   A(9,10,11)            117.3897         estimate D2E/DX2                !
 ! D1    D(12,1,2,3)          -177.3178         estimate D2E/DX2                !
 ! D2    D(13,1,2,3)            62.744          estimate D2E/DX2                !
 ! D3    D(14,1,2,3)           -57.3563         estimate D2E/DX2                !
 ! D4    D(1,2,3,4)              0.0396         estimate D2E/DX2                !
 ! D5    D(1,2,3,5)           -179.4045         estimate D2E/DX2                !
 ! D6    D(2,3,5,6)             20.7735         estimate D2E/DX2                !
 ! D7    D(2,3,5,10)          -160.5422         estimate D2E/DX2                !
 ! D8    D(4,3,5,6)           -158.6556         estimate D2E/DX2                !
 ! D9    D(4,3,5,10)            20.0286         estimate D2E/DX2                !
 ! D10   D(3,5,6,7)            178.5567         estimate D2E/DX2                !
 ! D11   D(3,5,6,15)            -1.0677         estimate D2E/DX2                !
 ! D12   D(10,5,6,7)            -0.1702         estimate D2E/DX2                !
 ! D13   D(10,5,6,15)         -179.7945         estimate D2E/DX2                !
 ! D14   D(3,5,10,9)          -178.821          estimate D2E/DX2                !
 ! D15   D(3,5,10,11)            2.567          estimate D2E/DX2                !
 ! D16   D(6,5,10,9)            -0.1212         estimate D2E/DX2                !
 ! D17   D(6,5,10,11)         -178.7333         estimate D2E/DX2                !
 ! D18   D(5,6,7,8)              0.1843         estimate D2E/DX2                !
 ! D19   D(5,6,7,16)          -179.7692         estimate D2E/DX2                !
 ! D20   D(15,6,7,8)           179.8011         estimate D2E/DX2                !
 ! D21   D(15,6,7,16)           -0.1524         estimate D2E/DX2                !
 ! D22   D(6,7,8,9)              0.0951         estimate D2E/DX2                !
 ! D23   D(6,7,8,17)          -179.9838         estimate D2E/DX2                !
 ! D24   D(16,7,8,9)          -179.9515         estimate D2E/DX2                !
 ! D25   D(16,7,8,17)           -0.0304         estimate D2E/DX2                !
 ! D26   D(7,8,9,10)            -0.3841         estimate D2E/DX2                !
 ! D27   D(7,8,9,18)           179.6779         estimate D2E/DX2                !
 ! D28   D(17,8,9,10)          179.6943         estimate D2E/DX2                !
 ! D29   D(17,8,9,18)           -0.2438         estimate D2E/DX2                !
 ! D30   D(8,9,10,5)             0.3981         estimate D2E/DX2                !
 ! D31   D(8,9,10,11)          179.0723         estimate D2E/DX2                !
 ! D32   D(18,9,10,5)         -179.663          estimate D2E/DX2                !
 ! D33   D(18,9,10,11)          -0.9888         estimate D2E/DX2                !
 --------------------------------------------------------------------------------
 Trust Radius=3.00D-01 FncErr=1.00D-07 GrdErr=1.00D-06 EigMax=2.50D+02 EigMin=1.00D-04
 Number of steps in this run=     89 maximum allowed number of steps=    108.
 GradGradGradGradGradGradGradGradGradGradGradGradGradGradGradGradGradGrad

 Leave Link  103 at Tue Sep 17 09:43:34 2024, MaxMem=  1342177280 cpu:               0.1 elap:               0.0
 (Enter /groups/ReismanLab/Software/Gaussian16_RevC/Linux_Binary_AVX2-enabled-CPU/g16/l202.exe)
                          Input orientation:                          
 ---------------------------------------------------------------------
 Center     Atomic      Atomic             Coordinates (Angstroms)
 Number     Number       Type             X           Y           Z
 ---------------------------------------------------------------------
      1          6           0        2.577202    2.979357    0.116251
      2          8           0        1.231693    2.528923    0.164939
      3          6           0        1.040303    1.241927   -0.163198
      4          8           0        1.937494    0.504417   -0.479292
      5          6           0       -0.396456    0.867342   -0.097058
      6          6           0       -1.373877    1.860602   -0.160250
      7          6           0       -2.716248    1.538654   -0.130833
      8          6           0       -3.106015    0.211438   -0.033385
      9          6           0       -2.152999   -0.787276    0.036162
     10          6           0       -0.804507   -0.462874    0.000466
     11         35           0        0.437598   -1.886453    0.127822
     12          1           0        2.563179    4.012859    0.452234
     13          1           0        2.963459    2.911044   -0.902945
     14          1           0        3.205049    2.370238    0.769800
     15          1           0       -1.058575    2.888948   -0.239049
     16          1           0       -3.458601    2.319948   -0.184459
     17          1           0       -4.153314   -0.048586   -0.010062
     18          1           0       -2.445865   -1.822711    0.117385
 ---------------------------------------------------------------------
                    Distance matrix (angstroms):
                    1          2          3          4          5
     1  C    0.000000
     2  O    1.419738   0.000000
     3  C    2.336410   1.341887   0.000000
     4  O    2.624733   2.238707   1.203656   0.000000
     5  C    3.653594   2.341017   1.486259   2.392726   0.000000
     6  C    4.115713   2.709501   2.492194   3.592520   1.394959
     7  C    5.491565   4.080974   3.768391   4.779998   2.415210
     8  C    6.323189   4.921969   4.274426   5.071652   2.788544
     9  C    6.047210   4.740243   3.788746   4.320452   2.416807
    10  C    4.826833   3.622707   2.517232   2.946929   1.394808
    11  Br   5.315462   4.486368   3.199173   2.886959   2.886105
    12  H    1.086834   2.014314   3.221175   3.683529   4.353784
    13  H    1.092072   2.070123   2.651736   2.650271   4.014374
    14  H    1.091946   2.070066   2.613369   2.578413   3.997621
    15  H    3.654214   2.353327   2.669030   3.836683   2.132008
    16  H    6.079158   4.707930   4.626307   5.700958   3.390345
    17  H    7.381344   5.972644   5.353740   6.133835   3.867877
    18  H    6.949177   5.697667   4.650172   4.998538   3.388576
                    6          7          8          9         10
     6  C    0.000000
     7  C    1.380752   0.000000
     8  C    2.395024   1.386693   0.000000
     9  C    2.767104   2.398977   1.382211   0.000000
    10  C    2.397613   2.770940   2.398496   1.387423   0.000000
    11  Br   4.171911   4.663154   4.121205   2.815633   1.893574
    12  H    4.528550   5.859523   6.842981   6.742162   5.619394
    13  H    4.524103   5.893953   6.699442   6.382605   5.137805
    14  H    4.700137   6.046853   6.718263   6.262332   4.969400
    15  H    1.078481   2.140767   3.376888   3.845534   3.369960
    16  H    2.134867   1.079066   2.143118   3.377590   3.850001
    17  H    3.375326   2.144546   1.079347   2.132852   3.374352
    18  H    3.846171   3.381345   2.143896   1.079116   2.134686
                   11         12         13         14         15
    11  Br   0.000000
    12  H    6.278950   0.000000
    13  H    5.518915   1.791851   0.000000
    14  H    5.117649   1.791940   1.774518   0.000000
    15  H    5.017727   3.854627   4.076519   4.411953   0.000000
    16  H    5.742099   6.287540   6.489104   6.731818   2.467158
    17  H    4.947044   7.862591   7.759195   7.784883   4.273050
    18  H    2.884187   7.697826   7.260186   7.066774   4.924566
                   16         17         18
    16  H    0.000000
    17  H    2.474469   0.000000
    18  H    4.275321   2.465592   0.000000
 Stoichiometry    C8H7BrO2
 Framework group  C1[X(C8H7BrO2)]
 Deg. of freedom    48
 Full point group                 C1      NOp   1
 Largest Abelian subgroup         C1      NOp   1
 Largest concise Abelian subgroup C1      NOp   1
                         Standard orientation:                         
 ---------------------------------------------------------------------
 Center     Atomic      Atomic             Coordinates (Angstroms)
 Number     Number       Type             X           Y           Z
 ---------------------------------------------------------------------
      1          6           0       -3.825299   -0.419397   -0.181871
      2          8           0       -2.662552    0.393670   -0.232856
      3          6           0       -1.520240   -0.206802    0.134862
      4          8           0       -1.466466   -1.356736    0.486359
      5          6           0       -0.363915    0.724155    0.062789
      6          6           0       -0.582770    2.101720    0.080935
      7          6           0        0.474445    2.989122    0.045035
      8          6           0        1.775011    2.511643   -0.013770
      9          6           0        2.012876    1.150276   -0.038399
     10          6           0        0.949931    0.259595    0.003774
     11         35           0        1.358660   -1.588205   -0.061016
     12          1           0       -4.641571    0.195511   -0.551727
     13          1           0       -4.019133   -0.740267    0.843844
     14          1           0       -3.696412   -1.305331   -0.807054
     15          1           0       -1.598438    2.461077    0.129960
     16          1           0        0.286481    4.051530    0.063562
     17          1           0        2.606954    3.198718   -0.041861
     18          1           0        3.020953    0.768596   -0.089328
 ---------------------------------------------------------------------
 Rotational constants (GHZ):           0.9594476           0.7376783           0.4222167
 Leave Link  202 at Tue Sep 17 09:43:34 2024, MaxMem=  1342177280 cpu:               0.1 elap:               0.0
 (Enter /groups/ReismanLab/Software/Gaussian16_RevC/Linux_Binary_AVX2-enabled-CPU/g16/l301.exe)
 Standard basis: 6-31G(d,p) (6D, 7F)
 Ernie: Thresh=  0.10000D-02 Tol=  0.10000D-05 Strict=F.
 There are   215 symmetry adapted cartesian basis functions of A   symmetry.
 There are   215 symmetry adapted basis functions of A   symmetry.
   215 basis functions,   412 primitive gaussians,   215 cartesian basis functions
    53 alpha electrons       53 beta electrons
       nuclear repulsion energy       858.7435617416 Hartrees.
 IExCor=  402 DFT=T Ex+Corr=B3LYP ExCW=0 ScaHFX=  0.200000
 ScaDFX=  0.800000  0.720000  1.000000  0.810000 ScalE2=  1.000000  1.000000
 IRadAn=      5 IRanWt=     -1 IRanGd=            0 ICorTp=0 IEmpDi=141
 NAtoms=   18 NActive=   18 NUniq=   18 SFac= 1.00D+00 NAtFMM=   60 NAOKFM=F Big=F
 Integral buffers will be    131072 words long.
 Raffenetti 2 integral format.
 Two-electron integral symmetry is turned on.
 R6Disp:  Grimme-D3(BJ) Dispersion energy=       -0.0367236813 Hartrees.
 Nuclear repulsion after empirical dispersion term =      858.7068380602 Hartrees.
 Leave Link  301 at Tue Sep 17 09:43:35 2024, MaxMem=  1342177280 cpu:               0.1 elap:               0.1
 (Enter /groups/ReismanLab/Software/Gaussian16_RevC/Linux_Binary_AVX2-enabled-CPU/g16/l302.exe)
 NPDir=0 NMtPBC=     1 NCelOv=     1 NCel=       1 NClECP=     1 NCelD=      1
         NCelK=      1 NCelE2=     1 NClLst=     1 CellRange=     0.0.
 One-electron integrals computed using PRISM.
 One-electron integral symmetry used in STVInt
 NBasis=   215 RedAO= T EigKep=  3.93D-04  NBF=   215
 NBsUse=   215 1.00D-06 EigRej= -1.00D+00 NBFU=   215
 Precomputing XC quadrature grid using
 IXCGrd= 4 IRadAn=           5 IRanWt=          -1 IRanGd=           0 AccXCQ= 0.00D+00.
 Generated NRdTot=       0 NPtTot=           0 NUsed=           0 NTot=          32
 NSgBfM=   214   214   214   214   214 MxSgAt=    18 MxSgA2=    18.
 Leave Link  302 at Tue Sep 17 09:43:35 2024, MaxMem=  1342177280 cpu:               1.0 elap:               0.2
 (Enter /groups/ReismanLab/Software/Gaussian16_RevC/Linux_Binary_AVX2-enabled-CPU/g16/l303.exe)
 DipDrv:  MaxL=1.
 Leave Link  303 at Tue Sep 17 09:43:35 2024, MaxMem=  1342177280 cpu:               0.1 elap:               0.0
 (Enter /groups/ReismanLab/Software/Gaussian16_RevC/Linux_Binary_AVX2-enabled-CPU/g16/l401.exe)
 ExpMin= 1.43D-01 ExpMax= 5.74D+05 ExpMxC= 5.74D+03 IAcc=3 IRadAn=         5 AccDes= 0.00D+00
 Harris functional with IExCor=  402 and IRadAn=       5 diagonalized for initial guess.
 HarFok:  IExCor=  402 AccDes= 0.00D+00 IRadAn=         5 IDoV= 1 UseB2=F ITyADJ=14
 ICtDFT=  3500011 ScaDFX=  1.000000  1.000000  1.000000  1.000000
 FoFCou: FMM=F IPFlag=           0 FMFlag=      100000 FMFlg1=           0
         NFxFlg=           0 DoJE=T BraDBF=F KetDBF=T FulRan=T
         wScrn=  0.000000 ICntrl=       500 IOpCl=  0 I1Cent=   200000004 NGrid=           0
         NMat0=    1 NMatS0=      1 NMatT0=    0 NMatD0=    1 NMtDS0=    0 NMtDT0=    0
 Petite list used in FoFCou.
 Harris En= -3031.39178589573    
 JPrj=0 DoOrth=F DoCkMO=F.
 Leave Link  401 at Tue Sep 17 09:43:36 2024, MaxMem=  1342177280 cpu:               3.9 elap:               0.6
 (Enter /groups/ReismanLab/Software/Gaussian16_RevC/Linux_Binary_AVX2-enabled-CPU/g16/l502.exe)
 Integral symmetry usage will be decided dynamically.
 Closed shell SCF:
 Using DIIS extrapolation, IDIIS=  1040.
 NGot=  1342177280 LenX=  1342080394 LenY=  1342033728
 Requested convergence on RMS density matrix=1.00D-08 within  32 cycles.
 Requested convergence on MAX density matrix=1.00D-06.
 Requested convergence on             energy=1.00D-06.
 No special actions if energy rises.
 Fock matrices will be formed incrementally for  20 cycles.
 Integral accuracy reduced to 1.0D-05 until final iterations.

 Cycle   1  Pass 0  IDiag  1:
 FoFJK:  IHMeth= 1 ICntrl=       0 DoSepK=F KAlg= 0 I1Cent=           0 FoldK=F
 IRaf= 860000000 NMat=       1 IRICut=       1 DoRegI=T DoRafI=F ISym2E= 0 IDoP0=0 IntGTp=1.
 FoFCou: FMM=F IPFlag=           0 FMFlag=      100000 FMFlg1=           0
         NFxFlg=           0 DoJE=F BraDBF=F KetDBF=F FulRan=T
         wScrn=  0.000000 ICntrl=         0 IOpCl=  0 I1Cent=           0 NGrid=           0
         NMat0=    1 NMatS0=      1 NMatT0=    0 NMatD0=    1 NMtDS0=    0 NMtDT0=    0
 Symmetry not used in FoFCou.
 E= -3031.03159723399    
 DIIS: error= 1.74D-01 at cycle   1 NSaved=   1.
 NSaved= 1 IEnMin= 1 EnMin= -3031.03159723399     IErMin= 1 ErrMin= 1.74D-01
 ErrMax= 1.74D-01  0.00D+00 EMaxC= 1.00D-01 BMatC= 6.07D-01 BMatP= 6.07D-01
 IDIUse=3 WtCom= 0.00D+00 WtEn= 1.00D+00
 Coeff-Com:  0.100D+01
 Coeff-En:   0.100D+01
 Coeff:      0.100D+01
 Gap=     0.235 Goal=   None    Shift=    0.000
 GapD=    0.235 DampG=1.000 DampE=0.250 DampFc=0.2500 IDamp=-1.
 Damping current iteration by 2.50D-01
 RMSDP=5.61D-03 MaxDP=1.98D-01              OVMax= 2.45D-01

 Cycle   2  Pass 0  IDiag  1:
 RMSU=  1.36D-03    CP:  9.92D-01
 E= -3031.11450924183     Delta-E=       -0.082912007840 Rises=F Damp=T
 DIIS: error= 1.29D-01 at cycle   2 NSaved=   2.
 NSaved= 2 IEnMin= 2 EnMin= -3031.11450924183     IErMin= 2 ErrMin= 1.29D-01
 ErrMax= 1.29D-01  0.00D+00 EMaxC= 1.00D-01 BMatC= 2.49D-01 BMatP= 6.07D-01
 IDIUse=3 WtCom= 0.00D+00 WtEn= 1.00D+00
 Coeff-Com: -0.110D+01 0.210D+01
 Coeff-En:   0.000D+00 0.100D+01
 Coeff:      0.000D+00 0.100D+01
 Gap=     0.207 Goal=   None    Shift=    0.000
 RMSDP=2.72D-03 MaxDP=1.10D-01 DE=-8.29D-02 OVMax= 1.23D-01

 Cycle   3  Pass 0  IDiag  1:
 RMSU=  1.32D-03    CP:  9.69D-01  2.59D+00
 E= -3031.22253090191     Delta-E=       -0.108021660085 Rises=F Damp=F
 DIIS: error= 9.69D-03 at cycle   3 NSaved=   3.
 NSaved= 3 IEnMin= 3 EnMin= -3031.22253090191     IErMin= 3 ErrMin= 9.69D-03
 ErrMax= 9.69D-03  0.00D+00 EMaxC= 1.00D-01 BMatC= 5.06D-02 BMatP= 2.49D-01
 IDIUse=3 WtCom= 9.03D-01 WtEn= 9.69D-02
 Coeff-Com:  0.658D+00-0.710D+00 0.105D+01
 Coeff-En:   0.103D+00 0.000D+00 0.897D+00
 Coeff:      0.604D+00-0.641D+00 0.104D+01
 Gap=     0.203 Goal=   None    Shift=    0.000
 RMSDP=1.64D-03 MaxDP=4.12D-02 DE=-1.08D-01 OVMax= 6.43D-02

 Cycle   4  Pass 0  IDiag  1:
 RMSU=  1.29D-03    CP:  9.70D-01  1.86D+00  8.36D-01
 E= -3031.24333071781     Delta-E=       -0.020799815896 Rises=F Damp=F
 DIIS: error= 8.93D-03 at cycle   4 NSaved=   4.
 NSaved= 4 IEnMin= 4 EnMin= -3031.24333071781     IErMin= 4 ErrMin= 8.93D-03
 ErrMax= 8.93D-03  0.00D+00 EMaxC= 1.00D-01 BMatC= 2.73D-02 BMatP= 5.06D-02
 IDIUse=3 WtCom= 9.11D-01 WtEn= 8.93D-02
 Coeff-Com:  0.560D+00-0.720D+00 0.704D+00 0.455D+00
 Coeff-En:   0.000D+00 0.000D+00 0.331D+00 0.669D+00
 Coeff:      0.510D+00-0.655D+00 0.671D+00 0.474D+00
 Gap=     0.207 Goal=   None    Shift=    0.000
 RMSDP=8.94D-04 MaxDP=2.76D-02 DE=-2.08D-02 OVMax= 4.20D-02

 Cycle   5  Pass 0  IDiag  1:
 RMSU=  2.23D-04    CP:  9.70D-01  1.93D+00  1.04D+00  3.65D-01
 E= -3031.26822649524     Delta-E=       -0.024895777435 Rises=F Damp=F
 DIIS: error= 1.80D-03 at cycle   5 NSaved=   5.
 NSaved= 5 IEnMin= 5 EnMin= -3031.26822649524     IErMin= 5 ErrMin= 1.80D-03
 ErrMax= 1.80D-03  0.00D+00 EMaxC= 1.00D-01 BMatC= 8.79D-04 BMatP= 2.73D-02
 IDIUse=3 WtCom= 9.82D-01 WtEn= 1.80D-02
 Coeff-Com:  0.211D+00-0.273D+00 0.281D+00 0.245D+00 0.536D+00
 Coeff-En:   0.000D+00 0.000D+00 0.000D+00 0.000D+00 0.100D+01
 Coeff:      0.207D+00-0.268D+00 0.276D+00 0.241D+00 0.544D+00
 Gap=     0.197 Goal=   None    Shift=    0.000
 RMSDP=1.52D-04 MaxDP=5.14D-03 DE=-2.49D-02 OVMax= 8.86D-03

 Cycle   6  Pass 0  IDiag  1:
 RMSU=  7.23D-05    CP:  9.70D-01  1.96D+00  1.02D+00  4.23D-01  5.41D-01
 E= -3031.26891347760     Delta-E=       -0.000686982358 Rises=F Damp=F
 DIIS: error= 4.26D-04 at cycle   6 NSaved=   6.
 NSaved= 6 IEnMin= 6 EnMin= -3031.26891347760     IErMin= 6 ErrMin= 4.26D-04
 ErrMax= 4.26D-04  0.00D+00 EMaxC= 1.00D-01 BMatC= 6.80D-05 BMatP= 8.79D-04
 IDIUse=3 WtCom= 9.96D-01 WtEn= 4.26D-03
 Coeff-Com:  0.673D-01-0.877D-01 0.888D-01 0.858D-01 0.298D+00 0.548D+00
 Coeff-En:   0.000D+00 0.000D+00 0.000D+00 0.000D+00 0.431D-02 0.996D+00
 Coeff:      0.670D-01-0.874D-01 0.884D-01 0.855D-01 0.296D+00 0.550D+00
 Gap=     0.196 Goal=   None    Shift=    0.000
 RMSDP=4.60D-05 MaxDP=1.58D-03 DE=-6.87D-04 OVMax= 3.01D-03

 Cycle   7  Pass 0  IDiag  1:
 RMSU=  2.48D-05    CP:  9.70D-01  1.95D+00  1.03D+00  4.31D-01  5.86D-01
                    CP:  5.26D-01
 E= -3031.26896762610     Delta-E=       -0.000054148494 Rises=F Damp=F
 DIIS: error= 1.69D-04 at cycle   7 NSaved=   7.
 NSaved= 7 IEnMin= 7 EnMin= -3031.26896762610     IErMin= 7 ErrMin= 1.69D-04
 ErrMax= 1.69D-04  0.00D+00 EMaxC= 1.00D-01 BMatC= 7.21D-06 BMatP= 6.80D-05
 IDIUse=3 WtCom= 9.98D-01 WtEn= 1.69D-03
 Coeff-Com:  0.221D-01-0.291D-01 0.272D-01 0.271D-01 0.121D+00 0.311D+00
 Coeff-Com:  0.521D+00
 Coeff-En:   0.000D+00 0.000D+00 0.000D+00 0.000D+00 0.000D+00 0.245D-01
 Coeff-En:   0.975D+00
 Coeff:      0.220D-01-0.291D-01 0.272D-01 0.270D-01 0.121D+00 0.310D+00
 Coeff:      0.522D+00
 Gap=     0.196 Goal=   None    Shift=    0.000
 RMSDP=1.59D-05 MaxDP=4.87D-04 DE=-5.41D-05 OVMax= 9.12D-04

 Cycle   8  Pass 0  IDiag  1:
 RMSU=  8.51D-06    CP:  9.70D-01  1.95D+00  1.03D+00  4.27D-01  5.87D-01
                    CP:  6.03D-01  5.42D-01
 E= -3031.26897386359     Delta-E=       -0.000006237498 Rises=F Damp=F
 DIIS: error= 5.69D-05 at cycle   8 NSaved=   8.
 NSaved= 8 IEnMin= 8 EnMin= -3031.26897386359     IErMin= 8 ErrMin= 5.69D-05
 ErrMax= 5.69D-05  0.00D+00 EMaxC= 1.00D-01 BMatC= 8.58D-07 BMatP= 7.21D-06
 IDIUse=1 WtCom= 1.00D+00 WtEn= 0.00D+00
 Coeff-Com:  0.611D-02-0.818D-02 0.661D-02 0.631D-02 0.379D-01 0.120D+00
 Coeff-Com:  0.308D+00 0.523D+00
 Coeff:      0.611D-02-0.818D-02 0.661D-02 0.631D-02 0.379D-01 0.120D+00
 Coeff:      0.308D+00 0.523D+00
 Gap=     0.196 Goal=   None    Shift=    0.000
 RMSDP=5.36D-06 MaxDP=2.65D-04 DE=-6.24D-06 OVMax= 4.19D-04

 Initial convergence to 1.0D-05 achieved.  Increase integral accuracy.
 Cycle   9  Pass 1  IDiag  1:
 E= -3031.26894186601     Delta-E=        0.000031997582 Rises=F Damp=F
 DIIS: error= 5.63D-05 at cycle   1 NSaved=   1.
 NSaved= 1 IEnMin= 1 EnMin= -3031.26894186601     IErMin= 1 ErrMin= 5.63D-05
 ErrMax= 5.63D-05  0.00D+00 EMaxC= 1.00D-01 BMatC= 2.09D-07 BMatP= 2.09D-07
 IDIUse=1 WtCom= 1.00D+00 WtEn= 0.00D+00
 Coeff-Com:  0.100D+01
 Coeff:      0.100D+01
 Gap=     0.196 Goal=   None    Shift=    0.000
 RMSDP=5.36D-06 MaxDP=2.65D-04 DE= 3.20D-05 OVMax= 2.55D-04

 Cycle  10  Pass 1  IDiag  1:
 RMSU=  1.04D-05    CP:  1.00D+00
 E= -3031.26894180744     Delta-E=        0.000000058575 Rises=F Damp=F
 DIIS: error= 2.65D-05 at cycle   2 NSaved=   2.
 NSaved= 2 IEnMin= 1 EnMin= -3031.26894186601     IErMin= 2 ErrMin= 2.65D-05
 ErrMax= 2.65D-05  0.00D+00 EMaxC= 1.00D-01 BMatC= 1.80D-07 BMatP= 2.09D-07
 IDIUse=1 WtCom= 1.00D+00 WtEn= 0.00D+00
 Coeff-Com:  0.476D+00 0.524D+00
 Coeff:      0.476D+00 0.524D+00
 Gap=     0.196 Goal=   None    Shift=    0.000
 RMSDP=3.20D-06 MaxDP=1.44D-04 DE= 5.86D-08 OVMax= 2.46D-04

 Cycle  11  Pass 1  IDiag  1:
 RMSU=  3.04D-06    CP:  1.00D+00  9.04D-01
 E= -3031.26894193895     Delta-E=       -0.000000131514 Rises=F Damp=F
 DIIS: error= 1.71D-05 at cycle   3 NSaved=   3.
 NSaved= 3 IEnMin= 3 EnMin= -3031.26894193895     IErMin= 3 ErrMin= 1.71D-05
 ErrMax= 1.71D-05  0.00D+00 EMaxC= 1.00D-01 BMatC= 5.68D-08 BMatP= 1.80D-07
 IDIUse=1 WtCom= 1.00D+00 WtEn= 0.00D+00
 Coeff-Com:  0.441D-01 0.355D+00 0.601D+00
 Coeff:      0.441D-01 0.355D+00 0.601D+00
 Gap=     0.196 Goal=   None    Shift=    0.000
 RMSDP=1.31D-06 MaxDP=5.18D-05 DE=-1.32D-07 OVMax= 9.17D-05

 Cycle  12  Pass 1  IDiag  1:
 RMSU=  6.38D-07    CP:  1.00D+00  9.45D-01  6.50D-01
 E= -3031.26894199616     Delta-E=       -0.000000057207 Rises=F Damp=F
 DIIS: error= 3.01D-06 at cycle   4 NSaved=   4.
 NSaved= 4 IEnMin= 4 EnMin= -3031.26894199616     IErMin= 4 ErrMin= 3.01D-06
 ErrMax= 3.01D-06  0.00D+00 EMaxC= 1.00D-01 BMatC= 4.77D-09 BMatP= 5.68D-08
 IDIUse=1 WtCom= 1.00D+00 WtEn= 0.00D+00
 Coeff-Com: -0.335D-03 0.188D+00 0.367D+00 0.445D+00
 Coeff:     -0.335D-03 0.188D+00 0.367D+00 0.445D+00
 Gap=     0.196 Goal=   None    Shift=    0.000
 RMSDP=3.62D-07 MaxDP=1.21D-05 DE=-5.72D-08 OVMax= 1.89D-05

 Cycle  13  Pass 1  IDiag  1:
 RMSU=  9.62D-08    CP:  1.00D+00  9.46D-01  6.69D-01  4.61D-01
 E= -3031.26894200065     Delta-E=       -0.000000004495 Rises=F Damp=F
 DIIS: error= 4.61D-07 at cycle   5 NSaved=   5.
 NSaved= 5 IEnMin= 5 EnMin= -3031.26894200065     IErMin= 5 ErrMin= 4.61D-07
 ErrMax= 4.61D-07  0.00D+00 EMaxC= 1.00D-01 BMatC= 1.06D-10 BMatP= 4.77D-09
 IDIUse=1 WtCom= 1.00D+00 WtEn= 0.00D+00
 Coeff-Com: -0.141D-02 0.957D-01 0.189D+00 0.250D+00 0.468D+00
 Coeff:     -0.141D-02 0.957D-01 0.189D+00 0.250D+00 0.468D+00
 Gap=     0.196 Goal=   None    Shift=    0.000
 RMSDP=4.83D-08 MaxDP=2.08D-06 DE=-4.50D-09 OVMax= 2.29D-06

 Cycle  14  Pass 1  IDiag  1:
 RMSU=  2.78D-08    CP:  1.00D+00  9.46D-01  6.67D-01  4.67D-01  6.05D-01
 E= -3031.26894200073     Delta-E=       -0.000000000075 Rises=F Damp=F
 DIIS: error= 1.07D-07 at cycle   6 NSaved=   6.
 NSaved= 6 IEnMin= 6 EnMin= -3031.26894200073     IErMin= 6 ErrMin= 1.07D-07
 ErrMax= 1.07D-07  0.00D+00 EMaxC= 1.00D-01 BMatC= 6.96D-12 BMatP= 1.06D-10
 IDIUse=1 WtCom= 1.00D+00 WtEn= 0.00D+00
 Coeff-Com: -0.827D-03 0.462D-01 0.912D-01 0.123D+00 0.277D+00 0.463D+00
 Coeff:     -0.827D-03 0.462D-01 0.912D-01 0.123D+00 0.277D+00 0.463D+00
 Gap=     0.196 Goal=   None    Shift=    0.000
 RMSDP=1.33D-08 MaxDP=6.35D-07 DE=-7.46D-11 OVMax= 6.73D-07

 Cycle  15  Pass 1  IDiag  1:
 RMSU=  1.13D-08    CP:  1.00D+00  9.46D-01  6.66D-01  4.69D-01  6.11D-01
                    CP:  7.65D-01
 E= -3031.26894200075     Delta-E=       -0.000000000021 Rises=F Damp=F
 DIIS: error= 5.63D-08 at cycle   7 NSaved=   7.
 NSaved= 7 IEnMin= 7 EnMin= -3031.26894200075     IErMin= 7 ErrMin= 5.63D-08
 ErrMax= 5.63D-08  0.00D+00 EMaxC= 1.00D-01 BMatC= 8.08D-13 BMatP= 6.96D-12
 IDIUse=1 WtCom= 1.00D+00 WtEn= 0.00D+00
 Coeff-Com: -0.262D-03 0.122D-01 0.241D-01 0.333D-01 0.935D-01 0.277D+00
 Coeff-Com:  0.560D+00
 Coeff:     -0.262D-03 0.122D-01 0.241D-01 0.333D-01 0.935D-01 0.277D+00
 Coeff:      0.560D+00
 Gap=     0.196 Goal=   None    Shift=    0.000
 RMSDP=4.90D-09 MaxDP=1.88D-07 DE=-2.14D-11 OVMax= 3.05D-07

 SCF Done:  E(RB3LYP) =  -3031.26894200     A.U. after   15 cycles
            NFock= 15  Conv=0.49D-08     -V/T= 2.0065
 KE= 3.011564151090D+03 PE=-8.921967037875D+03 EE= 2.020427106724D+03
 Leave Link  502 at Tue Sep 17 09:43:46 2024, MaxMem=  1342177280 cpu:              77.2 elap:              10.5
 (Enter /groups/ReismanLab/Software/Gaussian16_RevC/Linux_Binary_AVX2-enabled-CPU/g16/l508.exe)
 QCSCF skips out because SCF is already converged.
 Leave Link  508 at Tue Sep 17 09:43:46 2024, MaxMem=  1342177280 cpu:               0.1 elap:               0.0
 (Enter /groups/ReismanLab/Software/Gaussian16_RevC/Linux_Binary_AVX2-enabled-CPU/g16/l601.exe)
 Copying SCF densities to generalized density rwf, IOpCl= 0 IROHF=0.

 **********************************************************************

            Population analysis using the SCF Density.

 **********************************************************************

 Orbital symmetries:
       Occupied  (A) (A) (A) (A) (A) (A) (A) (A) (A) (A) (A) (A)
                 (A) (A) (A) (A) (A) (A) (A) (A) (A) (A) (A) (A)
                 (A) (A) (A) (A) (A) (A) (A) (A) (A) (A) (A) (A)
                 (A) (A) (A) (A) (A) (A) (A) (A) (A) (A) (A) (A)
                 (A) (A) (A) (A) (A)
       Virtual   (A) (A) (A) (A) (A) (A) (A) (A) (A) (A) (A) (A)
                 (A) (A) (A) (A) (A) (A) (A) (A) (A) (A) (A) (A)
                 (A) (A) (A) (A) (A) (A) (A) (A) (A) (A) (A) (A)
                 (A) (A) (A) (A) (A) (A) (A) (A) (A) (A) (A) (A)
                 (A) (A) (A) (A) (A) (A) (A) (A) (A) (A) (A) (A)
                 (A) (A) (A) (A) (A) (A) (A) (A) (A) (A) (A) (A)
                 (A) (A) (A) (A) (A) (A) (A) (A) (A) (A) (A) (A)
                 (A) (A) (A) (A) (A) (A) (A) (A) (A) (A) (A) (A)
                 (A) (A) (A) (A) (A) (A) (A) (A) (A) (A) (A) (A)
                 (A) (A) (A) (A) (A) (A) (A) (A) (A) (A) (A) (A)
                 (A) (A) (A) (A) (A) (A) (A) (A) (A) (A) (A) (A)
                 (A) (A) (A) (A) (A) (A) (A) (A) (A) (A) (A) (A)
                 (A) (A) (A) (A) (A) (A) (A) (A) (A) (A) (A) (A)
                 (A) (A) (A) (A) (A) (A)
 The electronic state is 1-A.
 Alpha  occ. eigenvalues -- -482.90475 -61.86608 -56.38738 -56.38305 -56.38296
 Alpha  occ. eigenvalues --  -19.19605 -19.13543 -10.31751 -10.25350 -10.24236
 Alpha  occ. eigenvalues --  -10.21727 -10.20824 -10.20708 -10.20584 -10.20220
 Alpha  occ. eigenvalues --   -8.57708  -6.53134  -6.51848  -6.51717  -2.64701
 Alpha  occ. eigenvalues --   -2.64357  -2.64255  -2.63228  -2.63225  -1.11327
 Alpha  occ. eigenvalues --   -1.02117  -0.88677  -0.80564  -0.78760  -0.73597
 Alpha  occ. eigenvalues --   -0.72163  -0.64110  -0.61307  -0.57263  -0.54153
 Alpha  occ. eigenvalues --   -0.49336  -0.49044  -0.48288  -0.46226  -0.45323
 Alpha  occ. eigenvalues --   -0.42699  -0.42241  -0.41260  -0.38112  -0.37511
 Alpha  occ. eigenvalues --   -0.36586  -0.35328  -0.31559  -0.30721  -0.29520
 Alpha  occ. eigenvalues --   -0.27042  -0.25247  -0.24429
 Alpha virt. eigenvalues --   -0.04832  -0.01669   0.01545   0.05101   0.10199
 Alpha virt. eigenvalues --    0.11350   0.13054   0.14243   0.15429   0.15642
 Alpha virt. eigenvalues --    0.17342   0.17588   0.18557   0.24411   0.25552
 Alpha virt. eigenvalues --    0.27684   0.29078   0.29923   0.32424   0.36107
 Alpha virt. eigenvalues --    0.37067   0.44034   0.44216   0.46080   0.46950
 Alpha virt. eigenvalues --    0.47830   0.48529   0.51383   0.52419   0.52877
 Alpha virt. eigenvalues --    0.53016   0.53891   0.55555   0.56349   0.57164
 Alpha virt. eigenvalues --    0.57606   0.59351   0.59824   0.61505   0.62052
 Alpha virt. eigenvalues --    0.64309   0.64985   0.68184   0.70432   0.71239
 Alpha virt. eigenvalues --    0.73646   0.76754   0.79084   0.80084   0.81190
 Alpha virt. eigenvalues --    0.81445   0.82157   0.83453   0.84731   0.86890
 Alpha virt. eigenvalues --    0.89053   0.89948   0.93612   0.95183   0.95674
 Alpha virt. eigenvalues --    0.97871   0.99490   1.02651   1.05241   1.08305
 Alpha virt. eigenvalues --    1.09593   1.12369   1.18910   1.21178   1.21883
 Alpha virt. eigenvalues --    1.26149   1.27116   1.29795   1.31983   1.33694
 Alpha virt. eigenvalues --    1.36120   1.39555   1.39900   1.40608   1.44174
 Alpha virt. eigenvalues --    1.46005   1.48421   1.53076   1.60014   1.62871
 Alpha virt. eigenvalues --    1.64652   1.68094   1.74476   1.77316   1.78725
 Alpha virt. eigenvalues --    1.84418   1.85711   1.86694   1.87160   1.91994
 Alpha virt. eigenvalues --    1.92738   1.93075   1.94164   1.97298   1.98361
 Alpha virt. eigenvalues --    1.98808   1.99992   2.00105   2.01592   2.03340
 Alpha virt. eigenvalues --    2.05003   2.07376   2.11826   2.13573   2.15542
 Alpha virt. eigenvalues --    2.27205   2.28778   2.31546   2.34290   2.37085
 Alpha virt. eigenvalues --    2.38672   2.40906   2.41903   2.46344   2.47830
 Alpha virt. eigenvalues --    2.49740   2.51552   2.52106   2.55125   2.57255
 Alpha virt. eigenvalues --    2.58021   2.61975   2.62917   2.63766   2.70837
 Alpha virt. eigenvalues --    2.71745   2.74004   2.76456   2.78574   2.84443
 Alpha virt. eigenvalues --    2.88787   2.94208   2.98864   3.00445   3.13425
 Alpha virt. eigenvalues --    3.17336   3.20331   3.23709   3.24068   3.33885
 Alpha virt. eigenvalues --    3.34774   3.40762   3.43526   3.47968   3.84923
 Alpha virt. eigenvalues --    4.00534   4.08701   4.13262   4.14291   4.28844
 Alpha virt. eigenvalues --    4.38565   4.42494   4.43525   4.54558   4.80478
 Alpha virt. eigenvalues --    8.63658  73.23566
          Condensed to atoms (all electrons):
               1          2          3          4          5          6
     1  C    4.719487   0.217362  -0.022330   0.002297   0.008093  -0.000264
     2  O    0.217362   8.251042   0.265612  -0.085511  -0.100239   0.001625
     3  C   -0.022330   0.265612   4.423909   0.530734   0.331369  -0.050185
     4  O    0.002297  -0.085511   0.530734   8.087143  -0.066816   0.003123
     5  C    0.008093  -0.100239   0.331369  -0.066816   5.004187   0.482152
     6  C   -0.000264   0.001625  -0.050185   0.003123   0.482152   4.928782
     7  C    0.000002   0.000472   0.005534  -0.000081  -0.019708   0.505054
     8  C    0.000000  -0.000000   0.000101  -0.000003  -0.038538  -0.029776
     9  C    0.000002  -0.000062   0.007356   0.000250  -0.023293  -0.053677
    10  C   -0.000071   0.001750  -0.047630  -0.009410   0.490403  -0.043531
    11  Br   0.000014   0.000022  -0.008391  -0.009233  -0.065256   0.006390
    12  H    0.388764  -0.033262   0.004437   0.000735   0.000049  -0.000080
    13  H    0.385058  -0.032632  -0.005086   0.005515   0.000136  -0.000011
    14  H    0.384447  -0.031947  -0.006256   0.007590  -0.000327   0.000084
    15  H   -0.000393   0.012218  -0.011414   0.000181  -0.038094   0.370697
    16  H   -0.000000  -0.000003  -0.000169   0.000000   0.003661  -0.035930
    17  H   -0.000000   0.000000   0.000008  -0.000000   0.000824   0.004544
    18  H   -0.000000   0.000000  -0.000128   0.000007   0.005073   0.000620
               7          8          9         10         11         12
     1  C    0.000002   0.000000   0.000002  -0.000071   0.000014   0.388764
     2  O    0.000472  -0.000000  -0.000062   0.001750   0.000022  -0.033262
     3  C    0.005534   0.000101   0.007356  -0.047630  -0.008391   0.004437
     4  O   -0.000081  -0.000003   0.000250  -0.009410  -0.009233   0.000735
     5  C   -0.019708  -0.038538  -0.023293   0.490403  -0.065256   0.000049
     6  C    0.505054  -0.029776  -0.053677  -0.043531   0.006390  -0.000080
     7  C    4.841563   0.534801  -0.026920  -0.042583  -0.000079  -0.000001
     8  C    0.534801   4.820439   0.511651  -0.029175   0.006365   0.000000
     9  C   -0.026920   0.511651   4.918420   0.496996  -0.075646  -0.000000
    10  C   -0.042583  -0.029175   0.496996   4.888854   0.290076   0.000004
    11  Br  -0.000079   0.006365  -0.075646   0.290076  34.949054   0.000000
    12  H   -0.000001   0.000000  -0.000000   0.000004   0.000000   0.585611
    13  H   -0.000000  -0.000000  -0.000000  -0.000003   0.000004  -0.033631
    14  H    0.000002  -0.000000   0.000000   0.000007  -0.000002  -0.032412
    15  H   -0.041041   0.004621   0.000477   0.005410  -0.000122  -0.000032
    16  H    0.369276  -0.041003   0.004528   0.001068   0.000010  -0.000000
    17  H   -0.039995   0.370133  -0.038089   0.004438  -0.000175  -0.000000
    18  H    0.004710  -0.040302   0.370376  -0.039913  -0.001408   0.000000
              13         14         15         16         17         18
     1  C    0.385058   0.384447  -0.000393  -0.000000  -0.000000  -0.000000
     2  O   -0.032632  -0.031947   0.012218  -0.000003   0.000000   0.000000
     3  C   -0.005086  -0.006256  -0.011414  -0.000169   0.000008  -0.000128
     4  O    0.005515   0.007590   0.000181   0.000000  -0.000000   0.000007
     5  C    0.000136  -0.000327  -0.038094   0.003661   0.000824   0.005073
     6  C   -0.000011   0.000084   0.370697  -0.035930   0.004544   0.000620
     7  C   -0.000000   0.000002  -0.041041   0.369276  -0.039995   0.004710
     8  C   -0.000000  -0.000000   0.004621  -0.041003   0.370133  -0.040302
     9  C   -0.000000   0.000000   0.000477   0.004528  -0.038089   0.370376
    10  C   -0.000003   0.000007   0.005410   0.001068   0.004438  -0.039913
    11  Br   0.000004  -0.000002  -0.000122   0.000010  -0.000175  -0.001408
    12  H   -0.033631  -0.032412  -0.000032  -0.000000  -0.000000   0.000000
    13  H    0.589466  -0.038441   0.000007  -0.000000   0.000000  -0.000000
    14  H   -0.038441   0.583964   0.000040  -0.000000   0.000000  -0.000000
    15  H    0.000007   0.000040   0.586677  -0.005756  -0.000194   0.000017
    16  H   -0.000000  -0.000000  -0.005756   0.614786  -0.005921  -0.000181
    17  H    0.000000   0.000000  -0.000194  -0.005921   0.610870  -0.006364
    18  H   -0.000000  -0.000000   0.000017  -0.000181  -0.006364   0.595236
 Mulliken charges:
               1
     1  C   -0.082470
     2  O   -0.466447
     3  C    0.582531
     4  O   -0.466522
     5  C    0.026327
     6  C   -0.089619
     7  C   -0.091004
     8  C   -0.069315
     9  C   -0.092369
    10  C    0.033311
    11  Br  -0.091624
    12  H    0.119818
    13  H    0.129618
    14  H    0.133252
    15  H    0.116700
    16  H    0.095635
    17  H    0.099920
    18  H    0.112259
 Sum of Mulliken charges =  -0.00000
 Mulliken charges with hydrogens summed into heavy atoms:
               1
     1  C    0.300218
     2  O   -0.466447
     3  C    0.582531
     4  O   -0.466522
     5  C    0.026327
     6  C    0.027081
     7  C    0.004630
     8  C    0.030605
     9  C    0.019890
    10  C    0.033311
    11  Br  -0.091624
 Electronic spatial extent (au):  <R**2>=           2434.2887
 Charge=             -0.0000 electrons
 Dipole moment (field-independent basis, Debye):
    X=             -0.9296    Y=              2.9046    Z=             -0.4428  Tot=              3.0817
 Quadrupole moment (field-independent basis, Debye-Ang):
   XX=            -61.7644   YY=            -70.8900   ZZ=            -76.7773
   XY=              2.3177   XZ=              0.6288   YZ=              1.7742
 Traceless Quadrupole moment (field-independent basis, Debye-Ang):
   XX=              8.0462   YY=             -1.0794   ZZ=             -6.9667
   XY=              2.3177   XZ=              0.6288   YZ=              1.7742
 Octapole moment (field-independent basis, Debye-Ang**2):
  XXX=            -12.2016  YYY=            -31.9633  ZZZ=             -0.8101  XYY=             18.4066
  XXY=            -14.3452  XXZ=             -2.9170  XZZ=              3.8939  YZZ=            -23.0175
  YYZ=             -2.4869  XYZ=             -3.3863
 Hexadecapole moment (field-independent basis, Debye-Ang**3):
 XXXX=          -1389.9735 YYYY=          -1101.0574 ZZZZ=            -95.1844 XXXY=            -16.5176
 XXXZ=              6.9138 YYYX=            -63.4723 YYYZ=              6.2628 ZZZX=             -3.6555
 ZZZY=              0.1032 XXYY=           -451.4466 XXZZ=           -290.2026 YYZZ=           -233.5654
 XXYZ=              3.5498 YYXZ=              1.8250 ZZXY=            -23.1835
 N-N= 8.587068380602D+02 E-N=-8.921967040694D+03  KE= 3.011564151090D+03
 No NMR shielding tensors so no spin-rotation constants.
 Leave Link  601 at Tue Sep 17 09:43:46 2024, MaxMem=  1342177280 cpu:               0.7 elap:               0.2
 (Enter /groups/ReismanLab/Software/Gaussian16_RevC/Linux_Binary_AVX2-enabled-CPU/g16/l701.exe)
 ... and contract with generalized density number  0.
 Compute integral first derivatives.
 R6Disp: Adding Grimme-D3(BJ) dispersion energy 1st derivatives to the gradient.
 Leave Link  701 at Tue Sep 17 09:43:46 2024, MaxMem=  1342177280 cpu:               0.5 elap:               0.1
 (Enter /groups/ReismanLab/Software/Gaussian16_RevC/Linux_Binary_AVX2-enabled-CPU/g16/l702.exe)
 L702 exits ... SP integral derivatives will be done elsewhere.
 Leave Link  702 at Tue Sep 17 09:43:47 2024, MaxMem=  1342177280 cpu:               0.1 elap:               0.0
 (Enter /groups/ReismanLab/Software/Gaussian16_RevC/Linux_Binary_AVX2-enabled-CPU/g16/l703.exe)
 Integral derivatives from FoFJK, PRISM(SPDF).
 Compute integral first derivatives, UseDBF=F ICtDFT=           0.
 Calling FoFJK, ICntrl=      2127 FMM=F ISym2X=0 I1Cent= 0 IOpClX= 0 NMat=1 NMatS=1 NMatT=0.
 FoFJK:  IHMeth= 1 ICntrl=    2127 DoSepK=F KAlg= 0 I1Cent=           0 FoldK=F
 IRaf=         0 NMat=       1 IRICut=       1 DoRegI=T DoRafI=F ISym2E= 0 IDoP0=0 IntGTp=1.
 FoFCou: FMM=F IPFlag=           0 FMFlag=      100000 FMFlg1=         800
         NFxFlg=           0 DoJE=F BraDBF=F KetDBF=F FulRan=T
         wScrn=  0.000000 ICntrl=      2127 IOpCl=  0 I1Cent=           0 NGrid=           0
         NMat0=    1 NMatS0=      1 NMatT0=    0 NMatD0=    1 NMtDS0=    0 NMtDT0=    0
 Symmetry not used in FoFCou.
 Leave Link  703 at Tue Sep 17 09:43:50 2024, MaxMem=  1342177280 cpu:              23.4 elap:               3.0
 (Enter /groups/ReismanLab/Software/Gaussian16_RevC/Linux_Binary_AVX2-enabled-CPU/g16/l716.exe)
 Dipole        =-3.65716188D-01 1.14276755D+00-1.74200757D-01
 ***** Axes restored to original set *****
 -------------------------------------------------------------------
 Center     Atomic                   Forces (Hartrees/Bohr)
 Number     Number              X              Y              Z
 -------------------------------------------------------------------
      1        6           0.007255828   -0.000194151   -0.001393823
      2        8          -0.008565843    0.008965523    0.004303813
      3        6          -0.007970180    0.000649904   -0.000187925
      4        8           0.014615095   -0.005300829   -0.004524943
      5        6           0.005545611    0.001641078    0.000014284
      6        6           0.000874973    0.004013878    0.000068188
      7        6          -0.004487630    0.004517107   -0.000620707
      8        6          -0.004387047    0.000097666    0.000141747
      9        6          -0.000231651   -0.006448855    0.000350463
     10        6           0.002927654   -0.003575708   -0.000043302
     11       35          -0.001237630   -0.008407982    0.001450087
     12        1          -0.000249069    0.001756896    0.000465800
     13        1           0.001369445    0.000350465   -0.000502618
     14        1           0.001069151    0.000144396    0.000132572
     15        1           0.000997976    0.002943912    0.000143836
     16        1          -0.002898378    0.003184981   -0.000320323
     17        1          -0.004213201   -0.001197757    0.000136069
     18        1          -0.000415105   -0.003140523    0.000386782
 -------------------------------------------------------------------
 Cartesian Forces:  Max     0.014615095 RMS     0.004003616
 Leave Link  716 at Tue Sep 17 09:43:50 2024, MaxMem=  1342177280 cpu:               0.1 elap:               0.1
 (Enter /groups/ReismanLab/Software/Gaussian16_RevC/Linux_Binary_AVX2-enabled-CPU/g16/l103.exe)

 GradGradGradGradGradGradGradGradGradGradGradGradGradGradGradGradGradGrad
 Berny optimization.
 FormGI is forming the generalized inverse of G from B-inverse, IUseBI=4.
 Internal  Forces:  Max     0.016885308 RMS     0.005097380
 Search for a local minimum.
 Step number   1 out of a maximum of   89
 All quantities printed in internal units (Hartrees-Bohrs-Radians)
 RMS Force = .50974D-02 SwitMx=.10000D-02 MixMth= 1
 Mixed Optimization -- RFO/linear search
 Second derivative matrix not updated -- first step.
 ITU=  0
     Eigenvalues ---    0.00948   0.01431   0.01435   0.01784   0.02173
     Eigenvalues ---    0.02205   0.02248   0.02265   0.02283   0.02296
     Eigenvalues ---    0.02300   0.02314   0.02461   0.10307   0.10653
     Eigenvalues ---    0.16000   0.16000   0.16000   0.16000   0.16000
     Eigenvalues ---    0.16000   0.16000   0.18568   0.22000   0.22488
     Eigenvalues ---    0.24480   0.24991   0.24995   0.24999   0.25000
     Eigenvalues ---    0.25000   0.33863   0.34574   0.34589   0.35181
     Eigenvalues ---    0.36073   0.36101   0.36107   0.36178   0.42500
     Eigenvalues ---    0.42962   0.43319   0.46858   0.47436   0.48198
     Eigenvalues ---    0.48687   0.56784   1.03007
 RFO step:  Lambda=-5.83247825D-03 EMin= 9.47721089D-03
 Linear search not attempted -- first point.
 Iteration  1 RMS(Cart)=  0.07366342 RMS(Int)=  0.00170161
 Iteration  2 RMS(Cart)=  0.00382602 RMS(Int)=  0.00016972
 Iteration  3 RMS(Cart)=  0.00000855 RMS(Int)=  0.00016966
 Iteration  4 RMS(Cart)=  0.00000000 RMS(Int)=  0.00016966
 ITry= 1 IFail=0 DXMaxC= 3.23D-01 DCOld= 1.00D+10 DXMaxT= 3.00D-01 DXLimC= 3.00D+00 Rises=F
 Variable       Old X    -DE/DX   Delta X   Delta X   Delta X     New X
                                 (Linear)    (Quad)   (Total)
    R1        2.68292   0.00965   0.00000   0.02239   0.02239   2.70531
    R2        2.05382   0.00182   0.00000   0.00508   0.00508   2.05890
    R3        2.06372   0.00093   0.00000   0.00265   0.00265   2.06637
    R4        2.06348   0.00061   0.00000   0.00174   0.00174   2.06522
    R5        2.53580   0.01143   0.00000   0.01993   0.01993   2.55573
    R6        2.27458   0.01533   0.00000   0.01480   0.01480   2.28938
    R7        2.80862   0.00896   0.00000   0.02600   0.02600   2.83462
    R8        2.63609   0.01028   0.00000   0.02210   0.02211   2.65820
    R9        2.63581   0.01689   0.00000   0.03640   0.03643   2.67223
   R10        2.60924   0.00834   0.00000   0.01657   0.01655   2.62580
   R11        2.03803   0.00309   0.00000   0.00840   0.00840   2.04643
   R12        2.62047   0.00713   0.00000   0.01418   0.01416   2.63463
   R13        2.03914   0.00432   0.00000   0.01176   0.01176   2.05090
   R14        2.61200   0.00926   0.00000   0.01856   0.01855   2.63055
   R15        2.03967   0.00438   0.00000   0.01195   0.01195   2.05162
   R16        2.62185   0.00853   0.00000   0.01791   0.01793   2.63978
   R17        2.03923   0.00316   0.00000   0.00860   0.00860   2.04784
   R18        3.57834   0.00561   0.00000   0.02928   0.02928   3.60761
    A1        1.85341  -0.00091   0.00000  -0.00618  -0.00618   1.84723
    A2        1.92555   0.00167   0.00000   0.01046   0.01044   1.93599
    A3        1.92561   0.00119   0.00000   0.00753   0.00751   1.93312
    A4        1.93110  -0.00058   0.00000  -0.00420  -0.00419   1.92691
    A5        1.93141  -0.00038   0.00000  -0.00302  -0.00301   1.92840
    A6        1.89686  -0.00094   0.00000  -0.00436  -0.00441   1.89245
    A7        2.01648  -0.00090   0.00000  -0.00352  -0.00352   2.01295
    A8        2.14786  -0.00349   0.00000  -0.01379  -0.01420   2.13366
    A9        1.94843  -0.00456   0.00000  -0.01798  -0.01842   1.93001
   A10        2.18685   0.00804   0.00000   0.03129   0.03083   2.21768
   A11        2.08964  -0.01066   0.00000  -0.04220  -0.04222   2.04741
   A12        2.12502   0.01426   0.00000   0.05525   0.05523   2.18024
   A13        2.06831  -0.00360   0.00000  -0.01291  -0.01288   2.05543
   A14        2.11089   0.00384   0.00000   0.01651   0.01651   2.12739
   A15        2.06848  -0.00202   0.00000  -0.00886  -0.00886   2.05963
   A16        2.10379  -0.00182   0.00000  -0.00767  -0.00767   2.09612
   A17        2.09200  -0.00108   0.00000  -0.00691  -0.00695   2.08505
   A18        2.09319   0.00044   0.00000   0.00285   0.00287   2.09606
   A19        2.09799   0.00064   0.00000   0.00406   0.00407   2.10207
   A20        2.09589   0.00011   0.00000  -0.00159  -0.00162   2.09427
   A21        2.09998   0.00010   0.00000   0.00171   0.00173   2.10170
   A22        2.08732  -0.00021   0.00000  -0.00013  -0.00012   2.08720
   A23        2.09428   0.00255   0.00000   0.01095   0.01095   2.10523
   A24        2.10594  -0.00081   0.00000  -0.00266  -0.00266   2.10328
   A25        2.08296  -0.00174   0.00000  -0.00829  -0.00829   2.07467
   A26        2.10497  -0.00182   0.00000  -0.00610  -0.00612   2.09885
   A27        2.12914   0.01254   0.00000   0.04835   0.04826   2.17740
   A28        2.04884  -0.01073   0.00000  -0.04264  -0.04270   2.00614
    D1       -3.09478  -0.00009   0.00000  -0.00460  -0.00461  -3.09938
    D2        1.09509   0.00024   0.00000  -0.00163  -0.00159   1.09350
    D3       -1.00106  -0.00043   0.00000  -0.00777  -0.00781  -1.00886
    D4        0.00069  -0.00005   0.00000  -0.01136  -0.01079  -0.01009
    D5       -3.13120   0.00095   0.00000   0.04089   0.04031  -3.09089
    D6        0.36257  -0.00009   0.00000   0.00438   0.00408   0.36664
    D7       -2.80199   0.00005   0.00000   0.01143   0.01121  -2.79078
    D8       -2.76906   0.00102   0.00000   0.05834   0.05856  -2.71050
    D9        0.34957   0.00116   0.00000   0.06539   0.06569   0.41526
   D10        3.11640   0.00000   0.00000  -0.00642  -0.00650   3.10990
   D11       -0.01863   0.00004   0.00000  -0.00323  -0.00333  -0.02196
   D12       -0.00297  -0.00038   0.00000  -0.01416  -0.01406  -0.01703
   D13       -3.13801  -0.00034   0.00000  -0.01097  -0.01088   3.13430
   D14       -3.12102   0.00017   0.00000   0.00216   0.00185  -3.11917
   D15        0.04480   0.00085   0.00000   0.02274   0.02296   0.06776
   D16       -0.00212   0.00021   0.00000   0.00874   0.00865   0.00653
   D17       -3.11948   0.00090   0.00000   0.02932   0.02975  -3.08973
   D18        0.00322   0.00029   0.00000   0.01001   0.00995   0.01317
   D19       -3.13756   0.00015   0.00000   0.00591   0.00591  -3.13166
   D20        3.13812   0.00025   0.00000   0.00675   0.00671  -3.13835
   D21       -0.00266   0.00011   0.00000   0.00265   0.00267   0.00001
   D22        0.00166  -0.00003   0.00000  -0.00017  -0.00015   0.00151
   D23       -3.14131  -0.00016   0.00000  -0.00550  -0.00542   3.13646
   D24       -3.14075   0.00011   0.00000   0.00393   0.00391  -3.13684
   D25       -0.00053  -0.00002   0.00000  -0.00139  -0.00136  -0.00189
   D26       -0.00670  -0.00014   0.00000  -0.00520  -0.00508  -0.01178
   D27        3.13597  -0.00023   0.00000  -0.01027  -0.01014   3.12583
   D28        3.13626  -0.00001   0.00000   0.00009   0.00015   3.13640
   D29       -0.00425  -0.00011   0.00000  -0.00499  -0.00492  -0.00918
   D30        0.00695   0.00004   0.00000   0.00079   0.00066   0.00761
   D31        3.12540  -0.00031   0.00000  -0.01765  -0.01728   3.10813
   D32       -3.13571   0.00013   0.00000   0.00580   0.00565  -3.13007
   D33       -0.01726  -0.00022   0.00000  -0.01264  -0.01229  -0.02955
         Item               Value     Threshold  Converged?
 Maximum Force            0.016885     0.000450     NO 
 RMS     Force            0.005097     0.000300     NO 
 Maximum Displacement     0.323014     0.001800     NO 
 RMS     Displacement     0.076385     0.001200     NO 
 Predicted change in Energy=-3.004564D-03
 Lowest energy point so far.  Saving SCF results.
 GradGradGradGradGradGradGradGradGradGradGradGradGradGradGradGradGradGrad

 Leave Link  103 at Tue Sep 17 09:43:50 2024, MaxMem=  1342177280 cpu:               0.1 elap:               0.3
 (Enter /groups/ReismanLab/Software/Gaussian16_RevC/Linux_Binary_AVX2-enabled-CPU/g16/l202.exe)
                          Input orientation:                          
 ---------------------------------------------------------------------
 Center     Atomic      Atomic             Coordinates (Angstroms)
 Number     Number       Type             X           Y           Z
 ---------------------------------------------------------------------
      1          6           0        2.554214    3.033960    0.110242
      2          8           0        1.222751    2.515407    0.198308
      3          6           0        1.082890    1.217111   -0.153747
      4          8           0        2.018393    0.544346   -0.527811
      5          6           0       -0.358225    0.805792   -0.090080
      6          6           0       -1.323937    1.826964   -0.147488
      7          6           0       -2.685720    1.551114   -0.133540
      8          6           0       -3.116571    0.228147   -0.044770
      9          6           0       -2.185026   -0.803476    0.030821
     10          6           0       -0.815613   -0.528921    0.004638
     11         35           0        0.315353   -2.057384    0.175660
     12          1           0        2.497004    4.062204    0.465915
     13          1           0        2.916399    3.006936   -0.921154
     14          1           0        3.238650    2.451594    0.732141
     15          1           0       -0.977908    2.851019   -0.213111
     16          1           0       -3.405696    2.361350   -0.188389
     17          1           0       -4.176841   -0.004701   -0.027858
     18          1           0       -2.510602   -1.833666    0.114749
 ---------------------------------------------------------------------
                    Distance matrix (angstroms):
                    1          2          3          4          5
     1  C    0.000000
     2  O    1.431589   0.000000
     3  C    2.352749   1.352434   0.000000
     4  O    2.625337   2.246192   1.211487   0.000000
     5  C    3.672487   2.346367   1.500016   2.430694   0.000000
     6  C    4.069806   2.660667   2.482897   3.600128   1.406658
     7  C    5.451163   4.039323   3.783436   4.826771   2.444305
     8  C    6.328856   4.911248   4.315715   5.167317   2.818546
     9  C    6.098575   4.759830   3.846571   4.449430   2.437532
    10  C    4.905202   3.668838   2.584188   3.076848   1.414084
    11  Br   5.562245   4.662007   3.379340   3.188137   2.953321
    12  H    1.089524   2.021859   3.237014   3.686718   4.366427
    13  H    1.093474   2.088837   2.674723   2.650563   4.032230
    14  H    1.092868   2.086360   2.637432   2.591158   4.040077
    15  H    3.551607   2.263802   2.630602   3.794416   2.140583
    16  H    6.005174   4.647127   4.632266   5.730397   3.422938
    17  H    7.386450   5.963028   5.401245   6.239578   3.904178
    18  H    7.024683   5.732307   4.721495   5.155543   3.411953
                    6          7          8          9         10
     6  C    0.000000
     7  C    1.389512   0.000000
     8  C    2.404226   1.394186   0.000000
     9  C    2.773533   2.412841   1.392025   0.000000
    10  C    2.414898   2.800525   2.422808   1.396910   0.000000
    11  Br   4.228458   4.703542   4.129206   2.800922   1.909066
    12  H    4.469021   5.790126   6.817112   6.766503   5.680197
    13  H    4.468930   5.841532   6.699734   6.438170   5.223723
    14  H    4.688401   6.054621   6.777620   6.364243   5.084268
    15  H    1.082927   2.147722   3.388462   3.856419   3.390833
    16  H    2.149642   1.085290   2.157492   3.399148   3.885801
    17  H    3.392400   2.157585   1.085670   2.146814   3.402017
    18  H    3.857092   3.398389   2.154929   1.083668   2.141839
                   11         12         13         14         15
    11  Br   0.000000
    12  H    6.503323   0.000000
    13  H    5.797912   1.792608   0.000000
    14  H    5.402427   1.793037   1.773594   0.000000
    15  H    5.090785   3.742066   3.961219   4.339631   0.000000
    16  H    5.788259   6.177612   6.397078   6.708416   2.476801
    17  H    4.943151   7.830948   7.757706   7.848599   4.292160
    18  H    2.835451   7.743431   7.345533   7.197119   4.939931
                   16         17         18
    16  H    0.000000
    17  H    2.493719   0.000000
    18  H    4.300144   2.478266   0.000000
 Stoichiometry    C8H7BrO2
 Framework group  C1[X(C8H7BrO2)]
 Deg. of freedom    48
 Full point group                 C1      NOp   1
 RotChk:  IX=0 Diff= 1.34D-01
 Largest Abelian subgroup         C1      NOp   1
 Largest concise Abelian subgroup C1      NOp   1
                         Standard orientation:                         
 ---------------------------------------------------------------------
 Center     Atomic      Atomic             Coordinates (Angstroms)
 Number     Number       Type             X           Y           Z
 ---------------------------------------------------------------------
      1          6           0       -3.868589   -0.726995   -0.190671
      2          8           0       -2.735202    0.143587   -0.274154
      3          6           0       -1.561738   -0.393755    0.129978
      4          8           0       -1.479217   -1.529368    0.543831
      5          6           0       -0.464309    0.626772    0.064981
      6          6           0       -0.842116    1.981742    0.067249
      7          6           0        0.096956    3.005699    0.047289
      8          6           0        1.454495    2.690549    0.008298
      9          6           0        1.859405    1.358871   -0.012140
     10          6           0        0.917150    0.328110    0.020196
     11         35           0        1.647351   -1.433364   -0.072265
     12          1           0       -4.709074   -0.160039   -0.589679
     13          1           0       -4.062336   -1.017557    0.845534
     14          1           0       -3.704933   -1.633437   -0.778839
     15          1           0       -1.899303    2.214858    0.094505
     16          1           0       -0.226943    4.041464    0.058975
     17          1           0        2.201298    3.478286   -0.012535
     18          1           0        2.911828    1.104480   -0.057164
 ---------------------------------------------------------------------
 Rotational constants (GHZ):           0.9747538           0.6761193           0.4048477
 Leave Link  202 at Tue Sep 17 09:43:50 2024, MaxMem=  1342177280 cpu:               0.1 elap:               0.0
 (Enter /groups/ReismanLab/Software/Gaussian16_RevC/Linux_Binary_AVX2-enabled-CPU/g16/l301.exe)
 Standard basis: 6-31G(d,p) (6D, 7F)
 Ernie: Thresh=  0.10000D-02 Tol=  0.10000D-05 Strict=F.
 There are   215 symmetry adapted cartesian basis functions of A   symmetry.
 There are   215 symmetry adapted basis functions of A   symmetry.
   215 basis functions,   412 primitive gaussians,   215 cartesian basis functions
    53 alpha electrons       53 beta electrons
       nuclear repulsion energy       844.5279151779 Hartrees.
 IExCor=  402 DFT=T Ex+Corr=B3LYP ExCW=0 ScaHFX=  0.200000
 ScaDFX=  0.800000  0.720000  1.000000  0.810000 ScalE2=  1.000000  1.000000
 IRadAn=      5 IRanWt=     -1 IRanGd=            0 ICorTp=0 IEmpDi=141
 NAtoms=   18 NActive=   18 NUniq=   18 SFac= 1.00D+00 NAtFMM=   60 NAOKFM=F Big=F
 Integral buffers will be    131072 words long.
 Raffenetti 2 integral format.
 Two-electron integral symmetry is turned on.
 R6Disp:  Grimme-D3(BJ) Dispersion energy=       -0.0362748616 Hartrees.
 Nuclear repulsion after empirical dispersion term =      844.4916403163 Hartrees.
 Leave Link  301 at Tue Sep 17 09:43:50 2024, MaxMem=  1342177280 cpu:               0.1 elap:               0.1
 (Enter /groups/ReismanLab/Software/Gaussian16_RevC/Linux_Binary_AVX2-enabled-CPU/g16/l302.exe)
 NPDir=0 NMtPBC=     1 NCelOv=     1 NCel=       1 NClECP=     1 NCelD=      1
         NCelK=      1 NCelE2=     1 NClLst=     1 CellRange=     0.0.
 One-electron integrals computed using PRISM.
 One-electron integral symmetry used in STVInt
 NBasis=   215 RedAO= T EigKep=  4.26D-04  NBF=   215
 NBsUse=   215 1.00D-06 EigRej= -1.00D+00 NBFU=   215
 Precomputing XC quadrature grid using
 IXCGrd= 4 IRadAn=           5 IRanWt=          -1 IRanGd=           0 AccXCQ= 0.00D+00.
 Generated NRdTot=       0 NPtTot=           0 NUsed=           0 NTot=          32
 NSgBfM=   214   214   214   214   214 MxSgAt=    18 MxSgA2=    18.
 Leave Link  302 at Tue Sep 17 09:43:50 2024, MaxMem=  1342177280 cpu:               1.2 elap:               0.2
 (Enter /groups/ReismanLab/Software/Gaussian16_RevC/Linux_Binary_AVX2-enabled-CPU/g16/l303.exe)
 DipDrv:  MaxL=1.
 Leave Link  303 at Tue Sep 17 09:43:50 2024, MaxMem=  1342177280 cpu:               0.1 elap:               0.1
 (Enter /groups/ReismanLab/Software/Gaussian16_RevC/Linux_Binary_AVX2-enabled-CPU/g16/l401.exe)
 Initial guess from the checkpoint file:  "smiles_00098_conf_2.chk"
 B after Tr=    -0.000000    0.000000   -0.000000
         Rot=    0.998451   -0.001175    0.002192   -0.055586 Ang=  -6.38 deg.
 Guess basis will be translated and rotated to current coordinates.
 JPrj=2 DoOrth=T DoCkMO=T.
 Generating alternative initial guess.
 ExpMin= 1.43D-01 ExpMax= 5.74D+05 ExpMxC= 5.74D+03 IAcc=3 IRadAn=         5 AccDes= 0.00D+00
 Harris functional with IExCor=  402 and IRadAn=       5 diagonalized for initial guess.
 HarFok:  IExCor=  402 AccDes= 0.00D+00 IRadAn=         5 IDoV= 1 UseB2=F ITyADJ=14
 ICtDFT=  3500011 ScaDFX=  1.000000  1.000000  1.000000  1.000000
 FoFCou: FMM=F IPFlag=           0 FMFlag=      100000 FMFlg1=           0
         NFxFlg=           0 DoJE=T BraDBF=F KetDBF=T FulRan=T
         wScrn=  0.000000 ICntrl=       500 IOpCl=  0 I1Cent=   200000004 NGrid=           0
         NMat0=    1 NMatS0=      1 NMatT0=    0 NMatD0=    1 NMtDS0=    0 NMtDT0=    0
 Petite list used in FoFCou.
 Harris En= -3031.38642965542    
 Leave Link  401 at Tue Sep 17 09:43:51 2024, MaxMem=  1342177280 cpu:               4.3 elap:               0.7
 (Enter /groups/ReismanLab/Software/Gaussian16_RevC/Linux_Binary_AVX2-enabled-CPU/g16/l502.exe)
 Integral symmetry usage will be decided dynamically.
 Closed shell SCF:
 Using DIIS extrapolation, IDIIS=  1040.
 NGot=  1342177280 LenX=  1342080394 LenY=  1342033728
 Requested convergence on RMS density matrix=1.00D-08 within  32 cycles.
 Requested convergence on MAX density matrix=1.00D-06.
 Requested convergence on             energy=1.00D-06.
 No special actions if energy rises.
 Fock matrices will be formed incrementally for  20 cycles.
 Integral accuracy reduced to 1.0D-05 until final iterations.

 Cycle   1  Pass 0  IDiag  1:
 FoFJK:  IHMeth= 1 ICntrl=       0 DoSepK=F KAlg= 0 I1Cent=           0 FoldK=F
 IRaf= 860000000 NMat=       1 IRICut=       1 DoRegI=T DoRafI=F ISym2E= 0 IDoP0=0 IntGTp=1.
 FoFCou: FMM=F IPFlag=           0 FMFlag=      100000 FMFlg1=           0
         NFxFlg=           0 DoJE=F BraDBF=F KetDBF=F FulRan=T
         wScrn=  0.000000 ICntrl=         0 IOpCl=  0 I1Cent=           0 NGrid=           0
         NMat0=    1 NMatS0=      1 NMatT0=    0 NMatD0=    1 NMtDS0=    0 NMtDT0=    0
 Symmetry not used in FoFCou.
 E= -3031.25699554135    
 DIIS: error= 1.01D-02 at cycle   1 NSaved=   1.
 NSaved= 1 IEnMin= 1 EnMin= -3031.25699554135     IErMin= 1 ErrMin= 1.01D-02
 ErrMax= 1.01D-02  0.00D+00 EMaxC= 1.00D-01 BMatC= 2.47D-02 BMatP= 2.47D-02
 IDIUse=3 WtCom= 8.99D-01 WtEn= 1.01D-01
 Coeff-Com:  0.100D+01
 Coeff-En:   0.100D+01
 Coeff:      0.100D+01
 Recover alternate guess density for next cycle.
 RMSDP=3.23D-03 MaxDP=1.42D-01              OVMax= 0.00D+00

 Cycle   2  Pass 0  IDiag  1:
 RMSU=  3.07D-03    CP:  1.02D+00
 E= -3031.03662194045     Delta-E=        0.220373600901 Rises=F Damp=F
 Switch densities from cycles 1 and 2 for lowest energy.
 DIIS: error= 1.96D-01 at cycle   2 NSaved=   2.
 NSaved= 2 IEnMin= 1 EnMin= -3031.25699554135     IErMin= 1 ErrMin= 1.01D-02
 ErrMax= 1.96D-01  0.00D+00 EMaxC= 1.00D+00 BMatC= 6.03D-01 BMatP= 2.47D-02
 IDIUse=1 WtCom= 1.00D+00 WtEn= 0.00D+00
 Coeff-Com:  0.970D+00 0.296D-01
 Coeff:      0.970D+00 0.296D-01
 Gap=     0.200 Goal=   None    Shift=    0.000
 RMSDP=8.54D-04 MaxDP=2.15D-02 DE= 2.20D-01 OVMax= 7.59D-02

 Cycle   3  Pass 0  IDiag  1:
 RMSU=  8.48D-04    CP:  9.99D-01  3.05D-02
 E= -3031.26855591235     Delta-E=       -0.231933971900 Rises=F Damp=F
 DIIS: error= 1.30D-03 at cycle   3 NSaved=   3.
 NSaved= 3 IEnMin= 3 EnMin= -3031.26855591235     IErMin= 3 ErrMin= 1.30D-03
 ErrMax= 1.30D-03  0.00D+00 EMaxC= 1.00D+00 BMatC= 1.09D-03 BMatP= 2.47D-02
 IDIUse=1 WtCom= 1.00D+00 WtEn= 0.00D+00
 Coeff-Com:  0.125D-01 0.250D-01 0.963D+00
 Coeff:      0.125D-01 0.250D-01 0.963D+00
 Gap=     0.193 Goal=   None    Shift=    0.000
 RMSDP=2.92D-04 MaxDP=1.31D-02 DE=-2.32D-01 OVMax= 1.29D-02

 Cycle   4  Pass 0  IDiag  1:
 RMSU=  2.52D-04    CP:  9.99D-01  7.62D-02  9.50D-01
 E= -3031.26852797495     Delta-E=        0.000027937393 Rises=F Damp=F
 DIIS: error= 1.74D-03 at cycle   4 NSaved=   4.
 NSaved= 4 IEnMin= 3 EnMin= -3031.26855591235     IErMin= 3 ErrMin= 1.30D-03
 ErrMax= 1.74D-03  0.00D+00 EMaxC= 1.00D+00 BMatC= 1.27D-03 BMatP= 1.09D-03
 IDIUse=1 WtCom= 1.00D+00 WtEn= 0.00D+00
 Coeff-Com: -0.845D-02 0.364D-02 0.546D+00 0.459D+00
 Coeff:     -0.845D-02 0.364D-02 0.546D+00 0.459D+00
 Gap=     0.194 Goal=   None    Shift=    0.000
 RMSDP=1.62D-04 MaxDP=8.84D-03 DE= 2.79D-05 OVMax= 1.14D-02

 Cycle   5  Pass 0  IDiag  1:
 RMSU=  7.37D-05    CP:  9.99D-01  5.85D-02  9.97D-01  4.96D-01
 E= -3031.26945417537     Delta-E=       -0.000926200415 Rises=F Damp=F
 DIIS: error= 6.72D-04 at cycle   5 NSaved=   5.
 NSaved= 5 IEnMin= 5 EnMin= -3031.26945417537     IErMin= 5 ErrMin= 6.72D-04
 ErrMax= 6.72D-04  0.00D+00 EMaxC= 1.00D+00 BMatC= 1.08D-04 BMatP= 1.09D-03
 IDIUse=1 WtCom= 1.00D+00 WtEn= 0.00D+00
 Coeff-Com: -0.597D-02 0.284D-03 0.270D+00 0.297D+00 0.439D+00
 Coeff:     -0.597D-02 0.284D-03 0.270D+00 0.297D+00 0.439D+00
 Gap=     0.195 Goal=   None    Shift=    0.000
 RMSDP=5.17D-05 MaxDP=1.84D-03 DE=-9.26D-04 OVMax= 3.56D-03

 Cycle   6  Pass 0  IDiag  1:
 RMSU=  2.65D-05    CP:  9.99D-01  5.83D-02  1.00D+00  4.95D-01  4.01D-01
 E= -3031.26954083555     Delta-E=       -0.000086660182 Rises=F Damp=F
 DIIS: error= 1.45D-04 at cycle   6 NSaved=   6.
 NSaved= 6 IEnMin= 6 EnMin= -3031.26954083555     IErMin= 6 ErrMin= 1.45D-04
 ErrMax= 1.45D-04  0.00D+00 EMaxC= 1.00D+00 BMatC= 4.54D-06 BMatP= 1.08D-04
 IDIUse=1 WtCom= 1.00D+00 WtEn= 0.00D+00
 Coeff-Com: -0.173D-02-0.193D-04 0.549D-01 0.781D-01 0.211D+00 0.657D+00
 Coeff:     -0.173D-02-0.193D-04 0.549D-01 0.781D-01 0.211D+00 0.657D+00
 Gap=     0.195 Goal=   None    Shift=    0.000
 RMSDP=1.34D-05 MaxDP=3.46D-04 DE=-8.67D-05 OVMax= 6.79D-04

 Cycle   7  Pass 0  IDiag  1:
 RMSU=  7.82D-06    CP:  9.99D-01  5.81D-02  1.00D+00  5.15D-01  4.97D-01
                    CP:  7.58D-01
 E= -3031.26954497426     Delta-E=       -0.000004138711 Rises=F Damp=F
 DIIS: error= 3.34D-05 at cycle   7 NSaved=   7.
 NSaved= 7 IEnMin= 7 EnMin= -3031.26954497426     IErMin= 7 ErrMin= 3.34D-05
 ErrMax= 3.34D-05  0.00D+00 EMaxC= 1.00D+00 BMatC= 5.87D-07 BMatP= 4.54D-06
 IDIUse=1 WtCom= 1.00D+00 WtEn= 0.00D+00
 Coeff-Com: -0.321D-03-0.323D-04 0.849D-04 0.104D-01 0.677D-01 0.347D+00
 Coeff-Com:  0.575D+00
 Coeff:     -0.321D-03-0.323D-04 0.849D-04 0.104D-01 0.677D-01 0.347D+00
 Coeff:      0.575D+00
 Gap=     0.195 Goal=   None    Shift=    0.000
 RMSDP=4.15D-06 MaxDP=1.58D-04 DE=-4.14D-06 OVMax= 3.06D-04

 Initial convergence to 1.0D-05 achieved.  Increase integral accuracy.
 Cycle   8  Pass 1  IDiag  1:
 E= -3031.26956668005     Delta-E=       -0.000021705792 Rises=F Damp=F
 DIIS: error= 4.07D-05 at cycle   1 NSaved=   1.
 NSaved= 1 IEnMin= 1 EnMin= -3031.26956668005     IErMin= 1 ErrMin= 4.07D-05
 ErrMax= 4.07D-05  0.00D+00 EMaxC= 1.00D+00 BMatC= 1.57D-07 BMatP= 1.57D-07
 IDIUse=1 WtCom= 1.00D+00 WtEn= 0.00D+00
 Coeff-Com:  0.100D+01
 Coeff:      0.100D+01
 Gap=     0.195 Goal=   None    Shift=    0.000
 RMSDP=4.15D-06 MaxDP=1.58D-04 DE=-2.17D-05 OVMax= 2.64D-04

 Cycle   9  Pass 1  IDiag  1:
 RMSU=  9.99D-06    CP:  1.00D+00
 E= -3031.26956657762     Delta-E=        0.000000102429 Rises=F Damp=F
 DIIS: error= 3.05D-05 at cycle   2 NSaved=   2.
 NSaved= 2 IEnMin= 1 EnMin= -3031.26956668005     IErMin= 2 ErrMin= 3.05D-05
 ErrMax= 3.05D-05  0.00D+00 EMaxC= 1.00D+00 BMatC= 2.08D-07 BMatP= 1.57D-07
 IDIUse=1 WtCom= 1.00D+00 WtEn= 0.00D+00
 Coeff-Com:  0.543D+00 0.457D+00
 Coeff:      0.543D+00 0.457D+00
 Gap=     0.195 Goal=   None    Shift=    0.000
 RMSDP=3.05D-06 MaxDP=1.09D-04 DE= 1.02D-07 OVMax= 2.33D-04

 Cycle  10  Pass 1  IDiag  1:
 RMSU=  2.71D-06    CP:  1.00D+00  8.60D-01
 E= -3031.26956677994     Delta-E=       -0.000000202316 Rises=F Damp=F
 DIIS: error= 1.25D-05 at cycle   3 NSaved=   3.
 NSaved= 3 IEnMin= 3 EnMin= -3031.26956677994     IErMin= 3 ErrMin= 1.25D-05
 ErrMax= 1.25D-05  0.00D+00 EMaxC= 1.00D+00 BMatC= 2.70D-08 BMatP= 1.57D-07
 IDIUse=1 WtCom= 1.00D+00 WtEn= 0.00D+00
 Coeff-Com:  0.517D-01 0.265D+00 0.683D+00
 Coeff:      0.517D-01 0.265D+00 0.683D+00
 Gap=     0.195 Goal=   None    Shift=    0.000
 RMSDP=1.00D-06 MaxDP=3.83D-05 DE=-2.02D-07 OVMax= 8.42D-05

 Cycle  11  Pass 1  IDiag  1:
 RMSU=  5.70D-07    CP:  1.00D+00  8.98D-01  7.31D-01
 E= -3031.26956680731     Delta-E=       -0.000000027370 Rises=F Damp=F
 DIIS: error= 2.89D-06 at cycle   4 NSaved=   4.
 NSaved= 4 IEnMin= 4 EnMin= -3031.26956680731     IErMin= 4 ErrMin= 2.89D-06
 ErrMax= 2.89D-06  0.00D+00 EMaxC= 1.00D+00 BMatC= 3.51D-09 BMatP= 2.70D-08
 IDIUse=1 WtCom= 1.00D+00 WtEn= 0.00D+00
 Coeff-Com:  0.270D-02 0.139D+00 0.421D+00 0.437D+00
 Coeff:      0.270D-02 0.139D+00 0.421D+00 0.437D+00
 Gap=     0.195 Goal=   None    Shift=    0.000
 RMSDP=3.18D-07 MaxDP=1.55D-05 DE=-2.74D-08 OVMax= 2.86D-05

 Cycle  12  Pass 1  IDiag  1:
 RMSU=  1.23D-07    CP:  1.00D+00  9.01D-01  7.51D-01  4.97D-01
 E= -3031.26956681078     Delta-E=       -0.000000003467 Rises=F Damp=F
 DIIS: error= 6.77D-07 at cycle   5 NSaved=   5.
 NSaved= 5 IEnMin= 5 EnMin= -3031.26956681078     IErMin= 5 ErrMin= 6.77D-07
 ErrMax= 6.77D-07  0.00D+00 EMaxC= 1.00D+00 BMatC= 1.74D-10 BMatP= 3.51D-09
 IDIUse=1 WtCom= 1.00D+00 WtEn= 0.00D+00
 Coeff-Com: -0.144D-02 0.673D-01 0.211D+00 0.259D+00 0.464D+00
 Coeff:     -0.144D-02 0.673D-01 0.211D+00 0.259D+00 0.464D+00
 Gap=     0.195 Goal=   None    Shift=    0.000
 RMSDP=6.90D-08 MaxDP=2.98D-06 DE=-3.47D-09 OVMax= 4.04D-06

 Cycle  13  Pass 1  IDiag  1:
 RMSU=  4.31D-08    CP:  1.00D+00  9.01D-01  7.52D-01  4.94D-01  5.68D-01
 E= -3031.26956681095     Delta-E=       -0.000000000176 Rises=F Damp=F
 DIIS: error= 2.31D-07 at cycle   6 NSaved=   6.
 NSaved= 6 IEnMin= 6 EnMin= -3031.26956681095     IErMin= 6 ErrMin= 2.31D-07
 ErrMax= 2.31D-07  0.00D+00 EMaxC= 1.00D+00 BMatC= 1.94D-11 BMatP= 1.74D-10
[...]
   XY=  -390.5268   YY=  2673.4006   ZY=    97.6215
   XZ=   -24.3498   YZ=   103.2249   ZZ=  1725.9887
   Eigenvalues:  1570.8473  1717.6463  2819.7070
     12  H    Isotropic =    28.0454   Anisotropy =     7.8571
   XX=    33.0328   YX=    -1.0615   ZX=     1.5931
   XY=     0.5515   YY=    26.7192   ZY=    -0.4708
   XZ=     1.2827   YZ=    -0.6580   ZZ=    24.3843
   Eigenvalues:    24.0511    26.8017    33.2835
     13  H    Isotropic =    27.9859   Anisotropy =     8.2510
   XX=    29.6382   YX=     2.9966   ZX=    -3.6742
   XY=     1.4726   YY=    26.2694   ZY=    -2.0111
   XZ=    -2.9144   YZ=    -2.0341   ZZ=    28.0501
   Eigenvalues:    24.9452    25.5259    33.4865
     14  H    Isotropic =    27.9146   Anisotropy =     8.0669
   XX=    28.3767   YX=     3.6803   ZX=     1.6754
   XY=     1.7388   YY=    29.1770   ZY=     2.8223
   XZ=     1.9320   YZ=     3.4084   ZZ=    26.1900
   Eigenvalues:    24.2260    26.2251    33.2925
     15  H    Isotropic =    22.7315   Anisotropy =    10.0044
   XX=    21.6614   YX=     3.4573   ZX=     0.3125
   XY=     2.6183   YY=    28.1816   ZY=     0.0417
   XZ=     0.4809   YZ=     0.7416   ZZ=    18.3516
   Eigenvalues:    18.3045    20.4889    29.4011
     16  H    Isotropic =    23.6715   Anisotropy =     5.9193
   XX=    27.2163   YX=     1.3220   ZX=    -0.1422
   XY=     1.3778   YY=    23.0444   ZY=    -0.0872
   XZ=    -0.1045   YZ=    -0.0403   ZZ=    20.7539
   Eigenvalues:    20.7508    22.6461    27.6177
     17  H    Isotropic =    23.5066   Anisotropy =     6.2199
   XX=    24.4099   YX=    -2.4859   ZX=    -0.1169
   XY=    -2.8610   YY=    25.4442   ZY=     0.0813
   XZ=     0.0553   YZ=     0.2533   ZZ=    20.6657
   Eigenvalues:    20.6582    22.2085    27.6533
     18  H    Isotropic =    23.4028   Anisotropy =    11.4758
   XX=    21.7260   YX=     3.2779   ZX=     0.0014
   XY=     4.0944   YY=    29.5961   ZY=    -0.0718
   XZ=    -0.1132   YZ=    -0.0460   ZZ=    18.8864
   Eigenvalues:    18.8853    20.2698    31.0533
 End of Minotr F.D. properties file   721 does not exist.
 End of Minotr F.D. properties file   722 does not exist.
 End of Minotr F.D. properties file   788 does not exist.
 Leave Link 1002 at Tue Sep 17 10:46:53 2024, MaxMem=  1342177280 cpu:             881.0 elap:             885.2
 (Enter /groups/ReismanLab/Software/Gaussian16_RevC/Linux_Binary_AVX2-enabled-CPU/g16/l601.exe)
 Copying SCF densities to generalized density rwf, IOpCl= 0 IROHF=0.

 **********************************************************************

            Population analysis using the SCF Density.

 **********************************************************************

 Orbital symmetries:
       Occupied  (A) (A) (A) (A) (A) (A) (A) (A) (A) (A) (A) (A)
                 (A) (A) (A) (A) (A) (A) (A) (A) (A) (A) (A) (A)
                 (A) (A) (A) (A) (A) (A) (A) (A) (A) (A) (A) (A)
                 (A) (A) (A) (A) (A) (A) (A) (A) (A) (A) (A) (A)
                 (A) (A) (A) (A) (A)
       Virtual   (A) (A) (A) (A) (A) (A) (A) (A) (A) (A) (A) (A)
                 (A) (A) (A) (A) (A) (A) (A) (A) (A) (A) (A) (A)
                 (A) (A) (A) (A) (A) (A) (A) (A) (A) (A) (A) (A)
                 (A) (A) (A) (A) (A) (A) (A) (A) (A) (A) (A) (A)
                 (A) (A) (A) (A) (A) (A) (A) (A) (A) (A) (A) (A)
                 (A) (A) (A) (A) (A) (A) (A) (A) (A) (A) (A) (A)
                 (A) (A) (A) (A) (A) (A) (A) (A) (A) (A) (A) (A)
                 (A) (A) (A) (A) (A) (A) (A) (A) (A) (A) (A) (A)
                 (A) (A) (A) (A) (A) (A) (A) (A) (A) (A) (A) (A)
                 (A) (A) (A) (A) (A) (A) (A) (A) (A) (A) (A) (A)
                 (A) (A) (A) (A) (A) (A) (A) (A) (A) (A) (A) (A)
                 (A) (A) (A) (A) (A) (A) (A) (A) (A) (A) (A) (A)
                 (A) (A) (A) (A) (A) (A) (A) (A) (A) (A) (A) (A)
                 (A) (A) (A) (A) (A) (A) (A) (A) (A) (A) (A) (A)
                 (A) (A) (A) (A) (A) (A) (A) (A) (A) (A) (A) (A)
                 (A) (A) (A) (A) (A) (A) (A) (A) (A) (A) (A) (A)
                 (A) (A) (A) (A) (A) (A) (A) (A) (A) (A) (A) (A)
                 (A) (A) (A) (A) (A) (A) (A) (A) (A) (A) (A) (A)
                 (A) (A) (A) (A) (A) (A) (A) (A) (A) (A) (A) (A)
                 (A) (A) (A) (A) (A) (A) (A) (A) (A) (A) (A) (A)
                 (A) (A) (A) (A) (A) (A) (A) (A) (A) (A) (A) (A)
                 (A) (A) (A) (A) (A) (A) (A) (A) (A) (A) (A) (A)
                 (A) (A) (A) (A) (A) (A) (A) (A) (A) (A) (A) (A)
                 (A) (A) (A) (A) (A) (A) (A) (A) (A) (A) (A) (A)
                 (A) (A) (A) (A) (A) (A) (A) (A) (A) (A) (A) (A)
                 (A) (A) (A) (A) (A) (A) (A) (A) (A) (A) (A) (A)
                 (A) (A) (A) (A) (A) (A) (A) (A) (A) (A) (A) (A)
                 (A) (A) (A) (A) (A) (A) (A) (A) (A) (A) (A) (A)
                 (A) (A) (A) (A) (A) (A) (A) (A) (A) (A) (A)
 The electronic state is 1-A.
 Alpha  occ. eigenvalues -- -485.37305 -63.35780 -57.17733 -57.17492 -57.17468
 Alpha  occ. eigenvalues --  -19.67508 -19.62173 -10.68280 -10.61651 -10.58826
 Alpha  occ. eigenvalues --  -10.57900 -10.56351 -10.56308 -10.56146 -10.55660
 Alpha  occ. eigenvalues --   -9.02426  -6.84863  -6.83971  -6.83889  -2.88241
 Alpha  occ. eigenvalues --   -2.87934  -2.87852  -2.87021  -2.87019  -1.23615
 Alpha  occ. eigenvalues --   -1.14354  -0.99006  -0.90357  -0.88470  -0.82790
 Alpha  occ. eigenvalues --   -0.81185  -0.72673  -0.69495  -0.65479  -0.62107
 Alpha  occ. eigenvalues --   -0.57197  -0.56913  -0.56421  -0.53490  -0.52738
 Alpha  occ. eigenvalues --   -0.49134  -0.48856  -0.48383  -0.45393  -0.43792
 Alpha  occ. eigenvalues --   -0.43720  -0.41382  -0.38525  -0.38204  -0.37315
 Alpha  occ. eigenvalues --   -0.33235  -0.32780  -0.30365
 Alpha virt. eigenvalues --   -0.02778   0.00334   0.03770   0.08033   0.08497
 Alpha virt. eigenvalues --    0.09532   0.11106   0.11784   0.13244   0.13652
 Alpha virt. eigenvalues --    0.15250   0.15968   0.16179   0.18215   0.18774
 Alpha virt. eigenvalues --    0.21023   0.21303   0.21964   0.23580   0.24021
 Alpha virt. eigenvalues --    0.24982   0.25097   0.26295   0.26783   0.26989
 Alpha virt. eigenvalues --    0.27840   0.28908   0.29632   0.31157   0.31343
 Alpha virt. eigenvalues --    0.32729   0.34024   0.34365   0.34794   0.35381
 Alpha virt. eigenvalues --    0.36746   0.36988   0.37640   0.39311   0.39357
 Alpha virt. eigenvalues --    0.41627   0.42334   0.42523   0.43744   0.44483
 Alpha virt. eigenvalues --    0.45341   0.45864   0.47215   0.48463   0.48775
 Alpha virt. eigenvalues --    0.49283   0.49770   0.51388   0.52590   0.53172
 Alpha virt. eigenvalues --    0.54063   0.54595   0.57041   0.57693   0.58194
 Alpha virt. eigenvalues --    0.60207   0.61243   0.62975   0.63607   0.65831
 Alpha virt. eigenvalues --    0.67322   0.68155   0.69371   0.71302   0.71754
 Alpha virt. eigenvalues --    0.73089   0.73810   0.75195   0.76589   0.78272
 Alpha virt. eigenvalues --    0.78377   0.80462   0.82784   0.84200   0.85699
 Alpha virt. eigenvalues --    0.86212   0.86899   0.88162   0.89702   0.91421
 Alpha virt. eigenvalues --    0.92698   0.93798   0.95210   0.96630   0.99135
 Alpha virt. eigenvalues --    1.02157   1.02546   1.03512   1.05098   1.06573
 Alpha virt. eigenvalues --    1.09067   1.10098   1.11060   1.12030   1.14221
 Alpha virt. eigenvalues --    1.14924   1.20898   1.21329   1.21807   1.22943
 Alpha virt. eigenvalues --    1.25492   1.25930   1.27905   1.29162   1.30754
 Alpha virt. eigenvalues --    1.33995   1.35913   1.36986   1.38941   1.40827
 Alpha virt. eigenvalues --    1.41794   1.42627   1.46186   1.47083   1.48477
 Alpha virt. eigenvalues --    1.49460   1.51221   1.51851   1.53365   1.54717
 Alpha virt. eigenvalues --    1.55906   1.57136   1.57330   1.57744   1.58457
 Alpha virt. eigenvalues --    1.58945   1.60392   1.62128   1.62373   1.64160
 Alpha virt. eigenvalues --    1.64628   1.65598   1.66719   1.68078   1.69380
 Alpha virt. eigenvalues --    1.71786   1.72557   1.72833   1.75007   1.75699
 Alpha virt. eigenvalues --    1.78279   1.79170   1.80919   1.81668   1.84308
 Alpha virt. eigenvalues --    1.86522   1.87523   1.89703   1.90264   1.92076
 Alpha virt. eigenvalues --    1.95614   1.96738   1.98253   1.99711   2.03077
 Alpha virt. eigenvalues --    2.03799   2.05570   2.05964   2.06535   2.09282
 Alpha virt. eigenvalues --    2.10893   2.12006   2.14656   2.15939   2.17191
 Alpha virt. eigenvalues --    2.19477   2.22577   2.25430   2.25629   2.28348
 Alpha virt. eigenvalues --    2.30703   2.32417   2.35557   2.38299   2.38957
 Alpha virt. eigenvalues --    2.41583   2.42440   2.43714   2.47970   2.49313
 Alpha virt. eigenvalues --    2.52491   2.53989   2.55284   2.56224   2.58579
 Alpha virt. eigenvalues --    2.59385   2.60819   2.62793   2.65583   2.65920
 Alpha virt. eigenvalues --    2.67534   2.69409   2.70601   2.71625   2.71940
 Alpha virt. eigenvalues --    2.74248   2.75773   2.77388   2.79136   2.80207
 Alpha virt. eigenvalues --    2.81660   2.83171   2.83472   2.85036   2.86912
 Alpha virt. eigenvalues --    2.87431   2.88256   2.89246   2.94551   2.95840
 Alpha virt. eigenvalues --    2.98850   2.99452   3.01356   3.02543   3.06605
 Alpha virt. eigenvalues --    3.07497   3.08201   3.08722   3.10252   3.11514
 Alpha virt. eigenvalues --    3.13564   3.14140   3.16500   3.17047   3.17796
 Alpha virt. eigenvalues --    3.19187   3.21324   3.22327   3.24575   3.26651
 Alpha virt. eigenvalues --    3.27765   3.29027   3.30161   3.30486   3.32085
 Alpha virt. eigenvalues --    3.32653   3.34927   3.35731   3.37037   3.38208
 Alpha virt. eigenvalues --    3.39545   3.41141   3.43119   3.43614   3.44806
 Alpha virt. eigenvalues --    3.46156   3.47911   3.49691   3.51121   3.51751
 Alpha virt. eigenvalues --    3.52376   3.54242   3.55223   3.57798   3.60230
 Alpha virt. eigenvalues --    3.61043   3.62621   3.64272   3.69581   3.72244
 Alpha virt. eigenvalues --    3.76577   3.80862   3.83710   3.86160   3.89259
 Alpha virt. eigenvalues --    3.93079   3.96712   4.05454   4.06841   4.07750
 Alpha virt. eigenvalues --    4.08905   4.11196   4.11988   4.14892   4.14940
 Alpha virt. eigenvalues --    4.17134   4.17799   4.18173   4.18706   4.20232
 Alpha virt. eigenvalues --    4.22597   4.26780   4.27124   4.28833   4.32150
 Alpha virt. eigenvalues --    4.35668   4.38312   4.43918   4.45803   4.51220
 Alpha virt. eigenvalues --    4.53863   4.57342   4.58430   4.61711   4.65786
 Alpha virt. eigenvalues --    4.72400   4.76360   4.78689   4.83781   4.91486
 Alpha virt. eigenvalues --    5.03825   5.08232   5.11406   5.18692   5.21532
 Alpha virt. eigenvalues --    5.27768   5.28543   5.32665   5.38368   5.46136
 Alpha virt. eigenvalues --    5.48981   5.51944   5.65847   5.68023   5.84131
 Alpha virt. eigenvalues --    5.93911   6.06604   6.16540   6.21205   6.36720
 Alpha virt. eigenvalues --    6.37148   6.53780   6.64485   6.69047   6.76445
 Alpha virt. eigenvalues --    6.86343   6.87786   7.01880   7.10692   7.26128
 Alpha virt. eigenvalues --    7.37590   7.87891  22.09993  22.43800  22.67561
 Alpha virt. eigenvalues --   22.73956  22.85128  22.89406  23.26166  23.51255
 Alpha virt. eigenvalues --   44.05971  44.23429
          Condensed to atoms (all electrons):
               1          2          3          4          5          6
     1  C    4.868066   0.206727  -0.051603  -0.000984   0.008975  -0.000353
     2  O    0.206727   8.010896   0.374481  -0.081820  -0.161002   0.023313
     3  C   -0.051603   0.374481   4.534856   0.655001   0.312304  -0.082091
     4  O   -0.000984  -0.081820   0.655001   7.874005  -0.078260   0.001779
     5  C    0.008975  -0.161002   0.312304  -0.078260   5.674546   0.181553
     6  C   -0.000353   0.023313  -0.082091   0.001779   0.181553   5.234728
     7  C   -0.000136  -0.000701   0.016005   0.000510   0.051739   0.388424
     8  C    0.000021   0.000369  -0.010694  -0.000686  -0.161408   0.061223
     9  C   -0.000045   0.000064   0.027272   0.004955   0.110978  -0.175315
    10  C   -0.001312  -0.006246  -0.097788  -0.016539   0.112346   0.134274
    11  Br  -0.000080  -0.000774  -0.023842  -0.026702  -0.142345   0.028369
    12  H    0.395403  -0.030191   0.004609   0.001806   0.002873  -0.000985
    13  H    0.421535  -0.037040  -0.006556   0.003810   0.001218  -0.000207
    14  H    0.417852  -0.030307  -0.010083   0.004108  -0.003534   0.001086
    15  H   -0.000527   0.016269  -0.007424   0.000293  -0.036656   0.410727
    16  H   -0.000000  -0.000138   0.000007   0.000006   0.008861  -0.035885
    17  H    0.000000  -0.000000   0.000048  -0.000002  -0.001251   0.005420
    18  H   -0.000000   0.000011   0.000833   0.000096   0.022663  -0.005881
               7          8          9         10         11         12
     1  C   -0.000136   0.000021  -0.000045  -0.001312  -0.000080   0.395403
     2  O   -0.000701   0.000369   0.000064  -0.006246  -0.000774  -0.030191
     3  C    0.016005  -0.010694   0.027272  -0.097788  -0.023842   0.004609
     4  O    0.000510  -0.000686   0.004955  -0.016539  -0.026702   0.001806
     5  C    0.051739  -0.161408   0.110978   0.112346  -0.142345   0.002873
     6  C    0.388424   0.061223  -0.175315   0.134274   0.028369  -0.000985
     7  C    5.013075   0.426008   0.023462  -0.114210  -0.005501  -0.000044
     8  C    0.426008   5.006508   0.375169   0.084734   0.019815   0.000001
     9  C    0.023462   0.375169   5.177764   0.304639  -0.101218  -0.000005
    10  C   -0.114210   0.084734   0.304639   5.268794   0.436294   0.000200
    11  Br  -0.005501   0.019815  -0.101218   0.436294  34.889534   0.000006
    12  H   -0.000044   0.000001  -0.000005   0.000200   0.000006   0.519345
    13  H   -0.000023  -0.000002  -0.000000  -0.000357   0.000050  -0.024213
    14  H    0.000011   0.000008  -0.000023   0.000098   0.000035  -0.023318
    15  H   -0.031163   0.005547  -0.001825   0.008211   0.000008  -0.000273
    16  H    0.417997  -0.036702   0.006170  -0.001982   0.000021   0.000001
    17  H   -0.033350   0.412985  -0.031934   0.005272  -0.000387   0.000000
    18  H    0.008106  -0.039817   0.431003  -0.066707  -0.001784  -0.000000
              13         14         15         16         17         18
     1  C    0.421535   0.417852  -0.000527  -0.000000   0.000000  -0.000000
     2  O   -0.037040  -0.030307   0.016269  -0.000138  -0.000000   0.000011
     3  C   -0.006556  -0.010083  -0.007424   0.000007   0.000048   0.000833
     4  O    0.003810   0.004108   0.000293   0.000006  -0.000002   0.000096
     5  C    0.001218  -0.003534  -0.036656   0.008861  -0.001251   0.022663
     6  C   -0.000207   0.001086   0.410727  -0.035885   0.005420  -0.005881
     7  C   -0.000023   0.000011  -0.031163   0.417997  -0.033350   0.008106
     8  C   -0.000002   0.000008   0.005547  -0.036702   0.412985  -0.039817
     9  C   -0.000000  -0.000023  -0.001825   0.006170  -0.031934   0.431003
    10  C   -0.000357   0.000098   0.008211  -0.001982   0.005272  -0.066707
    11  Br   0.000050   0.000035   0.000008   0.000021  -0.000387  -0.001784
    12  H   -0.024213  -0.023318  -0.000273   0.000001   0.000000  -0.000000
    13  H    0.522139  -0.040540  -0.000225   0.000000   0.000000  -0.000000
    14  H   -0.040540   0.523677   0.000324  -0.000001   0.000000  -0.000000
    15  H   -0.000225   0.000324   0.459976  -0.003834  -0.000145   0.000011
    16  H    0.000000  -0.000001  -0.003834   0.480025  -0.003442  -0.000129
    17  H    0.000000   0.000000  -0.000145  -0.003442   0.478768  -0.003564
    18  H   -0.000000  -0.000000   0.000011  -0.000129  -0.003564   0.478714
 Mulliken charges:
               1
     1  C   -0.263536
     2  O   -0.283910
     3  C    0.364664
     4  O   -0.341375
     5  C    0.096399
     6  C   -0.170179
     7  C   -0.160209
     8  C   -0.143079
     9  C   -0.151112
    10  C   -0.049723
    11  Br  -0.071500
    12  H    0.154786
    13  H    0.160411
    14  H    0.160606
    15  H    0.180706
    16  H    0.169027
    17  H    0.171582
    18  H    0.176443
 Sum of Mulliken charges =  -0.00000
 Mulliken charges with hydrogens summed into heavy atoms:
               1
     1  C    0.212266
     2  O   -0.283910
     3  C    0.364664
     4  O   -0.341375
     5  C    0.096399
     6  C    0.010527
     7  C    0.008818
     8  C    0.028502
     9  C    0.025331
    10  C   -0.049723
    11  Br  -0.071500
 Electronic spatial extent (au):  <R**2>=           2491.2395
 Charge=             -0.0000 electrons
 Dipole moment (field-independent basis, Debye):
    X=             -1.0802    Y=              3.6931    Z=             -0.4469  Tot=              3.8737
 Quadrupole moment (field-independent basis, Debye-Ang):
   XX=            -61.4281   YY=            -70.9282   ZZ=            -79.1135
   XY=              3.1314   XZ=              0.5633   YZ=              1.8691
 Traceless Quadrupole moment (field-independent basis, Debye-Ang):
   XX=              9.0619   YY=             -0.4383   ZZ=             -8.6236
   XY=              3.1314   XZ=              0.5633   YZ=              1.8691
 Octapole moment (field-independent basis, Debye-Ang**2):
  XXX=            -13.5940  YYY=            -17.8504  ZZZ=             -1.1297  XYY=             21.0114
  XXY=            -13.5496  XXZ=             -2.6475  XZZ=              5.2564  YZZ=            -24.2058
  YYZ=             -2.9924  XYZ=             -3.3996
 Hexadecapole moment (field-independent basis, Debye-Ang**3):
 XXXX=          -1422.6972 YYYY=          -1113.2948 ZZZZ=           -105.0553 XXXY=             -4.3290
 XXXZ=              7.1769 YYYX=            -62.9591 YYYZ=              7.6948 ZZZX=             -3.8817
 ZZZY=              0.2130 XXYY=           -458.6289 XXZZ=           -305.6723 YYZZ=           -247.1438
 XXYZ=              3.9985 YYXZ=              2.8416 ZZXY=            -23.3425
 N-N= 8.498039343762D+02 E-N=-8.924706151038D+03  KE= 3.028005422207D+03
 Calculating spin-rotation constants.
 Leave Link  601 at Tue Sep 17 10:46:57 2024, MaxMem=  1342177280 cpu:               4.7 elap:               4.7
 (Enter /groups/ReismanLab/Software/Gaussian16_RevC/Linux_Binary_AVX2-enabled-CPU/g16/l9999.exe)
 Unable to Open any file for archive entry.
 1\1\GINC-HPC-82-11\SP\RM062X\def2TZVP\C8H7Br1O2\MANTIND\17-Sep-2024\0\
 \#p M062X/def2tzvp geom=check guess=read scf(xqc,tight) integral(grid=
 ultrafine) scrf(SMD, solvent=1,4-Dioxane) nmr=giao\\spe\\0,1\C,0,2.581
 5798666,3.0095523298,0.0990576468\O,0,1.227818362,2.5394037528,0.17892
 92388\C,0,1.0616830845,1.2323848043,-0.1432004055\O,0,1.9867992651,0.5
 127893141,-0.4503623009\C,0,-0.379148797,0.8415454906,-0.0813739392\C,
 0,-1.3585271623,1.848801686,-0.1337659193\C,0,-2.7143218042,1.54642582
 32,-0.1214364163\C,0,-3.1216222331,0.2146550758,-0.045127103\C,0,-2.17
 2274383,-0.801151123,0.0185728353\C,0,-0.8111634518,-0.4940421783,-0.0
 035160982\Br,0,0.3831303085,-1.9733855893,0.1221785968\H,0,2.543759808
 3,4.0603753872,0.3840886475\H,0,2.9684701259,2.898410592,-0.916736925\
 H,0,3.2226463543,2.4472291064,0.7817529037\H,0,-1.0289986842,2.8782968
 534,-0.1899456778\H,0,-3.44780328,2.3442467113,-0.1701165383\H,0,-4.17
 69789153,-0.0389043817,-0.0323757106\H,0,-2.4755294667,-1.8388375379,0
 .0879035423\\Version=ES64L-G16RevC.02\State=1-A\HF=-3033.7090836\RMSD=
 1.242e-09\Dipole=-0.9749889,1.1640559,0.1303134\Quadrupole=3.9634115,2
 .3840498,-6.3474613,4.2019968,1.3915495,-0.6276184\PG=C01 [X(C8H7Br1O2
 )]\\@
 The archive entry for this job was punched.


 NATURE WILL TELL YOU A DIRECT LIE IF SHE CAN.

                                -- CHARLES DARWIN
 Job cpu time:       0 days  0 hours 16 minutes  8.0 seconds.
 Elapsed time:       0 days  0 hours 16 minutes 13.6 seconds.
 File lengths (MBytes):  RWF=    256 Int=      0 D2E=      0 Chk=     24 Scr=     16
 Normal termination of Gaussian 16 at Tue Sep 17 10:46:57 2024.
