 Entering Gaussian System, Link 0=g16
 Input=smiles_00098_conf_0.gjf
 Output=smiles_00098_conf_0.log
 Initial command:
 /groups/ReismanLab/Software/Gaussian16_RevC/Linux_Binary_AVX2-enabled-CPU/g16/l1.exe "/central/groups/ReismanLab/DM/dft_final/smiles_00098/Gau-199832.inp" -scrdir="/central/groups/ReismanLab/DM/dft_final/smiles_00098/"
 Entering Link 1 = /groups/ReismanLab/Software/Gaussian16_RevC/Linux_Binary_AVX2-enabled-CPU/g16/l1.exe PID=    199833.
  
 Copyright (c) 1988-2021, Gaussian, Inc.  All Rights Reserved.
  
 This is part of the Gaussian(R) 16 program.  It is based on
 the Gaussian(R) 09 system (copyright 2009, Gaussian, Inc.),
 the Gaussian(R) 03 system (copyright 2003, Gaussian, Inc.),
 the Gaussian(R) 98 system (copyright 1998, Gaussian, Inc.),
 the Gaussian(R) 94 system (copyright 1995, Gaussian, Inc.),
 the Gaussian 92(TM) system (copyright 1992, Gaussian, Inc.),
 the Gaussian 90(TM) system (copyright 1990, Gaussian, Inc.),
 the Gaussian 88(TM) system (copyright 1988, Gaussian, Inc.),
 the Gaussian 86(TM) system (copyright 1986, Carnegie Mellon
 University), and the Gaussian 82(TM) system (copyright 1983,
 Carnegie Mellon University). Gaussian is a federally registered
 trademark of Gaussian, Inc.
  
 This software contains proprietary and confidential information,
 including trade secrets, belonging to Gaussian, Inc.
  
 This software is provided under written license and may be
 used, copied, transmitted, or stored only in accord with that
 written license.
  
 The following legend is applicable only to US Government
 contracts under FAR:
  
                    RESTRICTED RIGHTS LEGEND
  
 Use, reproduction and disclosure by the US Government is
 subject to restrictions as set forth in subparagraphs (a)
 and (c) of the Commercial Computer Software - Restricted
 Rights clause in FAR 52.227-19.
  
 Gaussian, Inc.
 340 Quinnipiac St., Bldg. 40, Wallingford CT 06492
  
  
 ---------------------------------------------------------------
 Warning -- This program may not be used in any manner that
 competes with the business of Gaussian, Inc. or will provide
 assistance to any competitor of Gaussian, Inc.  The licensee
 of this program is prohibited from giving any competitor of
 Gaussian, Inc. access to this program.  By using this program,
 the user acknowledges that Gaussian, Inc. is engaged in the
 business of creating and licensing software in the field of
 computational chemistry and represents and warrants to the
 licensee that it is not a competitor of Gaussian, Inc. and that
 it will not use this program in any manner prohibited above.
 ---------------------------------------------------------------
  

 Cite this work as:
 Gaussian 16, Revision C.02,
 M. J. Frisch, G. W. Trucks, H. B. Schlegel, G. E. Scuseria, 
 M. A. Robb, J. R. Cheeseman, G. Scalmani, V. Barone, 
 G. A. Petersson, H. Nakatsuji, X. Li, M. Caricato, A. V. Marenich, 
 J. Bloino, B. G. Janesko, R. Gomperts, B. Mennucci, H. P. Hratchian, 
 J. V. Ortiz, A. F. Izmaylov, J. L. Sonnenberg, D. Williams-Young, 
 F. Ding, F. Lipparini, F. Egidi, J. Goings, B. Peng, A. Petrone, 
 T. Henderson, D. Ranasinghe, V. G. Zakrzewski, J. Gao, N. Rega, 
 G. Zheng, W. Liang, M. Hada, M. Ehara, K. Toyota, R. Fukuda, 
 J. Hasegawa, M. Ishida, T. Nakajima, Y. Honda, O. Kitao, H. Nakai, 
 T. Vreven, K. Throssell, J. A. Montgomery, Jr., J. E. Peralta, 
 F. Ogliaro, M. J. Bearpark, J. J. Heyd, E. N. Brothers, K. N. Kudin, 
 V. N. Staroverov, T. A. Keith, R. Kobayashi, J. Normand, 
 K. Raghavachari, A. P. Rendell, J. C. Burant, S. S. Iyengar, 
 J. Tomasi, M. Cossi, J. M. Millam, M. Klene, C. Adamo, R. Cammi, 
 J. W. Ochterski, R. L. Martin, K. Morokuma, O. Farkas, 
 J. B. Foresman, and D. J. Fox, Gaussian, Inc., Wallingford CT, 2019.
 
 ******************************************
 Gaussian 16:  ES64L-G16RevC.02  7-Dec-2021
                17-Sep-2024 
 ******************************************
 %nprocshared=8
 Will use up to    8 processors via shared memory.
 %Mem=10GB
 %Chk=smiles_00098_conf_0.chk
 ----------------------------------------------------------------------
 #p B3LYP/6-31G(d,p) EmpiricalDispersion=GD3BJ opt freq scf(xqc,tight) 
 integral(grid=ultrafine)
 ----------------------------------------------------------------------
 1/18=20,19=15,26=4,38=1/1,3;
 2/9=110,12=2,17=6,18=5,40=1/2;
 3/5=1,6=6,7=101,11=2,25=1,30=1,71=1,74=-5,75=-5,124=41/1,2,3;
 4//1;
 5/5=2,8=3,13=1,32=2,38=5/2,8;
 6/7=2,8=2,9=2,10=2,28=1/1;
 7//1,2,3,16;
 1/18=20,19=15,26=4/3(2);
 2/9=110/2;
 99//99;
 2/9=110/2;
 3/5=1,6=6,7=101,11=2,25=1,30=1,71=1,74=-5,75=-5,124=41/1,2,3;
 4/5=5,16=3,69=1/1;
 5/5=2,8=3,13=1,32=2,38=5/2,8;
 7//1,2,3,16;
 1/18=20,19=15,26=4/3(-5);
 2/9=110/2;
 6/7=2,8=2,9=2,10=2,19=2,28=1/1;
 99/9=1/99;
 Leave Link    1 at Tue Sep 17 09:43:34 2024, MaxMem=  1342177280 cpu:               0.1 elap:               0.6
 (Enter /groups/ReismanLab/Software/Gaussian16_RevC/Linux_Binary_AVX2-enabled-CPU/g16/l101.exe)
 ----------------------------------
 opt-freq conformers_unique/conf_aa
 ----------------------------------
 Symbolic Z-matrix:
 Charge =  0 Multiplicity = 1
 C                     3.02445   1.48399  -0.35107 
 O                     1.73091   0.90366  -0.39887 
 C                     0.7323    1.63391   0.09592 
 O                     0.87294   2.7468    0.5397 
 C                    -0.5901    0.95357   0.01155 
 C                    -1.70865   1.78723  -0.01773 
 C                    -2.98546   1.27031  -0.10478 
 C                    -3.16624  -0.1032   -0.15361 
 C                    -2.07252  -0.94789  -0.10568 
 C                    -0.79026  -0.42476  -0.0252 
 Br                    0.63589  -1.67041   0.08825 
 H                     3.71027   0.71957  -0.70664 
 H                     3.26969   1.7783    0.67123 
 H                     3.06477   2.36752  -0.99151 
 H                    -1.53903   2.85241   0.02913 
 H                    -3.83629   1.93312  -0.13199 
 H                    -4.15887  -0.52161  -0.22125 
 H                    -2.20674  -2.01863  -0.12756 
 
 ITRead=  0  0  0  0  0  0  0  0  0  0  0  0  0  0  0  0  0  0
 MicOpt= -1 -1 -1 -1 -1 -1 -1 -1 -1 -1 -1 -1 -1 -1 -1 -1 -1 -1
 NAtoms=     18 NQM=       18 NQMF=       0 NMMI=      0 NMMIF=      0
                NMic=       0 NMicF=      0.
                    Isotopes and Nuclear Properties:
 (Nuclear quadrupole moments (NQMom) in fm**2, nuclear magnetic moments (NMagM)
  in nuclear magnetons)

  Atom         1           2           3           4           5           6           7           8           9          10
 IAtWgt=          12          16          12          16          12          12          12          12          12          12
 AtmWgt=  12.0000000  15.9949146  12.0000000  15.9949146  12.0000000  12.0000000  12.0000000  12.0000000  12.0000000  12.0000000
 NucSpn=           0           0           0           0           0           0           0           0           0           0
 AtZEff=  -0.0000000  -0.0000000  -0.0000000  -0.0000000  -0.0000000  -0.0000000  -0.0000000  -0.0000000  -0.0000000  -0.0000000
 NQMom=    0.0000000   0.0000000   0.0000000   0.0000000   0.0000000   0.0000000   0.0000000   0.0000000   0.0000000   0.0000000
 NMagM=    0.0000000   0.0000000   0.0000000   0.0000000   0.0000000   0.0000000   0.0000000   0.0000000   0.0000000   0.0000000
 AtZNuc=   6.0000000   8.0000000   6.0000000   8.0000000   6.0000000   6.0000000   6.0000000   6.0000000   6.0000000   6.0000000

  Atom        11          12          13          14          15          16          17          18
 IAtWgt=          79           1           1           1           1           1           1           1
 AtmWgt=  78.9183361   1.0078250   1.0078250   1.0078250   1.0078250   1.0078250   1.0078250   1.0078250
 NucSpn=           3           1           1           1           1           1           1           1
 AtZEff=  -0.0000000  -0.0000000  -0.0000000  -0.0000000  -0.0000000  -0.0000000  -0.0000000  -0.0000000
 NQMom=   31.3000000   0.0000000   0.0000000   0.0000000   0.0000000   0.0000000   0.0000000   0.0000000
 NMagM=    2.1063990   2.7928460   2.7928460   2.7928460   2.7928460   2.7928460   2.7928460   2.7928460
 AtZNuc=  35.0000000   1.0000000   1.0000000   1.0000000   1.0000000   1.0000000   1.0000000   1.0000000
 Leave Link  101 at Tue Sep 17 09:43:38 2024, MaxMem=  1342177280 cpu:               0.3 elap:               3.8
 (Enter /groups/ReismanLab/Software/Gaussian16_RevC/Linux_Binary_AVX2-enabled-CPU/g16/l103.exe)

 GradGradGradGradGradGradGradGradGradGradGradGradGradGradGradGradGradGrad
 Berny optimization.
 Initialization pass.
                           ----------------------------
                           !    Initial Parameters    !
                           ! (Angstroms and Degrees)  !
 --------------------------                            --------------------------
 ! Name  Definition              Value          Derivative Info.                !
 --------------------------------------------------------------------------------
 ! R1    R(1,2)                  1.4186         estimate D2E/DX2                !
 ! R2    R(1,12)                 1.0868         estimate D2E/DX2                !
 ! R3    R(1,13)                 1.0917         estimate D2E/DX2                !
 ! R4    R(1,14)                 1.092          estimate D2E/DX2                !
 ! R5    R(2,3)                  1.3324         estimate D2E/DX2                !
 ! R6    R(3,4)                  1.2063         estimate D2E/DX2                !
 ! R7    R(3,5)                  1.4895         estimate D2E/DX2                !
 ! R8    R(5,6)                  1.3953         estimate D2E/DX2                !
 ! R9    R(5,10)                 1.3933         estimate D2E/DX2                !
 ! R10   R(6,7)                  1.3802         estimate D2E/DX2                !
 ! R11   R(6,15)                 1.0796         estimate D2E/DX2                !
 ! R12   R(7,8)                  1.3862         estimate D2E/DX2                !
 ! R13   R(7,16)                 1.0789         estimate D2E/DX2                !
 ! R14   R(8,9)                  1.3828         estimate D2E/DX2                !
 ! R15   R(8,17)                 1.0793         estimate D2E/DX2                !
 ! R16   R(9,10)                 1.3872         estimate D2E/DX2                !
 ! R17   R(9,18)                 1.0793         estimate D2E/DX2                !
 ! R18   R(10,11)                1.8969         estimate D2E/DX2                !
 ! A1    A(2,1,12)             106.0612         estimate D2E/DX2                !
 ! A2    A(2,1,13)             110.2839         estimate D2E/DX2                !
 ! A3    A(2,1,14)             110.1762         estimate D2E/DX2                !
 ! A4    A(12,1,13)            110.7464         estimate D2E/DX2                !
 ! A5    A(12,1,14)            110.7278         estimate D2E/DX2                !
 ! A6    A(13,1,14)            108.8311         estimate D2E/DX2                !
 ! A7    A(1,2,3)              116.5324         estimate D2E/DX2                !
 ! A8    A(2,3,4)              123.7002         estimate D2E/DX2                !
 ! A9    A(2,3,5)              113.2049         estimate D2E/DX2                !
 ! A10   A(4,3,5)              123.0728         estimate D2E/DX2                !
 ! A11   A(3,5,6)              116.1029         estimate D2E/DX2                !
 ! A12   A(3,5,10)             125.5125         estimate D2E/DX2                !
 ! A13   A(6,5,10)             118.3809         estimate D2E/DX2                !
 ! A14   A(5,6,7)              121.2742         estimate D2E/DX2                !
 ! A15   A(5,6,15)             117.5555         estimate D2E/DX2                !
 ! A16   A(7,6,15)             121.1702         estimate D2E/DX2                !
 ! A17   A(6,7,8)              119.5999         estimate D2E/DX2                !
 ! A18   A(6,7,16)             120.0691         estimate D2E/DX2                !
 ! A19   A(8,7,16)             120.3309         estimate D2E/DX2                !
 ! A20   A(7,8,9)              120.0598         estimate D2E/DX2                !
 ! A21   A(7,8,17)             120.4135         estimate D2E/DX2                !
 ! A22   A(9,8,17)             119.5249         estimate D2E/DX2                !
 ! A23   A(8,9,10)             120.1839         estimate D2E/DX2                !
 ! A24   A(8,9,18)             120.4605         estimate D2E/DX2                !
 ! A25   A(10,9,18)            119.3553         estimate D2E/DX2                !
 ! A26   A(5,10,9)             120.49           estimate D2E/DX2                !
 ! A27   A(5,10,11)            122.686          estimate D2E/DX2                !
 ! A28   A(9,10,11)            116.7933         estimate D2E/DX2                !
 ! D1    D(12,1,2,3)           174.9066         estimate D2E/DX2                !
 ! D2    D(13,1,2,3)            54.9464         estimate D2E/DX2                !
 ! D3    D(14,1,2,3)           -65.2141         estimate D2E/DX2                !
 ! D4    D(1,2,3,4)              1.8074         estimate D2E/DX2                !
 ! D5    D(1,2,3,5)           -179.8574         estimate D2E/DX2                !
 ! D6    D(2,3,5,6)           -154.8472         estimate D2E/DX2                !
 ! D7    D(2,3,5,10)            25.8643         estimate D2E/DX2                !
 ! D8    D(4,3,5,6)             23.5            estimate D2E/DX2                !
 ! D9    D(4,3,5,10)          -155.7885         estimate D2E/DX2                !
 ! D10   D(3,5,6,7)            179.5261         estimate D2E/DX2                !
 ! D11   D(3,5,6,15)            -0.4084         estimate D2E/DX2                !
 ! D12   D(10,5,6,7)            -1.1322         estimate D2E/DX2                !
 ! D13   D(10,5,6,15)          178.9333         estimate D2E/DX2                !
 ! D14   D(3,5,10,9)          -179.9405         estimate D2E/DX2                !
 ! D15   D(3,5,10,11)            2.1387         estimate D2E/DX2                !
 ! D16   D(6,5,10,9)             0.7858         estimate D2E/DX2                !
 ! D17   D(6,5,10,11)         -177.1351         estimate D2E/DX2                !
 ! D18   D(5,6,7,8)              0.5208         estimate D2E/DX2                !
 ! D19   D(5,6,7,16)          -179.6336         estimate D2E/DX2                !
 ! D20   D(15,6,7,8)          -179.5471         estimate D2E/DX2                !
 ! D21   D(15,6,7,16)            0.2985         estimate D2E/DX2                !
 ! D22   D(6,7,8,9)              0.4544         estimate D2E/DX2                !
 ! D23   D(6,7,8,17)           179.9694         estimate D2E/DX2                !
 ! D24   D(16,7,8,9)          -179.3908         estimate D2E/DX2                !
 ! D25   D(16,7,8,17)            0.1242         estimate D2E/DX2                !
 ! D26   D(7,8,9,10)            -0.7927         estimate D2E/DX2                !
 ! D27   D(7,8,9,18)           179.0324         estimate D2E/DX2                !
 ! D28   D(17,8,9,10)          179.688          estimate D2E/DX2                !
 ! D29   D(17,8,9,18)           -0.487          estimate D2E/DX2                !
 ! D30   D(8,9,10,5)             0.1609         estimate D2E/DX2                !
 ! D31   D(8,9,10,11)          178.2006         estimate D2E/DX2                !
 ! D32   D(18,9,10,5)         -179.6661         estimate D2E/DX2                !
 ! D33   D(18,9,10,11)          -1.6264         estimate D2E/DX2                !
 --------------------------------------------------------------------------------
 Trust Radius=3.00D-01 FncErr=1.00D-07 GrdErr=1.00D-06 EigMax=2.50D+02 EigMin=1.00D-04
 Number of steps in this run=     89 maximum allowed number of steps=    108.
 GradGradGradGradGradGradGradGradGradGradGradGradGradGradGradGradGradGrad

 Leave Link  103 at Tue Sep 17 09:43:38 2024, MaxMem=  1342177280 cpu:               0.0 elap:               0.0
 (Enter /groups/ReismanLab/Software/Gaussian16_RevC/Linux_Binary_AVX2-enabled-CPU/g16/l202.exe)
                          Input orientation:                          
 ---------------------------------------------------------------------
 Center     Atomic      Atomic             Coordinates (Angstroms)
 Number     Number       Type             X           Y           Z
 ---------------------------------------------------------------------
      1          6           0        3.024454    1.483989   -0.351073
      2          8           0        1.730909    0.903661   -0.398866
      3          6           0        0.732300    1.633912    0.095918
      4          8           0        0.872941    2.746799    0.539704
      5          6           0       -0.590101    0.953571    0.011551
      6          6           0       -1.708651    1.787226   -0.017729
      7          6           0       -2.985462    1.270312   -0.104780
      8          6           0       -3.166236   -0.103203   -0.153612
      9          6           0       -2.072521   -0.947888   -0.105681
     10          6           0       -0.790257   -0.424758   -0.025198
     11         35           0        0.635893   -1.670406    0.088248
     12          1           0        3.710268    0.719572   -0.706638
     13          1           0        3.269693    1.778305    0.671228
     14          1           0        3.064767    2.367522   -0.991512
     15          1           0       -1.539031    2.852414    0.029130
     16          1           0       -3.836285    1.933119   -0.131987
     17          1           0       -4.158869   -0.521606   -0.221254
     18          1           0       -2.206737   -2.018631   -0.127565
 ---------------------------------------------------------------------
                    Distance matrix (angstroms):
                    1          2          3          4          5
     1  C    0.000000
     2  O    1.418564   0.000000
     3  C    2.340139   1.332402   0.000000
     4  O    2.648996   2.239236   1.206335   0.000000
     5  C    3.671219   2.357545   1.489539   2.373838   0.000000
     6  C    4.754510   3.571628   2.448401   2.810006   1.395347
     7  C    6.018756   4.739734   3.740888   4.181226   2.419011
     8  C    6.393968   5.005592   4.275327   4.991809   2.789359
     9  C    5.652734   4.240315   3.817507   4.768961   2.413889
    10  C    4.278028   2.874126   2.563390   3.625481   1.393271
    11  Br   3.981010   2.839395   3.305733   4.446539   2.897274
    12  H    1.086784   2.011585   3.216894   3.703166   4.366202
    13  H    1.091725   2.068323   2.605800   2.588378   4.001671
    14  H    1.091979   2.067195   2.676021   2.700477   4.045176
    15  H    4.779387   3.830577   2.578401   2.467681   2.122824
    16  H    6.878915   5.667862   4.584042   4.825978   3.393793
    17  H    7.459182   6.062377   5.354474   6.048193   3.868650
    18  H    6.299497   4.911053   4.693501   5.713054   3.386273
                    6          7          8          9         10
     6  C    0.000000
     7  C    1.380226   0.000000
     8  C    2.390970   1.386220   0.000000
     9  C    2.760613   2.398724   1.382753   0.000000
    10  C    2.395073   2.774621   2.401076   1.387208   0.000000
    11  Br   4.178916   4.668972   4.119564   2.809830   1.896948
    12  H    5.565893   6.745247   6.947597   6.048323   4.693460
    13  H    5.025799   6.323545   6.755858   6.047724   4.671369
    14  H    4.906172   6.212523   6.755143   6.178055   4.857138
    15  H    1.079627   2.147823   3.378885   3.839933   3.362063
    16  H    2.135689   1.078866   2.143837   3.378130   3.853476
    17  H    3.372787   2.145092   1.079331   2.132586   3.375702
    18  H    3.839882   3.379952   2.142471   1.079343   2.134790
                   11         12         13         14         15
    11  Br   0.000000
    12  H    3.974370   0.000000
    13  H    4.378399   1.792634   0.000000
    14  H    4.834271   1.792642   1.775916   0.000000
    15  H    5.018933   5.713625   4.968886   4.740441   0.000000
    16  H    5.747545   7.665076   7.152905   6.967927   2.479605
    17  H    4.940169   7.981192   7.827493   7.818009   4.279048
    18  H    2.871999   6.545534   6.711637   6.911837   4.919092
                   16         17         18
    16  H    0.000000
    17  H    2.477438   0.000000
    18  H    4.274549   2.461845   0.000000
 Stoichiometry    C8H7BrO2
 Framework group  C1[X(C8H7BrO2)]
 Deg. of freedom    48
 Full point group                 C1      NOp   1
 Largest Abelian subgroup         C1      NOp   1
 Largest concise Abelian subgroup C1      NOp   1
                         Standard orientation:                         
 ---------------------------------------------------------------------
 Center     Atomic      Atomic             Coordinates (Angstroms)
 Number     Number       Type             X           Y           Z
 ---------------------------------------------------------------------
      1          6           0       -3.219494    0.949112    0.329714
      2          8           0       -1.859929    0.547630    0.381879
      3          6           0       -0.966635    1.405918   -0.108696
      4          8           0       -1.253820    2.490381   -0.552215
      5          6           0        0.434820    0.909159   -0.019922
      6          6           0        1.431218    1.885390    0.014080
      7          6           0        2.765546    1.544455    0.105485
      8          6           0        3.128898    0.207583    0.154017
      9          6           0        2.158658   -0.776223    0.101449
     10          6           0        0.818067   -0.429867    0.016596
     11         35           0       -0.427534   -1.855555   -0.102999
     12          1           0       -3.797743    0.099124    0.682202
     13          1           0       -3.498375    1.209063   -0.693279
     14          1           0       -3.380338    1.818470    0.970622
     15          1           0        1.120303    2.918221   -0.032655
     16          1           0        3.519585    2.315446    0.136304
     17          1           0        4.168467   -0.073859    0.225033
     18          1           0        2.435323   -1.819281    0.123074
 ---------------------------------------------------------------------
 Rotational constants (GHZ):           0.9503696           0.8158942           0.4483551
 Leave Link  202 at Tue Sep 17 09:43:38 2024, MaxMem=  1342177280 cpu:               0.1 elap:               0.0
 (Enter /groups/ReismanLab/Software/Gaussian16_RevC/Linux_Binary_AVX2-enabled-CPU/g16/l301.exe)
 Standard basis: 6-31G(d,p) (6D, 7F)
 Ernie: Thresh=  0.10000D-02 Tol=  0.10000D-05 Strict=F.
 There are   215 symmetry adapted cartesian basis functions of A   symmetry.
 There are   215 symmetry adapted basis functions of A   symmetry.
   215 basis functions,   412 primitive gaussians,   215 cartesian basis functions
    53 alpha electrons       53 beta electrons
       nuclear repulsion energy       867.5301982803 Hartrees.
 IExCor=  402 DFT=T Ex+Corr=B3LYP ExCW=0 ScaHFX=  0.200000
 ScaDFX=  0.800000  0.720000  1.000000  0.810000 ScalE2=  1.000000  1.000000
 IRadAn=      5 IRanWt=     -1 IRanGd=            0 ICorTp=0 IEmpDi=141
 NAtoms=   18 NActive=   18 NUniq=   18 SFac= 1.00D+00 NAtFMM=   60 NAOKFM=F Big=F
 Integral buffers will be    131072 words long.
 Raffenetti 2 integral format.
 Two-electron integral symmetry is turned on.
 R6Disp:  Grimme-D3(BJ) Dispersion energy=       -0.0371141837 Hartrees.
 Nuclear repulsion after empirical dispersion term =      867.4930840966 Hartrees.
 Leave Link  301 at Tue Sep 17 09:43:38 2024, MaxMem=  1342177280 cpu:               0.1 elap:               0.1
 (Enter /groups/ReismanLab/Software/Gaussian16_RevC/Linux_Binary_AVX2-enabled-CPU/g16/l302.exe)
 NPDir=0 NMtPBC=     1 NCelOv=     1 NCel=       1 NClECP=     1 NCelD=      1
         NCelK=      1 NCelE2=     1 NClLst=     1 CellRange=     0.0.
 One-electron integrals computed using PRISM.
 One-electron integral symmetry used in STVInt
 NBasis=   215 RedAO= T EigKep=  3.93D-04  NBF=   215
 NBsUse=   215 1.00D-06 EigRej= -1.00D+00 NBFU=   215
 Precomputing XC quadrature grid using
 IXCGrd= 4 IRadAn=           5 IRanWt=          -1 IRanGd=           0 AccXCQ= 0.00D+00.
 Generated NRdTot=       0 NPtTot=           0 NUsed=           0 NTot=          32
 NSgBfM=   214   214   214   214   214 MxSgAt=    18 MxSgA2=    18.
 Leave Link  302 at Tue Sep 17 09:43:38 2024, MaxMem=  1342177280 cpu:               0.9 elap:               0.2
 (Enter /groups/ReismanLab/Software/Gaussian16_RevC/Linux_Binary_AVX2-enabled-CPU/g16/l303.exe)
 DipDrv:  MaxL=1.
 Leave Link  303 at Tue Sep 17 09:43:38 2024, MaxMem=  1342177280 cpu:               0.1 elap:               0.0
 (Enter /groups/ReismanLab/Software/Gaussian16_RevC/Linux_Binary_AVX2-enabled-CPU/g16/l401.exe)
 ExpMin= 1.43D-01 ExpMax= 5.74D+05 ExpMxC= 5.74D+03 IAcc=3 IRadAn=         5 AccDes= 0.00D+00
 Harris functional with IExCor=  402 and IRadAn=       5 diagonalized for initial guess.
 HarFok:  IExCor=  402 AccDes= 0.00D+00 IRadAn=         5 IDoV= 1 UseB2=F ITyADJ=14
 ICtDFT=  3500011 ScaDFX=  1.000000  1.000000  1.000000  1.000000
 FoFCou: FMM=F IPFlag=           0 FMFlag=      100000 FMFlg1=           0
         NFxFlg=           0 DoJE=T BraDBF=F KetDBF=T FulRan=T
         wScrn=  0.000000 ICntrl=       500 IOpCl=  0 I1Cent=   200000004 NGrid=           0
         NMat0=    1 NMatS0=      1 NMatT0=    0 NMatD0=    1 NMtDS0=    0 NMtDT0=    0
 Petite list used in FoFCou.
 Harris En= -3031.39118013401    
 JPrj=0 DoOrth=F DoCkMO=F.
 Leave Link  401 at Tue Sep 17 09:43:39 2024, MaxMem=  1342177280 cpu:               3.9 elap:               0.5
 (Enter /groups/ReismanLab/Software/Gaussian16_RevC/Linux_Binary_AVX2-enabled-CPU/g16/l502.exe)
 Integral symmetry usage will be decided dynamically.
 Closed shell SCF:
 Using DIIS extrapolation, IDIIS=  1040.
 NGot=  1342177280 LenX=  1342080394 LenY=  1342033728
 Requested convergence on RMS density matrix=1.00D-08 within  32 cycles.
 Requested convergence on MAX density matrix=1.00D-06.
 Requested convergence on             energy=1.00D-06.
 No special actions if energy rises.
 Fock matrices will be formed incrementally for  20 cycles.
 Integral accuracy reduced to 1.0D-05 until final iterations.

 Cycle   1  Pass 0  IDiag  1:
 FoFJK:  IHMeth= 1 ICntrl=       0 DoSepK=F KAlg= 0 I1Cent=           0 FoldK=F
 IRaf= 870000000 NMat=       1 IRICut=       1 DoRegI=T DoRafI=F ISym2E= 0 IDoP0=0 IntGTp=1.
 FoFCou: FMM=F IPFlag=           0 FMFlag=      100000 FMFlg1=           0
         NFxFlg=           0 DoJE=F BraDBF=F KetDBF=F FulRan=T
         wScrn=  0.000000 ICntrl=         0 IOpCl=  0 I1Cent=           0 NGrid=           0
         NMat0=    1 NMatS0=      1 NMatT0=    0 NMatD0=    1 NMtDS0=    0 NMtDT0=    0
 Symmetry not used in FoFCou.
 E= -3031.03046595324    
 DIIS: error= 1.86D-01 at cycle   1 NSaved=   1.
 NSaved= 1 IEnMin= 1 EnMin= -3031.03046595324     IErMin= 1 ErrMin= 1.86D-01
 ErrMax= 1.86D-01  0.00D+00 EMaxC= 1.00D-01 BMatC= 6.09D-01 BMatP= 6.09D-01
 IDIUse=3 WtCom= 0.00D+00 WtEn= 1.00D+00
 Coeff-Com:  0.100D+01
 Coeff-En:   0.100D+01
 Coeff:      0.100D+01
 Gap=     0.249 Goal=   None    Shift=    0.000
 GapD=    0.249 DampG=1.000 DampE=0.250 DampFc=0.2500 IDamp=-1.
 Damping current iteration by 2.50D-01
 RMSDP=5.62D-03 MaxDP=1.93D-01              OVMax= 2.46D-01

 Cycle   2  Pass 0  IDiag  1:
 RMSU=  1.37D-03    CP:  9.92D-01
 E= -3031.11372876470     Delta-E=       -0.083262811451 Rises=F Damp=T
 DIIS: error= 1.37D-01 at cycle   2 NSaved=   2.
 NSaved= 2 IEnMin= 2 EnMin= -3031.11372876470     IErMin= 2 ErrMin= 1.37D-01
 ErrMax= 1.37D-01  0.00D+00 EMaxC= 1.00D-01 BMatC= 2.49D-01 BMatP= 6.09D-01
 IDIUse=3 WtCom= 0.00D+00 WtEn= 1.00D+00
 Coeff-Com: -0.108D+01 0.208D+01
 Coeff-En:   0.000D+00 0.100D+01
 Coeff:      0.000D+00 0.100D+01
 Gap=     0.226 Goal=   None    Shift=    0.000
 RMSDP=2.70D-03 MaxDP=1.11D-01 DE=-8.33D-02 OVMax= 1.00D-01

 Cycle   3  Pass 0  IDiag  1:
 RMSU=  1.36D-03    CP:  9.69D-01  2.55D+00
 E= -3031.22244154516     Delta-E=       -0.108712780464 Rises=F Damp=F
 DIIS: error= 9.73D-03 at cycle   3 NSaved=   3.
 NSaved= 3 IEnMin= 3 EnMin= -3031.22244154516     IErMin= 3 ErrMin= 9.73D-03
 ErrMax= 9.73D-03  0.00D+00 EMaxC= 1.00D-01 BMatC= 5.06D-02 BMatP= 2.49D-01
 IDIUse=3 WtCom= 9.03D-01 WtEn= 9.73D-02
 Coeff-Com:  0.629D+00-0.670D+00 0.104D+01
 Coeff-En:   0.104D+00 0.000D+00 0.896D+00
 Coeff:      0.578D+00-0.604D+00 0.103D+01
 Gap=     0.209 Goal=   None    Shift=    0.000
 RMSDP=1.63D-03 MaxDP=4.25D-02 DE=-1.09D-01 OVMax= 6.35D-02

 Cycle   4  Pass 0  IDiag  1:
 RMSU=  1.26D-03    CP:  9.70D-01  1.81D+00  7.94D-01
 E= -3031.24383693303     Delta-E=       -0.021395387875 Rises=F Damp=F
 DIIS: error= 1.01D-02 at cycle   4 NSaved=   4.
 NSaved= 4 IEnMin= 4 EnMin= -3031.24383693303     IErMin= 3 ErrMin= 9.73D-03
 ErrMax= 1.01D-02  0.00D+00 EMaxC= 1.00D-01 BMatC= 2.76D-02 BMatP= 5.06D-02
 IDIUse=3 WtCom= 8.99D-01 WtEn= 1.01D-01
 Coeff-Com:  0.540D+00-0.693D+00 0.695D+00 0.458D+00
 Coeff-En:   0.000D+00 0.000D+00 0.325D+00 0.675D+00
 Coeff:      0.486D+00-0.623D+00 0.657D+00 0.480D+00
 Gap=     0.204 Goal=   None    Shift=    0.000
 RMSDP=8.61D-04 MaxDP=2.88D-02 DE=-2.14D-02 OVMax= 4.45D-02

 Cycle   5  Pass 0  IDiag  1:
 RMSU=  2.21D-04    CP:  9.70D-01  1.90D+00  1.01D+00  3.88D-01
 E= -3031.26812528904     Delta-E=       -0.024288356003 Rises=F Damp=F
 DIIS: error= 1.79D-03 at cycle   5 NSaved=   5.
 NSaved= 5 IEnMin= 5 EnMin= -3031.26812528904     IErMin= 5 ErrMin= 1.79D-03
 ErrMax= 1.79D-03  0.00D+00 EMaxC= 1.00D-01 BMatC= 1.00D-03 BMatP= 2.76D-02
 IDIUse=3 WtCom= 9.82D-01 WtEn= 1.79D-02
 Coeff-Com:  0.214D+00-0.277D+00 0.292D+00 0.255D+00 0.516D+00
 Coeff-En:   0.000D+00 0.000D+00 0.000D+00 0.000D+00 0.100D+01
 Coeff:      0.210D+00-0.272D+00 0.287D+00 0.251D+00 0.525D+00
 Gap=     0.201 Goal=   None    Shift=    0.000
 RMSDP=1.55D-04 MaxDP=5.05D-03 DE=-2.43D-02 OVMax= 7.63D-03

 Cycle   6  Pass 0  IDiag  1:
 RMSU=  7.63D-05    CP:  9.70D-01  1.92D+00  9.93D-01  4.44D-01  5.25D-01
 E= -3031.26887654923     Delta-E=       -0.000751260192 Rises=F Damp=F
 DIIS: error= 5.15D-04 at cycle   6 NSaved=   6.
 NSaved= 6 IEnMin= 6 EnMin= -3031.26887654923     IErMin= 6 ErrMin= 5.15D-04
 ErrMax= 5.15D-04  0.00D+00 EMaxC= 1.00D-01 BMatC= 8.11D-05 BMatP= 1.00D-03
 IDIUse=3 WtCom= 9.95D-01 WtEn= 5.15D-03
 Coeff-Com:  0.737D-01-0.961D-01 0.978D-01 0.920D-01 0.294D+00 0.538D+00
 Coeff-En:   0.000D+00 0.000D+00 0.000D+00 0.000D+00 0.469D-01 0.953D+00
 Coeff:      0.733D-01-0.956D-01 0.973D-01 0.915D-01 0.293D+00 0.541D+00
 Gap=     0.200 Goal=   None    Shift=    0.000
 RMSDP=5.40D-05 MaxDP=2.02D-03 DE=-7.51D-04 OVMax= 4.46D-03

 Cycle   7  Pass 0  IDiag  1:
 RMSU=  2.86D-05    CP:  9.70D-01  1.92D+00  1.00D+00  4.47D-01  5.75D-01
                    CP:  4.69D-01
 E= -3031.26894936647     Delta-E=       -0.000072817238 Rises=F Damp=F
 DIIS: error= 1.88D-04 at cycle   7 NSaved=   7.
 NSaved= 7 IEnMin= 7 EnMin= -3031.26894936647     IErMin= 7 ErrMin= 1.88D-04
 ErrMax= 1.88D-04  0.00D+00 EMaxC= 1.00D-01 BMatC= 7.00D-06 BMatP= 8.11D-05
 IDIUse=3 WtCom= 9.98D-01 WtEn= 1.88D-03
 Coeff-Com:  0.235D-01-0.310D-01 0.290D-01 0.274D-01 0.113D+00 0.300D+00
 Coeff-Com:  0.538D+00
 Coeff-En:   0.000D+00 0.000D+00 0.000D+00 0.000D+00 0.000D+00 0.197D-01
 Coeff-En:   0.980D+00
 Coeff:      0.235D-01-0.310D-01 0.289D-01 0.273D-01 0.112D+00 0.300D+00
 Coeff:      0.539D+00
 Gap=     0.200 Goal=   None    Shift=    0.000
 RMSDP=1.70D-05 MaxDP=5.25D-04 DE=-7.28D-05 OVMax= 1.24D-03

 Cycle   8  Pass 0  IDiag  1:
 RMSU=  8.30D-06    CP:  9.70D-01  1.92D+00  1.00D+00  4.45D-01  5.77D-01
                    CP:  5.68D-01  5.60D-01
 E= -3031.26895629738     Delta-E=       -0.000006930914 Rises=F Damp=F
 DIIS: error= 5.99D-05 at cycle   8 NSaved=   8.
 NSaved= 8 IEnMin= 8 EnMin= -3031.26895629738     IErMin= 8 ErrMin= 5.99D-05
 ErrMax= 5.99D-05  0.00D+00 EMaxC= 1.00D-01 BMatC= 7.25D-07 BMatP= 7.00D-06
 IDIUse=1 WtCom= 1.00D+00 WtEn= 0.00D+00
 Coeff-Com:  0.649D-02-0.867D-02 0.696D-02 0.612D-02 0.326D-01 0.110D+00
 Coeff-Com:  0.300D+00 0.547D+00
 Coeff:      0.649D-02-0.867D-02 0.696D-02 0.612D-02 0.326D-01 0.110D+00
 Coeff:      0.300D+00 0.547D+00
 Gap=     0.200 Goal=   None    Shift=    0.000
 RMSDP=4.68D-06 MaxDP=1.61D-04 DE=-6.93D-06 OVMax= 2.93D-04

 Initial convergence to 1.0D-05 achieved.  Increase integral accuracy.
 Cycle   9  Pass 1  IDiag  1:
 E= -3031.26890337289     Delta-E=        0.000052924494 Rises=F Damp=F
 DIIS: error= 4.86D-05 at cycle   1 NSaved=   1.
 NSaved= 1 IEnMin= 1 EnMin= -3031.26890337289     IErMin= 1 ErrMin= 4.86D-05
 ErrMax= 4.86D-05  0.00D+00 EMaxC= 1.00D-01 BMatC= 2.16D-07 BMatP= 2.16D-07
 IDIUse=1 WtCom= 1.00D+00 WtEn= 0.00D+00
 Coeff-Com:  0.100D+01
 Coeff:      0.100D+01
 Gap=     0.200 Goal=   None    Shift=    0.000
 RMSDP=4.68D-06 MaxDP=1.61D-04 DE= 5.29D-05 OVMax= 1.44D-04

 Cycle  10  Pass 1  IDiag  1:
 RMSU=  1.30D-05    CP:  1.00D+00
 E= -3031.26890335904     Delta-E=        0.000000013846 Rises=F Damp=F
 DIIS: error= 2.12D-05 at cycle   2 NSaved=   2.
 NSaved= 2 IEnMin= 1 EnMin= -3031.26890337289     IErMin= 2 ErrMin= 2.12D-05
 ErrMax= 2.12D-05  0.00D+00 EMaxC= 1.00D-01 BMatC= 1.59D-07 BMatP= 2.16D-07
 IDIUse=1 WtCom= 1.00D+00 WtEn= 0.00D+00
 Coeff-Com:  0.448D+00 0.552D+00
 Coeff:      0.448D+00 0.552D+00
 Gap=     0.200 Goal=   None    Shift=    0.000
 RMSDP=2.95D-06 MaxDP=8.06D-05 DE= 1.38D-08 OVMax= 1.45D-04

 Cycle  11  Pass 1  IDiag  1:
 RMSU=  2.92D-06    CP:  1.00D+00  9.68D-01
 E= -3031.26890346252     Delta-E=       -0.000000103476 Rises=F Damp=F
 DIIS: error= 1.33D-05 at cycle   3 NSaved=   3.
 NSaved= 3 IEnMin= 3 EnMin= -3031.26890346252     IErMin= 3 ErrMin= 1.33D-05
 ErrMax= 1.33D-05  0.00D+00 EMaxC= 1.00D-01 BMatC= 5.40D-08 BMatP= 1.59D-07
 IDIUse=1 WtCom= 1.00D+00 WtEn= 0.00D+00
 Coeff-Com:  0.335D-01 0.365D+00 0.602D+00
 Coeff:      0.335D-01 0.365D+00 0.602D+00
 Gap=     0.200 Goal=   None    Shift=    0.000
 RMSDP=1.21D-06 MaxDP=3.65D-05 DE=-1.03D-07 OVMax= 7.19D-05

 Cycle  12  Pass 1  IDiag  1:
 RMSU=  6.01D-07    CP:  1.00D+00  9.86D-01  6.51D-01
 E= -3031.26890351169     Delta-E=       -0.000000049175 Rises=F Damp=F
 DIIS: error= 2.88D-06 at cycle   4 NSaved=   4.
 NSaved= 4 IEnMin= 4 EnMin= -3031.26890351169     IErMin= 4 ErrMin= 2.88D-06
 ErrMax= 2.88D-06  0.00D+00 EMaxC= 1.00D-01 BMatC= 4.13D-09 BMatP= 5.40D-08
 IDIUse=1 WtCom= 1.00D+00 WtEn= 0.00D+00
 Coeff-Com: -0.144D-02 0.196D+00 0.367D+00 0.438D+00
 Coeff:     -0.144D-02 0.196D+00 0.367D+00 0.438D+00
 Gap=     0.200 Goal=   None    Shift=    0.000
 RMSDP=3.38D-07 MaxDP=1.25D-05 DE=-4.92D-08 OVMax= 2.39D-05

 Cycle  13  Pass 1  IDiag  1:
 RMSU=  1.04D-07    CP:  1.00D+00  9.88D-01  6.57D-01  4.69D-01
 E= -3031.26890351562     Delta-E=       -0.000000003931 Rises=F Damp=F
 DIIS: error= 4.04D-07 at cycle   5 NSaved=   5.
 NSaved= 5 IEnMin= 5 EnMin= -3031.26890351562     IErMin= 5 ErrMin= 4.04D-07
 ErrMax= 4.04D-07  0.00D+00 EMaxC= 1.00D-01 BMatC= 8.95D-11 BMatP= 4.13D-09
 IDIUse=1 WtCom= 1.00D+00 WtEn= 0.00D+00
 Coeff-Com: -0.177D-02 0.978D-01 0.185D+00 0.243D+00 0.476D+00
 Coeff:     -0.177D-02 0.978D-01 0.185D+00 0.243D+00 0.476D+00
 Gap=     0.200 Goal=   None    Shift=    0.000
 RMSDP=4.24D-08 MaxDP=1.74D-06 DE=-3.93D-09 OVMax= 1.89D-06

 Cycle  14  Pass 1  IDiag  1:
 RMSU=  3.18D-08    CP:  1.00D+00  9.88D-01  6.56D-01  4.73D-01  7.37D-01
 E= -3031.26890351572     Delta-E=       -0.000000000094 Rises=F Damp=F
 DIIS: error= 1.03D-07 at cycle   6 NSaved=   6.
 NSaved= 6 IEnMin= 6 EnMin= -3031.26890351572     IErMin= 6 ErrMin= 1.03D-07
 ErrMax= 1.03D-07  0.00D+00 EMaxC= 1.00D-01 BMatC= 4.80D-12 BMatP= 8.95D-11
 IDIUse=1 WtCom= 1.00D+00 WtEn= 0.00D+00
 Coeff-Com: -0.848D-03 0.403D-01 0.764D-01 0.103D+00 0.255D+00 0.526D+00
 Coeff:     -0.848D-03 0.403D-01 0.764D-01 0.103D+00 0.255D+00 0.526D+00
 Gap=     0.200 Goal=   None    Shift=    0.000
 RMSDP=1.21D-08 MaxDP=5.12D-07 DE=-9.37D-11 OVMax= 5.96D-07

 Cycle  15  Pass 1  IDiag  1:
 RMSU=  1.11D-08    CP:  1.00D+00  9.89D-01  6.56D-01  4.76D-01  7.43D-01
                    CP:  8.69D-01
 E= -3031.26890351570     Delta-E=        0.000000000015 Rises=F Damp=F
 DIIS: error= 5.44D-08 at cycle   7 NSaved=   7.
 NSaved= 7 IEnMin= 6 EnMin= -3031.26890351572     IErMin= 7 ErrMin= 5.44D-08
 ErrMax= 5.44D-08  0.00D+00 EMaxC= 1.00D-01 BMatC= 8.66D-13 BMatP= 4.80D-12
 IDIUse=1 WtCom= 1.00D+00 WtEn= 0.00D+00
 Coeff-Com: -0.204D-03 0.717D-02 0.137D-01 0.204D-01 0.733D-01 0.316D+00
 Coeff-Com:  0.569D+00
 Coeff:     -0.204D-03 0.717D-02 0.137D-01 0.204D-01 0.733D-01 0.316D+00
 Coeff:      0.569D+00
 Gap=     0.200 Goal=   None    Shift=    0.000
 RMSDP=5.54D-09 MaxDP=1.94D-07 DE= 1.46D-11 OVMax= 3.12D-07

 SCF Done:  E(RB3LYP) =  -3031.26890352     A.U. after   15 cycles
            NFock= 15  Conv=0.55D-08     -V/T= 2.0065
 KE= 3.011568313015D+03 PE=-8.939317013548D+03 EE= 2.028986712921D+03
 Leave Link  502 at Tue Sep 17 09:43:50 2024, MaxMem=  1342177280 cpu:              80.3 elap:              10.9
 (Enter /groups/ReismanLab/Software/Gaussian16_RevC/Linux_Binary_AVX2-enabled-CPU/g16/l508.exe)
 QCSCF skips out because SCF is already converged.
 Leave Link  508 at Tue Sep 17 09:43:50 2024, MaxMem=  1342177280 cpu:               0.1 elap:               0.1
 (Enter /groups/ReismanLab/Software/Gaussian16_RevC/Linux_Binary_AVX2-enabled-CPU/g16/l601.exe)
 Copying SCF densities to generalized density rwf, IOpCl= 0 IROHF=0.

 **********************************************************************

            Population analysis using the SCF Density.

 **********************************************************************

 Orbital symmetries:
       Occupied  (A) (A) (A) (A) (A) (A) (A) (A) (A) (A) (A) (A)
                 (A) (A) (A) (A) (A) (A) (A) (A) (A) (A) (A) (A)
                 (A) (A) (A) (A) (A) (A) (A) (A) (A) (A) (A) (A)
                 (A) (A) (A) (A) (A) (A) (A) (A) (A) (A) (A) (A)
                 (A) (A) (A) (A) (A)
       Virtual   (A) (A) (A) (A) (A) (A) (A) (A) (A) (A) (A) (A)
                 (A) (A) (A) (A) (A) (A) (A) (A) (A) (A) (A) (A)
                 (A) (A) (A) (A) (A) (A) (A) (A) (A) (A) (A) (A)
                 (A) (A) (A) (A) (A) (A) (A) (A) (A) (A) (A) (A)
                 (A) (A) (A) (A) (A) (A) (A) (A) (A) (A) (A) (A)
                 (A) (A) (A) (A) (A) (A) (A) (A) (A) (A) (A) (A)
                 (A) (A) (A) (A) (A) (A) (A) (A) (A) (A) (A) (A)
                 (A) (A) (A) (A) (A) (A) (A) (A) (A) (A) (A) (A)
                 (A) (A) (A) (A) (A) (A) (A) (A) (A) (A) (A) (A)
                 (A) (A) (A) (A) (A) (A) (A) (A) (A) (A) (A) (A)
                 (A) (A) (A) (A) (A) (A) (A) (A) (A) (A) (A) (A)
                 (A) (A) (A) (A) (A) (A) (A) (A) (A) (A) (A) (A)
                 (A) (A) (A) (A) (A) (A) (A) (A) (A) (A) (A) (A)
                 (A) (A) (A) (A) (A) (A)
 The electronic state is 1-A.
 Alpha  occ. eigenvalues -- -482.91062 -61.87201 -56.39324 -56.38894 -56.38891
 Alpha  occ. eigenvalues --  -19.19530 -19.13600 -10.31871 -10.25595 -10.24153
 Alpha  occ. eigenvalues --  -10.21791 -10.20853 -10.20695 -10.20579 -10.20226
 Alpha  occ. eigenvalues --   -8.58301  -6.53717  -6.52433  -6.52329  -2.65286
 Alpha  occ. eigenvalues --   -2.64936  -2.64857  -2.63830  -2.63828  -1.11471
 Alpha  occ. eigenvalues --   -1.02128  -0.88783  -0.80924  -0.78428  -0.73957
 Alpha  occ. eigenvalues --   -0.72525  -0.63842  -0.61527  -0.57512  -0.53841
 Alpha  occ. eigenvalues --   -0.49707  -0.49216  -0.48379  -0.46210  -0.44962
 Alpha  occ. eigenvalues --   -0.43011  -0.42320  -0.41099  -0.38302  -0.37502
 Alpha  occ. eigenvalues --   -0.36247  -0.35865  -0.31780  -0.30681  -0.28449
 Alpha  occ. eigenvalues --   -0.27209  -0.26548  -0.24765
 Alpha virt. eigenvalues --   -0.04767  -0.01720   0.00949   0.04857   0.10277
 Alpha virt. eigenvalues --    0.11378   0.13167   0.14671   0.15463   0.15807
 Alpha virt. eigenvalues --    0.17156   0.17533   0.18151   0.23954   0.26504
 Alpha virt. eigenvalues --    0.27533   0.29169   0.29984   0.31219   0.35835
 Alpha virt. eigenvalues --    0.36952   0.43307   0.44367   0.45446   0.46212
 Alpha virt. eigenvalues --    0.47776   0.48413   0.50530   0.51143   0.52675
 Alpha virt. eigenvalues --    0.53046   0.53875   0.55870   0.56106   0.57139
 Alpha virt. eigenvalues --    0.58563   0.59572   0.59943   0.60303   0.61727
 Alpha virt. eigenvalues --    0.64645   0.66934   0.68356   0.69157   0.70755
 Alpha virt. eigenvalues --    0.72698   0.75551   0.78852   0.80119   0.81343
 Alpha virt. eigenvalues --    0.81687   0.81905   0.84223   0.85007   0.87138
 Alpha virt. eigenvalues --    0.89108   0.89997   0.93304   0.95316   0.97000
 Alpha virt. eigenvalues --    0.98250   0.99689   1.01573   1.04558   1.08714
 Alpha virt. eigenvalues --    1.09341   1.11989   1.17881   1.20233   1.21360
 Alpha virt. eigenvalues --    1.24815   1.25381   1.27254   1.32161   1.34194
 Alpha virt. eigenvalues --    1.38697   1.39538   1.40416   1.41663   1.42173
 Alpha virt. eigenvalues --    1.46168   1.52619   1.53244   1.59226   1.60888
 Alpha virt. eigenvalues --    1.65044   1.68122   1.74005   1.76459   1.77591
 Alpha virt. eigenvalues --    1.83312   1.85648   1.87374   1.88791   1.92163
 Alpha virt. eigenvalues --    1.92458   1.93330   1.94422   1.97746   1.98172
 Alpha virt. eigenvalues --    1.98963   1.99820   2.00632   2.01613   2.02669
 Alpha virt. eigenvalues --    2.04578   2.07362   2.12300   2.12683   2.15625
 Alpha virt. eigenvalues --    2.26612   2.29246   2.30617   2.34736   2.37136
 Alpha virt. eigenvalues --    2.38786   2.40141   2.42594   2.46472   2.47495
 Alpha virt. eigenvalues --    2.48885   2.51468   2.52015   2.55316   2.56389
 Alpha virt. eigenvalues --    2.57169   2.62422   2.62889   2.65406   2.69751
 Alpha virt. eigenvalues --    2.71889   2.73849   2.77056   2.81893   2.84172
 Alpha virt. eigenvalues --    2.85312   2.96459   2.97777   2.99925   3.11635
 Alpha virt. eigenvalues --    3.18848   3.20454   3.22835   3.24147   3.34032
 Alpha virt. eigenvalues --    3.34807   3.40947   3.43511   3.48033   3.85052
 Alpha virt. eigenvalues --    4.00865   4.08717   4.13386   4.13768   4.28184
 Alpha virt. eigenvalues --    4.38514   4.40529   4.43740   4.53259   4.80416
 Alpha virt. eigenvalues --    8.63158  73.25301
          Condensed to atoms (all electrons):
               1          2          3          4          5          6
     1  C    4.719217   0.211963  -0.018670   0.003291   0.007389  -0.000162
     2  O    0.211963   8.263903   0.252699  -0.085803  -0.081875   0.002762
     3  C   -0.018670   0.252699   4.424548   0.551931   0.325392  -0.046409
     4  O    0.003291  -0.085803   0.551931   8.065794  -0.084351   0.000429
     5  C    0.007389  -0.081875   0.325392  -0.084351   5.014803   0.502853
     6  C   -0.000162   0.002762  -0.046409   0.000429   0.502853   4.904306
     7  C    0.000002  -0.000066   0.007162   0.000757  -0.027708   0.503825
     8  C    0.000000  -0.000001   0.000058  -0.000004  -0.038462  -0.028644
     9  C    0.000009   0.000090   0.006076  -0.000078  -0.017009  -0.053932
    10  C   -0.000027  -0.004363  -0.046636   0.002719   0.460668  -0.039332
    11  Br   0.001848  -0.017999  -0.009387  -0.000052  -0.066373   0.006100
    12  H    0.389946  -0.034215   0.004695   0.000661  -0.000055  -0.000001
    13  H    0.384153  -0.031566  -0.006107   0.007368   0.000167  -0.000023
    14  H    0.385790  -0.031319  -0.006117   0.005175  -0.000444   0.000051
    15  H   -0.000032   0.000418  -0.010657   0.014063  -0.040904   0.368726
    16  H   -0.000000   0.000000  -0.000186   0.000000   0.003800  -0.036036
    17  H    0.000000  -0.000000   0.000008   0.000000   0.000853   0.004437
    18  H   -0.000000   0.000005  -0.000118   0.000000   0.004712   0.000586
               7          8          9         10         11         12
     1  C    0.000002   0.000000   0.000009  -0.000027   0.001848   0.389946
     2  O   -0.000066  -0.000001   0.000090  -0.004363  -0.017999  -0.034215
     3  C    0.007162   0.000058   0.006076  -0.046636  -0.009387   0.004695
     4  O    0.000757  -0.000004  -0.000078   0.002719  -0.000052   0.000661
     5  C   -0.027708  -0.038462  -0.017009   0.460668  -0.066373  -0.000055
     6  C    0.503825  -0.028644  -0.053932  -0.039332   0.006100  -0.000001
     7  C    4.848018   0.532873  -0.027904  -0.042403  -0.000055  -0.000000
     8  C    0.532873   4.818868   0.516436  -0.031232   0.006399   0.000000
     9  C   -0.027904   0.516436   4.910250   0.495616  -0.075233  -0.000000
    10  C   -0.042403  -0.031232   0.495616   4.915391   0.285105  -0.000021
    11  Br  -0.000055   0.006399  -0.075233   0.285105  34.978335   0.000753
    12  H   -0.000000   0.000000  -0.000000  -0.000021   0.000753   0.580016
    13  H   -0.000000  -0.000000   0.000000   0.000003  -0.000013  -0.031959
    14  H    0.000000  -0.000000   0.000001  -0.000008  -0.000032  -0.034162
    15  H   -0.039385   0.004507   0.000438   0.005992  -0.000115  -0.000000
    16  H    0.370087  -0.041243   0.004429   0.001145   0.000009   0.000000
    17  H   -0.039993   0.370136  -0.037993   0.004531  -0.000177   0.000000
    18  H    0.004758  -0.039842   0.371388  -0.039982  -0.002425  -0.000000
              13         14         15         16         17         18
     1  C    0.384153   0.385790  -0.000032  -0.000000   0.000000  -0.000000
     2  O   -0.031566  -0.031319   0.000418   0.000000  -0.000000   0.000005
     3  C   -0.006107  -0.006117  -0.010657  -0.000186   0.000008  -0.000118
     4  O    0.007368   0.005175   0.014063   0.000000   0.000000   0.000000
     5  C    0.000167  -0.000444  -0.040904   0.003800   0.000853   0.004712
     6  C   -0.000023   0.000051   0.368726  -0.036036   0.004437   0.000586
     7  C   -0.000000   0.000000  -0.039385   0.370087  -0.039993   0.004758
     8  C   -0.000000  -0.000000   0.004507  -0.041243   0.370136  -0.039842
     9  C    0.000000   0.000001   0.000438   0.004429  -0.037993   0.371388
    10  C    0.000003  -0.000008   0.005992   0.001145   0.004531  -0.039982
    11  Br  -0.000013  -0.000032  -0.000115   0.000009  -0.000177  -0.002425
    12  H   -0.031959  -0.034162  -0.000000   0.000000   0.000000  -0.000000
    13  H    0.583694  -0.038227  -0.000005   0.000000  -0.000000  -0.000000
    14  H   -0.038227   0.590860   0.000000   0.000000   0.000000   0.000000
    15  H   -0.000005   0.000000   0.579205  -0.005420  -0.000188   0.000017
    16  H    0.000000   0.000000  -0.005420   0.611382  -0.005825  -0.000184
    17  H   -0.000000   0.000000  -0.000188  -0.005825   0.610359  -0.006386
    18  H   -0.000000   0.000000   0.000017  -0.000184  -0.006386   0.595596
 Mulliken charges:
               1
     1  C   -0.084716
     2  O   -0.444632
     3  C    0.571720
     4  O   -0.481902
     5  C    0.036542
     6  C   -0.089534
     7  C   -0.089969
     8  C   -0.069849
     9  C   -0.092585
    10  C    0.032833
    11  Br  -0.106689
    12  H    0.124341
    13  H    0.132514
    14  H    0.128430
    15  H    0.123340
    16  H    0.098042
    17  H    0.100237
    18  H    0.111875
 Sum of Mulliken charges =  -0.00000
 Mulliken charges with hydrogens summed into heavy atoms:
               1
     1  C    0.300569
     2  O   -0.444632
     3  C    0.571720
     4  O   -0.481902
     5  C    0.036542
     6  C    0.033806
     7  C    0.008074
     8  C    0.030389
     9  C    0.019290
    10  C    0.032833
    11  Br  -0.106689
 Electronic spatial extent (au):  <R**2>=           2315.5580
 Charge=             -0.0000 electrons
 Dipole moment (field-independent basis, Debye):
    X=              0.8684    Y=             -0.4403    Z=              0.8705  Tot=              1.3060
 Quadrupole moment (field-independent basis, Debye-Ang):
   XX=            -59.0838   YY=            -78.1761   ZZ=            -77.0558
   XY=              2.4528   XZ=             -0.9322   YZ=              2.7207
 Traceless Quadrupole moment (field-independent basis, Debye-Ang):
   XX=             12.3548   YY=             -6.7376   ZZ=             -5.6172
   XY=              2.4528   XZ=             -0.9322   YZ=              2.7207
 Octapole moment (field-independent basis, Debye-Ang**2):
  XXX=            -32.0730  YYY=            -63.0111  ZZZ=             -4.0891  XYY=              5.2846
  XXY=            -10.9735  XXZ=              4.8988  XZZ=            -15.9813  YZZ=            -17.0463
  YYZ=              7.2584  XYZ=             -4.3962
 Hexadecapole moment (field-independent basis, Debye-Ang**3):
 XXXX=          -1420.0967 YYYY=          -1087.8270 ZZZZ=           -105.8714 XXXY=              0.6241
 XXXZ=             -3.8979 YYYX=             65.3386 YYYZ=             24.5456 ZZZX=             -0.8250
 ZZZY=              2.5484 XXYY=           -425.7170 XXZZ=           -305.2337 YYZZ=           -203.1940
 XXYZ=              7.5853 YYXZ=            -10.2771 ZZXY=             -1.9861
 N-N= 8.674930840966D+02 E-N=-8.939317008271D+03  KE= 3.011568313015D+03
 No NMR shielding tensors so no spin-rotation constants.
 Leave Link  601 at Tue Sep 17 09:43:50 2024, MaxMem=  1342177280 cpu:               0.6 elap:               0.1
 (Enter /groups/ReismanLab/Software/Gaussian16_RevC/Linux_Binary_AVX2-enabled-CPU/g16/l701.exe)
 ... and contract with generalized density number  0.
 Compute integral first derivatives.
 R6Disp: Adding Grimme-D3(BJ) dispersion energy 1st derivatives to the gradient.
 Leave Link  701 at Tue Sep 17 09:43:50 2024, MaxMem=  1342177280 cpu:               0.5 elap:               0.1
 (Enter /groups/ReismanLab/Software/Gaussian16_RevC/Linux_Binary_AVX2-enabled-CPU/g16/l702.exe)
 L702 exits ... SP integral derivatives will be done elsewhere.
 Leave Link  702 at Tue Sep 17 09:43:50 2024, MaxMem=  1342177280 cpu:               0.1 elap:               0.0
 (Enter /groups/ReismanLab/Software/Gaussian16_RevC/Linux_Binary_AVX2-enabled-CPU/g16/l703.exe)
 Integral derivatives from FoFJK, PRISM(SPDF).
 Compute integral first derivatives, UseDBF=F ICtDFT=           0.
 Calling FoFJK, ICntrl=      2127 FMM=F ISym2X=0 I1Cent= 0 IOpClX= 0 NMat=1 NMatS=1 NMatT=0.
 FoFJK:  IHMeth= 1 ICntrl=    2127 DoSepK=F KAlg= 0 I1Cent=           0 FoldK=F
 IRaf=         0 NMat=       1 IRICut=       1 DoRegI=T DoRafI=F ISym2E= 0 IDoP0=0 IntGTp=1.
 FoFCou: FMM=F IPFlag=           0 FMFlag=      100000 FMFlg1=         800
         NFxFlg=           0 DoJE=F BraDBF=F KetDBF=F FulRan=T
         wScrn=  0.000000 ICntrl=      2127 IOpCl=  0 I1Cent=           0 NGrid=           0
         NMat0=    1 NMatS0=      1 NMatT0=    0 NMatD0=    1 NMtDS0=    0 NMtDT0=    0
 Symmetry not used in FoFCou.
 Leave Link  703 at Tue Sep 17 09:43:53 2024, MaxMem=  1342177280 cpu:              24.2 elap:               3.1
 (Enter /groups/ReismanLab/Software/Gaussian16_RevC/Linux_Binary_AVX2-enabled-CPU/g16/l716.exe)
 Dipole        = 3.41648324D-01-1.73232710D-01 3.42471891D-01
 ***** Axes restored to original set *****
 -------------------------------------------------------------------
 Center     Atomic                   Forces (Hartrees/Bohr)
 Number     Number              X              Y              Z
 -------------------------------------------------------------------
      1        6           0.005059499    0.005591508    0.002270556
      2        8          -0.000371986   -0.005775918   -0.006126870
      3        6          -0.005307496   -0.005776408   -0.001370498
      4        8           0.002433790    0.016061298    0.005360188
      5        6           0.005541729    0.001369038    0.000004033
      6        6           0.001581677    0.004695249    0.000410956
      7        6          -0.004196744    0.003854357   -0.000216803
      8        6          -0.004087572   -0.001254609   -0.000120684
      9        6          -0.000440399   -0.007220127   -0.000274879
     10        6           0.002788904   -0.003075807   -0.000606489
     11       35           0.000269349   -0.009696840    0.001373594
     12        1           0.000847678   -0.001296707   -0.000742344
     13        1           0.001227489    0.000580186    0.000327506
     14        1           0.001208826    0.000922023   -0.000332698
     15        1           0.000675483    0.003106600    0.000460260
     16        1          -0.003322980    0.002809972   -0.000244150
     17        1          -0.003961836   -0.001833020   -0.000272928
     18        1           0.000054587   -0.003060793    0.000101249
 -------------------------------------------------------------------
 Cartesian Forces:  Max     0.016061298 RMS     0.003916614
 Leave Link  716 at Tue Sep 17 09:43:53 2024, MaxMem=  1342177280 cpu:               0.1 elap:               0.0
 (Enter /groups/ReismanLab/Software/Gaussian16_RevC/Linux_Binary_AVX2-enabled-CPU/g16/l103.exe)

 GradGradGradGradGradGradGradGradGradGradGradGradGradGradGradGradGradGrad
 Berny optimization.
 FormGI is forming the generalized inverse of G from B-inverse, IUseBI=4.
 GSVD:  received Info=                   1 from GESDD.
 Internal  Forces:  Max     0.018924123 RMS     0.005477051
 Search for a local minimum.
 Step number   1 out of a maximum of   89
 All quantities printed in internal units (Hartrees-Bohrs-Radians)
 RMS Force = .54771D-02 SwitMx=.10000D-02 MixMth= 1
 Mixed Optimization -- RFO/linear search
 Second derivative matrix not updated -- first step.
 ITU=  0
     Eigenvalues ---    0.00904   0.01446   0.01474   0.01774   0.02180
     Eigenvalues ---    0.02217   0.02252   0.02268   0.02283   0.02296
     Eigenvalues ---    0.02302   0.02319   0.02586   0.10329   0.10680
     Eigenvalues ---    0.15999   0.16000   0.16000   0.16000   0.16000
     Eigenvalues ---    0.16000   0.16000   0.18401   0.21999   0.22488
     Eigenvalues ---    0.24479   0.24984   0.24994   0.24998   0.25000
     Eigenvalues ---    0.25000   0.33500   0.34585   0.34614   0.35187
     Eigenvalues ---    0.36039   0.36074   0.36075   0.36132   0.42677
     Eigenvalues ---    0.42984   0.43396   0.46944   0.47504   0.48181
     Eigenvalues ---    0.48743   0.58942   1.01703
 RFO step:  Lambda=-7.65570244D-03 EMin= 9.04325407D-03
 Linear search not attempted -- first point.
 Iteration  1 RMS(Cart)=  0.12711665 RMS(Int)=  0.00414511
 Iteration  2 RMS(Cart)=  0.00857300 RMS(Int)=  0.00042022
 Iteration  3 RMS(Cart)=  0.00004209 RMS(Int)=  0.00041986
 Iteration  4 RMS(Cart)=  0.00000002 RMS(Int)=  0.00041986
 ITry= 1 IFail=0 DXMaxC= 4.95D-01 DCOld= 1.00D+10 DXMaxT= 3.00D-01 DXLimC= 3.00D+00 Rises=F
 Variable       Old X    -DE/DX   Delta X   Delta X   Delta X     New X
                                 (Linear)    (Quad)   (Total)
    R1        2.68070   0.01003   0.00000   0.02309   0.02309   2.70379
    R2        2.05372   0.00169   0.00000   0.00470   0.00470   2.05842
    R3        2.06306   0.00074   0.00000   0.00209   0.00209   2.06515
    R4        2.06354   0.00099   0.00000   0.00279   0.00279   2.06633
    R5        2.51788   0.00767   0.00000   0.01285   0.01285   2.53073
    R6        2.27964   0.01707   0.00000   0.01666   0.01666   2.29630
    R7        2.81482   0.00920   0.00000   0.02684   0.02684   2.84166
    R8        2.63682   0.00881   0.00000   0.01888   0.01889   2.65571
    R9        2.63290   0.01892   0.00000   0.04050   0.04054   2.67344
   R10        2.60825   0.00801   0.00000   0.01564   0.01560   2.62385
   R11        2.04020   0.00319   0.00000   0.00867   0.00867   2.04887
   R12        2.61958   0.00771   0.00000   0.01516   0.01512   2.63469
   R13        2.03876   0.00435   0.00000   0.01180   0.01180   2.05056
   R14        2.61302   0.00864   0.00000   0.01730   0.01730   2.63032
   R15        2.03964   0.00437   0.00000   0.01187   0.01187   2.05151
   R16        2.62144   0.00933   0.00000   0.01967   0.01970   2.64114
   R17        2.03966   0.00303   0.00000   0.00822   0.00822   2.04788
   R18        3.58471   0.00665   0.00000   0.03471   0.03471   3.61942
    A1        1.85112  -0.00110   0.00000  -0.00746  -0.00745   1.84367
    A2        1.92482   0.00170   0.00000   0.01070   0.01067   1.93548
    A3        1.92294   0.00165   0.00000   0.01015   0.01012   1.93306
    A4        1.93289  -0.00048   0.00000  -0.00348  -0.00348   1.92941
    A5        1.93257  -0.00068   0.00000  -0.00516  -0.00515   1.92741
    A6        1.89946  -0.00103   0.00000  -0.00446  -0.00453   1.89493
    A7        2.03387  -0.00286   0.00000  -0.01110  -0.01110   2.02278
    A8        2.15898  -0.00492   0.00000  -0.02005  -0.02194   2.13704
    A9        1.97580   0.00839   0.00000   0.03166   0.02978   2.00557
   A10        2.14803  -0.00354   0.00000  -0.01459  -0.01649   2.13154
   A11        2.02638  -0.01395   0.00000  -0.05484  -0.05488   1.97149
   A12        2.19061   0.01737   0.00000   0.06673   0.06668   2.25729
   A13        2.06614  -0.00342   0.00000  -0.01199  -0.01193   2.05420
   A14        2.11663   0.00355   0.00000   0.01468   0.01468   2.13131
   A15        2.05173  -0.00197   0.00000  -0.00852  -0.00852   2.04321
   A16        2.11482  -0.00158   0.00000  -0.00616  -0.00617   2.10865
   A17        2.08741  -0.00040   0.00000  -0.00451  -0.00457   2.08284
   A18        2.09560   0.00003   0.00000   0.00124   0.00127   2.09687
   A19        2.10017   0.00037   0.00000   0.00327   0.00329   2.10346
   A20        2.09544   0.00016   0.00000  -0.00152  -0.00155   2.09389
   A21        2.10161   0.00007   0.00000   0.00164   0.00165   2.10326
   A22        2.08610  -0.00023   0.00000  -0.00017  -0.00017   2.08594
   A23        2.09760   0.00207   0.00000   0.00926   0.00929   2.10689
   A24        2.10243  -0.00059   0.00000  -0.00195  -0.00198   2.10045
   A25        2.08314  -0.00149   0.00000  -0.00733  -0.00736   2.07578
   A26        2.10295  -0.00197   0.00000  -0.00617  -0.00625   2.09670
   A27        2.14128   0.01362   0.00000   0.05168   0.05139   2.19267
   A28        2.03843  -0.01168   0.00000  -0.04657  -0.04674   1.99169
    D1        3.05270   0.00016   0.00000   0.00416   0.00416   3.05686
    D2        0.95900   0.00046   0.00000   0.00692   0.00698   0.96597
    D3       -1.13820  -0.00040   0.00000  -0.00089  -0.00095  -1.13915
    D4        0.03154   0.00170   0.00000   0.06976   0.06955   0.10109
    D5       -3.13910  -0.00080   0.00000  -0.04292  -0.04271   3.10138
    D6       -2.70259   0.00243   0.00000   0.13039   0.13026  -2.57233
    D7        0.45142   0.00273   0.00000   0.14009   0.14019   0.59161
    D8        0.41015  -0.00008   0.00000   0.01840   0.01830   0.42845
    D9       -2.71902   0.00021   0.00000   0.02810   0.02822  -2.69080
   D10        3.13332  -0.00025   0.00000  -0.00640  -0.00651   3.12681
   D11       -0.00713  -0.00013   0.00000  -0.00191  -0.00209  -0.00922
   D12       -0.01976  -0.00036   0.00000  -0.01476  -0.01454  -0.03430
   D13        3.12298  -0.00024   0.00000  -0.01027  -0.01012   3.11285
   D14       -3.14055  -0.00013   0.00000  -0.00030  -0.00081  -3.14136
   D15        0.03733   0.00122   0.00000   0.03680   0.03728   0.07461
   D16        0.01371   0.00024   0.00000   0.00987   0.00975   0.02346
   D17       -3.09159   0.00159   0.00000   0.04696   0.04784  -3.04375
   D18        0.00909   0.00024   0.00000   0.00901   0.00887   0.01796
   D19       -3.13520   0.00020   0.00000   0.00692   0.00687  -3.12833
   D20       -3.13369   0.00012   0.00000   0.00435   0.00429  -3.12939
   D21        0.00521   0.00008   0.00000   0.00227   0.00229   0.00750
   D22        0.00793   0.00006   0.00000   0.00190   0.00189   0.00982
   D23        3.14106  -0.00011   0.00000  -0.00499  -0.00485   3.13621
   D24       -3.13096   0.00010   0.00000   0.00400   0.00390  -3.12706
   D25        0.00217  -0.00007   0.00000  -0.00290  -0.00284  -0.00067
   D26       -0.01383  -0.00014   0.00000  -0.00654  -0.00631  -0.02015
   D27        3.12470  -0.00038   0.00000  -0.01491  -0.01462   3.11009
   D28        3.13615   0.00002   0.00000   0.00028   0.00036   3.13650
   D29       -0.00850  -0.00021   0.00000  -0.00808  -0.00795  -0.01645
   D30        0.00281  -0.00003   0.00000   0.00043   0.00022   0.00303
   D31        3.11019  -0.00080   0.00000  -0.03260  -0.03179   3.07840
   D32       -3.13577   0.00021   0.00000   0.00869   0.00840  -3.12737
   D33       -0.02839  -0.00057   0.00000  -0.02434  -0.02361  -0.05200
         Item               Value     Threshold  Converged?
 Maximum Force            0.018924     0.000450     NO 
 RMS     Force            0.005477     0.000300     NO 
 Maximum Displacement     0.495119     0.001800     NO 
 RMS     Displacement     0.132564     0.001200     NO 
 Predicted change in Energy=-4.102878D-03
 Lowest energy point so far.  Saving SCF results.
 GradGradGradGradGradGradGradGradGradGradGradGradGradGradGradGradGradGrad

 Leave Link  103 at Tue Sep 17 09:43:53 2024, MaxMem=  1342177280 cpu:               0.1 elap:               0.0
 (Enter /groups/ReismanLab/Software/Gaussian16_RevC/Linux_Binary_AVX2-enabled-CPU/g16/l202.exe)
                          Input orientation:                          
 ---------------------------------------------------------------------
 Center     Atomic      Atomic             Coordinates (Angstroms)
 Number     Number       Type             X           Y           Z
 ---------------------------------------------------------------------
      1          6           0        3.053200    1.613085   -0.392859
      2          8           0        1.794686    0.934099   -0.440421
      3          6           0        0.769751    1.559802    0.152427
      4          8           0        0.866955    2.681744    0.608927
      5          6           0       -0.552974    0.853023    0.042391
      6          6           0       -1.643365    1.737313   -0.021371
      7          6           0       -2.951641    1.288433   -0.143038
      8          6           0       -3.202574   -0.082441   -0.182891
      9          6           0       -2.147519   -0.985475   -0.089145
     10          6           0       -0.829324   -0.534284    0.021148
     11         35           0        0.459978   -1.932412    0.247788
     12          1           0        3.773484    0.927793   -0.837919
     13          1           0        3.331682    1.846038    0.637897
     14          1           0        3.011952    2.545968   -0.961778
     15          1           0       -1.421861    2.797721    0.023288
     16          1           0       -3.768643    2.000131   -0.201842
     17          1           0       -4.218531   -0.454369   -0.272617
     18          1           0       -2.338180   -2.052262   -0.090103
 ---------------------------------------------------------------------
                    Distance matrix (angstroms):
                    1          2          3          4          5
     1  C    0.000000
     2  O    1.430783   0.000000
     3  C    2.348257   1.339203   0.000000
     4  O    2.631592   2.239660   1.215152   0.000000
     5  C    3.711014   2.398163   1.503744   2.383565   0.000000
     6  C    4.712871   3.555411   2.425870   2.755164   1.405343
     7  C    6.018798   4.768817   3.742954   4.133817   2.444908
     8  C    6.484874   5.106102   4.311470   4.982846   2.818905
     9  C    5.821703   4.398765   3.879079   4.798213   2.437201
    10  C    4.456073   3.042141   2.638081   3.683161   1.414723
    11  Br   4.439119   3.236041   3.507223   4.646126   2.971011
    12  H    1.089272   2.018338   3.225311   3.690206   4.415741
    13  H    1.092831   2.087286   2.623185   2.602715   4.053549
    14  H    1.093454   2.086066   2.690992   2.662059   4.072237
    15  H    4.647872   3.746237   2.520374   2.365397   2.130066
    16  H    6.835483   5.669566   4.573448   4.755072   3.422870
    17  H    7.560879   6.173716   5.396342   6.039411   3.904460
    18  H    6.526363   5.110935   4.771275   5.759544   3.412506
                    6          7          8          9         10
     6  C    0.000000
     7  C    1.388483   0.000000
     8  C    2.401818   1.394221   0.000000
     9  C    2.769899   2.412504   1.391905   0.000000
    10  C    2.413426   2.802407   2.424481   1.397632   0.000000
    11  Br   4.238323   4.708050   4.125793   2.794504   1.915314
    12  H    5.537538   6.770542   7.079196   6.267338   4.905253
    13  H    5.019716   6.356173   6.862159   6.210290   4.833248
    14  H    4.817702   6.149485   6.792314   6.312900   5.020906
    15  H    1.084215   2.155421   3.392459   3.853802   3.384281
    16  H    2.149059   1.085110   2.158216   3.399203   3.887490
    17  H    3.390882   2.158509   1.085610   2.145886   3.402852
    18  H    3.853359   3.396967   2.153133   1.083692   2.143195
                   11         12         13         14         15
    11  Br   0.000000
    12  H    4.509862   0.000000
    13  H    4.761886   1.793432   0.000000
    14  H    5.294479   1.792698   1.775131   0.000000
    15  H    5.095672   5.588374   4.886678   4.548893   0.000000
    16  H    5.792089   7.644487   7.151470   6.844845   2.488819
    17  H    4.933951   8.130328   7.945226   7.858552   4.299419
    18  H    2.821033   6.840497   6.919109   7.108266   4.937087
                   16         17         18
    16  H    0.000000
    17  H    2.496393   0.000000
    18  H    4.298906   2.474326   0.000000
 Stoichiometry    C8H7BrO2
 Framework group  C1[X(C8H7BrO2)]
 Deg. of freedom    48
 Full point group                 C1      NOp   1
 RotChk:  IX=2 Diff= 4.17D-01
 Largest Abelian subgroup         C1      NOp   1
 Largest concise Abelian subgroup C1      NOp   1
                         Standard orientation:                         
 ---------------------------------------------------------------------
 Center     Atomic      Atomic             Coordinates (Angstroms)
 Number     Number       Type             X           Y           Z
 ---------------------------------------------------------------------
      1          6           0       -3.525346    0.169957    0.388090
      2          8           0       -2.099288    0.076095    0.456551
      3          6           0       -1.418647    1.044659   -0.169608
      4          8           0       -1.966430    2.005187   -0.673506
      5          6           0        0.076623    0.954762   -0.037959
      6          6           0        0.701952    2.213182   -0.019747
      7          6           0        2.077110    2.352259    0.112474
      8          6           0        2.872847    1.211570    0.209856
      9          6           0        2.287796   -0.050512    0.162262
     10          6           0        0.902519   -0.191118    0.041371
     11         35           0        0.310928   -2.005966   -0.116030
     12          1           0       -3.902292   -0.732779    0.867143
     13          1           0       -3.863083    0.222977   -0.649891
     14          1           0       -3.880954    1.059129    0.915874
     15          1           0        0.061656    3.083601   -0.108710
     16          1           0        2.525176    3.340283    0.135015
     17          1           0        3.950467    1.298146    0.308790
     18          1           0        2.903183   -0.941349    0.208048
 ---------------------------------------------------------------------
 Rotational constants (GHZ):           0.8638433           0.7902808           0.4244986
 Leave Link  202 at Tue Sep 17 09:43:54 2024, MaxMem=  1342177280 cpu:               0.0 elap:               0.0
 (Enter /groups/ReismanLab/Software/Gaussian16_RevC/Linux_Binary_AVX2-enabled-CPU/g16/l301.exe)
 Standard basis: 6-31G(d,p) (6D, 7F)
 Ernie: Thresh=  0.10000D-02 Tol=  0.10000D-05 Strict=F.
 There are   215 symmetry adapted cartesian basis functions of A   symmetry.
 There are   215 symmetry adapted basis functions of A   symmetry.
   215 basis functions,   412 primitive gaussians,   215 cartesian basis functions
    53 alpha electrons       53 beta electrons
       nuclear repulsion energy       848.2791149902 Hartrees.
 IExCor=  402 DFT=T Ex+Corr=B3LYP ExCW=0 ScaHFX=  0.200000
 ScaDFX=  0.800000  0.720000  1.000000  0.810000 ScalE2=  1.000000  1.000000
 IRadAn=      5 IRanWt=     -1 IRanGd=            0 ICorTp=0 IEmpDi=141
 NAtoms=   18 NActive=   18 NUniq=   18 SFac= 1.00D+00 NAtFMM=   60 NAOKFM=F Big=F
 Integral buffers will be    131072 words long.
 Raffenetti 2 integral format.
 Two-electron integral symmetry is turned on.
 R6Disp:  Grimme-D3(BJ) Dispersion energy=       -0.0362229470 Hartrees.
 Nuclear repulsion after empirical dispersion term =      848.2428920432 Hartrees.
 Leave Link  301 at Tue Sep 17 09:43:54 2024, MaxMem=  1342177280 cpu:               0.1 elap:               0.1
 (Enter /groups/ReismanLab/Software/Gaussian16_RevC/Linux_Binary_AVX2-enabled-CPU/g16/l302.exe)
 NPDir=0 NMtPBC=     1 NCelOv=     1 NCel=       1 NClECP=     1 NCelD=      1
         NCelK=      1 NCelE2=     1 NClLst=     1 CellRange=     0.0.
 One-electron integrals computed using PRISM.
 One-electron integral symmetry used in STVInt
 NBasis=   215 RedAO= T EigKep=  4.30D-04  NBF=   215
 NBsUse=   215 1.00D-06 EigRej= -1.00D+00 NBFU=   215
 Precomputing XC quadrature grid using
 IXCGrd= 4 IRadAn=           5 IRanWt=          -1 IRanGd=           0 AccXCQ= 0.00D+00.
 Generated NRdTot=       0 NPtTot=           0 NUsed=           0 NTot=          32
 NSgBfM=   214   214   214   214   214 MxSgAt=    18 MxSgA2=    18.
 Leave Link  302 at Tue Sep 17 09:43:54 2024, MaxMem=  1342177280 cpu:               1.0 elap:               0.2
 (Enter /groups/ReismanLab/Software/Gaussian16_RevC/Linux_Binary_AVX2-enabled-CPU/g16/l303.exe)
 DipDrv:  MaxL=1.
 Leave Link  303 at Tue Sep 17 09:43:54 2024, MaxMem=  1342177280 cpu:               0.1 elap:               0.0
 (Enter /groups/ReismanLab/Software/Gaussian16_RevC/Linux_Binary_AVX2-enabled-CPU/g16/l401.exe)
 Initial guess from the checkpoint file:  "smiles_00098_conf_0.chk"
 B after Tr=    -0.000000    0.000000   -0.000000
         Rot=    0.987238    0.007837    0.003912   -0.159010 Ang=  18.33 deg.
 Guess basis will be translated and rotated to current coordinates.
 JPrj=2 DoOrth=T DoCkMO=T.
 Generating alternative initial guess.
 ExpMin= 1.43D-01 ExpMax= 5.74D+05 ExpMxC= 5.74D+03 IAcc=3 IRadAn=         5 AccDes= 0.00D+00
 Harris functional with IExCor=  402 and IRadAn=       5 diagonalized for initial guess.
 HarFok:  IExCor=  402 AccDes= 0.00D+00 IRadAn=         5 IDoV= 1 UseB2=F ITyADJ=14
 ICtDFT=  3500011 ScaDFX=  1.000000  1.000000  1.000000  1.000000
 FoFCou: FMM=F IPFlag=           0 FMFlag=      100000 FMFlg1=           0
         NFxFlg=           0 DoJE=T BraDBF=F KetDBF=T FulRan=T
         wScrn=  0.000000 ICntrl=       500 IOpCl=  0 I1Cent=   200000004 NGrid=           0
         NMat0=    1 NMatS0=      1 NMatT0=    0 NMatD0=    1 NMtDS0=    0 NMtDT0=    0
 Petite list used in FoFCou.
 Harris En= -3031.38467566947    
 Leave Link  401 at Tue Sep 17 09:43:54 2024, MaxMem=  1342177280 cpu:               4.2 elap:               0.6
 (Enter /groups/ReismanLab/Software/Gaussian16_RevC/Linux_Binary_AVX2-enabled-CPU/g16/l502.exe)
 Integral symmetry usage will be decided dynamically.
 Closed shell SCF:
 Using DIIS extrapolation, IDIIS=  1040.
 NGot=  1342177280 LenX=  1342080394 LenY=  1342033728
 Requested convergence on RMS density matrix=1.00D-08 within  32 cycles.
 Requested convergence on MAX density matrix=1.00D-06.
 Requested convergence on             energy=1.00D-06.
 No special actions if energy rises.
 Fock matrices will be formed incrementally for  20 cycles.
 Integral accuracy reduced to 1.0D-05 until final iterations.

 Cycle   1  Pass 0  IDiag  1:
 FoFJK:  IHMeth= 1 ICntrl=       0 DoSepK=F KAlg= 0 I1Cent=           0 FoldK=F
 IRaf= 860000000 NMat=       1 IRICut=       1 DoRegI=T DoRafI=F ISym2E= 0 IDoP0=0 IntGTp=1.
 FoFCou: FMM=F IPFlag=           0 FMFlag=      100000 FMFlg1=           0
         NFxFlg=           0 DoJE=F BraDBF=F KetDBF=F FulRan=T
         wScrn=  0.000000 ICntrl=         0 IOpCl=  0 I1Cent=           0 NGrid=           0
         NMat0=    1 NMatS0=      1 NMatT0=    0 NMatD0=    1 NMtDS0=    0 NMtDT0=    0
 Symmetry not used in FoFCou.
 E= -3031.24290256273    
 DIIS: error= 1.03D-02 at cycle   1 NSaved=   1.
 NSaved= 1 IEnMin= 1 EnMin= -3031.24290256273     IErMin= 1 ErrMin= 1.03D-02
 ErrMax= 1.03D-02  0.00D+00 EMaxC= 1.00D-01 BMatC= 4.70D-02 BMatP= 4.70D-02
 IDIUse=3 WtCom= 8.97D-01 WtEn= 1.03D-01
 Coeff-Com:  0.100D+01
 Coeff-En:   0.100D+01
 Coeff:      0.100D+01
 Recover alternate guess density for next cycle.
 RMSDP=3.25D-03 MaxDP=1.43D-01              OVMax= 0.00D+00

 Cycle   2  Pass 0  IDiag  1:
 RMSU=  3.10D-03    CP:  1.02D+00
 E= -3031.03357072579     Delta-E=        0.209331836937 Rises=F Damp=F
 Switch densities from cycles 1 and 2 for lowest energy.
 DIIS: error= 1.71D-01 at cycle   2 NSaved=   2.
 NSaved= 2 IEnMin= 1 EnMin= -3031.24290256273     IErMin= 1 ErrMin= 1.03D-02
 ErrMax= 1.71D-01  0.00D+00 EMaxC= 1.00D+00 BMatC= 6.06D-01 BMatP= 4.70D-02
 IDIUse=1 WtCom= 1.00D+00 WtEn= 0.00D+00
 Coeff-Com:  0.937D+00 0.634D-01
 Coeff:      0.937D+00 0.634D-01
 Gap=     0.205 Goal=   None    Shift=    0.000
 RMSDP=1.11D-03 MaxDP=3.16D-02 DE= 2.09D-01 OVMax= 7.81D-02

 Cycle   3  Pass 0  IDiag  1:
 RMSU=  1.09D-03    CP:  9.99D-01  5.83D-02
 E= -3031.26587149043     Delta-E=       -0.232300764644 Rises=F Damp=F
 DIIS: error= 2.01D-03 at cycle   3 NSaved=   3.
 NSaved= 3 IEnMin= 3 EnMin= -3031.26587149043     IErMin= 3 ErrMin= 2.01D-03
 ErrMax= 2.01D-03  0.00D+00 EMaxC= 1.00D+00 BMatC= 2.70D-03 BMatP= 4.70D-02
 IDIUse=1 WtCom= 1.00D+00 WtEn= 0.00D+00
 Coeff-Com:  0.158D-01 0.410D-01 0.943D+00
 Coeff:      0.158D-01 0.410D-01 0.943D+00
 Gap=     0.198 Goal=   None    Shift=    0.000
 RMSDP=4.30D-04 MaxDP=1.63D-02 DE=-2.32D-01 OVMax= 1.83D-02

 Cycle   4  Pass 0  IDiag  1:
 RMSU=  3.58D-04    CP:  9.98D-01  1.31D-01  9.28D-01
 E= -3031.26618442401     Delta-E=       -0.000312933578 Rises=F Damp=F
 DIIS: error= 2.02D-03 at cycle   4 NSaved=   4.
 NSaved= 4 IEnMin= 4 EnMin= -3031.26618442401     IErMin= 3 ErrMin= 2.01D-03
 ErrMax= 2.02D-03  0.00D+00 EMaxC= 1.00D+00 BMatC= 2.59D-03 BMatP= 2.70D-03
 IDIUse=1 WtCom= 1.00D+00 WtEn= 0.00D+00
 Coeff-Com: -0.849D-02 0.487D-02 0.518D+00 0.486D+00
 Coeff:     -0.849D-02 0.487D-02 0.518D+00 0.486D+00
 Gap=     0.198 Goal=   None    Shift=    0.000
 RMSDP=2.31D-04 MaxDP=9.93D-03 DE=-3.13D-04 OVMax= 1.12D-02

 Cycle   5  Pass 0  IDiag  1:
 RMSU=  9.87D-05    CP:  9.98D-01  1.05D-01  9.88D-01  4.95D-01
 E= -3031.26821399809     Delta-E=       -0.002029574081 Rises=F Damp=F
 DIIS: error= 7.32D-04 at cycle   5 NSaved=   5.
 NSaved= 5 IEnMin= 5 EnMin= -3031.26821399809     IErMin= 5 ErrMin= 7.32D-04
 ErrMax= 7.32D-04  0.00D+00 EMaxC= 1.00D+00 BMatC= 1.67D-04 BMatP= 2.59D-03
 IDIUse=1 WtCom= 1.00D+00 WtEn= 0.00D+00
 Coeff-Com: -0.628D-02 0.115D-02 0.264D+00 0.301D+00 0.441D+00
 Coeff:     -0.628D-02 0.115D-02 0.264D+00 0.301D+00 0.441D+00
 Gap=     0.199 Goal=   None    Shift=    0.000
 RMSDP=7.00D-05 MaxDP=2.29D-03 DE=-2.03D-03 OVMax= 3.94D-03

 Cycle   6  Pass 0  IDiag  1:
 RMSU=  3.82D-05    CP:  9.98D-01  1.05D-01  9.93D-01  5.08D-01  4.09D-01
 E= -3031.26835526939     Delta-E=       -0.000141271298 Rises=F Damp=F
 DIIS: error= 1.86D-04 at cycle   6 NSaved=   6.
 NSaved= 6 IEnMin= 6 EnMin= -3031.26835526939     IErMin= 6 ErrMin= 1.86D-04
 ErrMax= 1.86D-04  0.00D+00 EMaxC= 1.00D+00 BMatC= 1.29D-05 BMatP= 1.67D-04
 IDIUse=1 WtCom= 1.00D+00 WtEn= 0.00D+00
 Coeff-Com: -0.204D-02-0.502D-05 0.717D-01 0.966D-01 0.251D+00 0.583D+00
 Coeff:     -0.204D-02-0.502D-05 0.717D-01 0.966D-01 0.251D+00 0.583D+00
 Gap=     0.199 Goal=   None    Shift=    0.000
 RMSDP=1.86D-05 MaxDP=6.68D-04 DE=-1.41D-04 OVMax= 1.09D-03

 Cycle   7  Pass 0  IDiag  1:
 RMSU=  1.22D-05    CP:  9.98D-01  1.04D-01  9.94D-01  5.19D-01  5.03D-01
                    CP:  7.51D-01
 E= -3031.26836560277     Delta-E=       -0.000010333380 Rises=F Damp=F
 DIIS: error= 5.02D-05 at cycle   7 NSaved=   7.
 NSaved= 7 IEnMin= 7 EnMin= -3031.26836560277     IErMin= 7 ErrMin= 5.02D-05
 ErrMax= 5.02D-05  0.00D+00 EMaxC= 1.00D+00 BMatC= 1.79D-06 BMatP= 1.29D-05
 IDIUse=1 WtCom= 1.00D+00 WtEn= 0.00D+00
 Coeff-Com: -0.424D-03-0.592D-04 0.291D-02 0.121D-01 0.849D-01 0.331D+00
 Coeff-Com:  0.569D+00
 Coeff:     -0.424D-03-0.592D-04 0.291D-02 0.121D-01 0.849D-01 0.331D+00
 Coeff:      0.569D+00
 Gap=     0.199 Goal=   None    Shift=    0.000
 RMSDP=6.71D-06 MaxDP=2.47D-04 DE=-1.03D-05 OVMax= 4.48D-04

 Initial convergence to 1.0D-05 achieved.  Increase integral accuracy.
 Cycle   8  Pass 1  IDiag  1:
 E= -3031.26837257735     Delta-E=       -0.000006974582 Rises=F Damp=F
 DIIS: error= 3.94D-05 at cycle   1 NSaved=   1.
 NSaved= 1 IEnMin= 1 EnMin= -3031.26837257735     IErMin= 1 ErrMin= 3.94D-05
 ErrMax= 3.94D-05  0.00D+00 EMaxC= 1.00D+00 BMatC= 2.38D-07 BMatP= 2.38D-07
 IDIUse=1 WtCom= 1.00D+00 WtEn= 0.00D+00
 Coeff-Com:  0.100D+01
 Coeff:      0.100D+01
 Gap=     0.199 Goal=   None    Shift=    0.000
 RMSDP=6.71D-06 MaxDP=2.47D-04 DE=-6.97D-06 OVMax= 3.93D-04

 Cycle   9  Pass 1  IDiag  1:
 RMSU=  1.15D-05    CP:  1.00D+00
 E= -3031.26837237406     Delta-E=        0.000000203289 Rises=F Damp=F
 DIIS: error= 3.75D-05 at cycle   2 NSaved=   2.
 NSaved= 2 IEnMin= 1 EnMin= -3031.26837257735     IErMin= 2 ErrMin= 3.75D-05
 ErrMax= 3.75D-05  0.00D+00 EMaxC= 1.00D+00 BMatC= 4.17D-07 BMatP= 2.38D-07
 IDIUse=1 WtCom= 1.00D+00 WtEn= 0.00D+00
 Coeff-Com:  0.580D+00 0.420D+00
 Coeff:      0.580D+00 0.420D+00
 Gap=     0.199 Goal=   None    Shift=    0.000
 RMSDP=3.65D-06 MaxDP=1.19D-04 DE= 2.03D-07 OVMax= 2.86D-04

 Cycle  10  Pass 1  IDiag  1:
 RMSU=  3.35D-06    CP:  1.00D+00  8.74D-01
 E= -3031.26837275610     Delta-E=       -0.000000382040 Rises=F Damp=F
 DIIS: error= 1.23D-05 at cycle   3 NSaved=   3.
 NSaved= 3 IEnMin= 3 EnMin= -3031.26837275610     IErMin= 3 ErrMin= 1.23D-05
 ErrMax= 1.23D-05  0.00D+00 EMaxC= 1.00D+00 BMatC= 3.06D-08 BMatP= 2.38D-07
 IDIUse=1 WtCom= 1.00D+00 WtEn= 0.00D+00
 Coeff-Com:  0.122D+00 0.223D+00 0.655D+00
 Coeff:      0.122D+00 0.223D+00 0.655D+00
 Gap=     0.199 Goal=   None    Shift=    0.000
 RMSDP=1.10D-06 MaxDP=3.00D-05 DE=-3.82D-07 OVMax= 6.16D-05

 Cycle  11  Pass 1  IDiag  1:
 RMSU=  9.10D-07    CP:  1.00D+00  8.91D-01  8.23D-01
 E= -3031.26837277787     Delta-E=       -0.000000021766 Rises=F Damp=F
 DIIS: error= 4.37D-06 at cycle   4 NSaved=   4.
 NSaved= 4 IEnMin= 4 EnMin= -3031.26837277787     IErMin= 4 ErrMin= 4.37D-06
 ErrMax= 4.37D-06  0.00D+00 EMaxC= 1.00D+00 BMatC= 8.95D-09 BMatP= 3.06D-08
 IDIUse=1 WtCom= 1.00D+00 WtEn= 0.00D+00
 Coeff-Com:  0.911D-02 0.955D-01 0.432D+00 0.463D+00
 Coeff:      0.911D-02 0.955D-01 0.432D+00 0.463D+00
 Gap=     0.199 Goal=   None    Shift=    0.000
 RMSDP=4.79D-07 MaxDP=1.92D-05 DE=-2.18D-08 OVMax= 2.43D-05

 Cycle  12  Pass 1  IDiag  1:
 RMSU=  2.15D-07    CP:  1.00D+00  8.97D-01  8.38D-01  5.40D-01
 E= -3031.26837278557     Delta-E=       -0.000000007698 Rises=F Damp=F
 DIIS: error= 1.31D-06 at cycle   5 NSaved=   5.
 NSaved= 5 IEnMin= 5 EnMin= -3031.26837278557     IErMin= 5 ErrMin= 1.31D-06
 ErrMax= 1.31D-06  0.00D+00 EMaxC= 1.00D+00 BMatC= 5.62D-10 BMatP= 8.95D-09
 IDIUse=1 WtCom= 1.00D+00 WtEn= 0.00D+00
 Coeff-Com: -0.142D-02 0.455D-01 0.227D+00 0.290D+00 0.440D+00
 Coeff:     -0.142D-02 0.455D-01 0.227D+00 0.290D+00 0.440D+00
 Gap=     0.199 Goal=   None    Shift=    0.000
 RMSDP=1.24D-07 MaxDP=3.94D-06 DE=-7.70D-09 OVMax= 6.08D-06

 Cycle  13  Pass 1  IDiag  1:
 RMSU=  7.80D-08    CP:  1.00D+00  8.98D-01  8.39D-01  5.34D-01  5.59D-01
 E= -3031.26837278602     Delta-E=       -0.000000000450 Rises=F Damp=F
 DIIS: error= 3.56D-07 at cycle   6 NSaved=   6.
 NSaved= 6 IEnMin= 6 EnMin= -3031.26837278602     IErMin= 6 ErrMin= 3.56D-07
[...]
   XY=   554.0207   YY=  2487.9561   ZY=   119.7422
   XZ=    33.2055   YZ=    96.4509   ZZ=  1639.0488
   Eigenvalues:  1592.2431  1636.2235  2834.5190
     12  H    Isotropic =    27.9523   Anisotropy =     7.6106
   XX=    32.1449   YX=     2.2487   ZX=    -1.9579
   XY=     0.6152   YY=    27.3688   ZY=    -1.1960
   XZ=    -1.5731   YZ=    -1.3445   ZZ=    24.3433
   Eigenvalues:    23.6991    27.1318    33.0260
     13  H    Isotropic =    27.9119   Anisotropy =     8.3585
   XX=    30.8957   YX=    -1.5769   ZX=     4.2470
   XY=    -0.2879   YY=    25.1792   ZY=    -0.3426
   XZ=     3.2414   YZ=    -0.5649   ZZ=    27.6608
   Eigenvalues:    24.9745    25.2770    33.4843
     14  H    Isotropic =    27.9633   Anisotropy =     8.9296
   XX=    30.0213   YX=    -3.9015   ZX=    -2.4209
   XY=    -2.2847   YY=    27.8749   ZY=     2.1600
   XZ=    -3.1355   YZ=     2.6581   ZZ=    25.9937
   Eigenvalues:    24.2310    25.7424    33.9164
     15  H    Isotropic =    22.6705   Anisotropy =     9.1895
   XX=    27.5874   YX=     2.9106   ZX=     0.4638
   XY=     2.8651   YY=    21.3648   ZY=    -0.2783
   XZ=     1.4088   YZ=     0.2059   ZZ=    19.0593
   Eigenvalues:    18.8799    20.3347    28.7969
     16  H    Isotropic =    23.6141   Anisotropy =     5.7727
   XX=    25.7998   YX=    -2.2574   ZX=     0.3527
   XY=    -2.2775   YY=    24.2840   ZY=    -0.3070
   XZ=     0.2611   YZ=    -0.3721   ZZ=    20.7584
   Eigenvalues:    20.7238    22.6559    27.4625
     17  H    Isotropic =    23.5743   Anisotropy =     6.1307
   XX=    22.4785   YX=     1.4107   ZX=     0.0629
   XY=     1.0915   YY=    27.3595   ZY=    -0.0833
   XZ=     0.4000   YZ=    -0.0488   ZZ=    20.8850
   Eigenvalues:    20.8417    22.2198    27.6615
     18  H    Isotropic =    23.4368   Anisotropy =    11.6321
   XX=    30.2892   YX=     2.5340   ZX=     0.7966
   XY=     3.3014   YY=    21.1828   ZY=     0.1303
   XZ=     0.6835   YZ=     0.2762   ZZ=    18.8383
   Eigenvalues:    18.7905    20.3283    31.1915
 End of Minotr F.D. properties file   721 does not exist.
 End of Minotr F.D. properties file   722 does not exist.
 End of Minotr F.D. properties file   788 does not exist.
 Leave Link 1002 at Tue Sep 17 10:45:51 2024, MaxMem=  1342177280 cpu:             853.1 elap:             858.1
 (Enter /groups/ReismanLab/Software/Gaussian16_RevC/Linux_Binary_AVX2-enabled-CPU/g16/l601.exe)
 Copying SCF densities to generalized density rwf, IOpCl= 0 IROHF=0.

 **********************************************************************

            Population analysis using the SCF Density.

 **********************************************************************

 Orbital symmetries:
       Occupied  (A) (A) (A) (A) (A) (A) (A) (A) (A) (A) (A) (A)
                 (A) (A) (A) (A) (A) (A) (A) (A) (A) (A) (A) (A)
                 (A) (A) (A) (A) (A) (A) (A) (A) (A) (A) (A) (A)
                 (A) (A) (A) (A) (A) (A) (A) (A) (A) (A) (A) (A)
                 (A) (A) (A) (A) (A)
       Virtual   (A) (A) (A) (A) (A) (A) (A) (A) (A) (A) (A) (A)
                 (A) (A) (A) (A) (A) (A) (A) (A) (A) (A) (A) (A)
                 (A) (A) (A) (A) (A) (A) (A) (A) (A) (A) (A) (A)
                 (A) (A) (A) (A) (A) (A) (A) (A) (A) (A) (A) (A)
                 (A) (A) (A) (A) (A) (A) (A) (A) (A) (A) (A) (A)
                 (A) (A) (A) (A) (A) (A) (A) (A) (A) (A) (A) (A)
                 (A) (A) (A) (A) (A) (A) (A) (A) (A) (A) (A) (A)
                 (A) (A) (A) (A) (A) (A) (A) (A) (A) (A) (A) (A)
                 (A) (A) (A) (A) (A) (A) (A) (A) (A) (A) (A) (A)
                 (A) (A) (A) (A) (A) (A) (A) (A) (A) (A) (A) (A)
                 (A) (A) (A) (A) (A) (A) (A) (A) (A) (A) (A) (A)
                 (A) (A) (A) (A) (A) (A) (A) (A) (A) (A) (A) (A)
                 (A) (A) (A) (A) (A) (A) (A) (A) (A) (A) (A) (A)
                 (A) (A) (A) (A) (A) (A) (A) (A) (A) (A) (A) (A)
                 (A) (A) (A) (A) (A) (A) (A) (A) (A) (A) (A) (A)
                 (A) (A) (A) (A) (A) (A) (A) (A) (A) (A) (A) (A)
                 (A) (A) (A) (A) (A) (A) (A) (A) (A) (A) (A) (A)
                 (A) (A) (A) (A) (A) (A) (A) (A) (A) (A) (A) (A)
                 (A) (A) (A) (A) (A) (A) (A) (A) (A) (A) (A) (A)
                 (A) (A) (A) (A) (A) (A) (A) (A) (A) (A) (A) (A)
                 (A) (A) (A) (A) (A) (A) (A) (A) (A) (A) (A) (A)
                 (A) (A) (A) (A) (A) (A) (A) (A) (A) (A) (A) (A)
                 (A) (A) (A) (A) (A) (A) (A) (A) (A) (A) (A) (A)
                 (A) (A) (A) (A) (A) (A) (A) (A) (A) (A) (A) (A)
                 (A) (A) (A) (A) (A) (A) (A) (A) (A) (A) (A) (A)
                 (A) (A) (A) (A) (A) (A) (A) (A) (A) (A) (A) (A)
                 (A) (A) (A) (A) (A) (A) (A) (A) (A) (A) (A) (A)
                 (A) (A) (A) (A) (A) (A) (A) (A) (A) (A) (A) (A)
                 (A) (A) (A) (A) (A) (A) (A) (A) (A) (A) (A)
 The electronic state is 1-A.
 Alpha  occ. eigenvalues -- -485.37662 -63.36137 -57.18090 -57.17849 -57.17829
 Alpha  occ. eigenvalues --  -19.67677 -19.62092 -10.68367 -10.61837 -10.58852
 Alpha  occ. eigenvalues --  -10.57890 -10.56288 -10.56194 -10.56170 -10.55610
 Alpha  occ. eigenvalues --   -9.02781  -6.85213  -6.84321  -6.84254  -2.88590
 Alpha  occ. eigenvalues --   -2.88280  -2.88212  -2.87380  -2.87379  -1.23901
 Alpha  occ. eigenvalues --   -1.14371  -0.99011  -0.90508  -0.88140  -0.83114
 Alpha  occ. eigenvalues --   -0.81537  -0.72310  -0.69795  -0.65718  -0.61789
 Alpha  occ. eigenvalues --   -0.57521  -0.57186  -0.56492  -0.53553  -0.52193
 Alpha  occ. eigenvalues --   -0.49624  -0.48846  -0.48046  -0.45517  -0.43998
 Alpha  occ. eigenvalues --   -0.43270  -0.41526  -0.38619  -0.37994  -0.36857
 Alpha  occ. eigenvalues --   -0.34413  -0.32642  -0.30520
 Alpha virt. eigenvalues --   -0.02650   0.00336   0.03341   0.07761   0.08578
 Alpha virt. eigenvalues --    0.09571   0.11359   0.11840   0.13663   0.14127
 Alpha virt. eigenvalues --    0.14797   0.15387   0.16013   0.18071   0.19256
 Alpha virt. eigenvalues --    0.20481   0.20827   0.21954   0.22558   0.23750
 Alpha virt. eigenvalues --    0.25031   0.25739   0.26512   0.26746   0.27091
 Alpha virt. eigenvalues --    0.27792   0.28924   0.29754   0.30954   0.31799
 Alpha virt. eigenvalues --    0.32156   0.33538   0.34240   0.35052   0.35582
 Alpha virt. eigenvalues --    0.36588   0.37333   0.38355   0.39096   0.40063
 Alpha virt. eigenvalues --    0.40888   0.41475   0.42467   0.43024   0.44247
 Alpha virt. eigenvalues --    0.44983   0.46470   0.47291   0.47466   0.48769
 Alpha virt. eigenvalues --    0.49816   0.50609   0.52054   0.52480   0.53103
 Alpha virt. eigenvalues --    0.54652   0.54954   0.56539   0.57675   0.58814
 Alpha virt. eigenvalues --    0.59697   0.60676   0.62608   0.63964   0.65839
 Alpha virt. eigenvalues --    0.66670   0.66768   0.68857   0.70563   0.72018
 Alpha virt. eigenvalues --    0.73118   0.73835   0.75060   0.75789   0.77538
 Alpha virt. eigenvalues --    0.78582   0.81592   0.82537   0.84291   0.84810
 Alpha virt. eigenvalues --    0.86060   0.87132   0.88938   0.90601   0.92045
 Alpha virt. eigenvalues --    0.92326   0.93098   0.95729   0.96638   0.99574
 Alpha virt. eigenvalues --    1.01896   1.02861   1.04151   1.04573   1.06092
 Alpha virt. eigenvalues --    1.08438   1.09536   1.11558   1.12904   1.13179
 Alpha virt. eigenvalues --    1.15082   1.20439   1.21531   1.22220   1.22522
 Alpha virt. eigenvalues --    1.25268   1.26368   1.27618   1.28660   1.31779
 Alpha virt. eigenvalues --    1.32102   1.35707   1.36767   1.38932   1.41408
 Alpha virt. eigenvalues --    1.41539   1.43145   1.46577   1.47510   1.48006
 Alpha virt. eigenvalues --    1.49811   1.50821   1.52087   1.52516   1.54647
 Alpha virt. eigenvalues --    1.55857   1.56641   1.57326   1.57811   1.58917
 Alpha virt. eigenvalues --    1.59713   1.60501   1.61245   1.62180   1.63352
 Alpha virt. eigenvalues --    1.64484   1.66180   1.66982   1.68387   1.71417
 Alpha virt. eigenvalues --    1.71940   1.71964   1.72758   1.75431   1.76136
 Alpha virt. eigenvalues --    1.77128   1.77768   1.79405   1.81001   1.85290
 Alpha virt. eigenvalues --    1.86546   1.88155   1.89030   1.90210   1.91879
 Alpha virt. eigenvalues --    1.95012   1.96122   1.98653   1.99266   2.01584
 Alpha virt. eigenvalues --    2.03815   2.04963   2.06505   2.07572   2.08598
 Alpha virt. eigenvalues --    2.10655   2.12380   2.13847   2.16630   2.18095
 Alpha virt. eigenvalues --    2.20355   2.22200   2.25248   2.26763   2.27631
 Alpha virt. eigenvalues --    2.31496   2.33128   2.35206   2.37583   2.39029
 Alpha virt. eigenvalues --    2.40517   2.41296   2.43175   2.46630   2.49954
 Alpha virt. eigenvalues --    2.51288   2.53590   2.55559   2.56824   2.58200
 Alpha virt. eigenvalues --    2.59031   2.61853   2.63020   2.65084   2.65389
 Alpha virt. eigenvalues --    2.66731   2.67593   2.70023   2.70995   2.72898
 Alpha virt. eigenvalues --    2.74626   2.75874   2.77385   2.79130   2.79732
 Alpha virt. eigenvalues --    2.82379   2.83699   2.84181   2.84573   2.86012
 Alpha virt. eigenvalues --    2.87400   2.87979   2.90917   2.92320   2.98086
 Alpha virt. eigenvalues --    2.98808   2.99595   3.01401   3.03175   3.05563
 Alpha virt. eigenvalues --    3.06991   3.07967   3.09001   3.09679   3.11598
 Alpha virt. eigenvalues --    3.12824   3.14349   3.15667   3.16847   3.18012
 Alpha virt. eigenvalues --    3.19663   3.22654   3.24002   3.24408   3.26212
 Alpha virt. eigenvalues --    3.27161   3.28925   3.30183   3.31864   3.32280
 Alpha virt. eigenvalues --    3.32570   3.35000   3.35522   3.36752   3.39706
 Alpha virt. eigenvalues --    3.40576   3.40923   3.43206   3.43789   3.44590
 Alpha virt. eigenvalues --    3.45084   3.47285   3.49032   3.50980   3.51278
 Alpha virt. eigenvalues --    3.51938   3.53906   3.55052   3.58510   3.59140
 Alpha virt. eigenvalues --    3.61215   3.62853   3.64587   3.70736   3.72293
 Alpha virt. eigenvalues --    3.76138   3.78786   3.86073   3.88938   3.90156
 Alpha virt. eigenvalues --    3.91910   3.94344   4.03181   4.06588   4.07388
 Alpha virt. eigenvalues --    4.08932   4.09910   4.11142   4.14637   4.15218
 Alpha virt. eigenvalues --    4.16180   4.17861   4.18558   4.19028   4.20585
 Alpha virt. eigenvalues --    4.23577   4.26493   4.27766   4.29689   4.31330
 Alpha virt. eigenvalues --    4.35213   4.38176   4.45772   4.48527   4.48989
 Alpha virt. eigenvalues --    4.55544   4.57558   4.58837   4.59320   4.63810
 Alpha virt. eigenvalues --    4.71301   4.76064   4.77562   4.85692   4.87733
 Alpha virt. eigenvalues --    5.04472   5.08171   5.10775   5.19299   5.23485
 Alpha virt. eigenvalues --    5.24218   5.29388   5.34148   5.39028   5.46120
 Alpha virt. eigenvalues --    5.48999   5.52671   5.65356   5.67895   5.84226
 Alpha virt. eigenvalues --    5.96462   6.05576   6.14447   6.20424   6.36123
 Alpha virt. eigenvalues --    6.37362   6.53404   6.64882   6.68259   6.76729
 Alpha virt. eigenvalues --    6.86291   6.88161   7.01234   7.11004   7.26018
 Alpha virt. eigenvalues --    7.37276   7.87404  22.09362  22.43233  22.67344
 Alpha virt. eigenvalues --   22.73722  22.83875  22.88282  23.28538  23.50330
 Alpha virt. eigenvalues --   44.05104  44.23344
          Condensed to atoms (all electrons):
               1          2          3          4          5          6
     1  C    4.867755   0.202329  -0.049472   0.001398   0.007313  -0.001398
     2  O    0.202329   7.994850   0.372254  -0.083084  -0.099119   0.002587
     3  C   -0.049472   0.372254   4.544184   0.640945   0.326272  -0.089988
     4  O    0.001398  -0.083084   0.640945   7.891453  -0.123425   0.015883
     5  C    0.007313  -0.099119   0.326272  -0.123425   5.544863   0.251467
     6  C   -0.001398   0.002587  -0.089988   0.015883   0.251467   5.177358
     7  C    0.000085   0.000222   0.014209   0.002087   0.020119   0.428515
     8  C   -0.000032  -0.000280  -0.009444   0.000095  -0.125415   0.028933
     9  C    0.000102   0.002297   0.024075  -0.000274   0.062053  -0.134299
    10  C   -0.000632  -0.001941  -0.100404   0.001931   0.195752   0.083126
    11  Br   0.001215  -0.027881  -0.022018  -0.000378  -0.140311   0.025420
    12  H    0.395498  -0.031329   0.005582   0.001832   0.001982   0.000061
    13  H    0.421458  -0.035596  -0.007316   0.003555   0.001015  -0.000491
    14  H    0.418417  -0.029389  -0.009257   0.004123  -0.004521   0.000371
    15  H   -0.000178   0.000583  -0.007727   0.014983  -0.039283   0.411001
    16  H   -0.000000   0.000004  -0.000244  -0.000071   0.007051  -0.034429
    17  H    0.000000  -0.000001   0.000088  -0.000001   0.000039   0.004406
    18  H    0.000000   0.000060   0.000787   0.000006   0.018815  -0.004099
               7          8          9         10         11         12
     1  C    0.000085  -0.000032   0.000102  -0.000632   0.001215   0.395498
     2  O    0.000222  -0.000280   0.002297  -0.001941  -0.027881  -0.031329
     3  C    0.014209  -0.009444   0.024075  -0.100404  -0.022018   0.005582
     4  O    0.002087   0.000095  -0.000274   0.001931  -0.000378   0.001832
     5  C    0.020119  -0.125415   0.062053   0.195752  -0.140311   0.001982
     6  C    0.428515   0.028933  -0.134299   0.083126   0.025420   0.000061
     7  C    4.969371   0.455054  -0.006617  -0.082722  -0.005351  -0.000007
     8  C    0.455054   4.974685   0.412404   0.044148   0.020695   0.000002
     9  C   -0.006617   0.412404   5.125721   0.366428  -0.102408  -0.000014
    10  C   -0.082722   0.044148   0.366428   5.159515   0.426547  -0.000220
    11  Br  -0.005351   0.020695  -0.102408   0.426547  34.915057   0.000951
    12  H   -0.000007   0.000002  -0.000014  -0.000220   0.000951   0.515026
    13  H    0.000009  -0.000004   0.000003   0.000209   0.000197  -0.023476
    14  H    0.000005  -0.000001   0.000027  -0.000174  -0.000106  -0.023198
    15  H   -0.028712   0.004398  -0.000710   0.007369  -0.000015   0.000005
    16  H    0.416089  -0.034632   0.004725  -0.000377   0.000025   0.000000
    17  H   -0.031701   0.411061  -0.030128   0.003434  -0.000370   0.000000
    18  H    0.006311  -0.036744   0.428447  -0.060924  -0.004404  -0.000000
              13         14         15         16         17         18
     1  C    0.421458   0.418417  -0.000178  -0.000000   0.000000   0.000000
     2  O   -0.035596  -0.029389   0.000583   0.000004  -0.000001   0.000060
     3  C   -0.007316  -0.009257  -0.007727  -0.000244   0.000088   0.000787
     4  O    0.003555   0.004123   0.014983  -0.000071  -0.000001   0.000006
     5  C    0.001015  -0.004521  -0.039283   0.007051   0.000039   0.018815
     6  C   -0.000491   0.000371   0.411001  -0.034429   0.004406  -0.004099
     7  C    0.000009   0.000005  -0.028712   0.416089  -0.031701   0.006311
     8  C   -0.000004  -0.000001   0.004398  -0.034632   0.411061  -0.036744
     9  C    0.000003   0.000027  -0.000710   0.004725  -0.030128   0.428447
    10  C    0.000209  -0.000174   0.007369  -0.000377   0.003434  -0.060924
    11  Br   0.000197  -0.000106  -0.000015   0.000025  -0.000370  -0.004404
    12  H   -0.023476  -0.023198   0.000005   0.000000   0.000000  -0.000000
    13  H    0.519206  -0.040571  -0.000051   0.000000  -0.000000  -0.000000
    14  H   -0.040571   0.524287   0.000023  -0.000000  -0.000000   0.000000
    15  H   -0.000051   0.000023   0.455560  -0.003122  -0.000172   0.000031
    16  H    0.000000  -0.000000  -0.003122   0.478466  -0.003300  -0.000169
    17  H   -0.000000  -0.000000  -0.000172  -0.003300   0.478349  -0.003230
    18  H   -0.000000   0.000000   0.000031  -0.000169  -0.003230   0.477018
 Mulliken charges:
               1
     1  C   -0.263858
     2  O   -0.266565
     3  C    0.367474
     4  O   -0.371057
     5  C    0.095332
     6  C   -0.164424
     7  C   -0.156968
     8  C   -0.144922
     9  C   -0.151831
    10  C   -0.041062
    11  Br  -0.086864
    12  H    0.157306
    13  H    0.161853
    14  H    0.159964
    15  H    0.186018
    16  H    0.169985
    17  H    0.171526
    18  H    0.178095
 Sum of Mulliken charges =  -0.00000
 Mulliken charges with hydrogens summed into heavy atoms:
               1
     1  C    0.215265
     2  O   -0.266565
     3  C    0.367474
     4  O   -0.371057
     5  C    0.095332
     6  C    0.021594
     7  C    0.013017
     8  C    0.026603
     9  C    0.026264
    10  C   -0.041062
    11  Br  -0.086864
 Electronic spatial extent (au):  <R**2>=           2377.7035
 Charge=             -0.0000 electrons
 Dipole moment (field-independent basis, Debye):
    X=              1.3127    Y=             -0.2782    Z=              0.9378  Tot=              1.6371
 Quadrupole moment (field-independent basis, Debye-Ang):
   XX=            -58.0798   YY=            -79.2548   ZZ=            -79.4134
   XY=              4.4336   XZ=             -1.1754   YZ=              2.7915
 Traceless Quadrupole moment (field-independent basis, Debye-Ang):
   XX=             14.1695   YY=             -7.0054   ZZ=             -7.1641
   XY=              4.4336   XZ=             -1.1754   YZ=              2.7915
 Octapole moment (field-independent basis, Debye-Ang**2):
  XXX=            -24.0152  YYY=            -63.4422  ZZZ=             -4.0025  XYY=             12.6872
  XXY=            -12.8951  XXZ=              7.1613  XZZ=            -15.4057  YZZ=            -20.2321
  YYZ=              7.3077  XYZ=             -5.0009
 Hexadecapole moment (field-independent basis, Debye-Ang**3):
 XXXX=          -1402.3031 YYYY=          -1142.1330 ZZZZ=           -117.5364 XXXY=              5.5889
 XXXZ=             -6.2736 YYYX=             71.6220 YYYZ=             24.5055 ZZZX=             -2.0153
 ZZZY=              3.3567 XXYY=           -450.0632 XXZZ=           -317.0785 YYZZ=           -221.5667
 XXYZ=             10.2596 YYXZ=            -12.9021 ZZXY=             -6.9189
 N-N= 8.571550769374D+02 E-N=-8.939154916164D+03  KE= 3.028005810656D+03
 Calculating spin-rotation constants.
 Leave Link  601 at Tue Sep 17 10:45:56 2024, MaxMem=  1342177280 cpu:               4.6 elap:               4.6
 (Enter /groups/ReismanLab/Software/Gaussian16_RevC/Linux_Binary_AVX2-enabled-CPU/g16/l9999.exe)
 Unable to Open any file for archive entry.
 1\1\GINC-HPC-82-08\SP\RM062X\def2TZVP\C8H7Br1O2\MANTIND\17-Sep-2024\0\
 \#p M062X/def2tzvp geom=check guess=read scf(xqc,tight) integral(grid=
 ultrafine) scrf(SMD, solvent=1,4-Dioxane) nmr=giao\\spe\\0,1\C,0,3.052
 0129997,1.5341006416,-0.3490419483\O,0,1.7668172939,0.8957471157,-0.40
 83351667\C,0,0.7463985807,1.6161417686,0.0823257842\O,0,0.8717022887,2
 .7502460332,0.5023921011\C,0,-0.5752631883,0.9166011564,0.0105957476\C
 ,0,-1.6897691232,1.7714389139,-0.0234875562\C,0,-2.9850244076,1.279355
 8446,-0.1112990274\C,0,-3.1929883563,-0.0994421678,-0.1519797869\C,0,-
 2.1080041187,-0.9696360368,-0.0953871056\C,0,-0.8072960929,-0.46870383
 6,-0.0162670933\Br,0,0.5756016154,-1.7797058939,0.1247464494\H,0,3.755
 8357165,0.8048093005,-0.7475981286\H,0,3.3035418182,1.7925677983,0.681
 8883526\H,0,3.05398401,2.4449342566,-0.9521911204\H,0,-1.4978004757,2.
 8371294851,0.0226441109\H,0,-3.8254170908,1.9644386287,-0.1452914683\H
 ,0,-4.1980794546,-0.5038256335,-0.2188939017\H,0,-2.25917709,-2.042289
 3636,-0.1049366958\\Version=ES64L-G16RevC.02\State=1-A\HF=-3033.708876
 1\RMSD=2.591e-09\Dipole=-0.4811252,-0.2250481,-0.3642768\Quadrupole=11
 .1863164,-5.9279182,-5.2583981,0.3619062,-0.452137,-2.2083497\PG=C01 [
 X(C8H7Br1O2)]\\@
 The archive entry for this job was punched.


      SCIENCE SANS CONSCIENCE N'EST QUE RUINE DE L'AME.

                                                  -- RABELAIS
 Job cpu time:       0 days  0 hours 15 minutes 37.3 seconds.
 Elapsed time:       0 days  0 hours 15 minutes 44.2 seconds.
 File lengths (MBytes):  RWF=    256 Int=      0 D2E=      0 Chk=     24 Scr=     16
 Normal termination of Gaussian 16 at Tue Sep 17 10:45:56 2024.
