 Entering Gaussian System, Link 0=g16
 Input=smiles_00086_conf_0.gjf
 Output=smiles_00086_conf_0.log
 Initial command:
 /groups/ReismanLab/Software/Gaussian16_RevC/Linux_Binary_AVX2-enabled-CPU/g16/l1.exe "/central/groups/ReismanLab/DM/dft_final/smiles_00086/Gau-1670947.inp" -scrdir="/central/groups/ReismanLab/DM/dft_final/smiles_00086/"
 Entering Link 1 = /groups/ReismanLab/Software/Gaussian16_RevC/Linux_Binary_AVX2-enabled-CPU/g16/l1.exe PID=   1670948.
  
 Copyright (c) 1988-2021, Gaussian, Inc.  All Rights Reserved.
  
 This is part of the Gaussian(R) 16 program.  It is based on
 the Gaussian(R) 09 system (copyright 2009, Gaussian, Inc.),
 the Gaussian(R) 03 system (copyright 2003, Gaussian, Inc.),
 the Gaussian(R) 98 system (copyright 1998, Gaussian, Inc.),
 the Gaussian(R) 94 system (copyright 1995, Gaussian, Inc.),
 the Gaussian 92(TM) system (copyright 1992, Gaussian, Inc.),
 the Gaussian 90(TM) system (copyright 1990, Gaussian, Inc.),
 the Gaussian 88(TM) system (copyright 1988, Gaussian, Inc.),
 the Gaussian 86(TM) system (copyright 1986, Carnegie Mellon
 University), and the Gaussian 82(TM) system (copyright 1983,
 Carnegie Mellon University). Gaussian is a federally registered
 trademark of Gaussian, Inc.
  
 This software contains proprietary and confidential information,
 including trade secrets, belonging to Gaussian, Inc.
  
 This software is provided under written license and may be
 used, copied, transmitted, or stored only in accord with that
 written license.
  
 The following legend is applicable only to US Government
 contracts under FAR:
  
                    RESTRICTED RIGHTS LEGEND
  
 Use, reproduction and disclosure by the US Government is
 subject to restrictions as set forth in subparagraphs (a)
 and (c) of the Commercial Computer Software - Restricted
 Rights clause in FAR 52.227-19.
  
 Gaussian, Inc.
 340 Quinnipiac St., Bldg. 40, Wallingford CT 06492
  
  
 ---------------------------------------------------------------
 Warning -- This program may not be used in any manner that
 competes with the business of Gaussian, Inc. or will provide
 assistance to any competitor of Gaussian, Inc.  The licensee
 of this program is prohibited from giving any competitor of
 Gaussian, Inc. access to this program.  By using this program,
 the user acknowledges that Gaussian, Inc. is engaged in the
 business of creating and licensing software in the field of
 computational chemistry and represents and warrants to the
 licensee that it is not a competitor of Gaussian, Inc. and that
 it will not use this program in any manner prohibited above.
 ---------------------------------------------------------------
  

 Cite this work as:
 Gaussian 16, Revision C.02,
 M. J. Frisch, G. W. Trucks, H. B. Schlegel, G. E. Scuseria, 
 M. A. Robb, J. R. Cheeseman, G. Scalmani, V. Barone, 
 G. A. Petersson, H. Nakatsuji, X. Li, M. Caricato, A. V. Marenich, 
 J. Bloino, B. G. Janesko, R. Gomperts, B. Mennucci, H. P. Hratchian, 
 J. V. Ortiz, A. F. Izmaylov, J. L. Sonnenberg, D. Williams-Young, 
 F. Ding, F. Lipparini, F. Egidi, J. Goings, B. Peng, A. Petrone, 
 T. Henderson, D. Ranasinghe, V. G. Zakrzewski, J. Gao, N. Rega, 
 G. Zheng, W. Liang, M. Hada, M. Ehara, K. Toyota, R. Fukuda, 
 J. Hasegawa, M. Ishida, T. Nakajima, Y. Honda, O. Kitao, H. Nakai, 
 T. Vreven, K. Throssell, J. A. Montgomery, Jr., J. E. Peralta, 
 F. Ogliaro, M. J. Bearpark, J. J. Heyd, E. N. Brothers, K. N. Kudin, 
 V. N. Staroverov, T. A. Keith, R. Kobayashi, J. Normand, 
 K. Raghavachari, A. P. Rendell, J. C. Burant, S. S. Iyengar, 
 J. Tomasi, M. Cossi, J. M. Millam, M. Klene, C. Adamo, R. Cammi, 
 J. W. Ochterski, R. L. Martin, K. Morokuma, O. Farkas, 
 J. B. Foresman, and D. J. Fox, Gaussian, Inc., Wallingford CT, 2019.
 
 ******************************************
 Gaussian 16:  ES64L-G16RevC.02  7-Dec-2021
                17-Sep-2024 
 ******************************************
 %nprocshared=8
 Will use up to    8 processors via shared memory.
 %Mem=10GB
 %Chk=smiles_00086_conf_0.chk
 ----------------------------------------------------------------------
 #p B3LYP/gen pseudo=read EmpiricalDispersion=GD3BJ opt freq scf(xqc,ti
 ght) integral(grid=ultrafine)
 ----------------------------------------------------------------------
 1/18=20,19=15,26=4,38=1/1,3;
 2/9=110,12=2,17=6,18=5,40=1/2;
 3/5=7,11=2,16=1,17=8,25=1,30=1,71=1,74=-5,75=-5,124=41/1,2,3;
 4//1;
 5/5=2,8=3,13=1,32=2,38=5/2,8;
 6/7=2,8=2,9=2,10=2,28=1/1;
 7//1,2,3,16;
 1/18=20,19=15,26=4/3(2);
 2/9=110/2;
 99//99;
 2/9=110/2;
 3/5=7,6=1,11=2,16=1,17=8,25=1,30=1,71=1,74=-5,75=-5,82=7,124=41/1,2,3;
 4/5=5,16=3,69=1/1;
 5/5=2,8=3,13=1,32=2,38=5/2,8;
 7//1,2,3,16;
 1/18=20,19=15,26=4/3(-5);
 2/9=110/2;
 6/7=2,8=2,9=2,10=2,19=2,28=1/1;
 99/9=1/99;
 Leave Link    1 at Tue Sep 17 09:46:16 2024, MaxMem=  1342177280 cpu:               0.1 elap:               0.7
 (Enter /groups/ReismanLab/Software/Gaussian16_RevC/Linux_Binary_AVX2-enabled-CPU/g16/l101.exe)
 ----------------------------------
 opt-freq conformers_unique/conf_aa
 ----------------------------------
 Symbolic Z-matrix:
 Charge =  0 Multiplicity = 1
 I                     2.08663   0.10083  -0.00002 
 C                    -0.01584  -0.19535  -0.00002 
 C                    -0.4973   -1.50589  -0.00004 
 C                    -1.85308  -1.75107   0.00011 
 C                    -2.71019  -0.65789   0.0001 
 N                    -4.07187  -0.59272  -0.00007 
 C                    -4.45487   0.7201   -0.00023 
 C                    -3.35825   1.52544  0. 
 C                    -2.21991   0.67238   0.00017 
 C                    -0.84405   0.90101   0.00023 
 H                     0.19786  -2.33084  -0.00027 
 H                    -2.23154  -2.76226   0.00004 
 H                    -4.69452  -1.38246   0.00008 
 H                    -5.49481   0.98518  -0.00038 
 H                    -3.34916   2.59664   0.00011 
 H                    -0.45329   1.90656  -0.00001 
 
 ITRead=  0  0  0  0  0  0  0  0  0  0  0  0  0  0  0  0
 MicOpt= -1 -1 -1 -1 -1 -1 -1 -1 -1 -1 -1 -1 -1 -1 -1 -1
 NAtoms=     16 NQM=       16 NQMF=       0 NMMI=      0 NMMIF=      0
                NMic=       0 NMicF=      0.
                    Isotopes and Nuclear Properties:
 (Nuclear quadrupole moments (NQMom) in fm**2, nuclear magnetic moments (NMagM)
  in nuclear magnetons)

  Atom         1           2           3           4           5           6           7           8           9          10
 IAtWgt=         127          12          12          12          12          14          12          12          12          12
 AtmWgt= 126.9004000  12.0000000  12.0000000  12.0000000  12.0000000  14.0030740  12.0000000  12.0000000  12.0000000  12.0000000
 NucSpn=           5           0           0           0           0           2           0           0           0           0
 AtZEff=  -0.0000000  -0.0000000  -0.0000000  -0.0000000  -0.0000000  -0.0000000  -0.0000000  -0.0000000  -0.0000000  -0.0000000
 NQMom=  -71.0000000   0.0000000   0.0000000   0.0000000   0.0000000   2.0440000   0.0000000   0.0000000   0.0000000   0.0000000
 NMagM=    2.8132800   0.0000000   0.0000000   0.0000000   0.0000000   0.4037610   0.0000000   0.0000000   0.0000000   0.0000000
 AtZNuc=  53.0000000   6.0000000   6.0000000   6.0000000   6.0000000   7.0000000   6.0000000   6.0000000   6.0000000   6.0000000

  Atom        11          12          13          14          15          16
 IAtWgt=           1           1           1           1           1           1
 AtmWgt=   1.0078250   1.0078250   1.0078250   1.0078250   1.0078250   1.0078250
 NucSpn=           1           1           1           1           1           1
 AtZEff=  -0.0000000  -0.0000000  -0.0000000  -0.0000000  -0.0000000  -0.0000000
 NQMom=    0.0000000   0.0000000   0.0000000   0.0000000   0.0000000   0.0000000
 NMagM=    2.7928460   2.7928460   2.7928460   2.7928460   2.7928460   2.7928460
 AtZNuc=   1.0000000   1.0000000   1.0000000   1.0000000   1.0000000   1.0000000
 Leave Link  101 at Tue Sep 17 09:46:16 2024, MaxMem=  1342177280 cpu:               0.2 elap:               0.3
 (Enter /groups/ReismanLab/Software/Gaussian16_RevC/Linux_Binary_AVX2-enabled-CPU/g16/l103.exe)

 GradGradGradGradGradGradGradGradGradGradGradGradGradGradGradGradGradGrad
 Berny optimization.
 Initialization pass.
                           ----------------------------
                           !    Initial Parameters    !
                           ! (Angstroms and Degrees)  !
 --------------------------                            --------------------------
 ! Name  Definition              Value          Derivative Info.                !
 --------------------------------------------------------------------------------
 ! R1    R(1,2)                  2.1232         estimate D2E/DX2                !
 ! R2    R(2,3)                  1.3962         estimate D2E/DX2                !
 ! R3    R(2,10)                 1.374          estimate D2E/DX2                !
 ! R4    R(3,4)                  1.3778         estimate D2E/DX2                !
 ! R5    R(3,11)                 1.0788         estimate D2E/DX2                !
 ! R6    R(4,5)                  1.3891         estimate D2E/DX2                !
 ! R7    R(4,12)                 1.0797         estimate D2E/DX2                !
 ! R8    R(5,6)                  1.3632         estimate D2E/DX2                !
 ! R9    R(5,9)                  1.4177         estimate D2E/DX2                !
 ! R10   R(6,7)                  1.3676         estimate D2E/DX2                !
 ! R11   R(6,13)                 1.0057         estimate D2E/DX2                !
 ! R12   R(7,8)                  1.3606         estimate D2E/DX2                !
 ! R13   R(7,14)                 1.0732         estimate D2E/DX2                !
 ! R14   R(8,9)                  1.4225         estimate D2E/DX2                !
 ! R15   R(8,15)                 1.0712         estimate D2E/DX2                !
 ! R16   R(9,10)                 1.3947         estimate D2E/DX2                !
 ! R17   R(10,16)                1.0788         estimate D2E/DX2                !
 ! A1    A(1,2,3)              118.1903         estimate D2E/DX2                !
 ! A2    A(1,2,10)             119.0497         estimate D2E/DX2                !
 ! A3    A(3,2,10)             122.76           estimate D2E/DX2                !
 ! A4    A(2,3,4)              120.4223         estimate D2E/DX2                !
 ! A5    A(2,3,11)             119.7084         estimate D2E/DX2                !
 ! A6    A(4,3,11)             119.8693         estimate D2E/DX2                !
 ! A7    A(3,4,5)              117.8477         estimate D2E/DX2                !
 ! A8    A(3,4,12)             120.7699         estimate D2E/DX2                !
 ! A9    A(5,4,12)             121.3824         estimate D2E/DX2                !
 ! A10   A(4,5,6)              130.838          estimate D2E/DX2                !
 ! A11   A(4,5,9)              121.6701         estimate D2E/DX2                !
 ! A12   A(6,5,9)              107.492          estimate D2E/DX2                !
 ! A13   A(5,6,7)              109.0038         estimate D2E/DX2                !
 ! A14   A(5,6,13)             125.5136         estimate D2E/DX2                !
 ! A15   A(7,6,13)             125.4825         estimate D2E/DX2                !
 ! A16   A(6,7,8)              110.0286         estimate D2E/DX2                !
 ! A17   A(6,7,14)             120.564          estimate D2E/DX2                !
 ! A18   A(8,7,14)             129.4074         estimate D2E/DX2                !
 ! A19   A(7,8,9)              106.8602         estimate D2E/DX2                !
 ! A20   A(7,8,15)             126.779          estimate D2E/DX2                !
 ! A21   A(9,8,15)             126.3609         estimate D2E/DX2                !
 ! A22   A(5,9,8)              106.6154         estimate D2E/DX2                !
 ! A23   A(5,9,10)             119.6665         estimate D2E/DX2                !
 ! A24   A(8,9,10)             133.7181         estimate D2E/DX2                !
 ! A25   A(2,10,9)             117.6335         estimate D2E/DX2                !
 ! A26   A(2,10,16)            121.6955         estimate D2E/DX2                !
 ! A27   A(9,10,16)            120.6711         estimate D2E/DX2                !
 ! D1    D(1,2,3,4)            179.9929         estimate D2E/DX2                !
 ! D2    D(1,2,3,11)            -0.0133         estimate D2E/DX2                !
 ! D3    D(10,2,3,4)             0.0045         estimate D2E/DX2                !
 ! D4    D(10,2,3,11)          179.9983         estimate D2E/DX2                !
 ! D5    D(1,2,10,9)           179.9974         estimate D2E/DX2                !
 ! D6    D(1,2,10,16)            0.0276         estimate D2E/DX2                !
 ! D7    D(3,2,10,9)            -0.0144         estimate D2E/DX2                !
 ! D8    D(3,2,10,16)         -179.9841         estimate D2E/DX2                !
 ! D9    D(2,3,4,5)              0.0082         estimate D2E/DX2                !
 ! D10   D(2,3,4,12)           179.9967         estimate D2E/DX2                !
 ! D11   D(11,3,4,5)          -179.9856         estimate D2E/DX2                !
 ! D12   D(11,3,4,12)            0.0029         estimate D2E/DX2                !
 ! D13   D(3,4,5,6)            179.9841         estimate D2E/DX2                !
 ! D14   D(3,4,5,9)             -0.0109         estimate D2E/DX2                !
 ! D15   D(12,4,5,6)            -0.0043         estimate D2E/DX2                !
 ! D16   D(12,4,5,9)          -179.9993         estimate D2E/DX2                !
 ! D17   D(4,5,6,7)           -179.9897         estimate D2E/DX2                !
 ! D18   D(4,5,6,13)             0.0206         estimate D2E/DX2                !
 ! D19   D(9,5,6,7)              0.0058         estimate D2E/DX2                !
 ! D20   D(9,5,6,13)          -179.9839         estimate D2E/DX2                !
 ! D21   D(4,5,9,8)            179.9943         estimate D2E/DX2                !
 ! D22   D(4,5,9,10)             0.001          estimate D2E/DX2                !
 ! D23   D(6,5,9,8)             -0.0017         estimate D2E/DX2                !
 ! D24   D(6,5,9,10)          -179.995          estimate D2E/DX2                !
 ! D25   D(5,6,7,8)             -0.0079         estimate D2E/DX2                !
 ! D26   D(5,6,7,14)           179.9999         estimate D2E/DX2                !
 ! D27   D(13,6,7,8)           179.9818         estimate D2E/DX2                !
 ! D28   D(13,6,7,14)           -0.0104         estimate D2E/DX2                !
 ! D29   D(6,7,8,9)              0.0067         estimate D2E/DX2                !
 ! D30   D(6,7,8,15)          -179.9891         estimate D2E/DX2                !
 ! D31   D(14,7,8,9)           179.998          estimate D2E/DX2                !
 ! D32   D(14,7,8,15)            0.0022         estimate D2E/DX2                !
 ! D33   D(7,8,9,5)             -0.003          estimate D2E/DX2                !
 ! D34   D(7,8,9,10)           179.989          estimate D2E/DX2                !
 ! D35   D(15,8,9,5)           179.9928         estimate D2E/DX2                !
 ! D36   D(15,8,9,10)           -0.0152         estimate D2E/DX2                !
 ! D37   D(5,9,10,2)             0.0114         estimate D2E/DX2                !
 ! D38   D(5,9,10,16)          179.9815         estimate D2E/DX2                !
 ! D39   D(8,9,10,2)          -179.9797         estimate D2E/DX2                !
 ! D40   D(8,9,10,16)           -0.0096         estimate D2E/DX2                !
 --------------------------------------------------------------------------------
 Trust Radius=3.00D-01 FncErr=1.00D-07 GrdErr=1.00D-06 EigMax=2.50D+02 EigMin=1.00D-04
 Number of steps in this run=     94 maximum allowed number of steps=    100.
 GradGradGradGradGradGradGradGradGradGradGradGradGradGradGradGradGradGrad

 Leave Link  103 at Tue Sep 17 09:46:16 2024, MaxMem=  1342177280 cpu:               0.1 elap:               0.1
 (Enter /groups/ReismanLab/Software/Gaussian16_RevC/Linux_Binary_AVX2-enabled-CPU/g16/l202.exe)
                          Input orientation:                          
 ---------------------------------------------------------------------
 Center     Atomic      Atomic             Coordinates (Angstroms)
 Number     Number       Type             X           Y           Z
 ---------------------------------------------------------------------
      1         53           0        2.086633    0.100828   -0.000020
      2          6           0       -0.015845   -0.195345   -0.000019
      3          6           0       -0.497302   -1.505893   -0.000036
      4          6           0       -1.853083   -1.751069    0.000111
      5          6           0       -2.710190   -0.657888    0.000098
      6          7           0       -4.071871   -0.592724   -0.000067
      7          6           0       -4.454874    0.720104   -0.000232
      8          6           0       -3.358254    1.525436   -0.000002
      9          6           0       -2.219908    0.672382    0.000169
     10          6           0       -0.844053    0.901009    0.000233
     11          1           0        0.197856   -2.330842   -0.000267
     12          1           0       -2.231541   -2.762255    0.000045
     13          1           0       -4.694522   -1.382456    0.000081
     14          1           0       -5.494807    0.985178   -0.000380
     15          1           0       -3.349162    2.596636    0.000106
     16          1           0       -0.453293    1.906557   -0.000012
 ---------------------------------------------------------------------
                    Distance matrix (angstroms):
                    1          2          3          4          5
     1  I    0.000000
     2  C    2.123236   0.000000
     3  C    3.042740   1.396186   0.000000
     4  C    4.353261   2.407430   1.377771   0.000000
     5  C    4.856455   2.733759   2.369807   1.389128   0.000000
     6  N    6.197433   4.075445   3.689366   2.502954   1.363239
     7  C    6.570755   4.532442   4.540643   3.588316   2.223238
     8  C    5.628170   3.759360   4.168213   3.605693   2.277474
     9  C    4.344303   2.368722   2.777094   2.451056   1.417742
    10  C    3.037962   1.374017   2.431751   2.837544   2.431589
    11  H    3.079042   2.146163   1.078789   2.131311   3.354922
    12  H    5.181107   3.390920   2.141503   1.079689   2.158117
    13  H    6.941483   4.826930   4.199035   2.865249   2.112480
    14  H    7.632844   5.604699   5.583949   4.555129   3.233227
    15  H    5.981381   4.348121   4.996383   4.597912   3.316657
    16  H    3.116389   2.146940   3.412733   3.916330   3.416132
                    6          7          8          9         10
     6  N    0.000000
     7  C    1.367556   0.000000
     8  C    2.235140   1.360564   0.000000
     9  C    2.242824   2.235476   1.422510   0.000000
    10  C    3.556690   3.615350   2.590582   1.394721   0.000000
    11  H    4.609947   5.563827   5.245645   3.855507   3.395650
    12  H    2.844939   4.131590   4.433258   3.434657   3.917222
    13  H    1.005669   2.116173   3.200226   3.216531   4.476641
    14  H    2.124741   1.073184   2.203800   3.289803   4.651515
    15  H    3.270218   2.178066   1.071239   2.231136   3.025016
    16  H    4.397785   4.173766   2.929855   2.155021   1.078805
                   11         12         13         14         15
    11  H    0.000000
    12  H    2.467405   0.000000
    13  H    4.983452   2.823140   0.000000
    14  H    6.588049   4.969121   2.499230   0.000000
    15  H    6.071357   5.474193   4.200377   2.683391   0.000000
    16  H    4.287137   4.995996   5.367088   5.125017   2.976956
                   16
    16  H    0.000000
 Stoichiometry    C8H6IN
 Framework group  C1[X(C8H6IN)]
 Deg. of freedom    42
 Full point group                 C1      NOp   1
 Largest Abelian subgroup         C1      NOp   1
 Largest concise Abelian subgroup C1      NOp   1
                         Standard orientation:                         
 ---------------------------------------------------------------------
 Center     Atomic      Atomic             Coordinates (Angstroms)
 Number     Number       Type             X           Y           Z
 ---------------------------------------------------------------------
      1         53           0        2.345994   -0.129679    0.000020
      2          6           0        0.245497    0.180235    0.000019
      3          6           0       -0.227380    1.493903    0.000036
      4          6           0       -1.581529    1.747939   -0.000111
      5          6           0       -2.445765    0.660385   -0.000098
      6          7           0       -3.807843    0.604127    0.000066
      7          6           0       -4.199423   -0.706169    0.000232
      8          6           0       -3.108092   -1.518654    0.000002
      9          6           0       -1.964192   -0.673061   -0.000169
     10          6           0       -0.589862   -0.910680   -0.000233
     11          1           0        0.473157    2.314289    0.000267
     12          1           0       -1.953367    2.761578   -0.000045
     13          1           0       -4.425317    1.397913   -0.000081
     14          1           0       -5.241066   -0.964438    0.000380
     15          1           0       -3.106004   -2.589891   -0.000106
     16          1           0       -0.205685   -1.918761    0.000012
 ---------------------------------------------------------------------
 Rotational constants (GHZ):           3.3312182           0.3540553           0.3200401
 Leave Link  202 at Tue Sep 17 09:46:16 2024, MaxMem=  1342177280 cpu:               0.1 elap:               0.1
 (Enter /groups/ReismanLab/Software/Gaussian16_RevC/Linux_Binary_AVX2-enabled-CPU/g16/l301.exe)
 General basis read from cards:  (5D, 7F)
 Centers:       2      3      4      5      7      8      9     10     11     12
 Centers:      13     14     15     16      6
 6-31G(d,p)
 ****
 Centers:       1
 LANL2DZ
 ****
 ======================================================================================================
                                       Pseudopotential Parameters
 ======================================================================================================
  Center     Atomic      Valence      Angular      Power
  Number     Number     Electrons     Momentum     of R      Exponent        Coefficient   SO-Coeffient
 ======================================================================================================
    1         53            7
                                      F and up 
                                                     0        1.0715702       -0.07476210    0.00000000
                                                     1       44.1936028      -30.08112240    0.00000000
                                                     2       12.9367609      -75.37227210    0.00000000
                                                     2        3.1956412      -22.05637580    0.00000000
                                                     2        0.8589806       -1.69795850    0.00000000
                                      S - F
                                                     0      127.9202670        2.93800360    0.00000000
                                                     1       78.6211465       41.24712670    0.00000000
                                                     2       36.5146237      287.86800950    0.00000000
                                                     2        9.9065681      114.37585060    0.00000000
                                                     2        1.9420086       37.65477140    0.00000000
                                      P - F
                                                     0       13.0035304        2.22226300    0.00000000
                                                     1       76.0331404       39.40908310    0.00000000
                                                     2       24.1961684      177.40750020    0.00000000
                                                     2        6.4053433       77.98894620    0.00000000
                                                     2        1.5851786       25.75476410    0.00000000
                                      D - F
                                                     0       40.4278108        7.05243600    0.00000000
                                                     1       28.9084375       33.30416350    0.00000000
                                                     2       15.6268936      186.94538750    0.00000000
                                                     2        4.1442856       71.96883610    0.00000000
                                                     2        0.9377235        9.36306570    0.00000000
    2          6
                                   No pseudopotential on this center.
    3          6
                                   No pseudopotential on this center.
    4          6
                                   No pseudopotential on this center.
    5          6
                                   No pseudopotential on this center.
    6          7
                                   No pseudopotential on this center.
    7          6
                                   No pseudopotential on this center.
    8          6
                                   No pseudopotential on this center.
    9          6
                                   No pseudopotential on this center.
   10          6
                                   No pseudopotential on this center.
   11          1
                                   No pseudopotential on this center.
   12          1
                                   No pseudopotential on this center.
   13          1
                                   No pseudopotential on this center.
   14          1
                                   No pseudopotential on this center.
   15          1
                                   No pseudopotential on this center.
   16          1
                                   No pseudopotential on this center.
 ======================================================================================================
 Ernie: Thresh=  0.10000D-02 Tol=  0.10000D-05 Strict=F.
 There are   173 symmetry adapted cartesian basis functions of A   symmetry.
 There are   164 symmetry adapted basis functions of A   symmetry.
   164 basis functions,   306 primitive gaussians,   173 cartesian basis functions
    34 alpha electrons       34 beta electrons
       nuclear repulsion energy       448.1527308776 Hartrees.
 IExCor=  402 DFT=T Ex+Corr=B3LYP ExCW=0 ScaHFX=  0.200000
 ScaDFX=  0.800000  0.720000  1.000000  0.810000 ScalE2=  1.000000  1.000000
 IRadAn=      5 IRanWt=     -1 IRanGd=            0 ICorTp=0 IEmpDi=141
 NAtoms=   16 NActive=   16 NUniq=   16 SFac= 1.00D+00 NAtFMM=   60 NAOKFM=F Big=F
 Integral buffers will be    131072 words long.
 Raffenetti 2 integral format.
 Two-electron integral symmetry is turned on.
 R6Disp:  Grimme-D3(BJ) Dispersion energy=       -0.0358926015 Hartrees.
 Nuclear repulsion after empirical dispersion term =      448.1168382762 Hartrees.
 Leave Link  301 at Tue Sep 17 09:46:17 2024, MaxMem=  1342177280 cpu:               0.2 elap:               0.2
 (Enter /groups/ReismanLab/Software/Gaussian16_RevC/Linux_Binary_AVX2-enabled-CPU/g16/l302.exe)
 NPDir=0 NMtPBC=     1 NCelOv=     1 NCel=       1 NClECP=     1 NCelD=      1
         NCelK=      1 NCelE2=     1 NClLst=     1 CellRange=     0.0.
 One-electron integrals computed using PRISM.
 One-electron integral symmetry used in STVInt
   1 Symmetry operations used in ECPInt.
 ECPInt:  NShTT=    1711 NPrTT=    9362 LenC2=    1678 LenP2D=    6665.
 LDataN:  DoStor=T MaxTD1= 5 Len=  102
 NBasis=   164 RedAO= T EigKep=  3.80D-04  NBF=   164
 NBsUse=   164 1.00D-06 EigRej= -1.00D+00 NBFU=   164
 Precomputing XC quadrature grid using
 IXCGrd= 4 IRadAn=           5 IRanWt=          -1 IRanGd=           0 AccXCQ= 0.00D+00.
 Defaulting to unpruned grid for atomic number  53.
 Generated NRdTot=       0 NPtTot=           0 NUsed=           0 NTot=          32
 NSgBfM=   173   173   173   173   173 MxSgAt=    16 MxSgA2=    16.
 Leave Link  302 at Tue Sep 17 09:46:17 2024, MaxMem=  1342177280 cpu:               1.9 elap:               0.3
 (Enter /groups/ReismanLab/Software/Gaussian16_RevC/Linux_Binary_AVX2-enabled-CPU/g16/l303.exe)
 DipDrv:  MaxL=1.
 Leave Link  303 at Tue Sep 17 09:46:17 2024, MaxMem=  1342177280 cpu:               0.3 elap:               0.1
 (Enter /groups/ReismanLab/Software/Gaussian16_RevC/Linux_Binary_AVX2-enabled-CPU/g16/l401.exe)
 ExpMin= 1.05D-01 ExpMax= 4.17D+03 ExpMxC= 6.27D+02 IAcc=3 IRadAn=         5 AccDes= 0.00D+00
 Harris functional with IExCor=  402 and IRadAn=       5 diagonalized for initial guess.
 HarFok:  IExCor=  402 AccDes= 0.00D+00 IRadAn=         5 IDoV= 1 UseB2=F ITyADJ=14
 ICtDFT=  3500011 ScaDFX=  1.000000  1.000000  1.000000  1.000000
 Defaulting to unpruned grid for atomic number  53.
 FoFCou: FMM=F IPFlag=           0 FMFlag=      100000 FMFlg1=           0
         NFxFlg=           0 DoJE=T BraDBF=F KetDBF=T FulRan=T
         wScrn=  0.000000 ICntrl=       500 IOpCl=  0 I1Cent=   200000004 NGrid=           0
         NMat0=    1 NMatS0=      1 NMatT0=    0 NMatD0=    1 NMtDS0=    0 NMtDT0=    0
 Petite list used in FoFCou.
 Harris En= -374.565604098657    
 JPrj=0 DoOrth=F DoCkMO=F.
 Leave Link  401 at Tue Sep 17 09:46:18 2024, MaxMem=  1342177280 cpu:               5.3 elap:               0.7
 (Enter /groups/ReismanLab/Software/Gaussian16_RevC/Linux_Binary_AVX2-enabled-CPU/g16/l502.exe)
 Integral symmetry usage will be decided dynamically.
 Closed shell SCF:
 Using DIIS extrapolation, IDIIS=  1040.
 NGot=  1342177280 LenX=  1342113780 LenY=  1342083410
 Requested convergence on RMS density matrix=1.00D-08 within  32 cycles.
 Requested convergence on MAX density matrix=1.00D-06.
 Requested convergence on             energy=1.00D-06.
 No special actions if energy rises.
 Fock matrices will be formed incrementally for  20 cycles.
 Integral accuracy reduced to 1.0D-05 until final iterations.

 Cycle   1  Pass 0  IDiag  1:
 FoFJK:  IHMeth= 1 ICntrl=       0 DoSepK=F KAlg= 0 I1Cent=           0 FoldK=F
 IRaf= 950000000 NMat=       1 IRICut=       1 DoRegI=T DoRafI=F ISym2E= 0 IDoP0=0 IntGTp=1.
 FoFCou: FMM=F IPFlag=           0 FMFlag=      100000 FMFlg1=           0
         NFxFlg=           0 DoJE=F BraDBF=F KetDBF=F FulRan=T
         wScrn=  0.000000 ICntrl=         0 IOpCl=  0 I1Cent=           0 NGrid=           0
         NMat0=    1 NMatS0=      1 NMatT0=    0 NMatD0=    1 NMtDS0=    0 NMtDT0=    0
 Symmetry not used in FoFCou.
 Defaulting to unpruned grid for atomic number  53.
 Defaulting to unpruned grid for atomic number  53.
 Defaulting to unpruned grid for atomic number  53.
 Defaulting to unpruned grid for atomic number  53.
 Defaulting to unpruned grid for atomic number  53.
 Defaulting to unpruned grid for atomic number  53.
 Defaulting to unpruned grid for atomic number  53.
 Defaulting to unpruned grid for atomic number  53.
 E= -374.413384677256    
 DIIS: error= 4.33D-02 at cycle   1 NSaved=   1.
 NSaved= 1 IEnMin= 1 EnMin= -374.413384677256     IErMin= 1 ErrMin= 4.33D-02
 ErrMax= 4.33D-02  0.00D+00 EMaxC= 1.00D-01 BMatC= 1.84D-01 BMatP= 1.84D-01
 IDIUse=3 WtCom= 5.67D-01 WtEn= 4.33D-01
 Coeff-Com:  0.100D+01
 Coeff-En:   0.100D+01
 Coeff:      0.100D+01
 Gap=     0.320 Goal=   None    Shift=    0.000
 GapD=    0.320 DampG=1.000 DampE=0.500 DampFc=0.5000 IDamp=-1.
 Damping current iteration by 5.00D-01
 RMSDP=7.20D-03 MaxDP=1.50D-01              OVMax= 2.31D-01

 Cycle   2  Pass 0  IDiag  1:
 RMSU=  3.55D-03    CP:  9.77D-01
 E= -374.499849373440     Delta-E=       -0.086464696184 Rises=F Damp=T
 DIIS: error= 7.35D-03 at cycle   2 NSaved=   2.
 NSaved= 2 IEnMin= 2 EnMin= -374.499849373440     IErMin= 2 ErrMin= 7.35D-03
 ErrMax= 7.35D-03  0.00D+00 EMaxC= 1.00D-01 BMatC= 1.43D-02 BMatP= 1.84D-01
 IDIUse=3 WtCom= 9.27D-01 WtEn= 7.35D-02
 Coeff-Com:  0.108D+00 0.892D+00
 Coeff-En:   0.201D+00 0.799D+00
 Coeff:      0.114D+00 0.886D+00
 Gap=     0.180 Goal=   None    Shift=    0.000
 RMSDP=2.79D-03 MaxDP=4.24D-02 DE=-8.65D-02 OVMax= 2.14D-01

 Cycle   3  Pass 0  IDiag  1:
 RMSU=  2.45D-03    CP:  9.62D-01  6.45D-01
 E= -374.613244019856     Delta-E=       -0.113394646417 Rises=F Damp=F
 DIIS: error= 1.19D-02 at cycle   3 NSaved=   3.
 NSaved= 3 IEnMin= 3 EnMin= -374.613244019856     IErMin= 2 ErrMin= 7.35D-03
 ErrMax= 1.19D-02  0.00D+00 EMaxC= 1.00D-01 BMatC= 1.81D-02 BMatP= 1.43D-02
 IDIUse=2 WtCom= 0.00D+00 WtEn= 1.00D+00
 Coeff-En:   0.000D+00 0.000D+00 0.100D+01
 Coeff:      0.000D+00 0.000D+00 0.100D+01
 Gap=     0.220 Goal=   None    Shift=    0.000
 RMSDP=2.83D-03 MaxDP=7.68D-02 DE=-1.13D-01 OVMax= 1.67D-01

 Cycle   4  Pass 0  IDiag  1:
 RMSU=  1.84D-03    CP:  9.61D-01  1.05D+00  3.41D-01
 E= -374.543010417367     Delta-E=        0.070233602489 Rises=F Damp=F
 DIIS: error= 2.77D-02 at cycle   4 NSaved=   4.
 NSaved= 4 IEnMin= 3 EnMin= -374.613244019856     IErMin= 2 ErrMin= 7.35D-03
 ErrMax= 2.77D-02  0.00D+00 EMaxC= 1.00D-01 BMatC= 8.11D-02 BMatP= 1.43D-02
 IDIUse=2 WtCom= 0.00D+00 WtEn= 1.00D+00
 Coeff-En:   0.000D+00 0.000D+00 0.766D+00 0.234D+00
 Coeff:      0.000D+00 0.000D+00 0.766D+00 0.234D+00
 Gap=     0.200 Goal=   None    Shift=    0.000
 RMSDP=1.46D-03 MaxDP=3.91D-02 DE= 7.02D-02 OVMax= 8.76D-02

 Cycle   5  Pass 0  IDiag  1:
 RMSU=  2.10D-04    CP:  9.62D-01  8.26D-01  6.55D-01  4.92D-01
 E= -374.627180735761     Delta-E=       -0.084170318394 Rises=F Damp=F
 DIIS: error= 7.14D-03 at cycle   5 NSaved=   5.
 NSaved= 5 IEnMin= 5 EnMin= -374.627180735761     IErMin= 5 ErrMin= 7.14D-03
 ErrMax= 7.14D-03  0.00D+00 EMaxC= 1.00D-01 BMatC= 5.49D-03 BMatP= 1.43D-02
 IDIUse=3 WtCom= 9.29D-01 WtEn= 7.14D-02
 Coeff-Com:  0.198D-02 0.152D-01 0.314D+00-0.413D-01 0.710D+00
 Coeff-En:   0.000D+00 0.000D+00 0.282D+00 0.000D+00 0.718D+00
 Coeff:      0.184D-02 0.142D-01 0.311D+00-0.384D-01 0.711D+00
 Gap=     0.197 Goal=   None    Shift=    0.000
 RMSDP=5.06D-04 MaxDP=1.44D-02 DE=-8.42D-02 OVMax= 3.20D-02

 Cycle   6  Pass 0  IDiag  1:
 RMSU=  7.05D-05    CP:  9.62D-01  7.57D-01  7.75D-01  3.19D-01  7.67D-01
 E= -374.633141599612     Delta-E=       -0.005960863850 Rises=F Damp=F
 DIIS: error= 3.70D-04 at cycle   6 NSaved=   6.
 NSaved= 6 IEnMin= 6 EnMin= -374.633141599612     IErMin= 6 ErrMin= 3.70D-04
 ErrMax= 3.70D-04  0.00D+00 EMaxC= 1.00D-01 BMatC= 3.40D-05 BMatP= 5.49D-03
 IDIUse=3 WtCom= 9.96D-01 WtEn= 3.70D-03
 Coeff-Com: -0.136D-02 0.228D-02 0.966D-01-0.598D-01 0.412D+00 0.550D+00
 Coeff-En:   0.000D+00 0.000D+00 0.000D+00 0.000D+00 0.000D+00 0.100D+01
 Coeff:     -0.135D-02 0.227D-02 0.962D-01-0.595D-01 0.411D+00 0.552D+00
 Gap=     0.194 Goal=   None    Shift=    0.000
 RMSDP=3.76D-05 MaxDP=1.11D-03 DE=-5.96D-03 OVMax= 2.07D-03

 Cycle   7  Pass 0  IDiag  1:
 RMSU=  1.39D-05    CP:  9.62D-01  7.58D-01  7.73D-01  3.19D-01  8.61D-01
                    CP:  6.08D-01
 E= -374.633175307860     Delta-E=       -0.000033708249 Rises=F Damp=F
 DIIS: error= 7.89D-05 at cycle   7 NSaved=   7.
 NSaved= 7 IEnMin= 7 EnMin= -374.633175307860     IErMin= 7 ErrMin= 7.89D-05
 ErrMax= 7.89D-05  0.00D+00 EMaxC= 1.00D-01 BMatC= 7.37D-07 BMatP= 3.40D-05
 IDIUse=1 WtCom= 1.00D+00 WtEn= 0.00D+00
 Coeff-Com: -0.656D-03 0.354D-03 0.415D-01-0.286D-01 0.189D+00 0.279D+00
 Coeff-Com:  0.520D+00
 Coeff:     -0.656D-03 0.354D-03 0.415D-01-0.286D-01 0.189D+00 0.279D+00
 Coeff:      0.520D+00
 Gap=     0.194 Goal=   None    Shift=    0.000
 RMSDP=5.78D-06 MaxDP=1.69D-04 DE=-3.37D-05 OVMax= 2.74D-04

 Initial convergence to 1.0D-05 achieved.  Increase integral accuracy.
 Cycle   8  Pass 1  IDiag  1:
 E= -374.633107287450     Delta-E=        0.000068020410 Rises=F Damp=F
 DIIS: error= 1.76D-05 at cycle   1 NSaved=   1.
 NSaved= 1 IEnMin= 1 EnMin= -374.633107287450     IErMin= 1 ErrMin= 1.76D-05
 ErrMax= 1.76D-05  0.00D+00 EMaxC= 1.00D-01 BMatC= 1.02D-07 BMatP= 1.02D-07
 IDIUse=1 WtCom= 1.00D+00 WtEn= 0.00D+00
 Coeff-Com:  0.100D+01
 Coeff:      0.100D+01
 Gap=     0.194 Goal=   None    Shift=    0.000
 RMSDP=5.78D-06 MaxDP=1.69D-04 DE= 6.80D-05 OVMax= 1.90D-04

 Cycle   9  Pass 1  IDiag  1:
 RMSU=  1.55D-05    CP:  1.00D+00
 E= -374.633107163658     Delta-E=        0.000000123792 Rises=F Damp=F
 DIIS: error= 3.04D-05 at cycle   2 NSaved=   2.
 NSaved= 2 IEnMin= 1 EnMin= -374.633107287450     IErMin= 1 ErrMin= 1.76D-05
 ErrMax= 3.04D-05  0.00D+00 EMaxC= 1.00D-01 BMatC= 2.26D-07 BMatP= 1.02D-07
 IDIUse=1 WtCom= 1.00D+00 WtEn= 0.00D+00
 Coeff-Com:  0.607D+00 0.393D+00
 Coeff:      0.607D+00 0.393D+00
 Gap=     0.194 Goal=   None    Shift=    0.000
 RMSDP=3.87D-06 MaxDP=8.67D-05 DE= 1.24D-07 OVMax= 1.66D-04

 Cycle  10  Pass 1  IDiag  1:
 RMSU=  3.68D-06    CP:  1.00D+00  9.24D-01
 E= -374.633107400511     Delta-E=       -0.000000236852 Rises=F Damp=F
 DIIS: error= 5.92D-06 at cycle   3 NSaved=   3.
 NSaved= 3 IEnMin= 3 EnMin= -374.633107400511     IErMin= 3 ErrMin= 5.92D-06
 ErrMax= 5.92D-06  0.00D+00 EMaxC= 1.00D-01 BMatC= 7.65D-09 BMatP= 1.02D-07
 IDIUse=1 WtCom= 1.00D+00 WtEn= 0.00D+00
 Coeff-Com:  0.165D+00 0.179D+00 0.655D+00
 Coeff:      0.165D+00 0.179D+00 0.655D+00
 Gap=     0.194 Goal=   None    Shift=    0.000
 RMSDP=9.51D-07 MaxDP=2.38D-05 DE=-2.37D-07 OVMax= 5.04D-05

 Cycle  11  Pass 1  IDiag  1:
 RMSU=  7.07D-07    CP:  1.00D+00  9.41D-01  8.43D-01
 E= -374.633107405373     Delta-E=       -0.000000004862 Rises=F Damp=F
 DIIS: error= 4.12D-06 at cycle   4 NSaved=   4.
 NSaved= 4 IEnMin= 4 EnMin= -374.633107405373     IErMin= 4 ErrMin= 4.12D-06
 ErrMax= 4.12D-06  0.00D+00 EMaxC= 1.00D-01 BMatC= 3.65D-09 BMatP= 7.65D-09
 IDIUse=1 WtCom= 1.00D+00 WtEn= 0.00D+00
 Coeff-Com: -0.302D-02 0.475D-01 0.452D+00 0.503D+00
 Coeff:     -0.302D-02 0.475D-01 0.452D+00 0.503D+00
 Gap=     0.194 Goal=   None    Shift=    0.000
 RMSDP=4.44D-07 MaxDP=9.83D-06 DE=-4.86D-09 OVMax= 2.60D-05

 Cycle  12  Pass 1  IDiag  1:
 RMSU=  1.47D-07    CP:  1.00D+00  9.41D-01  9.03D-01  4.97D-01
 E= -374.633107409216     Delta-E=       -0.000000003844 Rises=F Damp=F
 DIIS: error= 9.82D-07 at cycle   5 NSaved=   5.
 NSaved= 5 IEnMin= 5 EnMin= -374.633107409216     IErMin= 5 ErrMin= 9.82D-07
 ErrMax= 9.82D-07  0.00D+00 EMaxC= 1.00D-01 BMatC= 9.99D-11 BMatP= 3.65D-09
 IDIUse=1 WtCom= 1.00D+00 WtEn= 0.00D+00
 Coeff-Com: -0.598D-02 0.236D-01 0.248D+00 0.297D+00 0.436D+00
 Coeff:     -0.598D-02 0.236D-01 0.248D+00 0.297D+00 0.436D+00
 Gap=     0.194 Goal=   None    Shift=    0.000
 RMSDP=7.14D-08 MaxDP=2.02D-06 DE=-3.84D-09 OVMax= 3.73D-06

 Cycle  13  Pass 1  IDiag  1:
 RMSU=  5.60D-08    CP:  1.00D+00  9.42D-01  8.99D-01  5.23D-01  7.42D-01
 E= -374.633107409318     Delta-E=       -0.000000000101 Rises=F Damp=F
 DIIS: error= 1.94D-07 at cycle   6 NSaved=   6.
 NSaved= 6 IEnMin= 6 EnMin= -374.633107409318     IErMin= 6 ErrMin= 1.94D-07
 ErrMax= 1.94D-07  0.00D+00 EMaxC= 1.00D-01 BMatC= 3.87D-12 BMatP= 9.99D-11
 IDIUse=1 WtCom= 1.00D+00 WtEn= 0.00D+00
 Coeff-Com: -0.224D-02 0.430D-02 0.494D-01 0.662D-01 0.195D+00 0.688D+00
 Coeff:     -0.224D-02 0.430D-02 0.494D-01 0.662D-01 0.195D+00 0.688D+00
 Gap=     0.194 Goal=   None    Shift=    0.000
 RMSDP=2.09D-08 MaxDP=4.62D-07 DE=-1.01D-10 OVMax= 7.69D-07

 Cycle  14  Pass 1  IDiag  1:
 RMSU=  1.36D-08    CP:  1.00D+00  9.42D-01  8.97D-01  5.25D-01  7.35D-01
                    CP:  7.81D-01
 E= -374.633107409318     Delta-E=       -0.000000000001 Rises=F Damp=F
 DIIS: error= 3.93D-08 at cycle   7 NSaved=   7.
 NSaved= 7 IEnMin= 7 EnMin= -374.633107409318     IErMin= 7 ErrMin= 3.93D-08
 ErrMax= 3.93D-08  0.00D+00 EMaxC= 1.00D-01 BMatC= 3.25D-13 BMatP= 3.87D-12
 IDIUse=1 WtCom= 1.00D+00 WtEn= 0.00D+00
 Coeff-Com: -0.631D-03 0.273D-03 0.581D-02 0.100D-01 0.585D-01 0.315D+00
 Coeff-Com:  0.611D+00
 Coeff:     -0.631D-03 0.273D-03 0.581D-02 0.100D-01 0.585D-01 0.315D+00
 Coeff:      0.611D+00
 Gap=     0.194 Goal=   None    Shift=    0.000
 RMSDP=5.34D-09 MaxDP=1.38D-07 DE=-7.96D-13 OVMax= 2.18D-07

 SCF Done:  E(RB3LYP) =  -374.633107409     A.U. after   14 cycles
            NFock= 14  Conv=0.53D-08     -V/T= 2.0285
 KE= 3.642408944836D+02 PE=-1.760821178658D+03 EE= 5.738303384884D+02
 Leave Link  502 at Tue Sep 17 09:46:26 2024, MaxMem=  1342177280 cpu:              56.6 elap:               8.3
 (Enter /groups/ReismanLab/Software/Gaussian16_RevC/Linux_Binary_AVX2-enabled-CPU/g16/l508.exe)
 QCSCF skips out because SCF is already converged.
 Leave Link  508 at Tue Sep 17 09:46:26 2024, MaxMem=  1342177280 cpu:               0.1 elap:               0.0
 (Enter /groups/ReismanLab/Software/Gaussian16_RevC/Linux_Binary_AVX2-enabled-CPU/g16/l601.exe)
 Copying SCF densities to generalized density rwf, IOpCl= 0 IROHF=0.

 **********************************************************************

            Population analysis using the SCF Density.

 **********************************************************************

 Orbital symmetries:
       Occupied  (A) (A) (A) (A) (A) (A) (A) (A) (A) (A) (A) (A)
                 (A) (A) (A) (A) (A) (A) (A) (A) (A) (A) (A) (A)
                 (A) (A) (A) (A) (A) (A) (A) (A) (A) (A)
       Virtual   (A) (A) (A) (A) (A) (A) (A) (A) (A) (A) (A) (A)
                 (A) (A) (A) (A) (A) (A) (A) (A) (A) (A) (A) (A)
                 (A) (A) (A) (A) (A) (A) (A) (A) (A) (A) (A) (A)
                 (A) (A) (A) (A) (A) (A) (A) (A) (A) (A) (A) (A)
                 (A) (A) (A) (A) (A) (A) (A) (A) (A) (A) (A) (A)
                 (A) (A) (A) (A) (A) (A) (A) (A) (A) (A) (A) (A)
                 (A) (A) (A) (A) (A) (A) (A) (A) (A) (A) (A) (A)
                 (A) (A) (A) (A) (A) (A) (A) (A) (A) (A) (A) (A)
                 (A) (A) (A) (A) (A) (A) (A) (A) (A) (A) (A) (A)
                 (A) (A) (A) (A) (A) (A) (A) (A) (A) (A) (A) (A)
                 (A) (A) (A) (A) (A) (A) (A) (A) (A) (A)
 The electronic state is 1-A.
 Alpha  occ. eigenvalues --  -14.38324 -10.22033 -10.21910 -10.21747 -10.19047
 Alpha  occ. eigenvalues --  -10.18744 -10.18720 -10.18338 -10.17220  -0.99359
 Alpha  occ. eigenvalues --   -0.85573  -0.79210  -0.75674  -0.72774  -0.67288
 Alpha  occ. eigenvalues --   -0.62421  -0.60386  -0.57656  -0.55117  -0.49087
 Alpha  occ. eigenvalues --   -0.45695  -0.44961  -0.43732  -0.43161  -0.41757
 Alpha  occ. eigenvalues --   -0.40017  -0.35468  -0.34907  -0.33420  -0.28752
 Alpha  occ. eigenvalues --   -0.27021  -0.25605  -0.21767  -0.21118
 Alpha virt. eigenvalues --   -0.01697  -0.01520   0.02085   0.06766   0.07273
 Alpha virt. eigenvalues --    0.12158   0.13507   0.14951   0.17173   0.17717
 Alpha virt. eigenvalues --    0.18230   0.22257   0.25362   0.25802   0.29024
 Alpha virt. eigenvalues --    0.32607   0.33891   0.37400   0.38884   0.40023
 Alpha virt. eigenvalues --    0.40783   0.43782   0.50255   0.51986   0.52677
 Alpha virt. eigenvalues --    0.53111   0.55441   0.56870   0.58177   0.58561
 Alpha virt. eigenvalues --    0.59401   0.60457   0.62131   0.62379   0.62843
 Alpha virt. eigenvalues --    0.64431   0.65164   0.68773   0.68923   0.71323
 Alpha virt. eigenvalues --    0.76659   0.79491   0.80691   0.81025   0.82639
 Alpha virt. eigenvalues --    0.83810   0.84283   0.86314   0.89721   0.92680
 Alpha virt. eigenvalues --    0.97061   0.98168   0.99824   1.05048   1.06847
 Alpha virt. eigenvalues --    1.09154   1.12986   1.19648   1.20954   1.23757
 Alpha virt. eigenvalues --    1.26602   1.28353   1.32148   1.34927   1.35990
 Alpha virt. eigenvalues --    1.38501   1.38645   1.42334   1.42411   1.46708
 Alpha virt. eigenvalues --    1.47090   1.51936   1.60835   1.71271   1.74059
 Alpha virt. eigenvalues --    1.79191   1.83123   1.83172   1.86216   1.89221
 Alpha virt. eigenvalues --    1.90357   1.92934   1.95200   2.01290   2.02974
 Alpha virt. eigenvalues --    2.03252   2.05884   2.06722   2.08428   2.15634
 Alpha virt. eigenvalues --    2.15972   2.17929   2.22405   2.26802   2.29342
 Alpha virt. eigenvalues --    2.31903   2.35955   2.39022   2.41050   2.42180
 Alpha virt. eigenvalues --    2.44077   2.46467   2.48855   2.50772   2.51896
 Alpha virt. eigenvalues --    2.52713   2.55730   2.58892   2.63008   2.66048
 Alpha virt. eigenvalues --    2.68739   2.71968   2.74900   2.75549   2.78738
 Alpha virt. eigenvalues --    2.79068   2.89252   2.92881   3.00603   3.07459
 Alpha virt. eigenvalues --    3.14781   3.18229   3.25611   3.27802   3.34995
 Alpha virt. eigenvalues --    3.48092   3.58651   3.79981   3.88064  10.08935
          Condensed to atoms (all electrons):
               1          2          3          4          5          6
     1  I    6.753012   0.258450  -0.064246   0.000485   0.002248   0.000021
     2  C    0.258450   5.334539   0.481748  -0.017523  -0.061817  -0.000329
     3  C   -0.064246   0.481748   4.795510   0.534578   0.008364   0.005636
     4  C    0.000485  -0.017523   0.534578   4.961978   0.475346  -0.091075
     5  C    0.002248  -0.061817   0.008364   0.475346   4.775716   0.295094
     6  N    0.000021  -0.000329   0.005636  -0.091075   0.295094   6.758583
     7  C    0.000007  -0.000528  -0.000010   0.004100  -0.113563   0.372550
     8  C   -0.000255   0.010944  -0.000142   0.015690  -0.028768  -0.077059
     9  C   -0.002156   0.015548  -0.036668  -0.051311   0.483786  -0.047624
    10  C   -0.064012   0.440537  -0.019772  -0.063891  -0.034058   0.012295
    11  H   -0.002413  -0.038142   0.368457  -0.028779   0.002815  -0.000120
    12  H   -0.000289   0.006013  -0.040232   0.358030  -0.039297  -0.005876
    13  H   -0.000000  -0.000003  -0.000080  -0.005172  -0.029925   0.357616
    14  H   -0.000000   0.000007   0.000001  -0.000174   0.005876  -0.046051
    15  H   -0.000006   0.000012   0.000004  -0.000184   0.007652   0.004169
    16  H   -0.002736  -0.046488   0.003777   0.000610   0.005261  -0.000123
               7          8          9         10         11         12
     1  I    0.000007  -0.000255  -0.002156  -0.064012  -0.002413  -0.000289
     2  C   -0.000528   0.010944   0.015548   0.440537  -0.038142   0.006013
     3  C   -0.000010  -0.000142  -0.036668  -0.019772   0.368457  -0.040232
     4  C    0.004100   0.015690  -0.051311  -0.063891  -0.028779   0.358030
     5  C   -0.113563  -0.028768   0.483786  -0.034058   0.002815  -0.039297
     6  N    0.372550  -0.077059  -0.047624   0.012295  -0.000120  -0.005876
     7  C    4.825537   0.536110  -0.000673   0.012467   0.000003   0.000007
     8  C    0.536110   5.024076   0.442059  -0.111643   0.000007  -0.000361
     9  C   -0.000673   0.442059   4.692115   0.471973   0.001196   0.004382
    10  C    0.012467  -0.111643   0.471973   5.048085   0.003977   0.000714
    11  H    0.000003   0.000007   0.001196   0.003977   0.602675  -0.006407
    12  H    0.000007  -0.000361   0.004382   0.000714  -0.006407   0.637207
    13  H   -0.033186   0.004962   0.006954  -0.000132  -0.000002   0.002669
    14  H    0.374687  -0.029079   0.001923  -0.000197  -0.000000   0.000002
    15  H   -0.050424   0.377963  -0.034898  -0.006895  -0.000000   0.000003
    16  H   -0.000052  -0.007452  -0.029836   0.367836  -0.000176   0.000019
              13         14         15         16
     1  I   -0.000000  -0.000000  -0.000006  -0.002736
     2  C   -0.000003   0.000007   0.000012  -0.046488
     3  C   -0.000080   0.000001   0.000004   0.003777
     4  C   -0.005172  -0.000174  -0.000184   0.000610
     5  C   -0.029925   0.005876   0.007652   0.005261
     6  N    0.357616  -0.046051   0.004169  -0.000123
     7  C   -0.033186   0.374687  -0.050424  -0.000052
     8  C    0.004962  -0.029079   0.377963  -0.007452
     9  C    0.006954   0.001923  -0.034898  -0.029836
    10  C   -0.000132  -0.000197  -0.006895   0.367836
    11  H   -0.000002  -0.000000  -0.000000  -0.000176
    12  H    0.002669   0.000002   0.000003   0.000019
    13  H    0.434668  -0.002662  -0.000101   0.000004
    14  H   -0.002662   0.589379  -0.001260  -0.000002
    15  H   -0.000101  -0.001260   0.613269   0.002583
    16  H    0.000004  -0.000002   0.002583   0.605872
 Mulliken charges:
               1
     1  I    0.121890
     2  C   -0.382966
     3  C   -0.036927
     4  C   -0.092707
     5  C    0.245272
     6  N   -0.537707
     7  C    0.072968
     8  C   -0.157052
     9  C    0.083231
    10  C   -0.057285
    11  H    0.096911
    12  H    0.083417
    13  H    0.264390
    14  H    0.107550
    15  H    0.088113
    16  H    0.100902
 Sum of Mulliken charges =  -0.00000
 Mulliken charges with hydrogens summed into heavy atoms:
               1
     1  I    0.121890
     2  C   -0.382966
     3  C    0.059983
     4  C   -0.009290
     5  C    0.245272
     6  N   -0.273317
     7  C    0.180518
     8  C   -0.068939
     9  C    0.083231
    10  C    0.043617
 Electronic spatial extent (au):  <R**2>=           2034.0576
 Charge=             -0.0000 electrons
 Dipole moment (field-independent basis, Debye):
    X=             -4.1817    Y=              1.1902    Z=              0.0001  Tot=              4.3478
 Quadrupole moment (field-independent basis, Debye-Ang):
   XX=            -53.4443   YY=            -63.8116   ZZ=            -75.9541
   XY=             -4.8565   XZ=              0.0002   YZ=              0.0000
 Traceless Quadrupole moment (field-independent basis, Debye-Ang):
   XX=             10.9590   YY=              0.5918   ZZ=            -11.5508
   XY=             -4.8565   XZ=              0.0002   YZ=              0.0000
 Octapole moment (field-independent basis, Debye-Ang**2):
  XXX=             63.1149  YYY=             -2.2730  ZZZ=              0.0018  XYY=             34.3624
  XXY=             17.5179  XXZ=              0.0012  XZZ=             59.4421  YZZ=             -2.3862
  YYZ=              0.0010  XYZ=              0.0021
 Hexadecapole moment (field-independent basis, Debye-Ang**3):
 XXXX=          -2068.3403 YYYY=           -458.4914 ZZZZ=            -93.9888 XXXY=           -126.6703
 XXXZ=             -0.0080 YYYX=            -39.7985 YYYZ=              0.0029 ZZZX=              0.0065
 ZZZY=             -0.0001 XXYY=           -464.8368 XXZZ=           -496.8825 YYZZ=           -109.1380
 XXYZ=             -0.0103 YYXZ=              0.0055 ZZXY=            -13.2065
 N-N= 4.481168382762D+02 E-N=-1.760821182973D+03  KE= 3.642408944836D+02
 No NMR shielding tensors so no spin-rotation constants.
 Leave Link  601 at Tue Sep 17 09:46:26 2024, MaxMem=  1342177280 cpu:               0.8 elap:               0.2
 (Enter /groups/ReismanLab/Software/Gaussian16_RevC/Linux_Binary_AVX2-enabled-CPU/g16/l701.exe)
 ... and contract with generalized density number  0.
 Compute integral first derivatives.
 R6Disp: Adding Grimme-D3(BJ) dispersion energy 1st derivatives to the gradient.
   1 Symmetry operations used in ECPInt.
 ECPInt:  NShTT=    1711 NPrTT=    9362 LenC2=    1678 LenP2D=    6665.
 LDataN:  DoStor=T MaxTD1= 6 Len=  172
 Leave Link  701 at Tue Sep 17 09:46:27 2024, MaxMem=  1342177280 cpu:               1.3 elap:               0.3
 (Enter /groups/ReismanLab/Software/Gaussian16_RevC/Linux_Binary_AVX2-enabled-CPU/g16/l702.exe)
 L702 exits ... SP integral derivatives will be done elsewhere.
 Leave Link  702 at Tue Sep 17 09:46:27 2024, MaxMem=  1342177280 cpu:               0.0 elap:               0.0
 (Enter /groups/ReismanLab/Software/Gaussian16_RevC/Linux_Binary_AVX2-enabled-CPU/g16/l703.exe)
 Integral derivatives from FoFJK, PRISM(SPDF).
 Compute integral first derivatives, UseDBF=F ICtDFT=           0.
 Calling FoFJK, ICntrl=      2127 FMM=F ISym2X=0 I1Cent= 0 IOpClX= 0 NMat=1 NMatS=1 NMatT=0.
 FoFJK:  IHMeth= 1 ICntrl=    2127 DoSepK=F KAlg= 0 I1Cent=           0 FoldK=F
 IRaf=         0 NMat=       1 IRICut=       1 DoRegI=T DoRafI=F ISym2E= 0 IDoP0=0 IntGTp=1.
 FoFCou: FMM=F IPFlag=           0 FMFlag=      100000 FMFlg1=         800
         NFxFlg=           0 DoJE=F BraDBF=F KetDBF=F FulRan=T
         wScrn=  0.000000 ICntrl=      2127 IOpCl=  0 I1Cent=           0 NGrid=           0
         NMat0=    1 NMatS0=      1 NMatT0=    0 NMatD0=    1 NMtDS0=    0 NMtDT0=    0
 Symmetry not used in FoFCou.
 Defaulting to unpruned grid for atomic number  53.
 Defaulting to unpruned grid for atomic number  53.
 Defaulting to unpruned grid for atomic number  53.
 Defaulting to unpruned grid for atomic number  53.
 Defaulting to unpruned grid for atomic number  53.
 Defaulting to unpruned grid for atomic number  53.
 Defaulting to unpruned grid for atomic number  53.
 Defaulting to unpruned grid for atomic number  53.
 Leave Link  703 at Tue Sep 17 09:46:29 2024, MaxMem=  1342177280 cpu:              14.7 elap:               2.0
 (Enter /groups/ReismanLab/Software/Gaussian16_RevC/Linux_Binary_AVX2-enabled-CPU/g16/l716.exe)
 Dipole        =-1.64520969D+00 4.68273081D-01 3.10777852D-05
 ***** Axes restored to original set *****
 -------------------------------------------------------------------
 Center     Atomic                   Forces (Hartrees/Bohr)
 Number     Number              X              Y              Z
 -------------------------------------------------------------------
      1       53           0.007789957    0.001246094   -0.000003619
      2        6           0.006408218    0.000755666    0.000017944
      3        6           0.005747277   -0.007007519   -0.000000816
      4        6          -0.005331720   -0.004118437   -0.000011580
      5        6           0.010031809   -0.003634787    0.000013514
      6        7          -0.008025848   -0.009820799   -0.000007591
      7        6          -0.012787012    0.008146921    0.000018072
      8        6           0.001652904    0.006279777   -0.000000268
      9        6          -0.000858121   -0.000242696    0.000000522
     10        6           0.000214336    0.005363705   -0.000032345
     11        1           0.001899862   -0.002795043    0.000005755
     12        1          -0.001186665   -0.004430284   -0.000000049
     13        1          -0.000424110   -0.000511057   -0.000005821
     14        1          -0.005405358    0.001012861   -0.000000948
     15        1          -0.001233705    0.006502166   -0.000006659
     16        1           0.001508176    0.003253431    0.000013890
 -------------------------------------------------------------------
 Cartesian Forces:  Max     0.012787012 RMS     0.004395953
 Leave Link  716 at Tue Sep 17 09:46:29 2024, MaxMem=  1342177280 cpu:               0.1 elap:               0.1
 (Enter /groups/ReismanLab/Software/Gaussian16_RevC/Linux_Binary_AVX2-enabled-CPU/g16/l103.exe)

 GradGradGradGradGradGradGradGradGradGradGradGradGradGradGradGradGradGrad
 Berny optimization.
 FormGI is forming the generalized inverse of G from B-inverse, IUseBI=4.
 Internal  Forces:  Max     0.015581085 RMS     0.004560525
 Search for a local minimum.
 Step number   1 out of a maximum of   94
 All quantities printed in internal units (Hartrees-Bohrs-Radians)
 RMS Force = .45605D-02 SwitMx=.10000D-02 MixMth= 1
 Mixed Optimization -- RFO/linear search
 Second derivative matrix not updated -- first step.
 ITU=  0
     Eigenvalues ---    0.01945   0.02028   0.02103   0.02150   0.02179
     Eigenvalues ---    0.02220   0.02242   0.02261   0.02280   0.02302
     Eigenvalues ---    0.02314   0.02347   0.02425   0.13235   0.16000
     Eigenvalues ---    0.16000   0.16000   0.16000   0.16000   0.16000
     Eigenvalues ---    0.22180   0.22517   0.23522   0.24075   0.24716
     Eigenvalues ---    0.25000   0.36032   0.36139   0.36141   0.36831
     Eigenvalues ---    0.37074   0.37377   0.39632   0.43582   0.44656
     Eigenvalues ---    0.46705   0.46807   0.48470   0.48714   0.49138
     Eigenvalues ---    0.49560   0.52425
 RFO step:  Lambda=-4.11261277D-03 EMin= 1.94546932D-02
 Linear search not attempted -- first point.
 Iteration  1 RMS(Cart)=  0.02146162 RMS(Int)=  0.00003667
 Iteration  2 RMS(Cart)=  0.00004952 RMS(Int)=  0.00000595
 Iteration  3 RMS(Cart)=  0.00000000 RMS(Int)=  0.00000595
 ITry= 1 IFail=0 DXMaxC= 1.01D-01 DCOld= 1.00D+10 DXMaxT= 3.00D-01 DXLimC= 3.00D+00 Rises=F
 Variable       Old X    -DE/DX   Delta X   Delta X   Delta X     New X
                                 (Linear)    (Quad)   (Total)
    R1        4.01233   0.00789   0.00000   0.05780   0.05780   4.07013
    R2        2.63841   0.01165   0.00000   0.02574   0.02575   2.66416
    R3        2.59651   0.01288   0.00000   0.02582   0.02583   2.62235
    R4        2.60361   0.01208   0.00000   0.02456   0.02456   2.62817
    R5        2.03862   0.00336   0.00000   0.00920   0.00920   2.04781
    R6        2.62507   0.00940   0.00000   0.01924   0.01923   2.64431
    R7        2.04032   0.00457   0.00000   0.01253   0.01253   2.05284
    R8        2.57615   0.01558   0.00000   0.02982   0.02982   2.60597
    R9        2.67914   0.00777   0.00000   0.01584   0.01582   2.69496
   R10        2.58431   0.01464   0.00000   0.02947   0.02948   2.61379
   R11        1.90044   0.00066   0.00000   0.00141   0.00141   1.90185
   R12        2.57109   0.01141   0.00000   0.02197   0.02198   2.59307
   R13        2.02802   0.00549   0.00000   0.01474   0.01474   2.04276
   R14        2.68815   0.01385   0.00000   0.03149   0.03149   2.71964
   R15        2.02435   0.00649   0.00000   0.01732   0.01732   2.04167
   R16        2.63564   0.01129   0.00000   0.02368   0.02368   2.65932
   R17        2.03865   0.00358   0.00000   0.00979   0.00979   2.04844
    A1        2.06281   0.00128   0.00000   0.00435   0.00435   2.06715
    A2        2.07781   0.00069   0.00000   0.00203   0.00202   2.07983
    A3        2.14257  -0.00197   0.00000  -0.00638  -0.00637   2.13620
    A4        2.10177  -0.00112   0.00000  -0.00343  -0.00342   2.09834
    A5        2.08931   0.00092   0.00000   0.00388   0.00388   2.09318
    A6        2.09211   0.00021   0.00000  -0.00045  -0.00045   2.09166
    A7        2.05683   0.00089   0.00000   0.00312   0.00311   2.05994
    A8        2.10783  -0.00089   0.00000  -0.00430  -0.00430   2.10353
    A9        2.11852   0.00001   0.00000   0.00119   0.00119   2.11971
   A10        2.28355   0.00024   0.00000   0.00349   0.00351   2.28707
   A11        2.12354   0.00187   0.00000   0.00559   0.00558   2.12912
   A12        1.87609  -0.00211   0.00000  -0.00908  -0.00909   1.86700
   A13        1.90248   0.00210   0.00000   0.01172   0.01172   1.91420
   A14        2.19063  -0.00104   0.00000  -0.00577  -0.00577   2.18486
   A15        2.19008  -0.00107   0.00000  -0.00596  -0.00596   2.18412
   A16        1.92036  -0.00335   0.00000  -0.01203  -0.01201   1.90835
   A17        2.10424   0.00132   0.00000   0.00383   0.00382   2.10806
   A18        2.25859   0.00203   0.00000   0.00820   0.00819   2.26678
   A19        1.86506   0.00130   0.00000   0.00428   0.00428   1.86935
   A20        2.21271  -0.00195   0.00000  -0.01009  -0.01009   2.20262
   A21        2.20541   0.00066   0.00000   0.00581   0.00581   2.21122
   A22        1.86079   0.00206   0.00000   0.00510   0.00509   1.86588
   A23        2.08857  -0.00204   0.00000  -0.00871  -0.00871   2.07986
   A24        2.33382  -0.00002   0.00000   0.00360   0.00362   2.33744
   A25        2.05309   0.00238   0.00000   0.00982   0.00982   2.06291
   A26        2.12399  -0.00142   0.00000  -0.00632  -0.00632   2.11767
   A27        2.10611  -0.00096   0.00000  -0.00350  -0.00350   2.10261
    D1        3.14147   0.00000   0.00000   0.00010   0.00010   3.14157
    D2       -0.00023   0.00000   0.00000   0.00015   0.00015  -0.00008
    D3        0.00008  -0.00000   0.00000  -0.00006  -0.00006   0.00002
    D4        3.14156  -0.00000   0.00000  -0.00002  -0.00002   3.14155
    D5        3.14155   0.00000   0.00000   0.00013   0.00013  -3.14151
    D6        0.00048  -0.00001   0.00000  -0.00036  -0.00035   0.00013
    D7       -0.00025   0.00001   0.00000   0.00030   0.00030   0.00005
    D8       -3.14132  -0.00001   0.00000  -0.00019  -0.00019  -3.14151
    D9        0.00014  -0.00001   0.00000  -0.00021  -0.00021  -0.00007
   D10        3.14153   0.00000   0.00000   0.00002   0.00002   3.14156
   D11       -3.14134  -0.00001   0.00000  -0.00026  -0.00026   3.14158
   D12        0.00005  -0.00000   0.00000  -0.00003  -0.00003   0.00003
   D13        3.14132   0.00001   0.00000   0.00020   0.00020   3.14151
   D14       -0.00019   0.00001   0.00000   0.00025   0.00025   0.00006
   D15       -0.00007  -0.00000   0.00000  -0.00004  -0.00004  -0.00011
   D16       -3.14158   0.00000   0.00000   0.00002   0.00002  -3.14156
   D17       -3.14141  -0.00000   0.00000  -0.00017  -0.00017  -3.14159
   D18        0.00036  -0.00000   0.00000  -0.00007  -0.00007   0.00029
   D19        0.00010  -0.00001   0.00000  -0.00022  -0.00022  -0.00012
   D20       -3.14131  -0.00000   0.00000  -0.00012  -0.00012  -3.14143
   D21        3.14149   0.00000   0.00000   0.00002   0.00002   3.14151
   D22        0.00002  -0.00000   0.00000  -0.00002  -0.00002  -0.00000
   D23       -0.00003   0.00000   0.00000   0.00006   0.00006   0.00003
   D24       -3.14151   0.00000   0.00000   0.00002   0.00002  -3.14148
   D25       -0.00014   0.00001   0.00000   0.00031   0.00031   0.00017
   D26        3.14159   0.00000   0.00000   0.00007   0.00007  -3.14153
   D27        3.14127   0.00001   0.00000   0.00021   0.00021   3.14148
   D28       -0.00018  -0.00000   0.00000  -0.00003  -0.00003  -0.00021
   D29        0.00012  -0.00001   0.00000  -0.00026  -0.00026  -0.00014
   D30       -3.14140  -0.00001   0.00000  -0.00024  -0.00024   3.14155
   D31        3.14156   0.00000   0.00000   0.00000   0.00000   3.14156
   D32        0.00004   0.00000   0.00000   0.00003   0.00003   0.00007
   D33       -0.00005   0.00000   0.00000   0.00012   0.00012   0.00007
   D34        3.14140   0.00000   0.00000   0.00017   0.00017   3.14157
   D35        3.14147   0.00000   0.00000   0.00010   0.00010   3.14156
   D36       -0.00027   0.00000   0.00000   0.00014   0.00014  -0.00012
   D37        0.00020  -0.00001   0.00000  -0.00025  -0.00025  -0.00005
   D38        3.14127   0.00001   0.00000   0.00023   0.00023   3.14150
   D39       -3.14124  -0.00001   0.00000  -0.00030  -0.00030  -3.14154
   D40       -0.00017   0.00001   0.00000   0.00018   0.00018   0.00001
         Item               Value     Threshold  Converged?
 Maximum Force            0.015581     0.000450     NO 
 RMS     Force            0.004561     0.000300     NO 
 Maximum Displacement     0.100606     0.001800     NO 
 RMS     Displacement     0.021471     0.001200     NO 
 Predicted change in Energy=-2.080129D-03
 Lowest energy point so far.  Saving SCF results.
 GradGradGradGradGradGradGradGradGradGradGradGradGradGradGradGradGradGrad

 Leave Link  103 at Tue Sep 17 09:46:29 2024, MaxMem=  1342177280 cpu:               0.1 elap:               0.1
 (Enter /groups/ReismanLab/Software/Gaussian16_RevC/Linux_Binary_AVX2-enabled-CPU/g16/l202.exe)
                          Input orientation:                          
 ---------------------------------------------------------------------
 Center     Atomic      Atomic             Coordinates (Angstroms)
 Number     Number       Type             X           Y           Z
 ---------------------------------------------------------------------
      1         53           0        2.139871    0.108479    0.000161
      2          6           0        0.008263   -0.200060    0.000028
      3          6           0       -0.478616   -1.523132    0.000012
      4          6           0       -1.848160   -1.765187   -0.000045
      5          6           0       -2.710600   -0.663255    0.000001
      6          7           0       -4.087741   -0.591315   -0.000117
      7          6           0       -4.484865    0.733606   -0.000009
      8          6           0       -3.375097    1.540659   -0.000039
      9          6           0       -2.223741    0.677181    0.000027
     10          6           0       -0.834617    0.902312    0.000008
     11          1           0        0.216006   -2.354883   -0.000013
     12          1           0       -2.228606   -2.782708   -0.000091
     13          1           0       -4.709752   -1.382499   -0.000028
     14          1           0       -5.533290    0.996907   -0.000013
     15          1           0       -3.371794    2.621057   -0.000015
     16          1           0       -0.441474    1.912493   -0.000060
 ---------------------------------------------------------------------
                    Distance matrix (angstroms):
                    1          2          3          4          5
     1  I    0.000000
     2  C    2.153822   0.000000
     3  C    3.085228   1.409812   0.000000
     4  C    4.406248   2.428153   1.390770   0.000000
     5  C    4.911481   2.758037   2.391891   1.399307   0.000000
     6  N    6.266807   4.114648   3.727475   2.528577   1.379018
     7  C    6.654166   4.589111   4.598141   3.632655   2.258149
     8  C    5.697896   3.804895   4.216209   3.641450   2.301911
     9  C    4.400516   2.398207   2.808352   2.471077   1.426113
    10  C    3.078596   1.387686   2.451432   2.853563   2.443423
    11  H    3.125605   2.164814   1.083656   2.146747   3.380330
    12  H    5.238564   3.416672   2.156153   1.086318   2.173568
    13  H    7.010019   4.863932   4.233473   2.887068   2.124599
    14  H    7.724423   5.669351   5.648038   4.605361   3.274709
    15  H    6.057351   4.402668   5.054185   4.643340   3.350206
    16  H    3.149256   2.159895   3.435826   3.937524   3.432697
                    6          7          8          9         10
     6  N    0.000000
     7  C    1.383157   0.000000
     8  C    2.247927   1.372196   0.000000
     9  C    2.254679   2.261828   1.439172   0.000000
    10  C    3.579628   3.654145   2.619451   1.407249   0.000000
    11  H    4.651066   5.624674   5.298233   3.891758   3.422445
    12  H    2.873775   4.177938   4.472800   3.459892   3.939870
    13  H    1.006415   2.128021   3.213434   3.228395   4.498560
    14  H    2.147571   1.080982   2.225638   3.324957   4.699626
    15  H    3.291187   2.191210   1.080403   2.257583   3.064531
    16  H    4.423157   4.211744   2.957093   2.168518   1.083986
                   11         12         13         14         15
    11  H    0.000000
    12  H    2.481766   0.000000
    13  H    5.020820   2.848977   0.000000
    14  H    6.654991   5.020600   2.517894   0.000000
    15  H    6.134516   5.523364   4.221208   2.703688   0.000000
    16  H    4.317729   5.023818   5.392140   5.173479   3.014770
                   16
    16  H    0.000000
 Stoichiometry    C8H6IN
 Framework group  C1[X(C8H6IN)]
 Deg. of freedom    42
 Full point group                 C1      NOp   1
 RotChk:  IX=0 Diff= 5.60D-04
 Largest Abelian subgroup         C1      NOp   1
 Largest concise Abelian subgroup C1      NOp   1
                         Standard orientation:                         
 ---------------------------------------------------------------------
 Center     Atomic      Atomic             Coordinates (Angstroms)
 Number     Number       Type             X           Y           Z
 ---------------------------------------------------------------------
      1         53           0        2.375540   -0.133309   -0.000096
      2          6           0        0.245868    0.188319    0.000037
      3          6           0       -0.232874    1.514357    0.000053
      4          6           0       -1.600906    1.764821    0.000110
      5          6           0       -2.470099    0.668207    0.000063
      6          7           0       -3.847656    0.604728    0.000182
      7          6           0       -4.252912   -0.717728    0.000074
      8          6           0       -3.148122   -1.531584    0.000103
      9          6           0       -1.991483   -0.675194    0.000038
     10          6           0       -0.603768   -0.908855    0.000057
     11          1           0        0.466844    2.341825    0.000078
     12          1           0       -1.975094    2.784659    0.000156
     13          1           0       -4.464795    1.399718    0.000093
     14          1           0       -5.302934   -0.974584    0.000078
     15          1           0       -3.151456   -2.611982    0.000080
     16          1           0       -0.216839   -1.921432    0.000125
 ---------------------------------------------------------------------
 Rotational constants (GHZ):           3.2706377           0.3455652           0.3125429
 Leave Link  202 at Tue Sep 17 09:46:29 2024, MaxMem=  1342177280 cpu:               0.1 elap:               0.0
 (Enter /groups/ReismanLab/Software/Gaussian16_RevC/Linux_Binary_AVX2-enabled-CPU/g16/l301.exe)
 Basis read from rwf:  (5D, 7F)
 Pseudo-potential data read from rwf file.
 There are   173 symmetry adapted cartesian basis functions of A   symmetry.
 There are   164 symmetry adapted basis functions of A   symmetry.
   164 basis functions,   306 primitive gaussians,   173 cartesian basis functions
    34 alpha electrons       34 beta electrons
       nuclear repulsion energy       443.8636711677 Hartrees.
 IExCor=  402 DFT=T Ex+Corr=B3LYP ExCW=0 ScaHFX=  0.200000
 ScaDFX=  0.800000  0.720000  1.000000  0.810000 ScalE2=  1.000000  1.000000
 IRadAn=      5 IRanWt=     -1 IRanGd=            0 ICorTp=0 IEmpDi=141
 NAtoms=   16 NActive=   16 NUniq=   16 SFac= 1.00D+00 NAtFMM=   60 NAOKFM=F Big=F
 Integral buffers will be    131072 words long.
 Raffenetti 2 integral format.
 Two-electron integral symmetry is turned on.
 R6Disp:  Grimme-D3(BJ) Dispersion energy=       -0.0358337537 Hartrees.
 Nuclear repulsion after empirical dispersion term =      443.8278374140 Hartrees.
 No density basis found on file    724.
 Leave Link  301 at Tue Sep 17 09:46:29 2024, MaxMem=  1342177280 cpu:               0.1 elap:               0.1
 (Enter /groups/ReismanLab/Software/Gaussian16_RevC/Linux_Binary_AVX2-enabled-CPU/g16/l302.exe)
 NPDir=0 NMtPBC=     1 NCelOv=     1 NCel=       1 NClECP=     1 NCelD=      1
         NCelK=      1 NCelE2=     1 NClLst=     1 CellRange=     0.0.
 One-electron integrals computed using PRISM.
 One-electron integral symmetry used in STVInt
   1 Symmetry operations used in ECPInt.
 ECPInt:  NShTT=    1711 NPrTT=    9362 LenC2=    1678 LenP2D=    6635.
 LDataN:  DoStor=T MaxTD1= 5 Len=  102
 NBasis=   164 RedAO= T EigKep=  4.16D-04  NBF=   164
 NBsUse=   164 1.00D-06 EigRej= -1.00D+00 NBFU=   164
 Precomputing XC quadrature grid using
 IXCGrd= 4 IRadAn=           5 IRanWt=          -1 IRanGd=           0 AccXCQ= 0.00D+00.
 Defaulting to unpruned grid for atomic number  53.
 Generated NRdTot=       0 NPtTot=           0 NUsed=           0 NTot=          32
 NSgBfM=   173   173   173   173   173 MxSgAt=    16 MxSgA2=    16.
 Leave Link  302 at Tue Sep 17 09:46:29 2024, MaxMem=  1342177280 cpu:               1.1 elap:               0.3
 (Enter /groups/ReismanLab/Software/Gaussian16_RevC/Linux_Binary_AVX2-enabled-CPU/g16/l303.exe)
 DipDrv:  MaxL=1.
 Leave Link  303 at Tue Sep 17 09:46:29 2024, MaxMem=  1342177280 cpu:               0.1 elap:               0.1
 (Enter /groups/ReismanLab/Software/Gaussian16_RevC/Linux_Binary_AVX2-enabled-CPU/g16/l401.exe)
 Initial guess from the checkpoint file:  "smiles_00086_conf_0.chk"
 B after Tr=    -0.000000    0.000000    0.000000
         Rot=    1.000000   -0.000010   -0.000017    0.000159 Ang=  -0.02 deg.
 Guess basis will be translated and rotated to current coordinates.
 JPrj=2 DoOrth=T DoCkMO=T.
 Generating alternative initial guess.
 ExpMin= 1.05D-01 ExpMax= 4.17D+03 ExpMxC= 6.27D+02 IAcc=3 IRadAn=         5 AccDes= 0.00D+00
 Harris functional with IExCor=  402 and IRadAn=       5 diagonalized for initial guess.
 HarFok:  IExCor=  402 AccDes= 0.00D+00 IRadAn=         5 IDoV= 1 UseB2=F ITyADJ=14
 ICtDFT=  3500011 ScaDFX=  1.000000  1.000000  1.000000  1.000000
 Defaulting to unpruned grid for atomic number  53.
 FoFCou: FMM=F IPFlag=           0 FMFlag=      100000 FMFlg1=           0
         NFxFlg=           0 DoJE=T BraDBF=F KetDBF=T FulRan=T
         wScrn=  0.000000 ICntrl=       500 IOpCl=  0 I1Cent=   200000004 NGrid=           0
         NMat0=    1 NMatS0=      1 NMatT0=    0 NMatD0=    1 NMtDS0=    0 NMtDT0=    0
 Petite list used in FoFCou.
 Harris En= -374.556402535962    
 Leave Link  401 at Tue Sep 17 09:46:30 2024, MaxMem=  1342177280 cpu:               3.6 elap:               0.6
 (Enter /groups/ReismanLab/Software/Gaussian16_RevC/Linux_Binary_AVX2-enabled-CPU/g16/l502.exe)
 Integral symmetry usage will be decided dynamically.
 Closed shell SCF:
 Using DIIS extrapolation, IDIIS=  1040.
 NGot=  1342177280 LenX=  1342113780 LenY=  1342083410
 Requested convergence on RMS density matrix=1.00D-08 within  32 cycles.
 Requested convergence on MAX density matrix=1.00D-06.
 Requested convergence on             energy=1.00D-06.
 No special actions if energy rises.
 Fock matrices will be formed incrementally for  20 cycles.
 Integral accuracy reduced to 1.0D-05 until final iterations.

 Cycle   1  Pass 0  IDiag  1:
 FoFJK:  IHMeth= 1 ICntrl=       0 DoSepK=F KAlg= 0 I1Cent=           0 FoldK=F
 IRaf= 940000000 NMat=       1 IRICut=       1 DoRegI=T DoRafI=F ISym2E= 0 IDoP0=0 IntGTp=1.
 FoFCou: FMM=F IPFlag=           0 FMFlag=      100000 FMFlg1=           0
         NFxFlg=           0 DoJE=F BraDBF=F KetDBF=F FulRan=T
         wScrn=  0.000000 ICntrl=         0 IOpCl=  0 I1Cent=           0 NGrid=           0
         NMat0=    1 NMatS0=      1 NMatT0=    0 NMatD0=    1 NMtDS0=    0 NMtDT0=    0
 Symmetry not used in FoFCou.
 Defaulting to unpruned grid for atomic number  53.
 Defaulting to unpruned grid for atomic number  53.
 Defaulting to unpruned grid for atomic number  53.
 Defaulting to unpruned grid for atomic number  53.
 Defaulting to unpruned grid for atomic number  53.
 Defaulting to unpruned grid for atomic number  53.
 Defaulting to unpruned grid for atomic number  53.
 Defaulting to unpruned grid for atomic number  53.
 E= -374.634300407832    
 DIIS: error= 1.75D-03 at cycle   1 NSaved=   1.
 NSaved= 1 IEnMin= 1 EnMin= -374.634300407832     IErMin= 1 ErrMin= 1.75D-03
 ErrMax= 1.75D-03  0.00D+00 EMaxC= 1.00D-01 BMatC= 6.74D-04 BMatP= 6.74D-04
 IDIUse=3 WtCom= 9.83D-01 WtEn= 1.75D-02
 Coeff-Com:  0.100D+01
 Coeff-En:   0.100D+01
 Coeff:      0.100D+01
 Gap=     0.860 Goal=   None    Shift=    0.000
 GapD=    0.860 DampG=2.000 DampE=1.000 DampFc=2.0000 IDamp=-1.
 RMSDP=4.98D-04 MaxDP=1.13D-02              OVMax= 9.08D-03

 Cycle   2  Pass 0  IDiag  1:
 RMSU=  4.85D-04    CP:  9.96D-01
 E= -374.634662046055     Delta-E=       -0.000361638223 Rises=F Damp=F
 DIIS: error= 1.49D-03 at cycle   2 NSaved=   2.
 NSaved= 2 IEnMin= 2 EnMin= -374.634662046055     IErMin= 2 ErrMin= 1.49D-03
 ErrMax= 1.49D-03  0.00D+00 EMaxC= 1.00D-01 BMatC= 2.17D-04 BMatP= 6.74D-04
 IDIUse=3 WtCom= 9.85D-01 WtEn= 1.49D-02
 Coeff-Com:  0.308D+00 0.692D+00
 Coeff-En:   0.554D-01 0.945D+00
 Coeff:      0.305D+00 0.695D+00
 Gap=     0.186 Goal=   None    Shift=    0.000
 RMSDP=2.11D-04 MaxDP=6.25D-03 DE=-3.62D-04 OVMax= 1.03D-02

 Cycle   3  Pass 0  IDiag  1:
 RMSU=  1.99D-04    CP:  9.96D-01  8.60D-01
 E= -374.634693606633     Delta-E=       -0.000031560578 Rises=F Damp=F
 DIIS: error= 1.44D-03 at cycle   3 NSaved=   3.
 NSaved= 3 IEnMin= 3 EnMin= -374.634693606633     IErMin= 3 ErrMin= 1.44D-03
 ErrMax= 1.44D-03  0.00D+00 EMaxC= 1.00D-01 BMatC= 1.90D-04 BMatP= 2.17D-04
 IDIUse=3 WtCom= 9.86D-01 WtEn= 1.44D-02
 Coeff-Com:  0.372D-01 0.477D+00 0.486D+00
 Coeff-En:   0.000D+00 0.473D+00 0.527D+00
 Coeff:      0.366D-01 0.477D+00 0.486D+00
 Gap=     0.188 Goal=   None    Shift=    0.000
 RMSDP=1.21D-04 MaxDP=3.61D-03 DE=-3.16D-05 OVMax= 5.12D-03

 Cycle   4  Pass 0  IDiag  1:
 RMSU=  4.16D-05    CP:  9.96D-01  9.51D-01  4.77D-01
 E= -374.634897790942     Delta-E=       -0.000204184309 Rises=F Damp=F
 DIIS: error= 2.12D-04 at cycle   4 NSaved=   4.
 NSaved= 4 IEnMin= 4 EnMin= -374.634897790942     IErMin= 4 ErrMin= 2.12D-04
 ErrMax= 2.12D-04  0.00D+00 EMaxC= 1.00D-01 BMatC= 1.33D-05 BMatP= 1.90D-04
 IDIUse=3 WtCom= 9.98D-01 WtEn= 2.12D-03
 Coeff-Com: -0.155D-02 0.245D+00 0.300D+00 0.456D+00
 Coeff-En:   0.000D+00 0.000D+00 0.000D+00 0.100D+01
 Coeff:     -0.154D-02 0.245D+00 0.300D+00 0.457D+00
 Gap=     0.187 Goal=   None    Shift=    0.000
 RMSDP=2.82D-05 MaxDP=5.45D-04 DE=-2.04D-04 OVMax= 1.65D-03

 Cycle   5  Pass 0  IDiag  1:
 RMSU=  1.33D-05    CP:  9.96D-01  9.34D-01  5.04D-01  4.57D-01
 E= -374.634912289937     Delta-E=       -0.000014498994 Rises=F Damp=F
 DIIS: error= 5.57D-05 at cycle   5 NSaved=   5.
 NSaved= 5 IEnMin= 5 EnMin= -374.634912289937     IErMin= 5 ErrMin= 5.57D-05
 ErrMax= 5.57D-05  0.00D+00 EMaxC= 1.00D-01 BMatC= 5.31D-07 BMatP= 1.33D-05
 IDIUse=1 WtCom= 1.00D+00 WtEn= 0.00D+00
 Coeff-Com: -0.261D-02 0.938D-01 0.122D+00 0.242D+00 0.544D+00
 Coeff:     -0.261D-02 0.938D-01 0.122D+00 0.242D+00 0.544D+00
 Gap=     0.187 Goal=   None    Shift=    0.000
 RMSDP=6.36D-06 MaxDP=1.58D-04 DE=-1.45D-05 OVMax= 4.01D-04

 Initial convergence to 1.0D-05 achieved.  Increase integral accuracy.
 Cycle   6  Pass 1  IDiag  1:
 E= -374.634846803065     Delta-E=        0.000065486871 Rises=F Damp=F
 DIIS: error= 1.98D-05 at cycle   1 NSaved=   1.
 NSaved= 1 IEnMin= 1 EnMin= -374.634846803065     IErMin= 1 ErrMin= 1.98D-05
 ErrMax= 1.98D-05  0.00D+00 EMaxC= 1.00D-01 BMatC= 1.01D-07 BMatP= 1.01D-07
 IDIUse=1 WtCom= 1.00D+00 WtEn= 0.00D+00
 Coeff-Com:  0.100D+01
 Coeff:      0.100D+01
 Gap=     0.187 Goal=   None    Shift=    0.000
 RMSDP=6.36D-06 MaxDP=1.58D-04 DE= 6.55D-05 OVMax= 2.89D-04

 Cycle   7  Pass 1  IDiag  1:
 RMSU=  1.25D-05    CP:  1.00D+00
 E= -374.634846659088     Delta-E=        0.000000143978 Rises=F Damp=F
 DIIS: error= 4.55D-05 at cycle   2 NSaved=   2.
 NSaved= 2 IEnMin= 1 EnMin= -374.634846803065     IErMin= 1 ErrMin= 1.98D-05
 ErrMax= 4.55D-05  0.00D+00 EMaxC= 1.00D-01 BMatC= 2.48D-07 BMatP= 1.01D-07
 IDIUse=1 WtCom= 1.00D+00 WtEn= 0.00D+00
 Coeff-Com:  0.619D+00 0.381D+00
 Coeff:      0.619D+00 0.381D+00
 Gap=     0.187 Goal=   None    Shift=    0.000
 RMSDP=3.53D-06 MaxDP=1.03D-04 DE= 1.44D-07 OVMax= 2.45D-04

 Cycle   8  Pass 1  IDiag  1:
 RMSU=  3.24D-06    CP:  1.00D+00  8.90D-01
 E= -374.634846910544     Delta-E=       -0.000000251456 Rises=F Damp=F
 DIIS: error= 8.79D-06 at cycle   3 NSaved=   3.
 NSaved= 3 IEnMin= 3 EnMin= -374.634846910544     IErMin= 3 ErrMin= 8.79D-06
 ErrMax= 8.79D-06  0.00D+00 EMaxC= 1.00D-01 BMatC= 8.34D-09 BMatP= 1.01D-07
 IDIUse=1 WtCom= 1.00D+00 WtEn= 0.00D+00
 Coeff-Com:  0.198D+00 0.188D+00 0.614D+00
 Coeff:      0.198D+00 0.188D+00 0.614D+00
 Gap=     0.187 Goal=   None    Shift=    0.000
 RMSDP=8.37D-07 MaxDP=2.13D-05 DE=-2.51D-07 OVMax= 5.20D-05

 Cycle   9  Pass 1  IDiag  1:
 RMSU=  6.67D-07    CP:  1.00D+00  9.09D-01  8.62D-01
 E= -374.634846917201     Delta-E=       -0.000000006657 Rises=F Damp=F
 DIIS: error= 2.91D-06 at cycle   4 NSaved=   4.
 NSaved= 4 IEnMin= 4 EnMin= -374.634846917201     IErMin= 4 ErrMin= 2.91D-06
 ErrMax= 2.91D-06  0.00D+00 EMaxC= 1.00D-01 BMatC= 2.21D-09 BMatP= 8.34D-09
 IDIUse=1 WtCom= 1.00D+00 WtEn= 0.00D+00
 Coeff-Com:  0.324D-02 0.458D-01 0.384D+00 0.567D+00
 Coeff:      0.324D-02 0.458D-01 0.384D+00 0.567D+00
 Gap=     0.187 Goal=   None    Shift=    0.000
 RMSDP=3.98D-07 MaxDP=9.96D-06 DE=-6.66D-09 OVMax= 1.92D-05

 Cycle  10  Pass 1  IDiag  1:
 RMSU=  2.29D-07    CP:  1.00D+00  9.11D-01  8.99D-01  5.52D-01
 E= -374.634846919430     Delta-E=       -0.000000002229 Rises=F Damp=F
 DIIS: error= 1.36D-06 at cycle   5 NSaved=   5.
 NSaved= 5 IEnMin= 5 EnMin= -374.634846919430     IErMin= 5 ErrMin= 1.36D-06
[...]
      3  C    Isotropic =    35.6680   Anisotropy =   170.9688
   XX=     0.4897   YX=   -50.9846   ZX=     0.0029
   XY=   -60.2794   YY=   -43.1329   ZY=    -0.0027
   XZ=     0.0007   YZ=    -0.0092   ZZ=   149.6472
   Eigenvalues:   -81.0766    38.4333   149.6472
      4  C    Isotropic =    54.3287   Anisotropy =   174.0458
   XX=    36.1545   YX=    21.0723   ZX=     0.0048
   XY=    13.9345   YY=   -43.5277   ZY=    -0.0057
   XZ=     0.0082   YZ=    -0.0117   ZZ=   170.3592
   Eigenvalues:   -47.2031    39.8299   170.3592
      5  C    Isotropic =    30.8799   Anisotropy =   179.3532
   XX=   -57.5375   YX=    14.1442   ZX=     0.0065
   XY=    17.6603   YY=    -0.2715   ZY=    -0.0041
   XZ=     0.0094   YZ=     0.0180   ZZ=   150.4487
   Eigenvalues:   -61.6570     3.8481   150.4487
      6  N    Isotropic =   101.3534   Anisotropy =   108.5549
   XX=    69.3280   YX=    50.8752   ZX=    -0.0003
   XY=    36.1619   YY=    61.0088   ZY=     0.0008
   XZ=     0.0022   YZ=    -0.0025   ZZ=   173.7233
   Eigenvalues:    21.4515   108.8853   173.7233
      7  C    Isotropic =    41.4998   Anisotropy =   144.8160
   XX=    -7.5607   YX=   -45.7934   ZX=    -0.0065
   XY=   -61.9748   YY=    -5.9838   ZY=    -0.0055
   XZ=    -0.0203   YZ=    -0.0005   ZZ=   138.0438
   Eigenvalues:   -60.6621    47.1177   138.0438
      8  C    Isotropic =    67.7329   Anisotropy =   137.2542
   XX=    55.2842   YX=   -37.9361   ZX=     0.0020
   XY=   -24.8442   YY=   -11.3211   ZY=     0.0041
   XZ=     0.0015   YZ=    -0.0036   ZZ=   159.2357
   Eigenvalues:   -23.7832    67.7463   159.2357
      9  C    Isotropic =    34.0460   Anisotropy =   192.7640
   XX=   -19.1150   YX=   -11.1774   ZX=     0.0064
   XY=    -8.6113   YY=   -41.3024   ZY=     0.0007
   XZ=     0.0099   YZ=    -0.0042   ZZ=   162.5553
   Eigenvalues:   -45.0737   -15.3437   162.5553
     10  C    Isotropic =    35.9054   Anisotropy =   164.3788
   XX=    11.1877   YX=    39.5891   ZX=     0.0032
   XY=    45.3723   YY=   -48.9628   ZY=    -0.0017
   XZ=     0.0026   YZ=     0.0040   ZZ=   145.4912
   Eigenvalues:   -70.9369    33.1618   145.4912
     11  H    Isotropic =    23.8238   Anisotropy =    12.3731
   XX=    27.1454   YX=    -5.4565   ZX=    -0.0003
   XY=    -5.0123   YY=    26.5118   ZY=     0.0003
   XZ=    -0.0004   YZ=     0.0001   ZZ=    17.8142
   Eigenvalues:    17.8142    21.5846    32.0726
     12  H    Isotropic =    23.7841   Anisotropy =     7.0739
   XX=    28.3325   YX=     0.9529   ZX=    -0.0002
   XY=     0.7842   YY=    23.9960   ZY=     0.0000
   XZ=    -0.0001   YZ=     0.0001   ZZ=    19.0238
   Eigenvalues:    19.0238    23.8285    28.5000
     13  H    Isotropic =    23.4876   Anisotropy =     8.8594
   XX=    26.7302   YX=    -2.2897   ZX=    -0.0001
   XY=    -1.8128   YY=    27.8142   ZY=    -0.0001
   XZ=     0.0010   YZ=    -0.0010   ZZ=    15.9183
   Eigenvalues:    15.9183    25.1506    29.3938
     14  H    Isotropic =    24.0145   Anisotropy =     3.6757
   XX=    25.7496   YX=     0.6212   ZX=    -0.0000
   XY=    -1.8678   YY=    25.9220   ZY=     0.0001
   XZ=    -0.0011   YZ=     0.0002   ZZ=    20.3720
   Eigenvalues:    20.3720    25.2066    26.4650
     15  H    Isotropic =    24.6601   Anisotropy =     4.5076
   XX=    27.6006   YX=    -0.4259   ZX=    -0.0002
   XY=    -0.3388   YY=    25.4009   ZY=     0.0001
   XZ=    -0.0003   YZ=    -0.0001   ZZ=    20.9788
   Eigenvalues:    20.9788    25.3364    27.6652
     16  H    Isotropic =    23.2748   Anisotropy =    13.5783
   XX=    29.8523   YX=     4.9830   ZX=    -0.0003
   XY=     4.4982   YY=    23.2460   ZY=     0.0001
   XZ=    -0.0002   YZ=     0.0000   ZZ=    16.7262
   Eigenvalues:    16.7262    20.7713    32.3270
 End of Minotr F.D. properties file   721 does not exist.
 End of Minotr F.D. properties file   722 does not exist.
 End of Minotr F.D. properties file   788 does not exist.
 Leave Link 1002 at Tue Sep 17 10:35:30 2024, MaxMem=  1342177280 cpu:             576.5 elap:             578.2
 (Enter /groups/ReismanLab/Software/Gaussian16_RevC/Linux_Binary_AVX2-enabled-CPU/g16/l601.exe)
 Copying SCF densities to generalized density rwf, IOpCl= 0 IROHF=0.

 **********************************************************************

            Population analysis using the SCF Density.

 **********************************************************************

 Orbital symmetries:
       Occupied  (A) (A) (A) (A) (A) (A) (A) (A) (A) (A) (A) (A)
                 (A) (A) (A) (A) (A) (A) (A) (A) (A) (A) (A) (A)
                 (A) (A) (A) (A) (A) (A) (A) (A) (A) (A) (A) (A)
                 (A) (A) (A) (A) (A) (A) (A)
       Virtual   (A) (A) (A) (A) (A) (A) (A) (A) (A) (A) (A) (A)
                 (A) (A) (A) (A) (A) (A) (A) (A) (A) (A) (A) (A)
                 (A) (A) (A) (A) (A) (A) (A) (A) (A) (A) (A) (A)
                 (A) (A) (A) (A) (A) (A) (A) (A) (A) (A) (A) (A)
                 (A) (A) (A) (A) (A) (A) (A) (A) (A) (A) (A) (A)
                 (A) (A) (A) (A) (A) (A) (A) (A) (A) (A) (A) (A)
                 (A) (A) (A) (A) (A) (A) (A) (A) (A) (A) (A) (A)
                 (A) (A) (A) (A) (A) (A) (A) (A) (A) (A) (A) (A)
                 (A) (A) (A) (A) (A) (A) (A) (A) (A) (A) (A) (A)
                 (A) (A) (A) (A) (A) (A) (A) (A) (A) (A) (A) (A)
                 (A) (A) (A) (A) (A) (A) (A) (A) (A) (A) (A) (A)
                 (A) (A) (A) (A) (A) (A) (A) (A) (A) (A) (A) (A)
                 (A) (A) (A) (A) (A) (A) (A) (A) (A) (A) (A) (A)
                 (A) (A) (A) (A) (A) (A) (A) (A) (A) (A) (A) (A)
                 (A) (A) (A) (A) (A) (A) (A) (A) (A) (A) (A) (A)
                 (A) (A) (A) (A) (A) (A) (A) (A) (A) (A) (A) (A)
                 (A) (A) (A) (A) (A) (A) (A) (A) (A) (A) (A) (A)
                 (A) (A) (A) (A) (A) (A) (A) (A) (A) (A) (A) (A)
                 (A) (A) (A) (A) (A) (A) (A) (A) (A) (A) (A) (A)
                 (A) (A) (A) (A) (A) (A) (A) (A) (A) (A) (A) (A)
                 (A) (A) (A) (A) (A) (A) (A) (A) (A) (A) (A) (A)
                 (A) (A) (A) (A) (A) (A) (A) (A) (A) (A) (A) (A)
                 (A) (A) (A) (A) (A) (A) (A) (A) (A) (A) (A) (A)
                 (A) (A) (A) (A) (A) (A) (A) (A) (A) (A) (A) (A)
                 (A) (A) (A) (A) (A) (A) (A) (A) (A) (A) (A) (A)
                 (A) (A) (A) (A) (A) (A) (A) (A) (A) (A) (A) (A)
                 (A) (A) (A) (A) (A) (A) (A) (A) (A) (A)
 The electronic state is 1-A.
 Alpha  occ. eigenvalues --  -14.79682 -10.58761 -10.58154 -10.58018 -10.55254
 Alpha  occ. eigenvalues --  -10.55179 -10.55027 -10.54891 -10.53327  -7.09596
 Alpha  occ. eigenvalues --   -5.08921  -5.07910  -5.07902  -2.05751  -2.05332
 Alpha  occ. eigenvalues --   -2.05320  -2.04485  -2.04484  -1.09522  -0.95737
 Alpha  occ. eigenvalues --   -0.88758  -0.85014  -0.82074  -0.77005  -0.70822
 Alpha  occ. eigenvalues --   -0.68139  -0.65645  -0.62479  -0.56070  -0.52383
 Alpha  occ. eigenvalues --   -0.51346  -0.50736  -0.50235  -0.48070  -0.46362
 Alpha  occ. eigenvalues --   -0.42555  -0.40893  -0.38596  -0.35131  -0.33046
 Alpha  occ. eigenvalues --   -0.31486  -0.27302  -0.26575
 Alpha virt. eigenvalues --    0.00168   0.00243   0.03744   0.06891   0.08545
 Alpha virt. eigenvalues --    0.10052   0.10554   0.11786   0.12951   0.13660
 Alpha virt. eigenvalues --    0.14784   0.16847   0.17813   0.18550   0.19521
 Alpha virt. eigenvalues --    0.20073   0.21701   0.21757   0.21985   0.23140
 Alpha virt. eigenvalues --    0.23950   0.24814   0.25073   0.25606   0.26613
 Alpha virt. eigenvalues --    0.28212   0.28242   0.29658   0.30936   0.31168
 Alpha virt. eigenvalues --    0.31798   0.33838   0.34147   0.35465   0.37365
 Alpha virt. eigenvalues --    0.38020   0.39230   0.39389   0.40342   0.41122
 Alpha virt. eigenvalues --    0.41938   0.43262   0.43728   0.44507   0.45701
 Alpha virt. eigenvalues --    0.46574   0.47006   0.48151   0.48829   0.49395
 Alpha virt. eigenvalues --    0.50755   0.51620   0.53925   0.55224   0.55464
 Alpha virt. eigenvalues --    0.57216   0.57292   0.59105   0.63032   0.63504
 Alpha virt. eigenvalues --    0.63826   0.65165   0.66577   0.66762   0.70298
 Alpha virt. eigenvalues --    0.71417   0.72871   0.74533   0.74699   0.75523
 Alpha virt. eigenvalues --    0.76067   0.78022   0.80407   0.80609   0.81949
 Alpha virt. eigenvalues --    0.82944   0.83897   0.85594   0.88577   0.90039
 Alpha virt. eigenvalues --    0.90304   0.90543   0.92171   0.94721   0.95044
 Alpha virt. eigenvalues --    0.97200   0.97508   0.99519   0.99832   1.00369
 Alpha virt. eigenvalues --    1.00716   1.04196   1.06169   1.07295   1.11717
 Alpha virt. eigenvalues --    1.11823   1.13034   1.14927   1.16718   1.18217
 Alpha virt. eigenvalues --    1.20415   1.23474   1.24578   1.25344   1.27023
 Alpha virt. eigenvalues --    1.27780   1.28836   1.30771   1.31012   1.31919
 Alpha virt. eigenvalues --    1.33196   1.33560   1.36504   1.38512   1.40252
 Alpha virt. eigenvalues --    1.41031   1.43519   1.44430   1.44620   1.46184
 Alpha virt. eigenvalues --    1.48957   1.48996   1.50597   1.50928   1.52606
 Alpha virt. eigenvalues --    1.53810   1.54361   1.56904   1.57431   1.58310
 Alpha virt. eigenvalues --    1.59691   1.61592   1.62557   1.64476   1.65662
 Alpha virt. eigenvalues --    1.66376   1.68312   1.70131   1.72398   1.73034
 Alpha virt. eigenvalues --    1.75035   1.81143   1.81176   1.86154   1.87218
 Alpha virt. eigenvalues --    1.89670   1.89720   1.91099   1.92821   1.96830
 Alpha virt. eigenvalues --    1.99494   2.00906   2.03158   2.08630   2.09373
 Alpha virt. eigenvalues --    2.12481   2.13819   2.15123   2.16277   2.18794
 Alpha virt. eigenvalues --    2.20204   2.21972   2.26313   2.28253   2.28456
 Alpha virt. eigenvalues --    2.29836   2.31561   2.36860   2.41454   2.43243
 Alpha virt. eigenvalues --    2.45762   2.50501   2.54475   2.57329   2.57756
 Alpha virt. eigenvalues --    2.59264   2.59760   2.61778   2.63104   2.63580
 Alpha virt. eigenvalues --    2.64991   2.67362   2.69328   2.69660   2.70575
 Alpha virt. eigenvalues --    2.72395   2.73642   2.75006   2.76443   2.79663
 Alpha virt. eigenvalues --    2.79952   2.80446   2.80487   2.82534   2.86129
 Alpha virt. eigenvalues --    2.86257   2.87669   2.89496   2.91212   2.93210
 Alpha virt. eigenvalues --    2.94758   2.94857   2.97371   3.01563   3.01821
 Alpha virt. eigenvalues --    3.03502   3.07480   3.10051   3.10798   3.10987
 Alpha virt. eigenvalues --    3.11931   3.12620   3.14703   3.15254   3.16099
 Alpha virt. eigenvalues --    3.16735   3.17229   3.19569   3.19896   3.21139
 Alpha virt. eigenvalues --    3.21970   3.23307   3.24269   3.25330   3.27276
 Alpha virt. eigenvalues --    3.28528   3.29860   3.30589   3.31873   3.34084
 Alpha virt. eigenvalues --    3.36786   3.37423   3.37715   3.38947   3.40941
 Alpha virt. eigenvalues --    3.43529   3.43914   3.44218   3.47473   3.48310
 Alpha virt. eigenvalues --    3.48518   3.49291   3.50438   3.53114   3.55834
 Alpha virt. eigenvalues --    3.56366   3.59201   3.59433   3.60426   3.67256
 Alpha virt. eigenvalues --    3.68100   3.73904   3.76468   3.78369   3.79819
 Alpha virt. eigenvalues --    3.83657   3.87466   3.89208   3.93547   3.95134
 Alpha virt. eigenvalues --    3.98424   4.00491   4.05839   4.07120   4.11457
 Alpha virt. eigenvalues --    4.13109   4.15492   4.15919   4.18826   4.18886
 Alpha virt. eigenvalues --    4.25215   4.26235   4.26872   4.31461   4.34165
 Alpha virt. eigenvalues --    4.38704   4.39828   4.49689   4.51096   4.53320
 Alpha virt. eigenvalues --    4.54339   4.62976   4.64288   4.64754   4.72396
 Alpha virt. eigenvalues --    4.72784   4.73811   4.77300   4.81575   4.83599
 Alpha virt. eigenvalues --    4.87422   4.89974   4.97408   4.99225   5.05765
 Alpha virt. eigenvalues --    5.10014   5.16893   5.18746   5.21892   5.26681
 Alpha virt. eigenvalues --    5.34834   5.38085   5.43555   5.53568   5.60296
 Alpha virt. eigenvalues --    5.69055   5.93380   6.02061  22.30266  22.53429
 Alpha virt. eigenvalues --   22.70656  22.73607  22.89360  22.98317  23.04528
 Alpha virt. eigenvalues --   23.62922  32.48568  34.49022  34.57387  34.82858
 Alpha virt. eigenvalues --   42.88105 117.59520
          Condensed to atoms (all electrons):
               1          2          3          4          5          6
     1  I   24.978117   0.326167  -0.100717   0.028644  -0.005172  -0.000024
     2  C    0.326167   4.908599   0.385964   0.026493  -0.064242   0.003113
     3  C   -0.100717   0.385964   5.196485   0.406285  -0.034379  -0.001613
     4  C    0.028644   0.026493   0.406285   5.147077   0.428293  -0.046571
     5  C   -0.005172  -0.064242  -0.034379   0.428293   4.914176   0.390298
     6  N   -0.000024   0.003113  -0.001613  -0.046571   0.390298   6.414379
     7  C    0.000015   0.000627  -0.002466   0.010696  -0.116300   0.382201
     8  C   -0.000785  -0.003945   0.008755   0.006153  -0.029106  -0.098348
     9  C    0.025849  -0.013517  -0.076788  -0.008630   0.488476  -0.093676
    10  C   -0.093938   0.427420  -0.006873  -0.093080  -0.064306  -0.000323
    11  H   -0.012243  -0.053357   0.430214  -0.045682   0.010404  -0.000124
    12  H   -0.000278  -0.001005  -0.009655   0.379195  -0.017857   0.000501
    13  H   -0.000004  -0.000139   0.000482  -0.008579  -0.042331   0.389862
    14  H   -0.000001  -0.000009   0.000054  -0.000388   0.005838  -0.031310
    15  H    0.000015  -0.000460   0.000195  -0.000460   0.012653   0.003368
    16  H   -0.014186  -0.039873   0.012552  -0.004594   0.012259  -0.000144
               7          8          9         10         11         12
     1  I    0.000015  -0.000785   0.025849  -0.093938  -0.012243  -0.000278
     2  C    0.000627  -0.003945  -0.013517   0.427420  -0.053357  -0.001005
     3  C   -0.002466   0.008755  -0.076788  -0.006873   0.430214  -0.009655
     4  C    0.010696   0.006153  -0.008630  -0.093080  -0.045682   0.379195
     5  C   -0.116300  -0.029106   0.488476  -0.064306   0.010404  -0.017857
     6  N    0.382201  -0.098348  -0.093676  -0.000323  -0.000124   0.000501
     7  C    4.895133   0.619069  -0.111659   0.011061   0.000045   0.000292
     8  C    0.619069   5.070552   0.433738  -0.096924   0.000037  -0.000958
     9  C   -0.111659   0.433738   4.882778   0.353765  -0.002882   0.004237
    10  C    0.011061  -0.096924   0.353765   5.452541   0.013543   0.001236
    11  H    0.000045   0.000037  -0.002882   0.013543   0.483028  -0.002902
    12  H    0.000292  -0.000958   0.004237   0.001236  -0.002902   0.474489
    13  H   -0.035989   0.005968   0.011680  -0.000169   0.000000   0.001782
    14  H    0.412080  -0.024958   0.004851   0.000036   0.000000  -0.000002
    15  H   -0.033740   0.419352  -0.033259  -0.004105  -0.000001   0.000010
    16  H   -0.000791   0.001286  -0.020842   0.393119   0.000073   0.000051
              13         14         15         16
     1  I   -0.000004  -0.000001   0.000015  -0.014186
     2  C   -0.000139  -0.000009  -0.000460  -0.039873
     3  C    0.000482   0.000054   0.000195   0.012552
     4  C   -0.008579  -0.000388  -0.000460  -0.004594
     5  C   -0.042331   0.005838   0.012653   0.012259
     6  N    0.389862  -0.031310   0.003368  -0.000144
     7  C   -0.035989   0.412080  -0.033740  -0.000791
     8  C    0.005968  -0.024958   0.419352   0.001286
     9  C    0.011680   0.004851  -0.033259  -0.020842
    10  C   -0.000169   0.000036  -0.004105   0.393119
    11  H    0.000000   0.000000  -0.000001   0.000073
    12  H    0.001782  -0.000002   0.000010   0.000051
    13  H    0.410878  -0.003252  -0.000078   0.000020
    14  H   -0.003252   0.454427  -0.001101  -0.000002
    15  H   -0.000078  -0.001101   0.476497   0.002502
    16  H    0.000020  -0.000002   0.002502   0.477285
 Mulliken charges:
               1
     1  I   -0.131459
     2  C    0.098164
     3  C   -0.208494
     4  C   -0.224850
     5  C    0.111296
     6  N   -0.311589
     7  C   -0.030273
     8  C   -0.309885
     9  C    0.155878
    10  C   -0.293004
    11  H    0.179848
    12  H    0.170864
    13  H    0.269869
    14  H    0.183737
    15  H    0.158612
    16  H    0.181286
 Sum of Mulliken charges =  -0.00000
 Mulliken charges with hydrogens summed into heavy atoms:
               1
     1  I   -0.131459
     2  C    0.098164
     3  C   -0.028646
     4  C   -0.053986
     5  C    0.111296
     6  N   -0.041720
     7  C    0.153463
     8  C   -0.151273
     9  C    0.155878
    10  C   -0.111718
 Electronic spatial extent (au):  <R**2>=           2446.0578
 Charge=             -0.0000 electrons
 Dipole moment (field-independent basis, Debye):
    X=             -4.8182    Y=              1.3838    Z=             -0.0000  Tot=              5.0130
 Quadrupole moment (field-independent basis, Debye-Ang):
   XX=            -57.9428   YY=            -70.0640   ZZ=            -84.9555
   XY=             -5.3488   XZ=              0.0003   YZ=              0.0001
 Traceless Quadrupole moment (field-independent basis, Debye-Ang):
   XX=             13.0447   YY=              0.9234   ZZ=            -13.9681
   XY=             -5.3488   XZ=              0.0003   YZ=              0.0001
 Octapole moment (field-independent basis, Debye-Ang**2):
  XXX=              0.6017  YYY=              1.9525  ZZZ=             -0.0036  XYY=             17.3660
  XXY=             19.4773  XXZ=             -0.0025  XZZ=             48.6805  YZZ=             -1.4373
  YYZ=             -0.0000  XYZ=              0.0000
 Hexadecapole moment (field-independent basis, Debye-Ang**3):
 XXXX=          -2264.8332 YYYY=           -461.6370 ZZZZ=           -107.2081 XXXY=           -123.9985
 XXXZ=              0.0377 YYYX=            -38.6394 YYYZ=             -0.0017 ZZZX=              0.0371
 ZZZY=             -0.0029 XXYY=           -509.1184 XXZZ=           -562.0734 YYZZ=           -117.9831
 XXYZ=             -0.0006 YYXZ=              0.0093 ZZXY=            -13.9047
 N-N= 5.873372339915D+02 E-N=-2.649011979755D+03  KE= 4.746611469723D+02
 Calculating spin-rotation constants.
 Leave Link  601 at Tue Sep 17 10:35:33 2024, MaxMem=  1342177280 cpu:               2.7 elap:               2.7
 (Enter /groups/ReismanLab/Software/Gaussian16_RevC/Linux_Binary_AVX2-enabled-CPU/g16/l9999.exe)
 Unable to Open any file for archive entry.
 1\1\GINC-HPC-20-21\SP\RM062X\def2TZVP\C8H6I1N1\MANTIND\17-Sep-2024\0\\
 #p M062X/def2tzvp geom=check guess=read scf(xqc,tight) integral(grid=u
 ltrafine) scrf(SMD, solvent=1,4-Dioxane) nmr=giao\\spe\\0,1\I,0,2.1286
 714425,0.107819867,0.0000918564\C,0,0.0030506627,-0.1998938338,0.00003
 92318\C,0,-0.4807597865,-1.5218786166,0.0000071725\C,0,-1.8495939563,-
 1.7629085726,-0.0000373812\C,0,-2.7081656015,-0.6608621386,-0.00003270
 6\N,0,-4.0857262993,-0.5933991483,-0.0001094124\C,0,-4.4794020557,0.73
 30287364,-0.0000076634\C,0,-3.3718901386,1.5402202084,-0.000050045\C,0
 ,-2.2228109504,0.6777638282,0.0000004909\C,0,-0.8353429077,0.903095285
 9,0.0000300439\H,0,0.2137036731,-2.3531629647,0.0000034\H,0,-2.2300700
 193,-2.7799306386,-0.0000747161\H,0,-4.7076756608,-1.3846257298,-0.000
 03362\H,0,-5.5280008408,0.9925167289,0.0000003445\H,0,-3.371551536,2.6
 202016769,-0.0000579637\H,0,-0.4386493257,1.9116710672,0.0000381619\\V
 ersion=ES64L-G16RevC.02\State=1-A\HF=-660.8360876\RMSD=2.091e-09\Dipol
 e=-1.8989792,-0.5326641,0.0000088\Quadrupole=9.7473752,0.6375336,-10.3
 849088,3.9204486,-0.0002086,0.0000639\PG=C01 [X(C8H6I1N1)]\\@
 The archive entry for this job was punched.


 YOU KNOW YOU'VE SPOKEN TOO LONG WHEN THE AUDIENCE STOPS LOOKING AT
 THEIR WATCHES AND STARTS SHAKING THEM.
 Job cpu time:       0 days  0 hours 10 minutes 36.2 seconds.
 Elapsed time:       0 days  0 hours 10 minutes 38.9 seconds.
 File lengths (MBytes):  RWF=    240 Int=      0 D2E=      0 Chk=     24 Scr=     16
 Normal termination of Gaussian 16 at Tue Sep 17 10:35:33 2024.
