 Entering Gaussian System, Link 0=g16
 Input=smiles_00013_conf_0.gjf
 Output=smiles_00013_conf_0.log
 Initial command:
 /groups/ReismanLab/Software/Gaussian16_RevC/Linux_Binary_AVX2-enabled-CPU/g16/l1.exe "/central/groups/ReismanLab/DM/dft_final/smiles_00013/Gau-110615.inp" -scrdir="/central/groups/ReismanLab/DM/dft_final/smiles_00013/"
 Entering Link 1 = /groups/ReismanLab/Software/Gaussian16_RevC/Linux_Binary_AVX2-enabled-CPU/g16/l1.exe PID=    110620.
  
 Copyright (c) 1988-2021, Gaussian, Inc.  All Rights Reserved.
  
 This is part of the Gaussian(R) 16 program.  It is based on
 the Gaussian(R) 09 system (copyright 2009, Gaussian, Inc.),
 the Gaussian(R) 03 system (copyright 2003, Gaussian, Inc.),
 the Gaussian(R) 98 system (copyright 1998, Gaussian, Inc.),
 the Gaussian(R) 94 system (copyright 1995, Gaussian, Inc.),
 the Gaussian 92(TM) system (copyright 1992, Gaussian, Inc.),
 the Gaussian 90(TM) system (copyright 1990, Gaussian, Inc.),
 the Gaussian 88(TM) system (copyright 1988, Gaussian, Inc.),
 the Gaussian 86(TM) system (copyright 1986, Carnegie Mellon
 University), and the Gaussian 82(TM) system (copyright 1983,
 Carnegie Mellon University). Gaussian is a federally registered
 trademark of Gaussian, Inc.
  
 This software contains proprietary and confidential information,
 including trade secrets, belonging to Gaussian, Inc.
  
 This software is provided under written license and may be
 used, copied, transmitted, or stored only in accord with that
 written license.
  
 The following legend is applicable only to US Government
 contracts under FAR:
  
                    RESTRICTED RIGHTS LEGEND
  
 Use, reproduction and disclosure by the US Government is
 subject to restrictions as set forth in subparagraphs (a)
 and (c) of the Commercial Computer Software - Restricted
 Rights clause in FAR 52.227-19.
  
 Gaussian, Inc.
 340 Quinnipiac St., Bldg. 40, Wallingford CT 06492
  
  
 ---------------------------------------------------------------
 Warning -- This program may not be used in any manner that
 competes with the business of Gaussian, Inc. or will provide
 assistance to any competitor of Gaussian, Inc.  The licensee
 of this program is prohibited from giving any competitor of
 Gaussian, Inc. access to this program.  By using this program,
 the user acknowledges that Gaussian, Inc. is engaged in the
 business of creating and licensing software in the field of
 computational chemistry and represents and warrants to the
 licensee that it is not a competitor of Gaussian, Inc. and that
 it will not use this program in any manner prohibited above.
 ---------------------------------------------------------------
  

 Cite this work as:
 Gaussian 16, Revision C.02,
 M. J. Frisch, G. W. Trucks, H. B. Schlegel, G. E. Scuseria, 
 M. A. Robb, J. R. Cheeseman, G. Scalmani, V. Barone, 
 G. A. Petersson, H. Nakatsuji, X. Li, M. Caricato, A. V. Marenich, 
 J. Bloino, B. G. Janesko, R. Gomperts, B. Mennucci, H. P. Hratchian, 
 J. V. Ortiz, A. F. Izmaylov, J. L. Sonnenberg, D. Williams-Young, 
 F. Ding, F. Lipparini, F. Egidi, J. Goings, B. Peng, A. Petrone, 
 T. Henderson, D. Ranasinghe, V. G. Zakrzewski, J. Gao, N. Rega, 
 G. Zheng, W. Liang, M. Hada, M. Ehara, K. Toyota, R. Fukuda, 
 J. Hasegawa, M. Ishida, T. Nakajima, Y. Honda, O. Kitao, H. Nakai, 
 T. Vreven, K. Throssell, J. A. Montgomery, Jr., J. E. Peralta, 
 F. Ogliaro, M. J. Bearpark, J. J. Heyd, E. N. Brothers, K. N. Kudin, 
 V. N. Staroverov, T. A. Keith, R. Kobayashi, J. Normand, 
 K. Raghavachari, A. P. Rendell, J. C. Burant, S. S. Iyengar, 
 J. Tomasi, M. Cossi, J. M. Millam, M. Klene, C. Adamo, R. Cammi, 
 J. W. Ochterski, R. L. Martin, K. Morokuma, O. Farkas, 
 J. B. Foresman, and D. J. Fox, Gaussian, Inc., Wallingford CT, 2019.
 
 ******************************************
 Gaussian 16:  ES64L-G16RevC.02  7-Dec-2021
                17-Sep-2024 
 ******************************************
 %nprocshared=8
 Will use up to    8 processors via shared memory.
 %Mem=10GB
 %Chk=smiles_00013_conf_0.chk
 ----------------------------------------------------------------------
 #p B3LYP/6-31G(d,p) EmpiricalDispersion=GD3BJ opt freq scf(xqc,tight) 
 integral(grid=ultrafine)
 ----------------------------------------------------------------------
 1/18=20,19=15,26=4,38=1/1,3;
 2/9=110,12=2,17=6,18=5,40=1/2;
 3/5=1,6=6,7=101,11=2,25=1,30=1,71=1,74=-5,75=-5,124=41/1,2,3;
 4//1;
 5/5=2,8=3,13=1,32=2,38=5/2,8;
 6/7=2,8=2,9=2,10=2,28=1/1;
 7//1,2,3,16;
 1/18=20,19=15,26=4/3(2);
 2/9=110/2;
 99//99;
 2/9=110/2;
 3/5=1,6=6,7=101,11=2,25=1,30=1,71=1,74=-5,75=-5,124=41/1,2,3;
 4/5=5,16=3,69=1/1;
 5/5=2,8=3,13=1,32=2,38=5/2,8;
 7//1,2,3,16;
 1/18=20,19=15,26=4/3(-5);
 2/9=110/2;
 6/7=2,8=2,9=2,10=2,19=2,28=1/1;
 99/9=1/99;
 Leave Link    1 at Tue Sep 17 09:46:07 2024, MaxMem=  1342177280 cpu:               0.0 elap:               1.0
 (Enter /groups/ReismanLab/Software/Gaussian16_RevC/Linux_Binary_AVX2-enabled-CPU/g16/l101.exe)
 ----------------------------------
 opt-freq conformers_unique/conf_aa
 ----------------------------------
 Symbolic Z-matrix:
 Charge =  0 Multiplicity = 1
 C                     4.45969  -0.68234  -0.0002 
 O                     3.60457   0.43638   0.00003 
 C                     2.26276   0.23284   0.00018 
 C                     1.64393  -1.01394   0.00015 
 C                     0.26213  -1.10354   0.00002 
 C                    -0.5001    0.04828  -0.00007 
 Br                   -2.40154  -0.08297  -0.00001 
 C                     0.09868   1.29862  -0.00006 
 C                     1.47342   1.38644   0.00005 
 H                     5.47065  -0.27851  -0.00035 
 H                     4.31647  -1.29755   0.8937 
 H                     4.31624  -1.29744  -0.89413 
 H                     2.22143  -1.92439   0.00025 
 H                    -0.21495  -2.0716    0.00021 
 H                    -0.50621   2.19208   0.00001 
 H                     1.96617   2.34535   0.00004 
 
 ITRead=  0  0  0  0  0  0  0  0  0  0  0  0  0  0  0  0
 MicOpt= -1 -1 -1 -1 -1 -1 -1 -1 -1 -1 -1 -1 -1 -1 -1 -1
 NAtoms=     16 NQM=       16 NQMF=       0 NMMI=      0 NMMIF=      0
                NMic=       0 NMicF=      0.
                    Isotopes and Nuclear Properties:
 (Nuclear quadrupole moments (NQMom) in fm**2, nuclear magnetic moments (NMagM)
  in nuclear magnetons)

  Atom         1           2           3           4           5           6           7           8           9          10
 IAtWgt=          12          16          12          12          12          12          79          12          12           1
 AtmWgt=  12.0000000  15.9949146  12.0000000  12.0000000  12.0000000  12.0000000  78.9183361  12.0000000  12.0000000   1.0078250
 NucSpn=           0           0           0           0           0           0           3           0           0           1
 AtZEff=  -0.0000000  -0.0000000  -0.0000000  -0.0000000  -0.0000000  -0.0000000  -0.0000000  -0.0000000  -0.0000000  -0.0000000
 NQMom=    0.0000000   0.0000000   0.0000000   0.0000000   0.0000000   0.0000000  31.3000000   0.0000000   0.0000000   0.0000000
 NMagM=    0.0000000   0.0000000   0.0000000   0.0000000   0.0000000   0.0000000   2.1063990   0.0000000   0.0000000   2.7928460
 AtZNuc=   6.0000000   8.0000000   6.0000000   6.0000000   6.0000000   6.0000000  35.0000000   6.0000000   6.0000000   1.0000000

  Atom        11          12          13          14          15          16
 IAtWgt=           1           1           1           1           1           1
 AtmWgt=   1.0078250   1.0078250   1.0078250   1.0078250   1.0078250   1.0078250
 NucSpn=           1           1           1           1           1           1
 AtZEff=  -0.0000000  -0.0000000  -0.0000000  -0.0000000  -0.0000000  -0.0000000
 NQMom=    0.0000000   0.0000000   0.0000000   0.0000000   0.0000000   0.0000000
 NMagM=    2.7928460   2.7928460   2.7928460   2.7928460   2.7928460   2.7928460
 AtZNuc=   1.0000000   1.0000000   1.0000000   1.0000000   1.0000000   1.0000000
 Leave Link  101 at Tue Sep 17 09:46:07 2024, MaxMem=  1342177280 cpu:               0.1 elap:               0.2
 (Enter /groups/ReismanLab/Software/Gaussian16_RevC/Linux_Binary_AVX2-enabled-CPU/g16/l103.exe)

 GradGradGradGradGradGradGradGradGradGradGradGradGradGradGradGradGradGrad
 Berny optimization.
 Initialization pass.
                           ----------------------------
                           !    Initial Parameters    !
                           ! (Angstroms and Degrees)  !
 --------------------------                            --------------------------
 ! Name  Definition              Value          Derivative Info.                !
 --------------------------------------------------------------------------------
 ! R1    R(1,2)                  1.4081         estimate D2E/DX2                !
 ! R2    R(1,10)                 1.0886         estimate D2E/DX2                !
 ! R3    R(1,11)                 1.0946         estimate D2E/DX2                !
 ! R4    R(1,12)                 1.0945         estimate D2E/DX2                !
 ! R5    R(2,3)                  1.3572         estimate D2E/DX2                !
 ! R6    R(3,4)                  1.3919         estimate D2E/DX2                !
 ! R7    R(3,9)                  1.3978         estimate D2E/DX2                !
 ! R8    R(4,5)                  1.3847         estimate D2E/DX2                !
 ! R9    R(4,13)                 1.0782         estimate D2E/DX2                !
 ! R10   R(5,6)                  1.3812         estimate D2E/DX2                !
 ! R11   R(5,14)                 1.0792         estimate D2E/DX2                !
 ! R12   R(6,7)                  1.906          estimate D2E/DX2                !
 ! R13   R(6,8)                  1.3863         estimate D2E/DX2                !
 ! R14   R(8,9)                  1.3775         estimate D2E/DX2                !
 ! R15   R(8,15)                 1.079          estimate D2E/DX2                !
 ! R16   R(9,16)                 1.0781         estimate D2E/DX2                !
 ! A1    A(2,1,10)             105.6192         estimate D2E/DX2                !
 ! A2    A(2,1,11)             111.5282         estimate D2E/DX2                !
 ! A3    A(2,1,12)             111.5318         estimate D2E/DX2                !
 ! A4    A(10,1,11)            109.2762         estimate D2E/DX2                !
 ! A5    A(10,1,12)            109.2726         estimate D2E/DX2                !
 ! A6    A(11,1,12)            109.5099         estimate D2E/DX2                !
 ! A7    A(1,2,3)              118.7681         estimate D2E/DX2                !
 ! A8    A(2,3,4)              125.0227         estimate D2E/DX2                !
 ! A9    A(2,3,9)              115.7565         estimate D2E/DX2                !
 ! A10   A(4,3,9)              119.2208         estimate D2E/DX2                !
 ! A11   A(3,4,5)              120.1075         estimate D2E/DX2                !
 ! A12   A(3,4,13)             121.2155         estimate D2E/DX2                !
 ! A13   A(5,4,13)             118.6771         estimate D2E/DX2                !
 ! A14   A(4,5,6)              119.7849         estimate D2E/DX2                !
 ! A15   A(4,5,14)             119.9453         estimate D2E/DX2                !
 ! A16   A(6,5,14)             120.2698         estimate D2E/DX2                !
 ! A17   A(5,6,7)              119.5464         estimate D2E/DX2                !
 ! A18   A(5,6,8)              120.9156         estimate D2E/DX2                !
 ! A19   A(7,6,8)              119.538          estimate D2E/DX2                !
 ! A20   A(6,8,9)              119.2444         estimate D2E/DX2                !
 ! A21   A(6,8,15)             120.3121         estimate D2E/DX2                !
 ! A22   A(9,8,15)             120.4435         estimate D2E/DX2                !
 ! A23   A(3,9,8)              120.7269         estimate D2E/DX2                !
 ! A24   A(3,9,16)             118.4211         estimate D2E/DX2                !
 ! A25   A(8,9,16)             120.852          estimate D2E/DX2                !
 ! D1    D(10,1,2,3)           179.9966         estimate D2E/DX2                !
 ! D2    D(11,1,2,3)           -61.3982         estimate D2E/DX2                !
 ! D3    D(12,1,2,3)            61.394          estimate D2E/DX2                !
 ! D4    D(1,2,3,4)              0.001          estimate D2E/DX2                !
 ! D5    D(1,2,3,9)           -179.9837         estimate D2E/DX2                !
 ! D6    D(2,3,4,5)           -179.9856         estimate D2E/DX2                !
 ! D7    D(2,3,4,13)             0.0153         estimate D2E/DX2                !
 ! D8    D(9,3,4,5)             -0.0014         estimate D2E/DX2                !
 ! D9    D(9,3,4,13)           179.9996         estimate D2E/DX2                !
 ! D10   D(2,3,9,8)            179.9883         estimate D2E/DX2                !
 ! D11   D(2,3,9,16)            -0.0124         estimate D2E/DX2                !
 ! D12   D(4,3,9,8)              0.0026         estimate D2E/DX2                !
 ! D13   D(4,3,9,16)          -179.9981         estimate D2E/DX2                !
 ! D14   D(3,4,5,6)             -0.0004         estimate D2E/DX2                !
 ! D15   D(3,4,5,14)          -179.987          estimate D2E/DX2                !
 ! D16   D(13,4,5,6)           179.9987         estimate D2E/DX2                !
 ! D17   D(13,4,5,14)            0.0121         estimate D2E/DX2                !
 ! D18   D(4,5,6,7)           -179.9917         estimate D2E/DX2                !
 ! D19   D(4,5,6,8)              0.0009         estimate D2E/DX2                !
 ! D20   D(14,5,6,7)            -0.0051         estimate D2E/DX2                !
 ! D21   D(14,5,6,8)           179.9875         estimate D2E/DX2                !
 ! D22   D(5,6,8,9)              0.0003         estimate D2E/DX2                !
 ! D23   D(5,6,8,15)          -179.9912         estimate D2E/DX2                !
 ! D24   D(7,6,8,9)            179.9929         estimate D2E/DX2                !
 ! D25   D(7,6,8,15)             0.0014         estimate D2E/DX2                !
 ! D26   D(6,8,9,3)             -0.0021         estimate D2E/DX2                !
 ! D27   D(6,8,9,16)           179.9986         estimate D2E/DX2                !
 ! D28   D(15,8,9,3)           179.9894         estimate D2E/DX2                !
 ! D29   D(15,8,9,16)           -0.0099         estimate D2E/DX2                !
 --------------------------------------------------------------------------------
 Trust Radius=3.00D-01 FncErr=1.00D-07 GrdErr=1.00D-06 EigMax=2.50D+02 EigMin=1.00D-04
 Number of steps in this run=     80 maximum allowed number of steps=    100.
 GradGradGradGradGradGradGradGradGradGradGradGradGradGradGradGradGradGrad

 Leave Link  103 at Tue Sep 17 09:46:07 2024, MaxMem=  1342177280 cpu:               0.0 elap:               0.0
 (Enter /groups/ReismanLab/Software/Gaussian16_RevC/Linux_Binary_AVX2-enabled-CPU/g16/l202.exe)
                          Input orientation:                          
 ---------------------------------------------------------------------
 Center     Atomic      Atomic             Coordinates (Angstroms)
 Number     Number       Type             X           Y           Z
 ---------------------------------------------------------------------
      1          6           0        4.459690   -0.682338   -0.000200
      2          8           0        3.604570    0.436376    0.000030
      3          6           0        2.262763    0.232840    0.000183
      4          6           0        1.643928   -1.013940    0.000153
      5          6           0        0.262132   -1.103543    0.000021
      6          6           0       -0.500101    0.048282   -0.000073
      7         35           0       -2.401536   -0.082967   -0.000014
      8          6           0        0.098676    1.298620   -0.000056
      9          6           0        1.473415    1.386436    0.000050
     10          1           0        5.470648   -0.278511   -0.000351
     11          1           0        4.316471   -1.297553    0.893698
     12          1           0        4.316236   -1.297442   -0.894125
     13          1           0        2.221433   -1.924391    0.000245
     14          1           0       -0.214950   -2.071600    0.000210
     15          1           0       -0.506206    2.192079    0.000013
     16          1           0        1.966169    2.345354    0.000043
 ---------------------------------------------------------------------
                    Distance matrix (angstroms):
                    1          2          3          4          5
     1  C    0.000000
     2  O    1.408102   0.000000
     3  C    2.379924   1.357156   0.000000
     4  C    2.835220   2.438756   1.391911   0.000000
     5  C    4.218638   3.680114   2.405918   1.384698   0.000000
     6  C    5.013315   4.122977   2.769021   2.392734   1.381195
     7  Br   6.887355   6.028517   4.674977   4.151204   2.852490
     8  C    4.789847   3.610367   2.412293   2.781320   2.407718
     9  C    3.632859   2.333331   1.397803   2.406425   2.768971
    10  H    1.088629   1.998327   3.248385   3.896747   5.273454
    11  H    1.094557   2.076526   2.712599   2.832198   4.156196
    12  H    1.094548   2.076561   2.712619   2.832196   4.156062
    13  H    2.559783   2.736108   2.157626   1.078161   2.124300
    14  H    4.876711   4.569319   3.383711   2.138708   1.079232
    15  H    5.737805   4.470008   3.392022   3.860265   3.384002
    16  H    3.922316   2.515662   2.133233   3.374714   3.846899
                    6          7          8          9         10
     6  C    0.000000
     7  Br   1.905960   0.000000
     8  C    1.386319   2.856544   0.000000
     9  C    2.384412   4.144200   1.377541   0.000000
    10  H    5.979685   7.874612   5.598698   4.330117   0.000000
    11  H    5.080302   6.885170   5.032764   4.010658   1.780420
    12  H    5.080098   6.884972   5.032564   4.010533   1.780371
    13  H    3.361277   4.976212   3.859261   3.394275   3.642296
    14  H    2.138974   2.955642   3.384781   3.848193   5.961643
    15  H    2.143806   2.961099   1.078959   2.137280   6.467349
    16  H    3.370315   4.997358   2.140836   1.078114   4.377903
                   11         12         13         14         15
    11  H    0.000000
    12  H    1.787823   0.000000
    13  H    2.362281   2.362448   0.000000
    14  H    4.683081   4.683033   2.440826   0.000000
    15  H    6.019504   6.019318   4.938152   4.273616   0.000000
    16  H    4.426434   4.426321   4.277369   4.926130   2.477122
                   16
    16  H    0.000000
 Stoichiometry    C7H7BrO
 Framework group  C1[X(C7H7BrO)]
 Deg. of freedom    42
 Full point group                 C1      NOp   1
 Largest Abelian subgroup         C1      NOp   1
 Largest concise Abelian subgroup C1      NOp   1
                         Standard orientation:                         
 ---------------------------------------------------------------------
 Center     Atomic      Atomic             Coordinates (Angstroms)
 Number     Number       Type             X           Y           Z
 ---------------------------------------------------------------------
      1          6           0       -4.245679   -0.612106    0.000199
      2          8           0       -3.374266    0.493964   -0.000030
      3          6           0       -2.035584    0.270798   -0.000184
      4          6           0       -1.435076   -0.984912   -0.000153
      5          6           0       -0.054740   -1.094742   -0.000021
      6          6           0        0.724280    0.045796    0.000073
      7         35           0        2.623589   -0.113286    0.000013
      8          6           0        0.143879    1.304770    0.000056
      9          6           0       -1.229427    1.412710   -0.000050
     10          1           0       -5.250614   -0.193516    0.000350
     11          1           0       -4.111486   -1.229353   -0.893699
     12          1           0       -4.111249   -1.229246    0.894124
     13          1           0       -2.025853   -1.886807   -0.000246
     14          1           0        0.408113   -2.069682   -0.000210
     15          1           0        0.761782    2.189274   -0.000014
     16          1           0       -1.708083    2.378742   -0.000044
 ---------------------------------------------------------------------
 Rotational constants (GHZ):           4.8765441           0.4577804           0.4196140
 Leave Link  202 at Tue Sep 17 09:46:07 2024, MaxMem=  1342177280 cpu:               0.0 elap:               0.0
 (Enter /groups/ReismanLab/Software/Gaussian16_RevC/Linux_Binary_AVX2-enabled-CPU/g16/l301.exe)
 Standard basis: 6-31G(d,p) (6D, 7F)
 Ernie: Thresh=  0.10000D-02 Tol=  0.10000D-05 Strict=F.
 There are   185 symmetry adapted cartesian basis functions of A   symmetry.
 There are   185 symmetry adapted basis functions of A   symmetry.
   185 basis functions,   356 primitive gaussians,   185 cartesian basis functions
    46 alpha electrons       46 beta electrons
       nuclear repulsion energy       618.4415811243 Hartrees.
 IExCor=  402 DFT=T Ex+Corr=B3LYP ExCW=0 ScaHFX=  0.200000
 ScaDFX=  0.800000  0.720000  1.000000  0.810000 ScalE2=  1.000000  1.000000
 IRadAn=      5 IRanWt=     -1 IRanGd=            0 ICorTp=0 IEmpDi=141
 NAtoms=   16 NActive=   16 NUniq=   16 SFac= 1.00D+00 NAtFMM=   60 NAOKFM=F Big=F
 Integral buffers will be    131072 words long.
 Raffenetti 2 integral format.
 Two-electron integral symmetry is turned on.
 R6Disp:  Grimme-D3(BJ) Dispersion energy=       -0.0303789328 Hartrees.
 Nuclear repulsion after empirical dispersion term =      618.4112021915 Hartrees.
 Leave Link  301 at Tue Sep 17 09:46:07 2024, MaxMem=  1342177280 cpu:               0.1 elap:               0.0
 (Enter /groups/ReismanLab/Software/Gaussian16_RevC/Linux_Binary_AVX2-enabled-CPU/g16/l302.exe)
 NPDir=0 NMtPBC=     1 NCelOv=     1 NCel=       1 NClECP=     1 NCelD=      1
         NCelK=      1 NCelE2=     1 NClLst=     1 CellRange=     0.0.
 One-electron integrals computed using PRISM.
 One-electron integral symmetry used in STVInt
 NBasis=   185 RedAO= T EigKep=  4.18D-04  NBF=   185
 NBsUse=   185 1.00D-06 EigRej= -1.00D+00 NBFU=   185
 Precomputing XC quadrature grid using
 IXCGrd= 4 IRadAn=           5 IRanWt=          -1 IRanGd=           0 AccXCQ= 0.00D+00.
 Generated NRdTot=       0 NPtTot=           0 NUsed=           0 NTot=          32
 NSgBfM=   184   184   184   184   184 MxSgAt=    16 MxSgA2=    16.
 Leave Link  302 at Tue Sep 17 09:46:08 2024, MaxMem=  1342177280 cpu:               0.6 elap:               0.1
 (Enter /groups/ReismanLab/Software/Gaussian16_RevC/Linux_Binary_AVX2-enabled-CPU/g16/l303.exe)
 DipDrv:  MaxL=1.
 Leave Link  303 at Tue Sep 17 09:46:08 2024, MaxMem=  1342177280 cpu:               0.1 elap:               0.0
 (Enter /groups/ReismanLab/Software/Gaussian16_RevC/Linux_Binary_AVX2-enabled-CPU/g16/l401.exe)
 ExpMin= 1.43D-01 ExpMax= 5.74D+05 ExpMxC= 5.74D+03 IAcc=3 IRadAn=         5 AccDes= 0.00D+00
 Harris functional with IExCor=  402 and IRadAn=       5 diagonalized for initial guess.
 HarFok:  IExCor=  402 AccDes= 0.00D+00 IRadAn=         5 IDoV= 1 UseB2=F ITyADJ=14
 ICtDFT=  3500011 ScaDFX=  1.000000  1.000000  1.000000  1.000000
 FoFCou: FMM=F IPFlag=           0 FMFlag=      100000 FMFlg1=           0
         NFxFlg=           0 DoJE=T BraDBF=F KetDBF=T FulRan=T
         wScrn=  0.000000 ICntrl=       500 IOpCl=  0 I1Cent=   200000004 NGrid=           0
         NMat0=    1 NMatS0=      1 NMatT0=    0 NMatD0=    1 NMtDS0=    0 NMtDT0=    0
 Petite list used in FoFCou.
 Harris En= -2918.03844754260    
 JPrj=0 DoOrth=F DoCkMO=F.
 Leave Link  401 at Tue Sep 17 09:46:08 2024, MaxMem=  1342177280 cpu:               3.5 elap:               0.5
 (Enter /groups/ReismanLab/Software/Gaussian16_RevC/Linux_Binary_AVX2-enabled-CPU/g16/l502.exe)
 Integral symmetry usage will be decided dynamically.
 Closed shell SCF:
 Using DIIS extrapolation, IDIIS=  1040.
 NGot=  1342177280 LenX=  1342104960 LenY=  1342070294
 Requested convergence on RMS density matrix=1.00D-08 within  32 cycles.
 Requested convergence on MAX density matrix=1.00D-06.
 Requested convergence on             energy=1.00D-06.
 No special actions if energy rises.
 Fock matrices will be formed incrementally for  20 cycles.
 Integral accuracy reduced to 1.0D-05 until final iterations.

 Cycle   1  Pass 0  IDiag  1:
 FoFJK:  IHMeth= 1 ICntrl=       0 DoSepK=F KAlg= 0 I1Cent=           0 FoldK=F
 IRaf= 890000000 NMat=       1 IRICut=       1 DoRegI=T DoRafI=F ISym2E= 0 IDoP0=0 IntGTp=1.
 FoFCou: FMM=F IPFlag=           0 FMFlag=      100000 FMFlg1=           0
         NFxFlg=           0 DoJE=F BraDBF=F KetDBF=F FulRan=T
         wScrn=  0.000000 ICntrl=         0 IOpCl=  0 I1Cent=           0 NGrid=           0
         NMat0=    1 NMatS0=      1 NMatT0=    0 NMatD0=    1 NMtDS0=    0 NMtDT0=    0
 Symmetry not used in FoFCou.
 E= -2917.72967458278    
 DIIS: error= 1.84D-01 at cycle   1 NSaved=   1.
 NSaved= 1 IEnMin= 1 EnMin= -2917.72967458278     IErMin= 1 ErrMin= 1.84D-01
 ErrMax= 1.84D-01  0.00D+00 EMaxC= 1.00D-01 BMatC= 5.28D-01 BMatP= 5.28D-01
 IDIUse=3 WtCom= 0.00D+00 WtEn= 1.00D+00
 Coeff-Com:  0.100D+01
 Coeff-En:   0.100D+01
 Coeff:      0.100D+01
 Gap=     0.259 Goal=   None    Shift=    0.000
 GapD=    0.259 DampG=1.000 DampE=0.250 DampFc=0.2500 IDamp=-1.
 Damping current iteration by 2.50D-01
 RMSDP=5.38D-03 MaxDP=1.43D-01              OVMax= 1.57D-01

 Cycle   2  Pass 0  IDiag  1:
 RMSU=  1.29D-03    CP:  9.92D-01
 E= -2917.79567343686     Delta-E=       -0.065998854075 Rises=F Damp=T
 DIIS: error= 1.36D-01 at cycle   2 NSaved=   2.
 NSaved= 2 IEnMin= 2 EnMin= -2917.79567343686     IErMin= 2 ErrMin= 1.36D-01
 ErrMax= 1.36D-01  0.00D+00 EMaxC= 1.00D-01 BMatC= 2.40D-01 BMatP= 5.28D-01
 IDIUse=3 WtCom= 0.00D+00 WtEn= 1.00D+00
 Coeff-Com: -0.159D+01 0.259D+01
 Coeff-En:   0.000D+00 0.100D+01
 Coeff:      0.000D+00 0.100D+01
 Gap=     0.220 Goal=   None    Shift=    0.000
 RMSDP=2.96D-03 MaxDP=1.11D-01 DE=-6.60D-02 OVMax= 6.16D-02

 Cycle   3  Pass 0  IDiag  1:
 RMSU=  9.47D-04    CP:  9.69D-01  2.99D+00
 E= -2917.87717837364     Delta-E=       -0.081504936785 Rises=F Damp=F
 DIIS: error= 1.95D-02 at cycle   3 NSaved=   3.
 NSaved= 3 IEnMin= 3 EnMin= -2917.87717837364     IErMin= 3 ErrMin= 1.95D-02
 ErrMax= 1.95D-02  0.00D+00 EMaxC= 1.00D-01 BMatC= 3.81D-02 BMatP= 2.40D-01
 IDIUse=3 WtCom= 8.05D-01 WtEn= 1.95D-01
 Coeff-Com:  0.181D+01-0.234D+01 0.153D+01
 Coeff-En:   0.955D-01 0.000D+00 0.905D+00
 Coeff:      0.147D+01-0.188D+01 0.141D+01
 Gap=     0.249 Goal=   None    Shift=    0.000
 RMSDP=1.42D-03 MaxDP=3.13D-02 DE=-8.15D-02 OVMax= 4.81D-02

 Cycle   4  Pass 0  IDiag  1:
 RMSU=  6.97D-04    CP:  9.70D-01  2.07D+00  1.39D+00
 E= -2917.90945518207     Delta-E=       -0.032276808434 Rises=F Damp=F
 DIIS: error= 6.72D-03 at cycle   4 NSaved=   4.
 NSaved= 4 IEnMin= 4 EnMin= -2917.90945518207     IErMin= 4 ErrMin= 6.72D-03
 ErrMax= 6.72D-03  0.00D+00 EMaxC= 1.00D-01 BMatC= 6.18D-03 BMatP= 3.81D-02
 IDIUse=3 WtCom= 9.33D-01 WtEn= 6.72D-02
 Coeff-Com:  0.980D+00-0.129D+01 0.856D+00 0.452D+00
 Coeff-En:   0.000D+00 0.000D+00 0.000D+00 0.100D+01
 Coeff:      0.914D+00-0.120D+01 0.799D+00 0.489D+00
 Gap=     0.211 Goal=   None    Shift=    0.000
 RMSDP=5.89D-04 MaxDP=1.59D-02 DE=-3.23D-02 OVMax= 4.00D-02

 Cycle   5  Pass 0  IDiag  1:
 RMSU=  1.82D-04    CP:  9.70D-01  2.21D+00  1.41D+00  2.41D-01
 E= -2917.91541770773     Delta-E=       -0.005962525657 Rises=F Damp=F
 DIIS: error= 2.46D-03 at cycle   5 NSaved=   5.
 NSaved= 5 IEnMin= 5 EnMin= -2917.91541770773     IErMin= 5 ErrMin= 2.46D-03
 ErrMax= 2.46D-03  0.00D+00 EMaxC= 1.00D-01 BMatC= 5.20D-04 BMatP= 6.18D-03
 IDIUse=3 WtCom= 9.75D-01 WtEn= 2.46D-02
 Coeff-Com:  0.198D+00-0.260D+00 0.194D+00 0.265D+00 0.604D+00
 Coeff-En:   0.000D+00 0.000D+00 0.000D+00 0.539D-01 0.946D+00
 Coeff:      0.193D+00-0.254D+00 0.189D+00 0.259D+00 0.612D+00
 Gap=     0.208 Goal=   None    Shift=    0.000
 RMSDP=1.57D-04 MaxDP=4.87D-03 DE=-5.96D-03 OVMax= 1.10D-02

 Cycle   6  Pass 0  IDiag  1:
 RMSU=  4.43D-05    CP:  9.70D-01  2.21D+00  1.42D+00  4.20D-01  5.38D-01
 E= -2917.91597516765     Delta-E=       -0.000557459914 Rises=F Damp=F
 DIIS: error= 4.36D-04 at cycle   6 NSaved=   6.
 NSaved= 6 IEnMin= 6 EnMin= -2917.91597516765     IErMin= 6 ErrMin= 4.36D-04
 ErrMax= 4.36D-04  0.00D+00 EMaxC= 1.00D-01 BMatC= 1.76D-05 BMatP= 5.20D-04
 IDIUse=3 WtCom= 9.96D-01 WtEn= 4.36D-03
 Coeff-Com:  0.552D-01-0.728D-01 0.578D-01 0.111D+00 0.313D+00 0.536D+00
 Coeff-En:   0.000D+00 0.000D+00 0.000D+00 0.000D+00 0.000D+00 0.100D+01
 Coeff:      0.550D-01-0.725D-01 0.576D-01 0.111D+00 0.311D+00 0.538D+00
 Gap=     0.208 Goal=   None    Shift=    0.000
 RMSDP=2.46D-05 MaxDP=8.95D-04 DE=-5.57D-04 OVMax= 1.35D-03

 Cycle   7  Pass 0  IDiag  1:
 RMSU=  1.24D-05    CP:  9.70D-01  2.21D+00  1.41D+00  4.14D-01  5.94D-01
                    CP:  6.16D-01
 E= -2917.91599214698     Delta-E=       -0.000016979330 Rises=F Damp=F
 DIIS: error= 4.67D-05 at cycle   7 NSaved=   7.
 NSaved= 7 IEnMin= 7 EnMin= -2917.91599214698     IErMin= 7 ErrMin= 4.67D-05
 ErrMax= 4.67D-05  0.00D+00 EMaxC= 1.00D-01 BMatC= 7.23D-07 BMatP= 1.76D-05
 IDIUse=1 WtCom= 1.00D+00 WtEn= 0.00D+00
 Coeff-Com:  0.113D-01-0.149D-01 0.127D-01 0.326D-01 0.101D+00 0.241D+00
 Coeff-Com:  0.617D+00
 Coeff:      0.113D-01-0.149D-01 0.127D-01 0.326D-01 0.101D+00 0.241D+00
 Coeff:      0.617D+00
 Gap=     0.208 Goal=   None    Shift=    0.000
 RMSDP=6.47D-06 MaxDP=2.40D-04 DE=-1.70D-05 OVMax= 4.14D-04

 Initial convergence to 1.0D-05 achieved.  Increase integral accuracy.
 Cycle   8  Pass 1  IDiag  1:
 E= -2917.91600632050     Delta-E=       -0.000014173528 Rises=F Damp=F
 DIIS: error= 4.80D-05 at cycle   1 NSaved=   1.
 NSaved= 1 IEnMin= 1 EnMin= -2917.91600632050     IErMin= 1 ErrMin= 4.80D-05
 ErrMax= 4.80D-05  0.00D+00 EMaxC= 1.00D-01 BMatC= 2.03D-07 BMatP= 2.03D-07
 IDIUse=1 WtCom= 1.00D+00 WtEn= 0.00D+00
 Coeff-Com:  0.100D+01
 Coeff:      0.100D+01
 Gap=     0.208 Goal=   None    Shift=    0.000
 RMSDP=6.47D-06 MaxDP=2.40D-04 DE=-1.42D-05 OVMax= 4.25D-04

 Cycle   9  Pass 1  IDiag  1:
 RMSU=  9.93D-06    CP:  1.00D+00
 E= -2917.91600604033     Delta-E=        0.000000280173 Rises=F Damp=F
 DIIS: error= 5.21D-05 at cycle   2 NSaved=   2.
 NSaved= 2 IEnMin= 1 EnMin= -2917.91600632050     IErMin= 1 ErrMin= 4.80D-05
 ErrMax= 5.21D-05  0.00D+00 EMaxC= 1.00D-01 BMatC= 4.25D-07 BMatP= 2.03D-07
 IDIUse=1 WtCom= 1.00D+00 WtEn= 0.00D+00
 Coeff-Com:  0.601D+00 0.399D+00
 Coeff:      0.601D+00 0.399D+00
 Gap=     0.208 Goal=   None    Shift=    0.000
 RMSDP=4.17D-06 MaxDP=1.37D-04 DE= 2.80D-07 OVMax= 3.24D-04

 Cycle  10  Pass 1  IDiag  1:
 RMSU=  3.74D-06    CP:  1.00D+00  8.13D-01
 E= -2917.91600648792     Delta-E=       -0.000000447585 Rises=F Damp=F
 DIIS: error= 8.81D-06 at cycle   3 NSaved=   3.
 NSaved= 3 IEnMin= 3 EnMin= -2917.91600648792     IErMin= 3 ErrMin= 8.81D-06
 ErrMax= 8.81D-06  0.00D+00 EMaxC= 1.00D-01 BMatC= 1.05D-08 BMatP= 2.03D-07
 IDIUse=1 WtCom= 1.00D+00 WtEn= 0.00D+00
 Coeff-Com:  0.719D-01 0.147D+00 0.781D+00
 Coeff:      0.719D-01 0.147D+00 0.781D+00
 Gap=     0.208 Goal=   None    Shift=    0.000
 RMSDP=8.58D-07 MaxDP=2.16D-05 DE=-4.48D-07 OVMax= 6.33D-05

 Cycle  11  Pass 1  IDiag  1:
 RMSU=  5.63D-07    CP:  1.00D+00  8.49D-01  8.56D-01
 E= -2917.91600649675     Delta-E=       -0.000000008835 Rises=F Damp=F
 DIIS: error= 4.34D-06 at cycle   4 NSaved=   4.
 NSaved= 4 IEnMin= 4 EnMin= -2917.91600649675     IErMin= 4 ErrMin= 4.34D-06
 ErrMax= 4.34D-06  0.00D+00 EMaxC= 1.00D-01 BMatC= 3.77D-09 BMatP= 1.05D-08
 IDIUse=1 WtCom= 1.00D+00 WtEn= 0.00D+00
 Coeff-Com:  0.146D-02 0.643D-01 0.491D+00 0.443D+00
 Coeff:      0.146D-02 0.643D-01 0.491D+00 0.443D+00
 Gap=     0.208 Goal=   None    Shift=    0.000
 RMSDP=3.31D-07 MaxDP=1.12D-05 DE=-8.83D-09 OVMax= 2.19D-05

 Cycle  12  Pass 1  IDiag  1:
 RMSU=  1.32D-07    CP:  1.00D+00  8.48D-01  8.90D-01  5.11D-01
 E= -2917.91600649998     Delta-E=       -0.000000003234 Rises=F Damp=F
 DIIS: error= 8.40D-07 at cycle   5 NSaved=   5.
 NSaved= 5 IEnMin= 5 EnMin= -2917.91600649998     IErMin= 5 ErrMin= 8.40D-07
 ErrMax= 8.40D-07  0.00D+00 EMaxC= 1.00D-01 BMatC= 1.03D-10 BMatP= 3.77D-09
 IDIUse=1 WtCom= 1.00D+00 WtEn= 0.00D+00
 Coeff-Com: -0.185D-02 0.304D-01 0.247D+00 0.251D+00 0.473D+00
 Coeff:     -0.185D-02 0.304D-01 0.247D+00 0.251D+00 0.473D+00
 Gap=     0.208 Goal=   None    Shift=    0.000
 RMSDP=7.00D-08 MaxDP=1.95D-06 DE=-3.23D-09 OVMax= 3.45D-06

 Cycle  13  Pass 1  IDiag  1:
 RMSU=  4.08D-08    CP:  1.00D+00  8.48D-01  8.88D-01  5.18D-01  5.76D-01
 E= -2917.91600650007     Delta-E=       -0.000000000090 Rises=F Damp=F
 DIIS: error= 1.71D-07 at cycle   6 NSaved=   6.
 NSaved= 6 IEnMin= 6 EnMin= -2917.91600650007     IErMin= 6 ErrMin= 1.71D-07
 ErrMax= 1.71D-07  0.00D+00 EMaxC= 1.00D-01 BMatC= 5.80D-12 BMatP= 1.03D-10
 IDIUse=1 WtCom= 1.00D+00 WtEn= 0.00D+00
 Coeff-Com: -0.109D-02 0.123D-01 0.102D+00 0.108D+00 0.257D+00 0.522D+00
 Coeff:     -0.109D-02 0.123D-01 0.102D+00 0.108D+00 0.257D+00 0.522D+00
 Gap=     0.208 Goal=   None    Shift=    0.000
 RMSDP=1.70D-08 MaxDP=4.98D-07 DE=-9.00D-11 OVMax= 1.15D-06

 Cycle  14  Pass 1  IDiag  1:
 RMSU=  1.29D-08    CP:  1.00D+00  8.48D-01  8.88D-01  5.14D-01  6.18D-01
                    CP:  7.78D-01
 E= -2917.91600650007     Delta-E=        0.000000000009 Rises=F Damp=F
 DIIS: error= 8.42D-08 at cycle   7 NSaved=   7.
 NSaved= 7 IEnMin= 6 EnMin= -2917.91600650007     IErMin= 7 ErrMin= 8.42D-08
 ErrMax= 8.42D-08  0.00D+00 EMaxC= 1.00D-01 BMatC= 6.52D-13 BMatP= 5.80D-12
 IDIUse=1 WtCom= 1.00D+00 WtEn= 0.00D+00
 Coeff-Com: -0.377D-03 0.336D-02 0.287D-01 0.323D-01 0.866D-01 0.295D+00
 Coeff-Com:  0.554D+00
 Coeff:     -0.377D-03 0.336D-02 0.287D-01 0.323D-01 0.866D-01 0.295D+00
 Coeff:      0.554D+00
 Gap=     0.208 Goal=   None    Shift=    0.000
 RMSDP=6.29D-09 MaxDP=1.56D-07 DE= 9.09D-12 OVMax= 4.53D-07

 SCF Done:  E(RB3LYP) =  -2917.91600650     A.U. after   14 cycles
            NFock= 14  Conv=0.63D-08     -V/T= 2.0065
 KE= 2.899143839905D+03 PE=-8.175175650969D+03 EE= 1.739704602372D+03
 Leave Link  502 at Tue Sep 17 09:46:15 2024, MaxMem=  1342177280 cpu:              53.2 elap:               7.1
 (Enter /groups/ReismanLab/Software/Gaussian16_RevC/Linux_Binary_AVX2-enabled-CPU/g16/l508.exe)
 QCSCF skips out because SCF is already converged.
 Leave Link  508 at Tue Sep 17 09:46:15 2024, MaxMem=  1342177280 cpu:               0.0 elap:               0.0
 (Enter /groups/ReismanLab/Software/Gaussian16_RevC/Linux_Binary_AVX2-enabled-CPU/g16/l601.exe)
 Copying SCF densities to generalized density rwf, IOpCl= 0 IROHF=0.

 **********************************************************************

            Population analysis using the SCF Density.

 **********************************************************************

 Orbital symmetries:
       Occupied  (A) (A) (A) (A) (A) (A) (A) (A) (A) (A) (A) (A)
                 (A) (A) (A) (A) (A) (A) (A) (A) (A) (A) (A) (A)
                 (A) (A) (A) (A) (A) (A) (A) (A) (A) (A) (A) (A)
                 (A) (A) (A) (A) (A) (A) (A) (A) (A) (A)
       Virtual   (A) (A) (A) (A) (A) (A) (A) (A) (A) (A) (A) (A)
                 (A) (A) (A) (A) (A) (A) (A) (A) (A) (A) (A) (A)
                 (A) (A) (A) (A) (A) (A) (A) (A) (A) (A) (A) (A)
                 (A) (A) (A) (A) (A) (A) (A) (A) (A) (A) (A) (A)
                 (A) (A) (A) (A) (A) (A) (A) (A) (A) (A) (A) (A)
                 (A) (A) (A) (A) (A) (A) (A) (A) (A) (A) (A) (A)
                 (A) (A) (A) (A) (A) (A) (A) (A) (A) (A) (A) (A)
                 (A) (A) (A) (A) (A) (A) (A) (A) (A) (A) (A) (A)
                 (A) (A) (A) (A) (A) (A) (A) (A) (A) (A) (A) (A)
                 (A) (A) (A) (A) (A) (A) (A) (A) (A) (A) (A) (A)
                 (A) (A) (A) (A) (A) (A) (A) (A) (A) (A) (A) (A)
                 (A) (A) (A) (A) (A) (A) (A)
 The electronic state is 1-A.
 Alpha  occ. eigenvalues -- -482.90389 -61.86562 -56.38695 -56.38289 -56.38275
 Alpha  occ. eigenvalues --  -19.18531 -10.25453 -10.24683 -10.23606 -10.20118
 Alpha  occ. eigenvalues --  -10.20014 -10.19648 -10.19265  -8.57705  -6.53094
 Alpha  occ. eigenvalues --   -6.51824  -6.51812  -2.64668  -2.64301  -2.64293
 Alpha  occ. eigenvalues --   -2.63280  -2.63280  -1.07644  -0.87409  -0.79911
 Alpha  occ. eigenvalues --   -0.76401  -0.74069  -0.68959  -0.62441  -0.59218
 Alpha  occ. eigenvalues --   -0.54443  -0.49528  -0.47762  -0.47103  -0.45617
 Alpha  occ. eigenvalues --   -0.43618  -0.42503  -0.39367  -0.37391  -0.36431
 Alpha  occ. eigenvalues --   -0.34501  -0.33463  -0.28789  -0.28077  -0.26391
 Alpha  occ. eigenvalues --   -0.21819
 Alpha virt. eigenvalues --   -0.01005   0.00358   0.01469   0.09624   0.10572
 Alpha virt. eigenvalues --    0.13947   0.14613   0.15132   0.15600   0.16408
 Alpha virt. eigenvalues --    0.17214   0.19850   0.22903   0.27383   0.28605
 Alpha virt. eigenvalues --    0.29483   0.32916   0.35441   0.42672   0.44751
 Alpha virt. eigenvalues --    0.45888   0.47037   0.47060   0.49238   0.49591
 Alpha virt. eigenvalues --    0.51179   0.52264   0.53791   0.54773   0.55328
 Alpha virt. eigenvalues --    0.55674   0.58317   0.59332   0.60360   0.60620
 Alpha virt. eigenvalues --    0.64583   0.65002   0.66585   0.71203   0.72152
 Alpha virt. eigenvalues --    0.73892   0.78596   0.78987   0.81143   0.81857
 Alpha virt. eigenvalues --    0.83619   0.83832   0.85934   0.87350   0.89517
 Alpha virt. eigenvalues --    0.91419   0.93956   0.94561   1.00259   1.01798
 Alpha virt. eigenvalues --    1.02750   1.04937   1.10693   1.17008   1.20569
 Alpha virt. eigenvalues --    1.21527   1.23276   1.29088   1.29748   1.34310
 Alpha virt. eigenvalues --    1.35762   1.39248   1.39648   1.39776   1.44516
 Alpha virt. eigenvalues --    1.46001   1.54424   1.57265   1.64246   1.72931
 Alpha virt. eigenvalues --    1.78996   1.80981   1.84758   1.85846   1.87566
 Alpha virt. eigenvalues --    1.91302   1.91450   1.92703   1.95605   1.97837
 Alpha virt. eigenvalues --    2.00252   2.00755   2.01526   2.03149   2.06271
 Alpha virt. eigenvalues --    2.07635   2.09278   2.12566   2.16933   2.27580
 Alpha virt. eigenvalues --    2.28374   2.32878   2.34887   2.40759   2.41330
 Alpha virt. eigenvalues --    2.44156   2.46098   2.48785   2.48885   2.54953
 Alpha virt. eigenvalues --    2.56135   2.57979   2.60354   2.61527   2.66953
 Alpha virt. eigenvalues --    2.67982   2.72900   2.74446   2.75302   2.77895
 Alpha virt. eigenvalues --    2.83130   2.84014   2.98033   3.04158   3.11072
 Alpha virt. eigenvalues --    3.17190   3.21512   3.25586   3.33883   3.35910
 Alpha virt. eigenvalues --    3.39807   3.45019   3.52771   3.81760   4.07547
 Alpha virt. eigenvalues --    4.11369   4.15001   4.30371   4.42635   4.45710
 Alpha virt. eigenvalues --    4.48431   4.82345   8.61387  72.82235
          Condensed to atoms (all electrons):
               1          2          3          4          5          6
     1  C    4.722117   0.252838  -0.043166  -0.005440   0.000352  -0.000005
     2  O    0.252838   8.200948   0.283531  -0.061852   0.004196   0.000196
     3  C   -0.043166   0.283531   4.541568   0.471410  -0.005609  -0.037867
     4  C   -0.005440  -0.061852   0.471410   5.036573   0.472925  -0.030899
     5  C    0.000352   0.004196  -0.005609   0.472925   4.881093   0.539721
     6  C   -0.000005   0.000196  -0.037867  -0.030899   0.539721   4.810686
     7  Br  -0.000000   0.000001   0.000338   0.006011  -0.060330   0.253603
     8  C   -0.000116   0.003209  -0.018615  -0.043797  -0.034910   0.523632
     9  C    0.004233  -0.056150   0.537429  -0.062501  -0.040577  -0.032381
    10  H    0.397396  -0.034444   0.003143   0.000119  -0.000000   0.000000
    11  H    0.373728  -0.035721  -0.005058   0.004870  -0.000149  -0.000006
    12  H    0.373721  -0.035721  -0.005056   0.004876  -0.000149  -0.000006
    13  H    0.005293  -0.008176  -0.045561   0.365783  -0.035319   0.004392
    14  H   -0.000004  -0.000050   0.003506  -0.035845   0.369135  -0.041358
    15  H    0.000003  -0.000059   0.004534   0.000207   0.005777  -0.043978
    16  H   -0.000193  -0.000154  -0.036812   0.007454   0.000207   0.004951
               7          8          9         10         11         12
     1  C   -0.000000  -0.000116   0.004233   0.397396   0.373728   0.373721
     2  O    0.000001   0.003209  -0.056150  -0.034444  -0.035721  -0.035721
     3  C    0.000338  -0.018615   0.537429   0.003143  -0.005058  -0.005056
     4  C    0.006011  -0.043797  -0.062501   0.000119   0.004870   0.004876
     5  C   -0.060330  -0.034910  -0.040577  -0.000000  -0.000149  -0.000149
     6  C    0.253603   0.523632  -0.032381   0.000000  -0.000006  -0.000006
     7  Br  35.006456  -0.060190   0.005685  -0.000000   0.000000   0.000000
     8  C   -0.060190   4.865066   0.514948   0.000005   0.000000   0.000000
     9  C    0.005685   0.514948   4.916405  -0.000146   0.000034   0.000035
    10  H   -0.000000   0.000005  -0.000146   0.572269  -0.032814  -0.032819
    11  H    0.000000   0.000000   0.000034  -0.032814   0.631165  -0.050741
    12  H    0.000000   0.000000   0.000035  -0.032819  -0.050741   0.631161
    13  H   -0.000159   0.000732   0.004513  -0.000166   0.001690   0.001692
    14  H   -0.003420   0.005468   0.000496  -0.000000   0.000003   0.000003
    15  H   -0.003516   0.371942  -0.037629  -0.000000  -0.000000  -0.000000
    16  H   -0.000142  -0.039134   0.357918  -0.000040   0.000032   0.000033
              13         14         15         16
     1  C    0.005293  -0.000004   0.000003  -0.000193
     2  O   -0.008176  -0.000050  -0.000059  -0.000154
     3  C   -0.045561   0.003506   0.004534  -0.036812
     4  C    0.365783  -0.035845   0.000207   0.007454
     5  C   -0.035319   0.369135   0.005777   0.000207
     6  C    0.004392  -0.041358  -0.043978   0.004951
     7  Br  -0.000159  -0.003420  -0.003516  -0.000142
     8  C    0.000732   0.005468   0.371942  -0.039134
     9  C    0.004513   0.000496  -0.037629   0.357918
    10  H   -0.000166  -0.000000  -0.000000  -0.000040
    11  H    0.001690   0.000003  -0.000000   0.000032
    12  H    0.001692   0.000003  -0.000000   0.000033
    13  H    0.619819  -0.006749   0.000016  -0.000188
    14  H   -0.006749   0.601749  -0.000184   0.000016
    15  H    0.000016  -0.000184   0.601881  -0.007171
    16  H   -0.000188   0.000016  -0.007171   0.611580
 Mulliken charges:
               1
     1  C   -0.080757
     2  O   -0.512589
     3  C    0.352286
     4  C   -0.129893
     5  C   -0.096361
     6  C    0.049319
     7  Br  -0.144336
     8  C   -0.088238
     9  C   -0.112311
    10  H    0.127498
    11  H    0.112966
    12  H    0.112971
    13  H    0.092390
    14  H    0.107235
    15  H    0.108178
    16  H    0.101644
 Sum of Mulliken charges =  -0.00000
 Mulliken charges with hydrogens summed into heavy atoms:
               1
     1  C    0.272678
     2  O   -0.512589
     3  C    0.352286
     4  C   -0.037504
     5  C    0.010874
     6  C    0.049319
     7  Br  -0.144336
     8  C    0.019940
     9  C   -0.010667
 Electronic spatial extent (au):  <R**2>=           2359.0483
 Charge=             -0.0000 electrons
 Dipole moment (field-independent basis, Debye):
    X=             -2.6412    Y=             -0.9868    Z=             -0.0000  Tot=              2.8195
 Quadrupole moment (field-independent basis, Debye-Ang):
   XX=            -58.1536   YY=            -59.5460   ZZ=            -67.0902
   XY=              5.0983   XZ=             -0.0012   YZ=              0.0003
 Traceless Quadrupole moment (field-independent basis, Debye-Ang):
   XX=              3.4430   YY=              2.0506   ZZ=             -5.4936
   XY=              5.0983   XZ=             -0.0012   YZ=              0.0003
 Octapole moment (field-independent basis, Debye-Ang**2):
  XXX=             22.8960  YYY=              0.2827  ZZZ=              0.0009  XYY=             19.7170
  XXY=            -19.8077  XXZ=              0.0051  XZZ=             22.3786  YZZ=             -1.5497
  YYZ=             -0.0012  XYZ=              0.0001
 Hexadecapole moment (field-independent basis, Debye-Ang**3):
 XXXX=          -1981.9870 YYYY=           -326.2306 ZZZZ=            -76.0644 XXXY=             53.9513
 XXXZ=             -0.0270 YYYX=            -13.4096 YYYZ=              0.0016 ZZZX=              0.0032
 ZZZY=             -0.0010 XXYY=           -431.5618 XXZZ=           -395.8747 YYZZ=            -76.4476
 XXYZ=             -0.0003 YYXZ=              0.0019 ZZXY=             -2.3415
 N-N= 6.184112021915D+02 E-N=-8.175175659438D+03  KE= 2.899143839905D+03
 No NMR shielding tensors so no spin-rotation constants.
 Leave Link  601 at Tue Sep 17 09:46:15 2024, MaxMem=  1342177280 cpu:               0.4 elap:               0.1
 (Enter /groups/ReismanLab/Software/Gaussian16_RevC/Linux_Binary_AVX2-enabled-CPU/g16/l701.exe)
 ... and contract with generalized density number  0.
 Compute integral first derivatives.
 R6Disp: Adding Grimme-D3(BJ) dispersion energy 1st derivatives to the gradient.
 Leave Link  701 at Tue Sep 17 09:46:16 2024, MaxMem=  1342177280 cpu:               0.4 elap:               0.1
 (Enter /groups/ReismanLab/Software/Gaussian16_RevC/Linux_Binary_AVX2-enabled-CPU/g16/l702.exe)
 L702 exits ... SP integral derivatives will be done elsewhere.
 Leave Link  702 at Tue Sep 17 09:46:16 2024, MaxMem=  1342177280 cpu:               0.0 elap:               0.0
 (Enter /groups/ReismanLab/Software/Gaussian16_RevC/Linux_Binary_AVX2-enabled-CPU/g16/l703.exe)
 Integral derivatives from FoFJK, PRISM(SPDF).
 Compute integral first derivatives, UseDBF=F ICtDFT=           0.
 Calling FoFJK, ICntrl=      2127 FMM=F ISym2X=0 I1Cent= 0 IOpClX= 0 NMat=1 NMatS=1 NMatT=0.
 FoFJK:  IHMeth= 1 ICntrl=    2127 DoSepK=F KAlg= 0 I1Cent=           0 FoldK=F
 IRaf=         0 NMat=       1 IRICut=       1 DoRegI=T DoRafI=F ISym2E= 0 IDoP0=0 IntGTp=1.
 FoFCou: FMM=F IPFlag=           0 FMFlag=      100000 FMFlg1=         800
         NFxFlg=           0 DoJE=F BraDBF=F KetDBF=F FulRan=T
         wScrn=  0.000000 ICntrl=      2127 IOpCl=  0 I1Cent=           0 NGrid=           0
         NMat0=    1 NMatS0=      1 NMatT0=    0 NMatD0=    1 NMtDS0=    0 NMtDT0=    0
 Symmetry not used in FoFCou.
 Leave Link  703 at Tue Sep 17 09:46:18 2024, MaxMem=  1342177280 cpu:              16.2 elap:               2.1
 (Enter /groups/ReismanLab/Software/Gaussian16_RevC/Linux_Binary_AVX2-enabled-CPU/g16/l716.exe)
 Dipole        =-1.03912097D+00-3.88221095D-01-7.58723479D-06
 ***** Axes restored to original set *****
 -------------------------------------------------------------------
 Center     Atomic                   Forces (Hartrees/Bohr)
 Number     Number              X              Y              Z
 -------------------------------------------------------------------
      1        6           0.002335048   -0.001953735    0.000008823
      2        8          -0.000346119    0.007000586    0.000007340
      3        6          -0.000074853    0.001751159   -0.000032357
      4        6           0.008011417   -0.004248828    0.000002801
      5        6          -0.005007036   -0.003652947    0.000015615
      6        6          -0.007503937   -0.001787495    0.000003977
      7       35          -0.003038299   -0.000092008   -0.000002502
      8        6          -0.003708869    0.003653682    0.000009137
      9        6           0.006549078    0.002423633    0.000005936
     10        1           0.001792518   -0.000640091    0.000003693
     11        1          -0.000106164   -0.001877188    0.001152929
     12        1          -0.000117775   -0.001877518   -0.001159425
     13        1           0.002636072   -0.002748634   -0.000000264
     14        1          -0.001709606   -0.002722349   -0.000008705
     15        1          -0.001976433    0.002690138   -0.000006877
     16        1           0.002264958    0.004081596   -0.000000122
 -------------------------------------------------------------------
 Cartesian Forces:  Max     0.008011417 RMS     0.002879075
 Leave Link  716 at Tue Sep 17 09:46:18 2024, MaxMem=  1342177280 cpu:               0.0 elap:               0.0
 (Enter /groups/ReismanLab/Software/Gaussian16_RevC/Linux_Binary_AVX2-enabled-CPU/g16/l103.exe)

 GradGradGradGradGradGradGradGradGradGradGradGradGradGradGradGradGradGrad
 Berny optimization.
 FormGI is forming the generalized inverse of G from B-inverse, IUseBI=4.
 Internal  Forces:  Max     0.012019162 RMS     0.003127139
 Search for a local minimum.
 Step number   1 out of a maximum of   80
 All quantities printed in internal units (Hartrees-Bohrs-Radians)
 RMS Force = .31271D-02 SwitMx=.10000D-02 MixMth= 1
 Mixed Optimization -- RFO/linear search
 Second derivative matrix not updated -- first step.
 ITU=  0
     Eigenvalues ---    0.01585   0.02164   0.02198   0.02239   0.02256
     Eigenvalues ---    0.02259   0.02288   0.02299   0.02315   0.02319
     Eigenvalues ---    0.02341   0.10086   0.10737   0.16000   0.16000
     Eigenvalues ---    0.16000   0.16000   0.16000   0.16000   0.16000
     Eigenvalues ---    0.17963   0.22000   0.22979   0.24000   0.25000
     Eigenvalues ---    0.25000   0.25000   0.34291   0.34292   0.34972
     Eigenvalues ---    0.36087   0.36120   0.36217   0.36223   0.42986
     Eigenvalues ---    0.43513   0.44304   0.47009   0.47553   0.48480
     Eigenvalues ---    0.49169   0.53527
 RFO step:  Lambda=-1.60386822D-03 EMin= 1.58460146D-02
 Linear search not attempted -- first point.
 Iteration  1 RMS(Cart)=  0.01783550 RMS(Int)=  0.00011738
 Iteration  2 RMS(Cart)=  0.00023742 RMS(Int)=  0.00000902
 Iteration  3 RMS(Cart)=  0.00000003 RMS(Int)=  0.00000902
 ITry= 1 IFail=0 DXMaxC= 6.70D-02 DCOld= 1.00D+10 DXMaxT= 3.00D-01 DXLimC= 3.00D+00 Rises=F
 Variable       Old X    -DE/DX   Delta X   Delta X   Delta X     New X
                                 (Linear)    (Quad)   (Total)
    R1        2.66093   0.00741   0.00000   0.01667   0.01667   2.67760
    R2        2.05721   0.00143   0.00000   0.00406   0.00406   2.06127
    R3        2.06841   0.00201   0.00000   0.00584   0.00584   2.07425
    R4        2.06840   0.00202   0.00000   0.00586   0.00586   2.07425
    R5        2.56465   0.00362   0.00000   0.00673   0.00673   2.57139
    R6        2.63033   0.00701   0.00000   0.01466   0.01466   2.64499
    R7        2.64147   0.00509   0.00000   0.01072   0.01072   2.65219
    R8        2.61670   0.01202   0.00000   0.02491   0.02491   2.64161
    R9        2.03743   0.00373   0.00000   0.01026   0.01026   2.04769
   R10        2.61008   0.00814   0.00000   0.01688   0.01688   2.62696
   R11        2.03945   0.00320   0.00000   0.00882   0.00882   2.04827
   R12        3.60174   0.00304   0.00000   0.01676   0.01676   3.61850
   R13        2.61976   0.00958   0.00000   0.02011   0.02011   2.63987
   R14        2.60317   0.01100   0.00000   0.02204   0.02204   2.62522
   R15        2.03894   0.00334   0.00000   0.00919   0.00919   2.04813
   R16        2.03734   0.00467   0.00000   0.01282   0.01282   2.05016
    A1        1.84340   0.00189   0.00000   0.01299   0.01296   1.85636
    A2        1.94653   0.00046   0.00000   0.00219   0.00217   1.94870
    A3        1.94660   0.00045   0.00000   0.00209   0.00207   1.94867
    A4        1.90723  -0.00070   0.00000  -0.00306  -0.00309   1.90414
    A5        1.90717  -0.00069   0.00000  -0.00299  -0.00303   1.90414
    A6        1.91131  -0.00135   0.00000  -0.01062  -0.01063   1.90068
    A7        2.07289  -0.00384   0.00000  -0.01525  -0.01525   2.05765
    A8        2.18206  -0.00276   0.00000  -0.01054  -0.01053   2.17152
    A9        2.02033   0.00079   0.00000   0.00357   0.00357   2.02390
   A10        2.08080   0.00197   0.00000   0.00697   0.00697   2.08776
   A11        2.09627  -0.00074   0.00000  -0.00350  -0.00350   2.09277
   A12        2.11561  -0.00040   0.00000  -0.00300  -0.00300   2.11261
   A13        2.07131   0.00114   0.00000   0.00650   0.00650   2.07781
   A14        2.09064   0.00010   0.00000   0.00132   0.00133   2.09197
   A15        2.09344   0.00029   0.00000   0.00142   0.00142   2.09486
   A16        2.09910  -0.00039   0.00000  -0.00274  -0.00274   2.09636
   A17        2.08648   0.00084   0.00000   0.00285   0.00285   2.08933
   A18        2.11038  -0.00126   0.00000  -0.00404  -0.00403   2.10634
   A19        2.08633   0.00042   0.00000   0.00118   0.00118   2.08751
   A20        2.08121   0.00089   0.00000   0.00434   0.00434   2.08554
   A21        2.09984  -0.00058   0.00000  -0.00298  -0.00298   2.09686
   A22        2.10214  -0.00031   0.00000  -0.00136  -0.00136   2.10078
   A23        2.10708  -0.00097   0.00000  -0.00509  -0.00510   2.10198
   A24        2.06684   0.00033   0.00000   0.00161   0.00161   2.06845
   A25        2.10927   0.00063   0.00000   0.00348   0.00349   2.11275
    D1        3.14153   0.00000   0.00000  -0.00003  -0.00003   3.14151
    D2       -1.07160   0.00055   0.00000   0.00529   0.00532  -1.06628
    D3        1.07153  -0.00055   0.00000  -0.00537  -0.00539   1.06613
    D4        0.00002   0.00000   0.00000   0.00006   0.00006   0.00008
    D5       -3.14131  -0.00001   0.00000  -0.00031  -0.00030   3.14157
    D6       -3.14134  -0.00001   0.00000  -0.00031  -0.00031   3.14153
    D7        0.00027  -0.00001   0.00000  -0.00032  -0.00032  -0.00005
    D8       -0.00002   0.00000   0.00000   0.00006   0.00006   0.00004
    D9        3.14158   0.00000   0.00000   0.00006   0.00006  -3.14154
   D10        3.14139   0.00001   0.00000   0.00025   0.00025  -3.14155
   D11       -0.00022   0.00001   0.00000   0.00028   0.00028   0.00007
   D12        0.00005  -0.00000   0.00000  -0.00009  -0.00009  -0.00005
   D13       -3.14156  -0.00000   0.00000  -0.00006  -0.00006   3.14157
   D14       -0.00001   0.00000   0.00000   0.00001   0.00001  -0.00000
   D15       -3.14137  -0.00001   0.00000  -0.00022  -0.00022  -3.14159
   D16        3.14157   0.00000   0.00000   0.00001   0.00001   3.14158
   D17        0.00021  -0.00001   0.00000  -0.00022  -0.00022  -0.00001
   D18       -3.14145  -0.00000   0.00000  -0.00019  -0.00019   3.14155
   D19        0.00002  -0.00000   0.00000  -0.00005  -0.00005  -0.00003
   D20       -0.00009   0.00000   0.00000   0.00004   0.00004  -0.00005
   D21        3.14137   0.00000   0.00000   0.00018   0.00018   3.14156
   D22        0.00001   0.00000   0.00000   0.00002   0.00002   0.00003
   D23       -3.14144  -0.00000   0.00000  -0.00013  -0.00013  -3.14157
   D24        3.14147   0.00000   0.00000   0.00016   0.00016  -3.14155
   D25        0.00002   0.00000   0.00000   0.00001   0.00001   0.00004
   D26       -0.00004   0.00000   0.00000   0.00005   0.00005   0.00001
   D27        3.14157   0.00000   0.00000   0.00002   0.00002   3.14159
   D28        3.14141   0.00001   0.00000   0.00020   0.00020  -3.14157
   D29       -0.00017   0.00000   0.00000   0.00017   0.00017  -0.00000
         Item               Value     Threshold  Converged?
 Maximum Force            0.012019     0.000450     NO 
 RMS     Force            0.003127     0.000300     NO 
 Maximum Displacement     0.066987     0.001800     NO 
 RMS     Displacement     0.017945     0.001200     NO 
 Predicted change in Energy=-8.053208D-04
 Lowest energy point so far.  Saving SCF results.
 GradGradGradGradGradGradGradGradGradGradGradGradGradGradGradGradGradGrad

 Leave Link  103 at Tue Sep 17 09:46:18 2024, MaxMem=  1342177280 cpu:               0.1 elap:               0.0
 (Enter /groups/ReismanLab/Software/Gaussian16_RevC/Linux_Binary_AVX2-enabled-CPU/g16/l202.exe)
                          Input orientation:                          
 ---------------------------------------------------------------------
 Center     Atomic      Atomic             Coordinates (Angstroms)
 Number     Number       Type             X           Y           Z
 ---------------------------------------------------------------------
      1          6           0        4.457715   -0.688686   -0.000108
      2          8           0        3.615801    0.450989   -0.000079
      3          6           0        2.270239    0.248453   -0.000071
      4          6           0        1.659760   -1.011065   -0.000001
      5          6           0        0.265365   -1.109740    0.000075
      6          6           0       -0.510146    0.043964    0.000080
      7         35           0       -2.419835   -0.096236    0.000106
      8          6           0        0.089207    1.305816    0.000050
      9          6           0        1.474880    1.404805   -0.000017
     10          1           0        5.482106   -0.313959   -0.000199
     11          1           0        4.301721   -1.307476    0.892970
     12          1           0        4.301571   -1.307499   -0.893146
     13          1           0        2.251472   -1.918836    0.000006
     14          1           0       -0.209424   -2.084119    0.000133
     15          1           0       -0.523929    2.199538    0.000075
     16          1           0        1.966834    2.371752   -0.000048
 ---------------------------------------------------------------------
                    Distance matrix (angstroms):
                    1          2          3          4          5
     1  C    0.000000
     2  O    1.416925   0.000000
     3  C    2.379765   1.360720   0.000000
     4  C    2.816466   2.442068   1.399667   0.000000
     5  C    4.213441   3.696119   2.421612   1.397882   0.000000
     6  C    5.021596   4.145975   2.787895   2.412795   1.390126
     7  Br   6.903021   6.060393   4.702723   4.180910   2.870103
     8  C    4.802281   3.628718   2.423823   2.799031   2.421971
     9  C    3.644175   2.343781   1.403477   2.422934   2.790316
    10  H    1.090778   2.016988   3.260736   3.885394   5.277088
    11  H    1.097645   2.088115   2.710232   2.804499   4.138663
    12  H    1.097646   2.088092   2.710144   2.804415   4.138588
    13  H    2.526021   2.734496   2.167370   1.083592   2.144588
    14  H    4.871285   4.589022   3.404353   2.155295   1.083900
    15  H    5.758352   4.493861   3.407948   3.882843   3.402104
    16  H    3.945981   2.531486   2.144868   3.396726   3.875021
                    6          7          8          9         10
     6  C    0.000000
     7  Br   1.914829   0.000000
     8  C    1.396959   2.874203   0.000000
     9  C    2.406702   4.173959   1.389204   0.000000
    10  H    6.002933   7.904941   5.630900   4.360277   0.000000
    11  H    5.077175   6.887933   5.037050   4.018075   1.782733
    12  H    5.077098   6.887842   5.036986   4.018016   1.782733
    13  H    3.388085   5.014278   3.882495   3.413164   3.607303
    14  H    2.149226   2.972810   3.403064   3.874206   5.960452
    15  H    2.155619   2.977422   1.083824   2.151008   6.510770
    16  H    3.399122   5.033273   2.159098   1.084899   4.423820
                   11         12         13         14         15
    11  H    0.000000
    12  H    1.786116   0.000000
    13  H    2.318333   2.318267   0.000000
    14  H    4.663771   4.663707   2.466440   0.000000
    15  H    6.031858   6.031799   4.966272   4.295188   0.000000
    16  H    4.448134   4.448091   4.300020   4.958921   2.496710
                   16
    16  H    0.000000
 Stoichiometry    C7H7BrO
 Framework group  C1[X(C7H7BrO)]
 Deg. of freedom    42
 Full point group                 C1      NOp   1
 RotChk:  IX=0 Diff= 4.29D-03
 Largest Abelian subgroup         C1      NOp   1
 Largest concise Abelian subgroup C1      NOp   1
                         Standard orientation:                         
 ---------------------------------------------------------------------
 Center     Atomic      Atomic             Coordinates (Angstroms)
 Number     Number       Type             X           Y           Z
 ---------------------------------------------------------------------
      1          6           0       -4.247427   -0.628989    0.000140
      2          8           0       -3.392339    0.500835    0.000111
      3          6           0       -2.049219    0.282692    0.000103
      4          6           0       -1.453403   -0.983828    0.000033
      5          6           0       -0.060247   -1.098683   -0.000043
      6          6           0        0.728605    0.045940   -0.000048
      7         35           0        2.636538   -0.116420   -0.000075
      8          6           0        0.143941    1.314665   -0.000019
      9          6           0       -1.240489    1.429733    0.000049
     10          1           0       -5.267399   -0.242395    0.000231
     11          1           0       -4.098626   -1.249549   -0.892938
     12          1           0       -4.098477   -1.249573    0.893177
     13          1           0       -2.055613   -1.884669    0.000025
     14          1           0        0.403198   -2.078509   -0.000101
     15          1           0        0.767411    2.201209   -0.000043
     16          1           0       -1.721186    2.402327    0.000080
 ---------------------------------------------------------------------
 Rotational constants (GHZ):           4.7947376           0.4539524           0.4157876
 Leave Link  202 at Tue Sep 17 09:46:18 2024, MaxMem=  1342177280 cpu:               0.0 elap:               0.0
 (Enter /groups/ReismanLab/Software/Gaussian16_RevC/Linux_Binary_AVX2-enabled-CPU/g16/l301.exe)
 Standard basis: 6-31G(d,p) (6D, 7F)
 Ernie: Thresh=  0.10000D-02 Tol=  0.10000D-05 Strict=F.
 There are   185 symmetry adapted cartesian basis functions of A   symmetry.
 There are   185 symmetry adapted basis functions of A   symmetry.
   185 basis functions,   356 primitive gaussians,   185 cartesian basis functions
    46 alpha electrons       46 beta electrons
       nuclear repulsion energy       615.2605358020 Hartrees.
 IExCor=  402 DFT=T Ex+Corr=B3LYP ExCW=0 ScaHFX=  0.200000
 ScaDFX=  0.800000  0.720000  1.000000  0.810000 ScalE2=  1.000000  1.000000
 IRadAn=      5 IRanWt=     -1 IRanGd=            0 ICorTp=0 IEmpDi=141
 NAtoms=   16 NActive=   16 NUniq=   16 SFac= 1.00D+00 NAtFMM=   60 NAOKFM=F Big=F
 Integral buffers will be    131072 words long.
 Raffenetti 2 integral format.
 Two-electron integral symmetry is turned on.
 R6Disp:  Grimme-D3(BJ) Dispersion energy=       -0.0302983651 Hartrees.
 Nuclear repulsion after empirical dispersion term =      615.2302374369 Hartrees.
 Leave Link  301 at Tue Sep 17 09:46:18 2024, MaxMem=  1342177280 cpu:               0.1 elap:               0.0
 (Enter /groups/ReismanLab/Software/Gaussian16_RevC/Linux_Binary_AVX2-enabled-CPU/g16/l302.exe)
 NPDir=0 NMtPBC=     1 NCelOv=     1 NCel=       1 NClECP=     1 NCelD=      1
         NCelK=      1 NCelE2=     1 NClLst=     1 CellRange=     0.0.
 One-electron integrals computed using PRISM.
 One-electron integral symmetry used in STVInt
 NBasis=   185 RedAO= T EigKep=  4.48D-04  NBF=   185
 NBsUse=   185 1.00D-06 EigRej= -1.00D+00 NBFU=   185
 Precomputing XC quadrature grid using
 IXCGrd= 4 IRadAn=           5 IRanWt=          -1 IRanGd=           0 AccXCQ= 0.00D+00.
 Generated NRdTot=       0 NPtTot=           0 NUsed=           0 NTot=          32
 NSgBfM=   184   184   184   184   184 MxSgAt=    16 MxSgA2=    16.
 Leave Link  302 at Tue Sep 17 09:46:18 2024, MaxMem=  1342177280 cpu:               0.6 elap:               0.1
 (Enter /groups/ReismanLab/Software/Gaussian16_RevC/Linux_Binary_AVX2-enabled-CPU/g16/l303.exe)
 DipDrv:  MaxL=1.
 Leave Link  303 at Tue Sep 17 09:46:18 2024, MaxMem=  1342177280 cpu:               0.1 elap:               0.0
 (Enter /groups/ReismanLab/Software/Gaussian16_RevC/Linux_Binary_AVX2-enabled-CPU/g16/l401.exe)
 Initial guess from the checkpoint file:  "smiles_00013_conf_0.chk"
 B after Tr=     0.000000    0.000000    0.000000
         Rot=    1.000000   -0.000006   -0.000014   -0.000111 Ang=  -0.01 deg.
 Guess basis will be translated and rotated to current coordinates.
 JPrj=2 DoOrth=T DoCkMO=T.
 Generating alternative initial guess.
 ExpMin= 1.43D-01 ExpMax= 5.74D+05 ExpMxC= 5.74D+03 IAcc=3 IRadAn=         5 AccDes= 0.00D+00
 Harris functional with IExCor=  402 and IRadAn=       5 diagonalized for initial guess.
 HarFok:  IExCor=  402 AccDes= 0.00D+00 IRadAn=         5 IDoV= 1 UseB2=F ITyADJ=14
 ICtDFT=  3500011 ScaDFX=  1.000000  1.000000  1.000000  1.000000
 FoFCou: FMM=F IPFlag=           0 FMFlag=      100000 FMFlg1=           0
         NFxFlg=           0 DoJE=T BraDBF=F KetDBF=T FulRan=T
         wScrn=  0.000000 ICntrl=       500 IOpCl=  0 I1Cent=   200000004 NGrid=           0
         NMat0=    1 NMatS0=      1 NMatT0=    0 NMatD0=    1 NMtDS0=    0 NMtDT0=    0
 Petite list used in FoFCou.
 Harris En= -2918.03287567558    
 Leave Link  401 at Tue Sep 17 09:46:19 2024, MaxMem=  1342177280 cpu:               3.3 elap:               0.5
 (Enter /groups/ReismanLab/Software/Gaussian16_RevC/Linux_Binary_AVX2-enabled-CPU/g16/l502.exe)
 Integral symmetry usage will be decided dynamically.
 Closed shell SCF:
 Using DIIS extrapolation, IDIIS=  1040.
 NGot=  1342177280 LenX=  1342104960 LenY=  1342070294
 Requested convergence on RMS density matrix=1.00D-08 within  32 cycles.
 Requested convergence on MAX density matrix=1.00D-06.
 Requested convergence on             energy=1.00D-06.
 No special actions if energy rises.
 Fock matrices will be formed incrementally for  20 cycles.
 Integral accuracy reduced to 1.0D-05 until final iterations.

 Cycle   1  Pass 0  IDiag  1:
 FoFJK:  IHMeth= 1 ICntrl=       0 DoSepK=F KAlg= 0 I1Cent=           0 FoldK=F
 IRaf= 890000000 NMat=       1 IRICut=       1 DoRegI=T DoRafI=F ISym2E= 0 IDoP0=0 IntGTp=1.
 FoFCou: FMM=F IPFlag=           0 FMFlag=      100000 FMFlg1=           0
         NFxFlg=           0 DoJE=F BraDBF=F KetDBF=F FulRan=T
         wScrn=  0.000000 ICntrl=         0 IOpCl=  0 I1Cent=           0 NGrid=           0
         NMat0=    1 NMatS0=      1 NMatT0=    0 NMatD0=    1 NMtDS0=    0 NMtDT0=    0
 Symmetry not used in FoFCou.
 E= -2917.91624999155    
 DIIS: error= 1.46D-03 at cycle   1 NSaved=   1.
 NSaved= 1 IEnMin= 1 EnMin= -2917.91624999155     IErMin= 1 ErrMin= 1.46D-03
 ErrMax= 1.46D-03  0.00D+00 EMaxC= 1.00D-01 BMatC= 7.81D-04 BMatP= 7.81D-04
 IDIUse=3 WtCom= 9.85D-01 WtEn= 1.46D-02
 Coeff-Com:  0.100D+01
 Coeff-En:   0.100D+01
 Coeff:      0.100D+01
 Gap=     1.784 Goal=   None    Shift=    0.000
 GapD=    1.784 DampG=2.000 DampE=1.000 DampFc=2.0000 IDamp=-1.
 RMSDP=1.84D-04 MaxDP=3.40D-03              OVMax= 5.25D-03

 Cycle   2  Pass 0  IDiag  1:
 RMSU=  1.84D-04    CP:  1.00D+00
 E= -2917.91664292672     Delta-E=       -0.000392935171 Rises=F Damp=F
 DIIS: error= 7.23D-04 at cycle   2 NSaved=   2.
 NSaved= 2 IEnMin= 2 EnMin= -2917.91664292672     IErMin= 2 ErrMin= 7.23D-04
 ErrMax= 7.23D-04  0.00D+00 EMaxC= 1.00D-01 BMatC= 4.93D-05 BMatP= 7.81D-04
 IDIUse=3 WtCom= 9.93D-01 WtEn= 7.23D-03
 Coeff-Com:  0.899D-01 0.910D+00
 Coeff-En:   0.000D+00 0.100D+01
 Coeff:      0.893D-01 0.911D+00
 Gap=     0.205 Goal=   None    Shift=    0.000
 RMSDP=8.74D-05 MaxDP=2.35D-03 DE=-3.93D-04 OVMax= 4.09D-03

 Cycle   3  Pass 0  IDiag  1:
 RMSU=  8.60D-05    CP:  1.00D+00  9.17D-01
 E= -2917.91661365095     Delta-E=        0.000029275768 Rises=F Damp=F
 DIIS: error= 6.64D-04 at cycle   3 NSaved=   3.
 NSaved= 3 IEnMin= 2 EnMin= -2917.91664292672     IErMin= 3 ErrMin= 6.64D-04
 ErrMax= 6.64D-04  0.00D+00 EMaxC= 1.00D-01 BMatC= 7.67D-05 BMatP= 4.93D-05
 IDIUse=3 WtCom= 2.80D-01 WtEn= 7.20D-01
 Coeff-Com: -0.110D-02 0.558D+00 0.443D+00
 Coeff-En:   0.000D+00 0.595D+00 0.405D+00
 Coeff:     -0.307D-03 0.584D+00 0.416D+00
 Gap=     0.206 Goal=   None    Shift=    0.000
 RMSDP=5.39D-05 MaxDP=1.49D-03 DE= 2.93D-05 OVMax= 2.75D-03

 Cycle   4  Pass 0  IDiag  1:
 RMSU=  2.14D-05    CP:  1.00D+00  9.78D-01  4.40D-01
 E= -2917.91669299552     Delta-E=       -0.000079344567 Rises=F Damp=F
 DIIS: error= 1.59D-04 at cycle   4 NSaved=   4.
 NSaved= 4 IEnMin= 4 EnMin= -2917.91669299552     IErMin= 4 ErrMin= 1.59D-04
 ErrMax= 1.59D-04  0.00D+00 EMaxC= 1.00D-01 BMatC= 3.62D-06 BMatP= 4.93D-05
 IDIUse=3 WtCom= 9.98D-01 WtEn= 1.59D-03
 Coeff-Com: -0.558D-02 0.298D+00 0.249D+00 0.458D+00
 Coeff-En:   0.000D+00 0.000D+00 0.000D+00 0.100D+01
 Coeff:     -0.557D-02 0.298D+00 0.249D+00 0.459D+00
 Gap=     0.206 Goal=   None    Shift=    0.000
 RMSDP=1.30D-05 MaxDP=3.42D-04 DE=-7.93D-05 OVMax= 9.03D-04

 Cycle   5  Pass 0  IDiag  1:
 RMSU=  7.30D-06    CP:  1.00D+00  9.83D-01  4.37D-01  4.96D-01
 E= -2917.91669664673     Delta-E=       -0.000003651205 Rises=F Damp=F
 DIIS: error= 3.36D-05 at cycle   5 NSaved=   5.
 NSaved= 5 IEnMin= 5 EnMin= -2917.91669664673     IErMin= 5 ErrMin= 3.36D-05
 ErrMax= 3.36D-05  0.00D+00 EMaxC= 1.00D-01 BMatC= 1.48D-07 BMatP= 3.62D-06
 IDIUse=1 WtCom= 1.00D+00 WtEn= 0.00D+00
 Coeff-Com: -0.211D-02 0.609D-01 0.566D-01 0.198D+00 0.686D+00
 Coeff:     -0.211D-02 0.609D-01 0.566D-01 0.198D+00 0.686D+00
 Gap=     0.206 Goal=   None    Shift=    0.000
 RMSDP=3.44D-06 MaxDP=1.01D-04 DE=-3.65D-06 OVMax= 1.83D-04

 Initial convergence to 1.0D-05 achieved.  Increase integral accuracy.
 Cycle   6  Pass 1  IDiag  1:
 E= -2917.91671121825     Delta-E=       -0.000014571528 Rises=F Damp=F
 DIIS: error= 4.41D-05 at cycle   1 NSaved=   1.
 NSaved= 1 IEnMin= 1 EnMin= -2917.91671121825     IErMin= 1 ErrMin= 4.41D-05
 ErrMax= 4.41D-05  0.00D+00 EMaxC= 1.00D-01 BMatC= 7.50D-08 BMatP= 7.50D-08
 IDIUse=1 WtCom= 1.00D+00 WtEn= 0.00D+00
 Coeff-Com:  0.100D+01
 Coeff:      0.100D+01
 Gap=     0.206 Goal=   None    Shift=    0.000
 RMSDP=3.44D-06 MaxDP=1.01D-04 DE=-1.46D-05 OVMax= 1.10D-04

 Cycle   7  Pass 1  IDiag  1:
 RMSU=  8.12D-06    CP:  1.00D+00
 E= -2917.91671123225     Delta-E=       -0.000000014001 Rises=F Damp=F
 DIIS: error= 1.77D-05 at cycle   2 NSaved=   2.
 NSaved= 2 IEnMin= 2 EnMin= -2917.91671123225     IErMin= 2 ErrMin= 1.77D-05
 ErrMax= 1.77D-05  0.00D+00 EMaxC= 1.00D-01 BMatC= 3.53D-08 BMatP= 7.50D-08
 IDIUse=1 WtCom= 1.00D+00 WtEn= 0.00D+00
 Coeff-Com:  0.370D+00 0.630D+00
 Coeff:      0.370D+00 0.630D+00
 Gap=     0.206 Goal=   None    Shift=    0.000
 RMSDP=1.80D-06 MaxDP=4.01D-05 DE=-1.40D-08 OVMax= 1.33D-04

 Cycle   8  Pass 1  IDiag  1:
 RMSU=  1.79D-06    CP:  1.00D+00  9.76D-01
 E= -2917.91671124727     Delta-E=       -0.000000015018 Rises=F Damp=F
 DIIS: error= 1.49D-05 at cycle   3 NSaved=   3.
 NSaved= 3 IEnMin= 3 EnMin= -2917.91671124727     IErMin= 3 ErrMin= 1.49D-05
 ErrMax= 1.49D-05  0.00D+00 EMaxC= 1.00D-01 BMatC= 2.03D-08 BMatP= 3.53D-08
 IDIUse=1 WtCom= 1.00D+00 WtEn= 0.00D+00
 Coeff-Com:  0.284D-01 0.426D+00 0.545D+00
 Coeff:      0.284D-01 0.426D+00 0.545D+00
 Gap=     0.206 Goal=   None    Shift=    0.000
 RMSDP=8.24D-07 MaxDP=2.26D-05 DE=-1.50D-08 OVMax= 6.64D-05

 Cycle   9  Pass 1  IDiag  1:
 RMSU=  4.17D-07    CP:  1.00D+00  9.94D-01  6.11D-01
 E= -2917.91671126667     Delta-E=       -0.000000019394 Rises=F Damp=F
 DIIS: error= 2.38D-06 at cycle   4 NSaved=   4.
 NSaved= 4 IEnMin= 4 EnMin= -2917.91671126667     IErMin= 4 ErrMin= 2.38D-06
 ErrMax= 2.38D-06  0.00D+00 EMaxC= 1.00D-01 BMatC= 1.20D-09 BMatP= 2.03D-08
 IDIUse=1 WtCom= 1.00D+00 WtEn= 0.00D+00
 Coeff-Com: -0.673D-03 0.228D+00 0.327D+00 0.445D+00
 Coeff:     -0.673D-03 0.228D+00 0.327D+00 0.445D+00
 Gap=     0.206 Goal=   None    Shift=    0.000
 RMSDP=2.36D-07 MaxDP=8.08D-06 DE=-1.94D-08 OVMax= 1.20D-05

 Cycle  10  Pass 1  IDiag  1:
 RMSU=  1.01D-07    CP:  1.00D+00  9.97D-01  6.24D-01  4.98D-01
 E= -2917.91671126789     Delta-E=       -0.000000001227 Rises=F Damp=F
 DIIS: error= 6.88D-07 at cycle   5 NSaved=   5.
 NSaved= 5 IEnMin= 5 EnMin= -2917.91671126789     IErMin= 5 ErrMin= 6.88D-07
 ErrMax= 6.88D-07  0.00D+00 EMaxC= 1.00D-01 BMatC= 7.25D-11 BMatP= 1.20D-09
 IDIUse=1 WtCom= 1.00D+00 WtEn= 0.00D+00
 Coeff-Com: -0.197D-02 0.114D+00 0.167D+00 0.272D+00 0.449D+00
 Coeff:     -0.197D-02 0.114D+00 0.167D+00 0.272D+00 0.449D+00
 Gap=     0.206 Goal=   None    Shift=    0.000
 RMSDP=5.26D-08 MaxDP=1.69D-06 DE=-1.23D-09 OVMax= 3.68D-06

 Cycle  11  Pass 1  IDiag  1:
 RMSU=  2.97D-08    CP:  1.00D+00  9.98D-01  6.16D-01  5.19D-01  6.07D-01
 E= -2917.91671126793     Delta-E=       -0.000000000031 Rises=F Damp=F
 DIIS: error= 1.07D-07 at cycle   6 NSaved=   6.
 NSaved= 6 IEnMin= 6 EnMin= -2917.91671126793     IErMin= 6 ErrMin= 1.07D-07
 ErrMax= 1.07D-07  0.00D+00 EMaxC= 1.00D-01 BMatC= 2.02D-12 BMatP= 7.25D-11
 IDIUse=1 WtCom= 1.00D+00 WtEn= 0.00D+00
 Coeff-Com: -0.966D-03 0.438D-01 0.647D-01 0.111D+00 0.223D+00 0.559D+00
 Coeff:     -0.966D-03 0.438D-01 0.647D-01 0.111D+00 0.223D+00 0.559D+00
 Gap=     0.206 Goal=   None    Shift=    0.000
 RMSDP=8.94D-09 MaxDP=3.15D-07 DE=-3.09D-11 OVMax= 3.51D-07

 SCF Done:  E(RB3LYP) =  -2917.91671127     A.U. after   11 cycles
            NFock= 11  Conv=0.89D-08     -V/T= 2.0066
 KE= 2.898919317815D+03 PE=-8.168618521840D+03 EE= 1.736552255320D+03
 Leave Link  502 at Tue Sep 17 09:46:24 2024, MaxMem=  1342177280 cpu:              43.5 elap:               5.8
 (Enter /groups/ReismanLab/Software/Gaussian16_RevC/Linux_Binary_AVX2-enabled-CPU/g16/l508.exe)
 QCSCF skips out because SCF is already converged.
 Leave Link  508 at Tue Sep 17 09:46:24 2024, MaxMem=  1342177280 cpu:               0.0 elap:               0.0
 (Enter /groups/ReismanLab/Software/Gaussian16_RevC/Linux_Binary_AVX2-enabled-CPU/g16/l701.exe)
 ... and contract with generalized density number  0.
 Compute integral first derivatives.
 R6Disp: Adding Grimme-D3(BJ) dispersion energy 1st derivatives to the gradient.
 Leave Link  701 at Tue Sep 17 09:46:24 2024, MaxMem=  1342177280 cpu:               0.4 elap:               0.1
 (Enter /groups/ReismanLab/Software/Gaussian16_RevC/Linux_Binary_AVX2-enabled-CPU/g16/l702.exe)
 L702 exits ... SP integral derivatives will be done elsewhere.
 Leave Link  702 at Tue Sep 17 09:46:25 2024, MaxMem=  1342177280 cpu:               0.0 elap:               0.0
 (Enter /groups/ReismanLab/Software/Gaussian16_RevC/Linux_Binary_AVX2-enabled-CPU/g16/l703.exe)
 Integral derivatives from FoFJK, PRISM(SPDF).
 Compute integral first derivatives, UseDBF=F ICtDFT=           0.
 Calling FoFJK, ICntrl=      2127 FMM=F ISym2X=0 I1Cent= 0 IOpClX= 0 NMat=1 NMatS=1 NMatT=0.
 FoFJK:  IHMeth= 1 ICntrl=    2127 DoSepK=F KAlg= 0 I1Cent=           0 FoldK=F
 IRaf=         0 NMat=       1 IRICut=       1 DoRegI=T DoRafI=F ISym2E= 0 IDoP0=0 IntGTp=1.
 FoFCou: FMM=F IPFlag=           0 FMFlag=      100000 FMFlg1=         800
         NFxFlg=           0 DoJE=F BraDBF=F KetDBF=F FulRan=T
         wScrn=  0.000000 ICntrl=      2127 IOpCl=  0 I1Cent=           0 NGrid=           0
         NMat0=    1 NMatS0=      1 NMatT0=    0 NMatD0=    1 NMtDS0=    0 NMtDT0=    0
 Symmetry not used in FoFCou.
 Leave Link  703 at Tue Sep 17 09:46:27 2024, MaxMem=  1342177280 cpu:              16.4 elap:               2.1
 (Enter /groups/ReismanLab/Software/Gaussian16_RevC/Linux_Binary_AVX2-enabled-CPU/g16/l716.exe)
 Dipole        =-1.03229667D+00-3.98074883D-01 3.21421362D-05
 ***** Axes restored to original set *****
 -------------------------------------------------------------------
 Center     Atomic                   Forces (Hartrees/Bohr)
 Number     Number              X              Y              Z
 -------------------------------------------------------------------
      1        6           0.001173377   -0.001592207   -0.000004352
      2        8           0.001058677    0.001364177   -0.000001824
      3        6          -0.002647029   -0.000541233    0.000010492
      4        6          -0.000385172   -0.000249923   -0.000000892
      5        6          -0.000068461    0.000771888   -0.000001204
      6        6           0.000684929   -0.000148187    0.000000012
      7       35           0.001256243    0.000163561    0.000001085
      8        6           0.000165607   -0.000580546   -0.000001403
      9        6           0.000332796   -0.000481616   -0.000003400
     10        1          -0.000447769    0.000503999    0.000000337
     11        1          -0.000141184    0.000272244   -0.000016207
     12        1          -0.000138262    0.000270606    0.000017663
     13        1          -0.000647408    0.000479742   -0.000000117
     14        1           0.000055630    0.000121968   -0.000000761
     15        1           0.000048154   -0.000128596   -0.000000129
     16        1          -0.000300129   -0.000225877    0.000000700
 -------------------------------------------------------------------
 Cartesian Forces:  Max     0.002647029 RMS     0.000633718
 Leave Link  716 at Tue Sep 17 09:46:27 2024, MaxMem=  1342177280 cpu:               0.0 elap:               0.0
 (Enter /groups/ReismanLab/Software/Gaussian16_RevC/Linux_Binary_AVX2-enabled-CPU/g16/l103.exe)

 GradGradGradGradGradGradGradGradGradGradGradGradGradGradGradGradGradGrad
 Berny optimization.
 Using GEDIIS/GDIIS optimizer.
 FormGI is forming the generalized inverse of G from B-inverse, IUseBI=4.
 Internal  Forces:  Max     0.001610246 RMS     0.000509589
 Search for a local minimum.
 Step number   2 out of a maximum of   80
 All quantities printed in internal units (Hartrees-Bohrs-Radians)
 RMS Force = .50959D-03 SwitMx=.10000D-02 MixMth= 2
 Mixed Optimization -- En-DIIS/RFO-DIIS
 Update second derivatives using D2CorX and points    1    2
 DE= -7.05D-04 DEPred=-8.05D-04 R= 8.75D-01
 TightC=F SS=  1.41D+00  RLast= 6.47D-02 DXNew= 5.0454D-01 1.9417D-01
 Trust test= 8.75D-01 RLast= 6.47D-02 DXMaxT set to 3.00D-01
 ITU=  1  0
 Use linear search instead of GDIIS.
     Eigenvalues ---    0.01585   0.02164   0.02198   0.02239   0.02256
     Eigenvalues ---    0.02259   0.02288   0.02299   0.02315   0.02319
     Eigenvalues ---    0.02341   0.10101   0.10646   0.15990   0.16000
     Eigenvalues ---    0.16000   0.16000   0.16000   0.16000   0.16233
     Eigenvalues ---    0.18314   0.22002   0.22942   0.23913   0.24919
     Eigenvalues ---    0.25000   0.25753   0.34292   0.34306   0.34992
     Eigenvalues ---    0.36007   0.36105   0.36194   0.36563   0.42939
     Eigenvalues ---    0.43038   0.43723   0.47020   0.48311   0.48420
     Eigenvalues ---    0.50784   0.55045
 RFO step:  Lambda=-3.08131571D-05 EMin= 1.58460156D-02
 Quartic linear search produced a step of -0.10361.
 Iteration  1 RMS(Cart)=  0.00578272 RMS(Int)=  0.00001419
 Iteration  2 RMS(Cart)=  0.00001870 RMS(Int)=  0.00000010
 Iteration  3 RMS(Cart)=  0.00000000 RMS(Int)=  0.00000010
 ITry= 1 IFail=0 DXMaxC= 2.29D-02 DCOld= 1.00D+10 DXMaxT= 3.00D-01 DXLimC= 3.00D+00 Rises=F
 Variable       Old X    -DE/DX   Delta X   Delta X   Delta X     New X
                                 (Linear)    (Quad)   (Total)
    R1        2.67760   0.00070  -0.00173   0.00345   0.00172   2.67932
    R2        2.06127  -0.00025  -0.00042  -0.00014  -0.00056   2.06071
    R3        2.07425  -0.00015  -0.00060   0.00032  -0.00028   2.07397
    R4        2.07425  -0.00015  -0.00061   0.00032  -0.00028   2.07397
    R5        2.57139   0.00161  -0.00070   0.00352   0.00282   2.57421
    R6        2.64499  -0.00021  -0.00152   0.00145  -0.00007   2.64492
    R7        2.65219  -0.00108  -0.00111  -0.00076  -0.00187   2.65032
    R8        2.64161  -0.00102  -0.00258   0.00116  -0.00142   2.64019
    R9        2.04769  -0.00076  -0.00106  -0.00063  -0.00169   2.04600
   R10        2.62696  -0.00131  -0.00175  -0.00040  -0.00214   2.62481
   R11        2.04827  -0.00013  -0.00091   0.00073  -0.00018   2.04810
   R12        3.61850  -0.00126  -0.00174  -0.00432  -0.00605   3.61245
   R13        2.63987  -0.00120  -0.00208   0.00013  -0.00196   2.63792
   R14        2.62522  -0.00113  -0.00228   0.00061  -0.00168   2.62354
[...]
 SCF GIAO Magnetic shielding tensor (ppm):
      1  C    Isotropic =   129.6863   Anisotropy =    73.8022
   XX=   135.7080   YX=    40.9934   ZX=    -0.0020
   XY=    36.1726   YY=   144.4121   ZY=    -0.0026
   XZ=    -0.0012   YZ=    -0.0032   ZZ=   108.9388
   Eigenvalues:   101.2323   108.9388   178.8877
      2  O    Isotropic =   225.2248   Anisotropy =    96.0162
   XX=   245.4115   YX=   -42.2250   ZX=     0.0023
   XY=   -86.0670   YY=   141.0272   ZY=     0.0026
   XZ=     0.0001   YZ=    -0.0040   ZZ=   289.2356
   Eigenvalues:   110.5228   275.9159   289.2356
      3  C    Isotropic =     3.1764   Anisotropy =   169.8695
   XX=   -97.6718   YX=     3.3806   ZX=     0.0075
   XY=     6.2706   YY=    -9.2218   ZY=    -0.0028
   XZ=     0.0067   YZ=    -0.0035   ZZ=   116.4227
   Eigenvalues:   -97.9343    -8.9593   116.4227
      4  C    Isotropic =    56.5814   Anisotropy =   184.3229
   XX=    12.9978   YX=   -46.7795   ZX=     0.0044
   XY=   -26.3056   YY=   -22.7169   ZY=    -0.0031
   XZ=     0.0031   YZ=    -0.0024   ZZ=   179.4634
   Eigenvalues:   -45.5319    35.8129   179.4634
      5  C    Isotropic =    30.5015   Anisotropy =   184.9363
   XX=     2.8275   YX=    42.5624   ZX=     0.0057
   XY=    45.4137   YY=   -65.1155   ZY=    -0.0057
   XZ=     0.0060   YZ=    -0.0063   ZZ=   153.7924
   Eigenvalues:   -86.7229    24.4349   153.7924
      6  C    Isotropic =    37.0919   Anisotropy =   124.7277
   XX=   -73.3250   YX=    14.6084   ZX=     0.0068
   XY=    13.0720   YY=    64.3570   ZY=    -0.0015
   XZ=     0.0073   YZ=    -0.0017   ZZ=   120.2437
   Eigenvalues:   -74.7025    65.7345   120.2437
      7  Br   Isotropic =  2122.3045   Anisotropy =  1273.4585
   XX=  2962.5043   YX=  -100.5209   ZX=    -0.0472
   XY=  -106.7469   YY=  1747.0052   ZY=     0.0053
   XZ=    -0.0479   YZ=     0.0043   ZZ=  1657.4041
   Eigenvalues:  1657.4041  1738.2326  2971.2768
      8  C    Isotropic =    30.1870   Anisotropy =   185.4077
   XX=    -7.8055   YX=   -48.6383   ZX=     0.0044
   XY=   -51.1140   YY=   -55.4256   ZY=    -0.0020
   XZ=     0.0046   YZ=    -0.0019   ZZ=   153.7922
   Eigenvalues:   -86.8835    23.6524   153.7922
      9  C    Isotropic =    45.5482   Anisotropy =   173.5809
   XX=    17.0437   YX=    34.8064   ZX=     0.0054
   XY=    32.6154   YY=   -41.6678   ZY=    -0.0047
   XZ=     0.0053   YZ=    -0.0053   ZZ=   161.2689
   Eigenvalues:   -57.0131    32.3890   161.2689
     10  H    Isotropic =    27.8277   Anisotropy =     8.3129
   XX=    33.1565   YX=     0.0983   ZX=    -0.0006
   XY=     2.2662   YY=    26.8122   ZY=    -0.0001
   XZ=    -0.0006   YZ=    -0.0000   ZZ=    23.5144
   Eigenvalues:    23.5144    26.5990    33.3696
     11  H    Isotropic =    28.2591   Anisotropy =     8.0044
   XX=    27.9076   YX=     3.3365   ZX=     2.1818
   XY=     1.3296   YY=    29.5671   ZY=     3.4410
   XZ=     2.2762   YZ=     2.8899   ZZ=    27.3026
   Eigenvalues:    24.9208    26.2612    33.5954
     12  H    Isotropic =    28.2592   Anisotropy =     8.0043
   XX=    27.9072   YX=     3.3362   ZX=    -2.1818
   XY=     1.3292   YY=    29.5671   ZY=    -3.4410
   XZ=    -2.2762   YZ=    -2.8902   ZZ=    27.3031
   Eigenvalues:    24.9209    26.2613    33.5954
     13  H    Isotropic =    24.3637   Anisotropy =     8.5472
   XX=    28.3786   YX=    -3.5995   ZX=    -0.0004
   XY=    -2.7320   YY=    24.1077   ZY=     0.0002
   XZ=    -0.0003   YZ=     0.0002   ZZ=    20.6047
   Eigenvalues:    20.6047    22.4245    30.0618
     14  H    Isotropic =    23.6814   Anisotropy =    10.4561
   XX=    28.4470   YX=     4.3563   ZX=    -0.0002
   XY=     3.6875   YY=    23.3165   ZY=    -0.0001
   XZ=    -0.0002   YZ=    -0.0001   ZZ=    19.2806
   Eigenvalues:    19.2806    21.1114    30.6521
     15  H    Isotropic =    23.7540   Anisotropy =    10.0211
   XX=    26.8429   YX=    -4.8161   ZX=    -0.0003
   XY=    -4.1094   YY=    24.8900   ZY=     0.0002
   XZ=    -0.0003   YZ=     0.0003   ZZ=    19.5293
   Eigenvalues:    19.5293    21.2981    30.4348
     16  H    Isotropic =    24.1453   Anisotropy =     6.9546
   XX=    27.7971   YX=     2.4474   ZX=    -0.0002
   XY=     1.9942   YY=    23.7727   ZY=    -0.0000
   XZ=    -0.0002   YZ=    -0.0000   ZZ=    20.8662
   Eigenvalues:    20.8662    22.7881    28.7817
 End of Minotr F.D. properties file   721 does not exist.
 End of Minotr F.D. properties file   722 does not exist.
 End of Minotr F.D. properties file   788 does not exist.
 Leave Link 1002 at Tue Sep 17 10:15:59 2024, MaxMem=  1342177280 cpu:             390.7 elap:             391.7
 (Enter /groups/ReismanLab/Software/Gaussian16_RevC/Linux_Binary_AVX2-enabled-CPU/g16/l601.exe)
 Copying SCF densities to generalized density rwf, IOpCl= 0 IROHF=0.

 **********************************************************************

            Population analysis using the SCF Density.

 **********************************************************************

 Orbital symmetries:
       Occupied  (A) (A) (A) (A) (A) (A) (A) (A) (A) (A) (A) (A)
                 (A) (A) (A) (A) (A) (A) (A) (A) (A) (A) (A) (A)
                 (A) (A) (A) (A) (A) (A) (A) (A) (A) (A) (A) (A)
                 (A) (A) (A) (A) (A) (A) (A) (A) (A) (A)
       Virtual   (A) (A) (A) (A) (A) (A) (A) (A) (A) (A) (A) (A)
                 (A) (A) (A) (A) (A) (A) (A) (A) (A) (A) (A) (A)
                 (A) (A) (A) (A) (A) (A) (A) (A) (A) (A) (A) (A)
                 (A) (A) (A) (A) (A) (A) (A) (A) (A) (A) (A) (A)
                 (A) (A) (A) (A) (A) (A) (A) (A) (A) (A) (A) (A)
                 (A) (A) (A) (A) (A) (A) (A) (A) (A) (A) (A) (A)
                 (A) (A) (A) (A) (A) (A) (A) (A) (A) (A) (A) (A)
                 (A) (A) (A) (A) (A) (A) (A) (A) (A) (A) (A) (A)
                 (A) (A) (A) (A) (A) (A) (A) (A) (A) (A) (A) (A)
                 (A) (A) (A) (A) (A) (A) (A) (A) (A) (A) (A) (A)
                 (A) (A) (A) (A) (A) (A) (A) (A) (A) (A) (A) (A)
                 (A) (A) (A) (A) (A) (A) (A) (A) (A) (A) (A) (A)
                 (A) (A) (A) (A) (A) (A) (A) (A) (A) (A) (A) (A)
                 (A) (A) (A) (A) (A) (A) (A) (A) (A) (A) (A) (A)
                 (A) (A) (A) (A) (A) (A) (A) (A) (A) (A) (A) (A)
                 (A) (A) (A) (A) (A) (A) (A) (A) (A) (A) (A) (A)
                 (A) (A) (A) (A) (A) (A) (A) (A) (A) (A) (A) (A)
                 (A) (A) (A) (A) (A) (A) (A) (A) (A) (A) (A) (A)
                 (A) (A) (A) (A) (A) (A) (A) (A) (A) (A) (A) (A)
                 (A) (A) (A) (A) (A) (A) (A) (A) (A) (A) (A) (A)
                 (A) (A) (A) (A) (A) (A) (A) (A) (A) (A) (A) (A)
                 (A) (A) (A) (A) (A) (A) (A) (A) (A) (A) (A) (A)
                 (A) (A) (A) (A) (A) (A) (A) (A) (A) (A) (A) (A)
                 (A) (A) (A) (A) (A) (A) (A) (A) (A) (A) (A) (A)
                 (A) (A) (A) (A)
 The electronic state is 1-A.
 Alpha  occ. eigenvalues -- -485.37180 -63.35660 -57.17604 -57.17368 -57.17365
 Alpha  occ. eigenvalues --  -19.66165 -10.61232 -10.59607 -10.58929 -10.55812
 Alpha  occ. eigenvalues --  -10.55719 -10.55171 -10.54865  -9.02305  -6.84708
 Alpha  occ. eigenvalues --   -6.83834  -6.83826  -2.88085  -2.87766  -2.87752
 Alpha  occ. eigenvalues --   -2.86938  -2.86937  -1.19560  -0.97709  -0.89676
 Alpha  occ. eigenvalues --   -0.85926  -0.83116  -0.77828  -0.70799  -0.67188
 Alpha  occ. eigenvalues --   -0.61681  -0.56823  -0.55217  -0.54048  -0.52285
 Alpha  occ. eigenvalues --   -0.50187  -0.48866  -0.46483  -0.43819  -0.42214
 Alpha  occ. eigenvalues --   -0.41488  -0.40107  -0.35775  -0.34893  -0.32173
 Alpha  occ. eigenvalues --   -0.27586
 Alpha virt. eigenvalues --    0.00824   0.02413   0.03921   0.07992   0.10007
 Alpha virt. eigenvalues --    0.11138   0.12287   0.13370   0.14061   0.15312
 Alpha virt. eigenvalues --    0.16057   0.17255   0.18107   0.19206   0.22067
 Alpha virt. eigenvalues --    0.23067   0.23577   0.24531   0.24770   0.25636
 Alpha virt. eigenvalues --    0.26178   0.27150   0.27254   0.29619   0.29934
 Alpha virt. eigenvalues --    0.30815   0.31492   0.32785   0.32803   0.35439
 Alpha virt. eigenvalues --    0.35965   0.37236   0.39034   0.39135   0.40570
 Alpha virt. eigenvalues --    0.40637   0.42046   0.42263   0.43011   0.44309
 Alpha virt. eigenvalues --    0.44954   0.45495   0.46938   0.47974   0.48590
 Alpha virt. eigenvalues --    0.49368   0.50695   0.52161   0.52872   0.55433
 Alpha virt. eigenvalues --    0.56928   0.58137   0.58381   0.61076   0.62741
 Alpha virt. eigenvalues --    0.62995   0.65784   0.67432   0.67658   0.68005
 Alpha virt. eigenvalues --    0.70325   0.72716   0.74371   0.75276   0.75950
 Alpha virt. eigenvalues --    0.76820   0.78535   0.80425   0.85083   0.85471
 Alpha virt. eigenvalues --    0.87526   0.88950   0.90586   0.90810   0.91981
 Alpha virt. eigenvalues --    0.92591   0.98146   0.99204   1.01193   1.01223
 Alpha virt. eigenvalues --    1.03968   1.08008   1.08149   1.09688   1.10439
 Alpha virt. eigenvalues --    1.13763   1.14263   1.20456   1.21303   1.22704
 Alpha virt. eigenvalues --    1.22918   1.24739   1.24893   1.27891   1.28748
 Alpha virt. eigenvalues --    1.29812   1.36041   1.38448   1.40110   1.41326
 Alpha virt. eigenvalues --    1.43665   1.44655   1.45023   1.48012   1.48620
 Alpha virt. eigenvalues --    1.49802   1.50967   1.51398   1.53939   1.56173
 Alpha virt. eigenvalues --    1.56499   1.57765   1.58005   1.58532   1.59009
 Alpha virt. eigenvalues --    1.59422   1.62882   1.65029   1.66141   1.66466
 Alpha virt. eigenvalues --    1.66750   1.69209   1.70675   1.71312   1.74026
 Alpha virt. eigenvalues --    1.74363   1.75009   1.76774   1.79543   1.83423
 Alpha virt. eigenvalues --    1.83756   1.86810   1.87053   1.87283   1.91109
 Alpha virt. eigenvalues --    1.91787   1.93007   1.94228   1.97251   1.98826
 Alpha virt. eigenvalues --    2.01842   2.06113   2.07018   2.08639   2.10136
 Alpha virt. eigenvalues --    2.13701   2.17441   2.18955   2.21613   2.23791
 Alpha virt. eigenvalues --    2.27514   2.29130   2.31096   2.33910   2.35262
 Alpha virt. eigenvalues --    2.35874   2.37952   2.41698   2.45242   2.46309
 Alpha virt. eigenvalues --    2.50278   2.54354   2.54831   2.55238   2.57392
 Alpha virt. eigenvalues --    2.58891   2.61180   2.64434   2.65196   2.68765
 Alpha virt. eigenvalues --    2.69119   2.70557   2.70564   2.72201   2.73492
 Alpha virt. eigenvalues --    2.75884   2.76634   2.79430   2.80618   2.81141
 Alpha virt. eigenvalues --    2.84020   2.86037   2.86980   2.88028   2.88626
 Alpha virt. eigenvalues --    2.90278   2.91925   2.93265   2.96536   3.01231
 Alpha virt. eigenvalues --    3.02271   3.05491   3.08151   3.10602   3.12932
 Alpha virt. eigenvalues --    3.14246   3.14751   3.15554   3.17566   3.20214
 Alpha virt. eigenvalues --    3.21419   3.21902   3.23443   3.23970   3.26114
 Alpha virt. eigenvalues --    3.29830   3.31462   3.32787   3.33069   3.34126
 Alpha virt. eigenvalues --    3.35695   3.36404   3.38878   3.40068   3.43614
 Alpha virt. eigenvalues --    3.45163   3.45636   3.46192   3.49963   3.50885
 Alpha virt. eigenvalues --    3.51171   3.51597   3.52627   3.56280   3.57688
 Alpha virt. eigenvalues --    3.59445   3.65782   3.72032   3.73942   3.74756
 Alpha virt. eigenvalues --    3.77485   3.80665   3.92661   3.99286   4.00331
 Alpha virt. eigenvalues --    4.01125   4.03091   4.06588   4.07629   4.12851
 Alpha virt. eigenvalues --    4.13491   4.14201   4.14593   4.16044   4.17071
 Alpha virt. eigenvalues --    4.18205   4.20816   4.22864   4.23302   4.26146
 Alpha virt. eigenvalues --    4.28069   4.36133   4.38581   4.45407   4.47824
 Alpha virt. eigenvalues --    4.52780   4.52842   4.55869   4.56958   4.63135
 Alpha virt. eigenvalues --    4.73179   4.80060   4.84735   4.85985   4.87272
 Alpha virt. eigenvalues --    4.96759   5.10863   5.18455   5.24847   5.35718
 Alpha virt. eigenvalues --    5.35991   5.43821   5.56157   5.73911   5.88478
 Alpha virt. eigenvalues --    5.95948   6.28454   6.46439   6.62948   6.76152
 Alpha virt. eigenvalues --    6.83861   7.13696   7.36063   7.85984  22.12540
 Alpha virt. eigenvalues --   22.46946  22.72325  22.74430  22.77184  22.89158
 Alpha virt. eigenvalues --   23.29897  44.34302
          Condensed to atoms (all electrons):
               1          2          3          4          5          6
     1  C    4.925550   0.225111  -0.086702   0.003979  -0.006723   0.001366
     2  O    0.225111   7.947166   0.357737  -0.083658   0.010040  -0.000703
     3  C   -0.086702   0.357737   4.841742   0.254674   0.098799  -0.095683
     4  C    0.003979  -0.083658   0.254674   5.419208   0.212339   0.072963
     5  C   -0.006723   0.010040   0.098799   0.212339   5.266377   0.359969
     6  C    0.001366  -0.000703  -0.095683   0.072963   0.359969   4.960560
     7  Br  -0.000011   0.000002  -0.005967   0.024834  -0.103691   0.361675
     8  C   -0.001709   0.003150   0.020506  -0.139208   0.061373   0.379311
     9  C    0.008966  -0.066087   0.416577   0.088151  -0.133850   0.028772
    10  H    0.402015  -0.029254   0.005650  -0.001135   0.000380  -0.000071
    11  H    0.415457  -0.039868  -0.011460   0.005852  -0.001331   0.000179
    12  H    0.415457  -0.039869  -0.011457   0.005851  -0.001332   0.000179
    13  H    0.006771  -0.005972  -0.035172   0.404303  -0.011864   0.000598
    14  H    0.000020  -0.000077   0.003353  -0.021773   0.405007  -0.040651
    15  H    0.000022  -0.000107   0.009490  -0.006133   0.015831  -0.051903
    16  H    0.000121   0.008518  -0.051372   0.014380  -0.004400   0.006606
               7          8          9         10         11         12
     1  C   -0.000011  -0.001709   0.008966   0.402015   0.415457   0.415457
     2  O    0.000002   0.003150  -0.066087  -0.029254  -0.039868  -0.039869
     3  C   -0.005967   0.020506   0.416577   0.005650  -0.011460  -0.011457
     4  C    0.024834  -0.139208   0.088151  -0.001135   0.005852   0.005851
     5  C   -0.103691   0.061373  -0.133850   0.000380  -0.001331  -0.001332
     6  C    0.361675   0.379311   0.028772  -0.000071   0.000179   0.000179
     7  Br  34.943285  -0.103208   0.024744  -0.000000   0.000002   0.000002
     8  C   -0.103208   5.116840   0.398341   0.000166  -0.000279  -0.000279
     9  C    0.024744   0.398341   5.081197  -0.001100   0.001597   0.001597
    10  H   -0.000000   0.000166  -0.001100   0.497226  -0.018969  -0.018968
    11  H    0.000002  -0.000279   0.001597  -0.018969   0.544894  -0.055152
    12  H    0.000002  -0.000279   0.001597  -0.018968  -0.055152   0.544892
    13  H   -0.000321   0.001230   0.001142  -0.000260  -0.001139  -0.001139
    14  H   -0.007201   0.010893  -0.002206   0.000002  -0.000026  -0.000026
    15  H   -0.007697   0.426410  -0.041575   0.000001  -0.000002  -0.000002
    16  H   -0.000197  -0.031931   0.414433  -0.000213   0.000114   0.000114
              13         14         15         16
     1  C    0.006771   0.000020   0.000022   0.000121
     2  O   -0.005972  -0.000077  -0.000107   0.008518
     3  C   -0.035172   0.003353   0.009490  -0.051372
     4  C    0.404303  -0.021773  -0.006133   0.014380
     5  C   -0.011864   0.405007   0.015831  -0.004400
     6  C    0.000598  -0.040651  -0.051903   0.006606
     7  Br  -0.000321  -0.007201  -0.007697  -0.000197
     8  C    0.001230   0.010893   0.426410  -0.031931
     9  C    0.001142  -0.002206  -0.041575   0.414433
    10  H   -0.000260   0.000002   0.000001  -0.000213
    11  H   -0.001139  -0.000026  -0.000002   0.000114
    12  H   -0.001139  -0.000026  -0.000002   0.000114
    13  H    0.460701  -0.001736   0.000037  -0.000081
    14  H   -0.001736   0.474001   0.000032   0.000051
    15  H    0.000037   0.000032   0.479766  -0.004643
    16  H   -0.000081   0.000051  -0.004643   0.477186
 Mulliken charges:
               1
     1  C   -0.309689
     2  O   -0.286131
     3  C    0.289282
     4  C   -0.254627
     5  C   -0.166924
     6  C    0.016833
     7  Br  -0.126253
     8  C   -0.141606
     9  C   -0.220701
    10  H    0.164530
    11  H    0.160130
    12  H    0.160131
    13  H    0.182902
    14  H    0.180336
    15  H    0.180473
    16  H    0.171314
 Sum of Mulliken charges =  -0.00000
 Mulliken charges with hydrogens summed into heavy atoms:
               1
     1  C    0.175102
     2  O   -0.286131
     3  C    0.289282
     4  C   -0.071725
     5  C    0.013412
     6  C    0.016833
     7  Br  -0.126253
     8  C    0.038868
     9  C   -0.049387
 Electronic spatial extent (au):  <R**2>=           2377.4975
 Charge=             -0.0000 electrons
 Dipole moment (field-independent basis, Debye):
    X=             -3.0197    Y=             -1.1710    Z=              0.0001  Tot=              3.2388
 Quadrupole moment (field-independent basis, Debye-Ang):
   XX=            -59.2464   YY=            -59.4422   ZZ=            -69.1231
   XY=              5.9866   XZ=             -0.0005   YZ=             -0.0000
 Traceless Quadrupole moment (field-independent basis, Debye-Ang):
   XX=              3.3575   YY=              3.1617   ZZ=             -6.5192
   XY=              5.9866   XZ=             -0.0005   YZ=             -0.0000
 Octapole moment (field-independent basis, Debye-Ang**2):
  XXX=             15.4999  YYY=              0.2673  ZZZ=             -0.0024  XYY=             18.3492
  XXY=            -22.8028  XXZ=              0.0017  XZZ=             22.8056  YZZ=             -1.9848
  YYZ=             -0.0006  XYZ=              0.0006
 Hexadecapole moment (field-independent basis, Debye-Ang**3):
 XXXX=          -2022.9602 YYYY=           -329.2546 ZZZZ=            -86.3101 XXXY=             67.1058
 XXXZ=              0.0264 YYYX=            -11.7429 YYYZ=             -0.0005 ZZZX=              0.0419
 ZZZY=             -0.0022 XXYY=           -439.5706 XXZZ=           -408.9611 YYZZ=            -81.6033
 XXYZ=             -0.0026 YYXZ=              0.0132 ZZXY=             -1.2392
 N-N= 6.157232644821D+02 E-N=-8.190032523237D+03  KE= 2.915182161399D+03
 Calculating spin-rotation constants.
 Leave Link  601 at Tue Sep 17 10:16:01 2024, MaxMem=  1342177280 cpu:               2.4 elap:               2.4
 (Enter /groups/ReismanLab/Software/Gaussian16_RevC/Linux_Binary_AVX2-enabled-CPU/g16/l9999.exe)
 Unable to Open any file for archive entry.
 1\1\GINC-HPC-20-31\SP\RM062X\def2TZVP\C7H7Br1O1\MANTIND\17-Sep-2024\0\
 \#p M062X/def2tzvp geom=check guess=read scf(xqc,tight) integral(grid=
 ultrafine) scrf(SMD, solvent=1,4-Dioxane) nmr=giao\\spe\\0,1\C,0,4.460
 1619933,-0.6879906166,-0.0001221004\O,0,3.6144637729,0.4507127654,-0.0
 000679241\C,0,2.2675073089,0.244684667,-0.0000207621\C,0,1.6568476507,
 -1.0140575014,0.0000234206\C,0,0.2632304228,-1.1099984932,0.0000704486
 \C,0,-0.5088123407,0.0444119046,0.0000748976\Br,0,-2.4154954084,-0.091
 4788709,0.0001424062\C,0,0.0907079683,1.3048064303,0.0000328491\C,0,1.
 475432493,1.4016943725,-0.0000154458\H,0,5.4810374315,-0.304970268,-0.
 000189002\H,0,4.3050448383,-1.305484705,0.8936479114\H,0,4.3049274554,
 -1.3054879367,-0.8938691928\H,0,2.2458152882,-1.9224309689,0.000024116
 8\H,0,-0.2135760979,-2.0831648914,0.000104966\H,0,-0.5218640644,2.1986
 803879,0.0000379878\H,0,1.9679098833,2.3677754252,-0.0000486549\\Versi
 on=ES64L-G16RevC.02\State=1-A\HF=-2920.3545493\RMSD=2.324e-09\Dipole=1
 .182192,-0.4755353,-0.000052\Quadrupole=2.3848291,2.4620364,-4.8468655
 ,-4.4513336,-0.0003493,0.0000258\PG=C01 [X(C7H7Br1O1)]\\@
 The archive entry for this job was punched.


  DISAPPOINTMENT IS THE NURSE OF WISDOM.               
                              SIR BOYLE ROCHE                 
 Job cpu time:       0 days  0 hours  7 minutes 16.0 seconds.
 Elapsed time:       0 days  0 hours  7 minutes 17.7 seconds.
 File lengths (MBytes):  RWF=    216 Int=      0 D2E=      0 Chk=     24 Scr=     16
 Normal termination of Gaussian 16 at Tue Sep 17 10:16:01 2024.
