 Entering Gaussian System, Link 0=g16
 Input=smiles_00073_conf_0.gjf
 Output=smiles_00073_conf_0.log
 Initial command:
 /groups/ReismanLab/Software/Gaussian16_RevC/Linux_Binary_AVX2-enabled-CPU/g16/l1.exe "/central/groups/ReismanLab/DM/dft_final/smiles_00073/Gau-1044416.inp" -scrdir="/central/groups/ReismanLab/DM/dft_final/smiles_00073/"
 Entering Link 1 = /groups/ReismanLab/Software/Gaussian16_RevC/Linux_Binary_AVX2-enabled-CPU/g16/l1.exe PID=   1044417.
  
 Copyright (c) 1988-2021, Gaussian, Inc.  All Rights Reserved.
  
 This is part of the Gaussian(R) 16 program.  It is based on
 the Gaussian(R) 09 system (copyright 2009, Gaussian, Inc.),
 the Gaussian(R) 03 system (copyright 2003, Gaussian, Inc.),
 the Gaussian(R) 98 system (copyright 1998, Gaussian, Inc.),
 the Gaussian(R) 94 system (copyright 1995, Gaussian, Inc.),
 the Gaussian 92(TM) system (copyright 1992, Gaussian, Inc.),
 the Gaussian 90(TM) system (copyright 1990, Gaussian, Inc.),
 the Gaussian 88(TM) system (copyright 1988, Gaussian, Inc.),
 the Gaussian 86(TM) system (copyright 1986, Carnegie Mellon
 University), and the Gaussian 82(TM) system (copyright 1983,
 Carnegie Mellon University). Gaussian is a federally registered
 trademark of Gaussian, Inc.
  
 This software contains proprietary and confidential information,
 including trade secrets, belonging to Gaussian, Inc.
  
 This software is provided under written license and may be
 used, copied, transmitted, or stored only in accord with that
 written license.
  
 The following legend is applicable only to US Government
 contracts under FAR:
  
                    RESTRICTED RIGHTS LEGEND
  
 Use, reproduction and disclosure by the US Government is
 subject to restrictions as set forth in subparagraphs (a)
 and (c) of the Commercial Computer Software - Restricted
 Rights clause in FAR 52.227-19.
  
 Gaussian, Inc.
 340 Quinnipiac St., Bldg. 40, Wallingford CT 06492
  
  
 ---------------------------------------------------------------
 Warning -- This program may not be used in any manner that
 competes with the business of Gaussian, Inc. or will provide
 assistance to any competitor of Gaussian, Inc.  The licensee
 of this program is prohibited from giving any competitor of
 Gaussian, Inc. access to this program.  By using this program,
 the user acknowledges that Gaussian, Inc. is engaged in the
 business of creating and licensing software in the field of
 computational chemistry and represents and warrants to the
 licensee that it is not a competitor of Gaussian, Inc. and that
 it will not use this program in any manner prohibited above.
 ---------------------------------------------------------------
  

 Cite this work as:
 Gaussian 16, Revision C.02,
 M. J. Frisch, G. W. Trucks, H. B. Schlegel, G. E. Scuseria, 
 M. A. Robb, J. R. Cheeseman, G. Scalmani, V. Barone, 
 G. A. Petersson, H. Nakatsuji, X. Li, M. Caricato, A. V. Marenich, 
 J. Bloino, B. G. Janesko, R. Gomperts, B. Mennucci, H. P. Hratchian, 
 J. V. Ortiz, A. F. Izmaylov, J. L. Sonnenberg, D. Williams-Young, 
 F. Ding, F. Lipparini, F. Egidi, J. Goings, B. Peng, A. Petrone, 
 T. Henderson, D. Ranasinghe, V. G. Zakrzewski, J. Gao, N. Rega, 
 G. Zheng, W. Liang, M. Hada, M. Ehara, K. Toyota, R. Fukuda, 
 J. Hasegawa, M. Ishida, T. Nakajima, Y. Honda, O. Kitao, H. Nakai, 
 T. Vreven, K. Throssell, J. A. Montgomery, Jr., J. E. Peralta, 
 F. Ogliaro, M. J. Bearpark, J. J. Heyd, E. N. Brothers, K. N. Kudin, 
 V. N. Staroverov, T. A. Keith, R. Kobayashi, J. Normand, 
 K. Raghavachari, A. P. Rendell, J. C. Burant, S. S. Iyengar, 
 J. Tomasi, M. Cossi, J. M. Millam, M. Klene, C. Adamo, R. Cammi, 
 J. W. Ochterski, R. L. Martin, K. Morokuma, O. Farkas, 
 J. B. Foresman, and D. J. Fox, Gaussian, Inc., Wallingford CT, 2019.
 
 ******************************************
 Gaussian 16:  ES64L-G16RevC.02  7-Dec-2021
                17-Sep-2024 
 ******************************************
 %nprocshared=8
 Will use up to    8 processors via shared memory.
 %Mem=10GB
 %Chk=smiles_00073_conf_0.chk
 ----------------------------------------------------------------------
 #p B3LYP/6-31G(d,p) EmpiricalDispersion=GD3BJ opt freq scf(xqc,tight) 
 integral(grid=ultrafine)
 ----------------------------------------------------------------------
 1/18=20,19=15,26=4,38=1/1,3;
 2/9=110,12=2,17=6,18=5,40=1/2;
 3/5=1,6=6,7=101,11=2,25=1,30=1,71=1,74=-5,75=-5,124=41/1,2,3;
 4//1;
 5/5=2,8=3,13=1,32=2,38=5/2,8;
 6/7=2,8=2,9=2,10=2,28=1/1;
 7//1,2,3,16;
 1/18=20,19=15,26=4/3(2);
 2/9=110/2;
 99//99;
 2/9=110/2;
 3/5=1,6=6,7=101,11=2,25=1,30=1,71=1,74=-5,75=-5,124=41/1,2,3;
 4/5=5,16=3,69=1/1;
 5/5=2,8=3,13=1,32=2,38=5/2,8;
 7//1,2,3,16;
 1/18=20,19=15,26=4/3(-5);
 2/9=110/2;
 6/7=2,8=2,9=2,10=2,19=2,28=1/1;
 99/9=1/99;
 Leave Link    1 at Tue Sep 17 09:48:10 2024, MaxMem=  1342177280 cpu:               0.1 elap:               0.9
 (Enter /groups/ReismanLab/Software/Gaussian16_RevC/Linux_Binary_AVX2-enabled-CPU/g16/l101.exe)
 ----------------------------------
 opt-freq conformers_unique/conf_aa
 ----------------------------------
 Symbolic Z-matrix:
 Charge =  0 Multiplicity = 1
 Cl                    3.28874  -0.40588  -0.00007 
 C                     1.61426   0.03336  -0.00002 
 C                     1.27733   1.39716   0.00009 
 C                    -0.0377    1.76518   0.00003 
 C                    -1.06507   0.7979    0.00005 
 C                    -2.42999   1.1518    0.00001 
 C                    -3.40076   0.18934  -0.00013 
 C                    -3.05087  -1.17004  -0.00007 
 C                    -1.73681  -1.54611   0.00019 
 C                    -0.71148  -0.5773    0.00012 
 C                     0.6521   -0.93751   0.00001 
 H                     2.06365   2.13563  0. 
 H                    -0.3081    2.81109   0.00023 
 H                    -2.69405   2.19962  -0.00022 
 H                    -4.44436   0.46743  -0.00069 
 H                    -3.83089  -1.91709  -0.00042 
 H                    -1.46332  -2.59127   0.0002 
 H                     0.92377  -1.98213  -0.00006 
 
 ITRead=  0  0  0  0  0  0  0  0  0  0  0  0  0  0  0  0  0  0
 MicOpt= -1 -1 -1 -1 -1 -1 -1 -1 -1 -1 -1 -1 -1 -1 -1 -1 -1 -1
 NAtoms=     18 NQM=       18 NQMF=       0 NMMI=      0 NMMIF=      0
                NMic=       0 NMicF=      0.
                    Isotopes and Nuclear Properties:
 (Nuclear quadrupole moments (NQMom) in fm**2, nuclear magnetic moments (NMagM)
  in nuclear magnetons)

  Atom         1           2           3           4           5           6           7           8           9          10
 IAtWgt=          35          12          12          12          12          12          12          12          12          12
 AtmWgt=  34.9688527  12.0000000  12.0000000  12.0000000  12.0000000  12.0000000  12.0000000  12.0000000  12.0000000  12.0000000
 NucSpn=           3           0           0           0           0           0           0           0           0           0
 AtZEff=  -0.0000000  -0.0000000  -0.0000000  -0.0000000  -0.0000000  -0.0000000  -0.0000000  -0.0000000  -0.0000000  -0.0000000
 NQMom=   -8.1650000   0.0000000   0.0000000   0.0000000   0.0000000   0.0000000   0.0000000   0.0000000   0.0000000   0.0000000
 NMagM=    0.8218740   0.0000000   0.0000000   0.0000000   0.0000000   0.0000000   0.0000000   0.0000000   0.0000000   0.0000000
 AtZNuc=  17.0000000   6.0000000   6.0000000   6.0000000   6.0000000   6.0000000   6.0000000   6.0000000   6.0000000   6.0000000

  Atom        11          12          13          14          15          16          17          18
 IAtWgt=          12           1           1           1           1           1           1           1
 AtmWgt=  12.0000000   1.0078250   1.0078250   1.0078250   1.0078250   1.0078250   1.0078250   1.0078250
 NucSpn=           0           1           1           1           1           1           1           1
 AtZEff=  -0.0000000  -0.0000000  -0.0000000  -0.0000000  -0.0000000  -0.0000000  -0.0000000  -0.0000000
 NQMom=    0.0000000   0.0000000   0.0000000   0.0000000   0.0000000   0.0000000   0.0000000   0.0000000
 NMagM=    0.0000000   2.7928460   2.7928460   2.7928460   2.7928460   2.7928460   2.7928460   2.7928460
 AtZNuc=   6.0000000   1.0000000   1.0000000   1.0000000   1.0000000   1.0000000   1.0000000   1.0000000
 Leave Link  101 at Tue Sep 17 09:48:10 2024, MaxMem=  1342177280 cpu:               0.2 elap:               0.3
 (Enter /groups/ReismanLab/Software/Gaussian16_RevC/Linux_Binary_AVX2-enabled-CPU/g16/l103.exe)

 GradGradGradGradGradGradGradGradGradGradGradGradGradGradGradGradGradGrad
 Berny optimization.
 Initialization pass.
                           ----------------------------
                           !    Initial Parameters    !
                           ! (Angstroms and Degrees)  !
 --------------------------                            --------------------------
 ! Name  Definition              Value          Derivative Info.                !
 --------------------------------------------------------------------------------
 ! R1    R(1,2)                  1.7311         estimate D2E/DX2                !
 ! R2    R(2,3)                  1.4048         estimate D2E/DX2                !
 ! R3    R(2,11)                 1.3669         estimate D2E/DX2                !
 ! R4    R(3,4)                  1.3656         estimate D2E/DX2                !
 ! R5    R(3,12)                 1.0787         estimate D2E/DX2                !
 ! R6    R(4,5)                  1.4111         estimate D2E/DX2                !
 ! R7    R(4,13)                 1.0803         estimate D2E/DX2                !
 ! R8    R(5,6)                  1.4101         estimate D2E/DX2                !
 ! R9    R(5,10)                 1.4199         estimate D2E/DX2                !
 ! R10   R(6,7)                  1.367          estimate D2E/DX2                !
 ! R11   R(6,14)                 1.0806         estimate D2E/DX2                !
 ! R12   R(7,8)                  1.4037         estimate D2E/DX2                !
 ! R13   R(7,15)                 1.08           estimate D2E/DX2                !
 ! R14   R(8,9)                  1.3668         estimate D2E/DX2                !
 ! R15   R(8,16)                 1.0801         estimate D2E/DX2                !
 ! R16   R(9,10)                 1.4106         estimate D2E/DX2                !
 ! R17   R(9,17)                 1.0804         estimate D2E/DX2                !
 ! R18   R(10,11)                1.4104         estimate D2E/DX2                !
 ! R19   R(11,18)                1.0794         estimate D2E/DX2                !
 ! A1    A(1,2,3)              118.5754         estimate D2E/DX2                !
 ! A2    A(1,2,11)             120.0434         estimate D2E/DX2                !
 ! A3    A(3,2,11)             121.3811         estimate D2E/DX2                !
 ! A4    A(2,3,4)              119.5115         estimate D2E/DX2                !
 ! A5    A(2,3,12)             119.3254         estimate D2E/DX2                !
 ! A6    A(4,3,12)             121.1631         estimate D2E/DX2                !
 ! A7    A(3,4,5)              121.0912         estimate D2E/DX2                !
 ! A8    A(3,4,13)             120.13           estimate D2E/DX2                !
 ! A9    A(5,4,13)             118.7788         estimate D2E/DX2                !
 ! A10   A(4,5,6)              122.19           estimate D2E/DX2                !
 ! A11   A(4,5,10)             118.8548         estimate D2E/DX2                !
 ! A12   A(6,5,10)             118.9552         estimate D2E/DX2                !
 ! A13   A(5,6,7)              120.7104         estimate D2E/DX2                !
 ! A14   A(5,6,14)             118.6801         estimate D2E/DX2                !
 ! A15   A(7,6,14)             120.6095         estimate D2E/DX2                !
 ! A16   A(6,7,8)              120.3197         estimate D2E/DX2                !
 ! A17   A(6,7,15)             120.3247         estimate D2E/DX2                !
 ! A18   A(8,7,15)             119.3556         estimate D2E/DX2                !
 ! A19   A(7,8,9)              120.4048         estimate D2E/DX2                !
 ! A20   A(7,8,16)             119.3289         estimate D2E/DX2                !
 ! A21   A(9,8,16)             120.2663         estimate D2E/DX2                !
 ! A22   A(8,9,10)             120.6532         estimate D2E/DX2                !
 ! A23   A(8,9,17)             120.6346         estimate D2E/DX2                !
 ! A24   A(10,9,17)            118.7122         estimate D2E/DX2                !
 ! A25   A(5,10,9)             118.9567         estimate D2E/DX2                !
 ! A26   A(5,10,11)            119.2169         estimate D2E/DX2                !
 ! A27   A(9,10,11)            121.8263         estimate D2E/DX2                !
 ! A28   A(2,11,10)            119.9443         estimate D2E/DX2                !
 ! A29   A(2,11,18)            120.6808         estimate D2E/DX2                !
 ! A30   A(10,11,18)           119.3749         estimate D2E/DX2                !
 ! D1    D(1,2,3,4)            179.9952         estimate D2E/DX2                !
 ! D2    D(1,2,3,12)             0.0083         estimate D2E/DX2                !
 ! D3    D(11,2,3,4)            -0.0093         estimate D2E/DX2                !
 ! D4    D(11,2,3,12)         -179.9962         estimate D2E/DX2                !
 ! D5    D(1,2,11,10)          179.9965         estimate D2E/DX2                !
 ! D6    D(1,2,11,18)           -0.0036         estimate D2E/DX2                !
 ! D7    D(3,2,11,10)            0.0011         estimate D2E/DX2                !
 ! D8    D(3,2,11,18)         -179.9989         estimate D2E/DX2                !
 ! D9    D(2,3,4,5)              0.0092         estimate D2E/DX2                !
 ! D10   D(2,3,4,13)           179.9926         estimate D2E/DX2                !
 ! D11   D(12,3,4,5)           179.9958         estimate D2E/DX2                !
 ! D12   D(12,3,4,13)           -0.0207         estimate D2E/DX2                !
 ! D13   D(3,4,5,6)            179.9991         estimate D2E/DX2                !
 ! D14   D(3,4,5,10)            -0.001          estimate D2E/DX2                !
 ! D15   D(13,4,5,6)             0.0154         estimate D2E/DX2                !
 ! D16   D(13,4,5,10)         -179.9847         estimate D2E/DX2                !
 ! D17   D(4,5,6,7)            179.9922         estimate D2E/DX2                !
 ! D18   D(4,5,6,14)             0.0104         estimate D2E/DX2                !
 ! D19   D(10,5,6,7)            -0.0078         estimate D2E/DX2                !
 ! D20   D(10,5,6,14)         -179.9895         estimate D2E/DX2                !
 ! D21   D(4,5,10,9)           179.9979         estimate D2E/DX2                !
 ! D22   D(4,5,10,11)           -0.0071         estimate D2E/DX2                !
 ! D23   D(6,5,10,9)            -0.0022         estimate D2E/DX2                !
 ! D24   D(6,5,10,11)          179.9928         estimate D2E/DX2                !
 ! D25   D(5,6,7,8)              0.0073         estimate D2E/DX2                !
 ! D26   D(5,6,7,15)          -179.9671         estimate D2E/DX2                !
 ! D27   D(14,6,7,8)           179.9887         estimate D2E/DX2                !
 ! D28   D(14,6,7,15)            0.0143         estimate D2E/DX2                !
 ! D29   D(6,7,8,9)              0.0035         estimate D2E/DX2                !
 ! D30   D(6,7,8,16)          -179.9851         estimate D2E/DX2                !
 ! D31   D(15,7,8,9)           179.9781         estimate D2E/DX2                !
 ! D32   D(15,7,8,16)           -0.0105         estimate D2E/DX2                !
 ! D33   D(7,8,9,10)            -0.0136         estimate D2E/DX2                !
 ! D34   D(7,8,9,17)          -179.9979         estimate D2E/DX2                !
 ! D35   D(16,8,9,10)          179.9749         estimate D2E/DX2                !
 ! D36   D(16,8,9,17)           -0.0093         estimate D2E/DX2                !
 ! D37   D(8,9,10,5)             0.0128         estimate D2E/DX2                !
 ! D38   D(8,9,10,11)         -179.982          estimate D2E/DX2                !
 ! D39   D(17,9,10,5)          179.9974         estimate D2E/DX2                !
 ! D40   D(17,9,10,11)           0.0025         estimate D2E/DX2                !
 ! D41   D(5,10,11,2)            0.007          estimate D2E/DX2                !
 ! D42   D(5,10,11,18)        -179.9929         estimate D2E/DX2                !
 ! D43   D(9,10,11,2)         -179.9981         estimate D2E/DX2                !
 ! D44   D(9,10,11,18)           0.0019         estimate D2E/DX2                !
 --------------------------------------------------------------------------------
 Trust Radius=3.00D-01 FncErr=1.00D-07 GrdErr=1.00D-06 EigMax=2.50D+02 EigMin=1.00D-04
 Number of steps in this run=    103 maximum allowed number of steps=    108.
 GradGradGradGradGradGradGradGradGradGradGradGradGradGradGradGradGradGrad

 Leave Link  103 at Tue Sep 17 09:48:10 2024, MaxMem=  1342177280 cpu:               0.1 elap:               0.0
 (Enter /groups/ReismanLab/Software/Gaussian16_RevC/Linux_Binary_AVX2-enabled-CPU/g16/l202.exe)
                          Input orientation:                          
 ---------------------------------------------------------------------
 Center     Atomic      Atomic             Coordinates (Angstroms)
 Number     Number       Type             X           Y           Z
 ---------------------------------------------------------------------
      1         17           0        3.288743   -0.405882   -0.000066
      2          6           0        1.614259    0.033360   -0.000020
      3          6           0        1.277331    1.397162    0.000086
      4          6           0       -0.037696    1.765177    0.000025
      5          6           0       -1.065066    0.797901    0.000051
      6          6           0       -2.429989    1.151802    0.000009
      7          6           0       -3.400760    0.189335   -0.000125
      8          6           0       -3.050867   -1.170037   -0.000070
      9          6           0       -1.736812   -1.546106    0.000191
     10          6           0       -0.711476   -0.577299    0.000120
     11          6           0        0.652104   -0.937508    0.000008
     12          1           0        2.063649    2.135627   -0.000001
     13          1           0       -0.308100    2.811087    0.000225
     14          1           0       -2.694046    2.199618   -0.000217
     15          1           0       -4.444365    0.467434   -0.000692
     16          1           0       -3.830891   -1.917090   -0.000422
     17          1           0       -1.463320   -2.591266    0.000200
     18          1           0        0.923767   -1.982125   -0.000057
 ---------------------------------------------------------------------
                    Distance matrix (angstroms):
                    1          2          3          4          5
     1  Cl   0.000000
     2  C    1.731135   0.000000
     3  C    2.701249   1.404805   0.000000
     4  C    3.972240   2.393355   1.365551   0.000000
     5  C    4.517162   2.786271   2.417838   1.411068   0.000000
     6  C    5.927080   4.196053   3.715431   2.469676   1.410057
     7  C    6.715931   5.017444   4.831499   3.713957   2.413673
     8  C    6.385498   4.817838   5.032277   4.206504   2.795743
     9  C    5.153282   3.704644   4.212824   3.721772   2.438362
    10  C    4.003890   2.404569   2.802473   2.437452   1.419930
    11  C    2.689701   1.366868   2.416939   2.789324   2.441376
    12  H    2.821369   2.149763   1.078715   2.133748   3.402700
    13  H    4.825574   3.378052   2.124329   1.080299   2.150794
    14  H    6.525519   4.822258   4.051638   2.691642   2.149043
    15  H    7.782264   6.074154   5.796740   4.593786   3.395418
    16  H    7.278252   5.783937   6.089188   5.286533   3.875689
    17  H    5.230488   4.044769   4.839290   4.583775   3.412485
    18  H    2.842121   2.130483   3.397733   3.868680   3.418187
                    6          7          8          9         10
     6  C    0.000000
     7  C    1.367018   0.000000
     8  C    2.403419   1.403680   0.000000
     9  C    2.785534   2.404262   1.366809   0.000000
    10  C    2.437843   2.796422   2.413314   1.410638   0.000000
    11  C    3.723508   4.206599   3.710264   2.465220   1.410355
    12  H    4.600076   5.800674   6.089802   5.291376   3.880888
    13  H    2.693630   4.054396   4.834471   4.585449   3.412312
    14  H    1.080576   2.130888   3.388494   3.866102   3.412016
    15  H    2.127456   1.080023   2.150150   3.374193   3.876328
    16  H    3.373518   2.149893   1.080059   2.126687   3.394966
    17  H    3.865877   3.389014   2.130773   1.080351   2.149728
    18  H    4.590118   4.839088   4.056748   2.696070   2.155819
                   11         12         13         14         15
    11  C    0.000000
    12  H    3.381807   0.000000
    13  H    3.869619   2.466057   0.000000
    14  H    4.586750   4.758125   2.463053   0.000000
    15  H    5.286572   6.718416   4.754093   2.462535   0.000000
    16  H    4.588772   7.153330   5.896246   4.270797   2.462175
    17  H    2.685132   5.897714   5.524486   4.946438   4.271097
    18  H    1.079364   4.272612   4.948977   5.529516   5.900608
                   16         17         18
    16  H    0.000000
    17  H    2.461687   0.000000
    18  H    4.755103   2.463583   0.000000
 Stoichiometry    C10H7Cl
 Framework group  C1[X(C10H7Cl)]
 Deg. of freedom    48
 Full point group                 C1      NOp   1
 Largest Abelian subgroup         C1      NOp   1
 Largest concise Abelian subgroup C1      NOp   1
                         Standard orientation:                         
 ---------------------------------------------------------------------
 Center     Atomic      Atomic             Coordinates (Angstroms)
 Number     Number       Type             X           Y           Z
 ---------------------------------------------------------------------
      1         17           0       -3.369868   -0.449716    0.000060
      2          6           0       -1.699866    0.006269    0.000015
      3          6           0       -1.376609    1.373376   -0.000091
      4          6           0       -0.065333    1.754539   -0.000030
      5          6           0        0.971671    0.797598   -0.000056
      6          6           0        2.332982    1.165147   -0.000014
      7          6           0        3.313340    0.212449    0.000120
      8          6           0        2.977075   -1.150358    0.000065
      9          6           0        1.666852   -1.539565   -0.000196
     10          6           0        0.631867   -0.581073   -0.000125
     11          6           0       -0.728038   -0.954917   -0.000013
     12          1           0       -2.170281    2.103931   -0.000004
     13          1           0        0.194585    2.803104   -0.000230
     14          1           0        2.586534    2.215555    0.000211
     15          1           0        4.354108    0.500982    0.000687
     16          1           0        3.764541   -1.889565    0.000417
     17          1           0        1.403838   -2.587411   -0.000205
     18          1           0       -0.989228   -2.002202    0.000052
 ---------------------------------------------------------------------
 Rotational constants (GHZ):           2.7718541           0.5870975           0.4844811
 Leave Link  202 at Tue Sep 17 09:48:10 2024, MaxMem=  1342177280 cpu:               0.1 elap:               0.0
 (Enter /groups/ReismanLab/Software/Gaussian16_RevC/Linux_Binary_AVX2-enabled-CPU/g16/l301.exe)
 Standard basis: 6-31G(d,p) (6D, 7F)
 Ernie: Thresh=  0.10000D-02 Tol=  0.10000D-05 Strict=F.
 There are   204 symmetry adapted cartesian basis functions of A   symmetry.
 There are   204 symmetry adapted basis functions of A   symmetry.
   204 basis functions,   381 primitive gaussians,   204 cartesian basis functions
    42 alpha electrons       42 beta electrons
       nuclear repulsion energy       608.9672541741 Hartrees.
 IExCor=  402 DFT=T Ex+Corr=B3LYP ExCW=0 ScaHFX=  0.200000
 ScaDFX=  0.800000  0.720000  1.000000  0.810000 ScalE2=  1.000000  1.000000
 IRadAn=      5 IRanWt=     -1 IRanGd=            0 ICorTp=0 IEmpDi=141
 NAtoms=   18 NActive=   18 NUniq=   18 SFac= 1.00D+00 NAtFMM=   60 NAOKFM=F Big=F
 Integral buffers will be    131072 words long.
 Raffenetti 2 integral format.
 Two-electron integral symmetry is turned on.
 R6Disp:  Grimme-D3(BJ) Dispersion energy=       -0.0404753835 Hartrees.
 Nuclear repulsion after empirical dispersion term =      608.9267787906 Hartrees.
 Leave Link  301 at Tue Sep 17 09:48:10 2024, MaxMem=  1342177280 cpu:               0.1 elap:               0.1
 (Enter /groups/ReismanLab/Software/Gaussian16_RevC/Linux_Binary_AVX2-enabled-CPU/g16/l302.exe)
 NPDir=0 NMtPBC=     1 NCelOv=     1 NCel=       1 NClECP=     1 NCelD=      1
         NCelK=      1 NCelE2=     1 NClLst=     1 CellRange=     0.0.
 One-electron integrals computed using PRISM.
 One-electron integral symmetry used in STVInt
 NBasis=   204 RedAO= T EigKep=  2.75D-04  NBF=   204
 NBsUse=   204 1.00D-06 EigRej= -1.00D+00 NBFU=   204
 Precomputing XC quadrature grid using
 IXCGrd= 4 IRadAn=           5 IRanWt=          -1 IRanGd=           0 AccXCQ= 0.00D+00.
 Generated NRdTot=       0 NPtTot=           0 NUsed=           0 NTot=          32
 NSgBfM=   204   204   204   204   204 MxSgAt=    18 MxSgA2=    18.
 Leave Link  302 at Tue Sep 17 09:48:10 2024, MaxMem=  1342177280 cpu:               1.0 elap:               0.2
 (Enter /groups/ReismanLab/Software/Gaussian16_RevC/Linux_Binary_AVX2-enabled-CPU/g16/l303.exe)
 DipDrv:  MaxL=1.
 Leave Link  303 at Tue Sep 17 09:48:11 2024, MaxMem=  1342177280 cpu:               0.1 elap:               0.0
 (Enter /groups/ReismanLab/Software/Gaussian16_RevC/Linux_Binary_AVX2-enabled-CPU/g16/l401.exe)
 ExpMin= 1.43D-01 ExpMax= 2.52D+04 ExpMxC= 3.78D+03 IAcc=3 IRadAn=         5 AccDes= 0.00D+00
 Harris functional with IExCor=  402 and IRadAn=       5 diagonalized for initial guess.
 HarFok:  IExCor=  402 AccDes= 0.00D+00 IRadAn=         5 IDoV= 1 UseB2=F ITyADJ=14
 ICtDFT=  3500011 ScaDFX=  1.000000  1.000000  1.000000  1.000000
 FoFCou: FMM=F IPFlag=           0 FMFlag=      100000 FMFlg1=           0
         NFxFlg=           0 DoJE=T BraDBF=F KetDBF=T FulRan=T
         wScrn=  0.000000 ICntrl=       500 IOpCl=  0 I1Cent=   200000004 NGrid=           0
         NMat0=    1 NMatS0=      1 NMatT0=    0 NMatD0=    1 NMtDS0=    0 NMtDT0=    0
 Petite list used in FoFCou.
 Harris En= -845.497147806618    
 JPrj=0 DoOrth=F DoCkMO=F.
 Leave Link  401 at Tue Sep 17 09:48:11 2024, MaxMem=  1342177280 cpu:               4.7 elap:               0.6
 (Enter /groups/ReismanLab/Software/Gaussian16_RevC/Linux_Binary_AVX2-enabled-CPU/g16/l502.exe)
 Integral symmetry usage will be decided dynamically.
 Closed shell SCF:
 Using DIIS extrapolation, IDIIS=  1040.
 NGot=  1342177280 LenX=  1342089820 LenY=  1342047763
 Requested convergence on RMS density matrix=1.00D-08 within  32 cycles.
 Requested convergence on MAX density matrix=1.00D-06.
 Requested convergence on             energy=1.00D-06.
 No special actions if energy rises.
 Fock matrices will be formed incrementally for  20 cycles.
 Integral accuracy reduced to 1.0D-05 until final iterations.

 Cycle   1  Pass 0  IDiag  1:
 FoFJK:  IHMeth= 1 ICntrl=       0 DoSepK=F KAlg= 0 I1Cent=           0 FoldK=F
 IRaf= 900000000 NMat=       1 IRICut=       1 DoRegI=T DoRafI=F ISym2E= 0 IDoP0=0 IntGTp=1.
 FoFCou: FMM=F IPFlag=           0 FMFlag=      100000 FMFlg1=           0
         NFxFlg=           0 DoJE=F BraDBF=F KetDBF=F FulRan=T
         wScrn=  0.000000 ICntrl=         0 IOpCl=  0 I1Cent=           0 NGrid=           0
         NMat0=    1 NMatS0=      1 NMatT0=    0 NMatD0=    1 NMtDS0=    0 NMtDT0=    0
 Symmetry not used in FoFCou.
 E= -845.268626409626    
 DIIS: error= 4.53D-02 at cycle   1 NSaved=   1.
 NSaved= 1 IEnMin= 1 EnMin= -845.268626409626     IErMin= 1 ErrMin= 4.53D-02
 ErrMax= 4.53D-02  0.00D+00 EMaxC= 1.00D-01 BMatC= 2.43D-01 BMatP= 2.43D-01
 IDIUse=3 WtCom= 5.47D-01 WtEn= 4.53D-01
 Coeff-Com:  0.100D+01
 Coeff-En:   0.100D+01
 Coeff:      0.100D+01
 Gap=     0.363 Goal=   None    Shift=    0.000
 GapD=    0.363 DampG=1.000 DampE=0.500 DampFc=0.5000 IDamp=-1.
 Damping current iteration by 5.00D-01
 RMSDP=6.49D-03 MaxDP=1.46D-01              OVMax= 1.93D-01

 Cycle   2  Pass 0  IDiag  1:
 RMSU=  3.18D-03    CP:  9.74D-01
 E= -845.387049756821     Delta-E=       -0.118423347196 Rises=F Damp=T
 DIIS: error= 1.07D-02 at cycle   2 NSaved=   2.
 NSaved= 2 IEnMin= 2 EnMin= -845.387049756821     IErMin= 2 ErrMin= 1.07D-02
 ErrMax= 1.07D-02  0.00D+00 EMaxC= 1.00D-01 BMatC= 1.64D-02 BMatP= 2.43D-01
 IDIUse=3 WtCom= 8.93D-01 WtEn= 1.07D-01
 Coeff-Com:  0.453D-01 0.955D+00
 Coeff-En:   0.115D+00 0.885D+00
 Coeff:      0.527D-01 0.947D+00
 Gap=     0.286 Goal=   None    Shift=    0.000
 RMSDP=2.31D-03 MaxDP=6.14D-02 DE=-1.18D-01 OVMax= 1.90D-01

 Cycle   3  Pass 0  IDiag  1:
 RMSU=  2.22D-03    CP:  9.53D-01  8.94D-01
 E= -845.527090405518     Delta-E=       -0.140040648697 Rises=F Damp=F
 DIIS: error= 5.98D-03 at cycle   3 NSaved=   3.
 NSaved= 3 IEnMin= 3 EnMin= -845.527090405518     IErMin= 3 ErrMin= 5.98D-03
 ErrMax= 5.98D-03  0.00D+00 EMaxC= 1.00D-01 BMatC= 1.03D-02 BMatP= 1.64D-02
 IDIUse=3 WtCom= 9.40D-01 WtEn= 5.98D-02
 Coeff-Com: -0.270D-01 0.432D+00 0.595D+00
 Coeff-En:   0.000D+00 0.000D+00 0.100D+01
 Coeff:     -0.254D-01 0.406D+00 0.619D+00
 Gap=     0.176 Goal=   None    Shift=    0.000
 RMSDP=1.01D-03 MaxDP=3.36D-02 DE=-1.40D-01 OVMax= 6.00D-02

 Cycle   4  Pass 0  IDiag  1:
 RMSU=  7.64D-04    CP:  9.58D-01  9.62D-01  7.21D-01
 E= -845.533038330315     Delta-E=       -0.005947924797 Rises=F Damp=F
 DIIS: error= 4.63D-03 at cycle   4 NSaved=   4.
 NSaved= 4 IEnMin= 4 EnMin= -845.533038330315     IErMin= 4 ErrMin= 4.63D-03
 ErrMax= 4.63D-03  0.00D+00 EMaxC= 1.00D-01 BMatC= 5.28D-03 BMatP= 1.03D-02
 IDIUse=3 WtCom= 9.54D-01 WtEn= 4.63D-02
 Coeff-Com: -0.245D-01 0.115D+00 0.424D+00 0.486D+00
 Coeff-En:   0.000D+00 0.000D+00 0.357D+00 0.643D+00
 Coeff:     -0.233D-01 0.109D+00 0.421D+00 0.493D+00
 Gap=     0.176 Goal=   None    Shift=    0.000
 RMSDP=4.45D-04 MaxDP=1.37D-02 DE=-5.95D-03 OVMax= 2.67D-02

 Cycle   5  Pass 0  IDiag  1:
 RMSU=  2.00D-04    CP:  9.57D-01  9.61D-01  7.93D-01  5.26D-01
 E= -845.538649126857     Delta-E=       -0.005610796542 Rises=F Damp=F
 DIIS: error= 6.36D-04 at cycle   5 NSaved=   5.
 NSaved= 5 IEnMin= 5 EnMin= -845.538649126857     IErMin= 5 ErrMin= 6.36D-04
 ErrMax= 6.36D-04  0.00D+00 EMaxC= 1.00D-01 BMatC= 1.26D-04 BMatP= 5.28D-03
 IDIUse=3 WtCom= 9.94D-01 WtEn= 6.36D-03
 Coeff-Com: -0.815D-02 0.221D-01 0.149D+00 0.223D+00 0.613D+00
 Coeff-En:   0.000D+00 0.000D+00 0.000D+00 0.000D+00 0.100D+01
 Coeff:     -0.809D-02 0.219D-01 0.148D+00 0.222D+00 0.616D+00
 Gap=     0.176 Goal=   None    Shift=    0.000
 RMSDP=8.65D-05 MaxDP=3.64D-03 DE=-5.61D-03 OVMax= 3.43D-03

 Cycle   6  Pass 0  IDiag  1:
 RMSU=  4.66D-05    CP:  9.56D-01  9.58D-01  8.03D-01  5.77D-01  7.18D-01
 E= -845.538763861256     Delta-E=       -0.000114734398 Rises=F Damp=F
 DIIS: error= 3.11D-04 at cycle   6 NSaved=   6.
 NSaved= 6 IEnMin= 6 EnMin= -845.538763861256     IErMin= 6 ErrMin= 3.11D-04
 ErrMax= 3.11D-04  0.00D+00 EMaxC= 1.00D-01 BMatC= 1.62D-05 BMatP= 1.26D-04
 IDIUse=3 WtCom= 9.97D-01 WtEn= 3.11D-03
 Coeff-Com: -0.249D-02 0.302D-02 0.490D-01 0.825D-01 0.335D+00 0.533D+00
 Coeff-En:   0.000D+00 0.000D+00 0.000D+00 0.000D+00 0.355D-01 0.964D+00
 Coeff:     -0.248D-02 0.301D-02 0.489D-01 0.823D-01 0.334D+00 0.534D+00
 Gap=     0.176 Goal=   None    Shift=    0.000
 RMSDP=2.20D-05 MaxDP=6.58D-04 DE=-1.15D-04 OVMax= 1.15D-03

 Cycle   7  Pass 0  IDiag  1:
 RMSU=  1.34D-05    CP:  9.56D-01  9.58D-01  8.04D-01  5.73D-01  7.65D-01
                    CP:  6.92D-01
 E= -845.538779121919     Delta-E=       -0.000015260664 Rises=F Damp=F
 DIIS: error= 4.79D-05 at cycle   7 NSaved=   7.
 NSaved= 7 IEnMin= 7 EnMin= -845.538779121919     IErMin= 7 ErrMin= 4.79D-05
 ErrMax= 4.79D-05  0.00D+00 EMaxC= 1.00D-01 BMatC= 5.92D-07 BMatP= 1.62D-05
 IDIUse=1 WtCom= 1.00D+00 WtEn= 0.00D+00
 Coeff-Com: -0.533D-03-0.798D-04 0.125D-01 0.214D-01 0.104D+00 0.228D+00
 Coeff-Com:  0.634D+00
 Coeff:     -0.533D-03-0.798D-04 0.125D-01 0.214D-01 0.104D+00 0.228D+00
 Coeff:      0.634D+00
 Gap=     0.176 Goal=   None    Shift=    0.000
 RMSDP=7.51D-06 MaxDP=2.66D-04 DE=-1.53D-05 OVMax= 4.69D-04

 Initial convergence to 1.0D-05 achieved.  Increase integral accuracy.
 Cycle   8  Pass 1  IDiag  1:
 E= -845.538752616142     Delta-E=        0.000026505777 Rises=F Damp=F
 DIIS: error= 3.81D-05 at cycle   1 NSaved=   1.
 NSaved= 1 IEnMin= 1 EnMin= -845.538752616142     IErMin= 1 ErrMin= 3.81D-05
 ErrMax= 3.81D-05  0.00D+00 EMaxC= 1.00D-01 BMatC= 2.40D-07 BMatP= 2.40D-07
 IDIUse=1 WtCom= 1.00D+00 WtEn= 0.00D+00
 Coeff-Com:  0.100D+01
 Coeff:      0.100D+01
 Gap=     0.176 Goal=   None    Shift=    0.000
 RMSDP=7.51D-06 MaxDP=2.66D-04 DE= 2.65D-05 OVMax= 5.33D-04

 Cycle   9  Pass 1  IDiag  1:
 RMSU=  1.76D-05    CP:  1.00D+00
 E= -845.538752145704     Delta-E=        0.000000470439 Rises=F Damp=F
 DIIS: error= 7.73D-05 at cycle   2 NSaved=   2.
 NSaved= 2 IEnMin= 1 EnMin= -845.538752616142     IErMin= 1 ErrMin= 3.81D-05
 ErrMax= 7.73D-05  0.00D+00 EMaxC= 1.00D-01 BMatC= 6.05D-07 BMatP= 2.40D-07
 IDIUse=1 WtCom= 1.00D+00 WtEn= 0.00D+00
 Coeff-Com:  0.625D+00 0.375D+00
 Coeff:      0.625D+00 0.375D+00
 Gap=     0.176 Goal=   None    Shift=    0.000
 RMSDP=5.02D-06 MaxDP=1.46D-04 DE= 4.70D-07 OVMax= 4.09D-04

 Cycle  10  Pass 1  IDiag  1:
 RMSU=  4.64D-06    CP:  1.00D+00  8.92D-01
 E= -845.538752847890     Delta-E=       -0.000000702186 Rises=F Damp=F
 DIIS: error= 1.06D-05 at cycle   3 NSaved=   3.
 NSaved= 3 IEnMin= 3 EnMin= -845.538752847890     IErMin= 3 ErrMin= 1.06D-05
 ErrMax= 1.06D-05  0.00D+00 EMaxC= 1.00D-01 BMatC= 1.20D-08 BMatP= 2.40D-07
 IDIUse=1 WtCom= 1.00D+00 WtEn= 0.00D+00
 Coeff-Com:  0.660D-01 0.134D+00 0.800D+00
 Coeff:      0.660D-01 0.134D+00 0.800D+00
 Gap=     0.176 Goal=   None    Shift=    0.000
 RMSDP=8.43D-07 MaxDP=3.65D-05 DE=-7.02D-07 OVMax= 5.39D-05

 Cycle  11  Pass 1  IDiag  1:
 RMSU=  6.54D-07    CP:  1.00D+00  9.07D-01  9.02D-01
 E= -845.538752859046     Delta-E=       -0.000000011157 Rises=F Damp=F
 DIIS: error= 3.43D-06 at cycle   4 NSaved=   4.
 NSaved= 4 IEnMin= 4 EnMin= -845.538752859046     IErMin= 4 ErrMin= 3.43D-06
 ErrMax= 3.43D-06  0.00D+00 EMaxC= 1.00D-01 BMatC= 2.29D-09 BMatP= 1.20D-08
 IDIUse=1 WtCom= 1.00D+00 WtEn= 0.00D+00
 Coeff-Com:  0.915D-03 0.547D-01 0.441D+00 0.504D+00
 Coeff:      0.915D-03 0.547D-01 0.441D+00 0.504D+00
 Gap=     0.176 Goal=   None    Shift=    0.000
 RMSDP=3.52D-07 MaxDP=1.53D-05 DE=-1.12D-08 OVMax= 2.15D-05

 Cycle  12  Pass 1  IDiag  1:
 RMSU=  1.60D-07    CP:  1.00D+00  9.09D-01  9.11D-01  5.28D-01
 E= -845.538752861422     Delta-E=       -0.000000002376 Rises=F Damp=F
 DIIS: error= 1.10D-06 at cycle   5 NSaved=   5.
 NSaved= 5 IEnMin= 5 EnMin= -845.538752861422     IErMin= 5 ErrMin= 1.10D-06
 ErrMax= 1.10D-06  0.00D+00 EMaxC= 1.00D-01 BMatC= 2.05D-10 BMatP= 2.29D-09
 IDIUse=1 WtCom= 1.00D+00 WtEn= 0.00D+00
 Coeff-Com: -0.296D-02 0.276D-01 0.232D+00 0.314D+00 0.430D+00
 Coeff:     -0.296D-02 0.276D-01 0.232D+00 0.314D+00 0.430D+00
 Gap=     0.176 Goal=   None    Shift=    0.000
 RMSDP=9.36D-08 MaxDP=2.76D-06 DE=-2.38D-09 OVMax= 7.36D-06

 Cycle  13  Pass 1  IDiag  1:
 RMSU=  5.68D-08    CP:  1.00D+00  9.09D-01  9.07D-01  5.49D-01  5.56D-01
 E= -845.538752861633     Delta-E=       -0.000000000211 Rises=F Damp=F
 DIIS: error= 2.58D-07 at cycle   6 NSaved=   6.
 NSaved= 6 IEnMin= 6 EnMin= -845.538752861633     IErMin= 6 ErrMin= 2.58D-07
 ErrMax= 2.58D-07  0.00D+00 EMaxC= 1.00D-01 BMatC= 7.76D-12 BMatP= 2.05D-10
 IDIUse=1 WtCom= 1.00D+00 WtEn= 0.00D+00
 Coeff-Com: -0.145D-02 0.101D-01 0.826D-01 0.120D+00 0.210D+00 0.579D+00
 Coeff:     -0.145D-02 0.101D-01 0.826D-01 0.120D+00 0.210D+00 0.579D+00
 Gap=     0.176 Goal=   None    Shift=    0.000
 RMSDP=2.45D-08 MaxDP=5.14D-07 DE=-2.11D-10 OVMax= 1.99D-06

 Cycle  14  Pass 1  IDiag  1:
 RMSU=  1.80D-08    CP:  1.00D+00  9.09D-01  9.07D-01  5.48D-01  5.81D-01
                    CP:  7.28D-01
 E= -845.538752861650     Delta-E=       -0.000000000017 Rises=F Damp=F
 DIIS: error= 1.02D-07 at cycle   7 NSaved=   7.
 NSaved= 7 IEnMin= 7 EnMin= -845.538752861650     IErMin= 7 ErrMin= 1.02D-07
 ErrMax= 1.02D-07  0.00D+00 EMaxC= 1.00D-01 BMatC= 1.62D-12 BMatP= 7.76D-12
 IDIUse=1 WtCom= 1.00D+00 WtEn= 0.00D+00
 Coeff-Com: -0.310D-03 0.871D-03 0.514D-02 0.113D-01 0.313D-01 0.330D+00
 Coeff-Com:  0.622D+00
 Coeff:     -0.310D-03 0.871D-03 0.514D-02 0.113D-01 0.313D-01 0.330D+00
 Coeff:      0.622D+00
 Gap=     0.176 Goal=   None    Shift=    0.000
 RMSDP=8.51D-09 MaxDP=2.24D-07 DE=-1.68D-11 OVMax= 7.51D-07

 SCF Done:  E(RB3LYP) =  -845.538752862     A.U. after   14 cycles
            NFock= 14  Conv=0.85D-08     -V/T= 2.0058
 KE= 8.407034575876D+02 PE=-3.203629233798D+03 EE= 9.084602445582D+02
 Leave Link  502 at Tue Sep 17 09:48:21 2024, MaxMem=  1342177280 cpu:              75.5 elap:              10.1
 (Enter /groups/ReismanLab/Software/Gaussian16_RevC/Linux_Binary_AVX2-enabled-CPU/g16/l508.exe)
 QCSCF skips out because SCF is already converged.
 Leave Link  508 at Tue Sep 17 09:48:21 2024, MaxMem=  1342177280 cpu:               0.0 elap:               0.0
 (Enter /groups/ReismanLab/Software/Gaussian16_RevC/Linux_Binary_AVX2-enabled-CPU/g16/l601.exe)
 Copying SCF densities to generalized density rwf, IOpCl= 0 IROHF=0.

 **********************************************************************

            Population analysis using the SCF Density.

 **********************************************************************

 Orbital symmetries:
       Occupied  (A) (A) (A) (A) (A) (A) (A) (A) (A) (A) (A) (A)
                 (A) (A) (A) (A) (A) (A) (A) (A) (A) (A) (A) (A)
                 (A) (A) (A) (A) (A) (A) (A) (A) (A) (A) (A) (A)
                 (A) (A) (A) (A) (A) (A)
       Virtual   (A) (A) (A) (A) (A) (A) (A) (A) (A) (A) (A) (A)
                 (A) (A) (A) (A) (A) (A) (A) (A) (A) (A) (A) (A)
                 (A) (A) (A) (A) (A) (A) (A) (A) (A) (A) (A) (A)
                 (A) (A) (A) (A) (A) (A) (A) (A) (A) (A) (A) (A)
                 (A) (A) (A) (A) (A) (A) (A) (A) (A) (A) (A) (A)
                 (A) (A) (A) (A) (A) (A) (A) (A) (A) (A) (A) (A)
                 (A) (A) (A) (A) (A) (A) (A) (A) (A) (A) (A) (A)
                 (A) (A) (A) (A) (A) (A) (A) (A) (A) (A) (A) (A)
                 (A) (A) (A) (A) (A) (A) (A) (A) (A) (A) (A) (A)
                 (A) (A) (A) (A) (A) (A) (A) (A) (A) (A) (A) (A)
                 (A) (A) (A) (A) (A) (A) (A) (A) (A) (A) (A) (A)
                 (A) (A) (A) (A) (A) (A) (A) (A) (A) (A) (A) (A)
                 (A) (A) (A) (A) (A) (A) (A) (A) (A) (A) (A) (A)
                 (A) (A) (A) (A) (A) (A)
 The electronic state is 1-A.
 Alpha  occ. eigenvalues -- -101.54772 -10.24962 -10.20440 -10.20176 -10.20111
 Alpha  occ. eigenvalues --  -10.19963 -10.19941 -10.19456 -10.19437 -10.19379
 Alpha  occ. eigenvalues --  -10.19330  -9.46443  -7.22828  -7.21874  -7.21837
 Alpha  occ. eigenvalues --   -0.90035  -0.86753  -0.81606  -0.78229  -0.74293
 Alpha  occ. eigenvalues --   -0.72189  -0.63576  -0.61236  -0.60752  -0.52457
 Alpha  occ. eigenvalues --   -0.51585  -0.50034  -0.45726  -0.45338  -0.42897
 Alpha  occ. eigenvalues --   -0.42696  -0.41300  -0.40898  -0.38377  -0.36653
 Alpha  occ. eigenvalues --   -0.35139  -0.34124  -0.31445  -0.31170  -0.29089
 Alpha  occ. eigenvalues --   -0.24602  -0.22151
 Alpha virt. eigenvalues --   -0.04518  -0.01456   0.02583   0.03951   0.09335
 Alpha virt. eigenvalues --    0.09905   0.11483   0.13735   0.16477   0.16762
 Alpha virt. eigenvalues --    0.17849   0.19594   0.19877   0.23196   0.27547
 Alpha virt. eigenvalues --    0.28632   0.29495   0.30530   0.32880   0.35419
 Alpha virt. eigenvalues --    0.39903   0.41758   0.42008   0.44364   0.47194
 Alpha virt. eigenvalues --    0.50314   0.50634   0.51632   0.53378   0.54394
 Alpha virt. eigenvalues --    0.55257   0.55456   0.56277   0.58337   0.59275
 Alpha virt. eigenvalues --    0.60314   0.60402   0.60819   0.61142   0.61741
 Alpha virt. eigenvalues --    0.61823   0.63677   0.66322   0.67884   0.68376
 Alpha virt. eigenvalues --    0.74433   0.75755   0.80219   0.80688   0.81634
 Alpha virt. eigenvalues --    0.82058   0.82183   0.82945   0.84825   0.86513
 Alpha virt. eigenvalues --    0.87395   0.88014   0.92108   0.92689   0.93429
 Alpha virt. eigenvalues --    0.94936   0.97231   0.98498   1.02596   1.04555
 Alpha virt. eigenvalues --    1.06355   1.08146   1.11969   1.15759   1.17629
 Alpha virt. eigenvalues --    1.20750   1.22623   1.23977   1.27663   1.28913
 Alpha virt. eigenvalues --    1.32597   1.34842   1.36773   1.38357   1.39524
 Alpha virt. eigenvalues --    1.40964   1.43269   1.43694   1.47198   1.48685
 Alpha virt. eigenvalues --    1.52693   1.54092   1.72526   1.75397   1.75705
 Alpha virt. eigenvalues --    1.81308   1.84161   1.87214   1.88412   1.88582
 Alpha virt. eigenvalues --    1.89683   1.90433   1.92451   1.93097   1.98439
 Alpha virt. eigenvalues --    1.99617   2.01705   2.02123   2.03988   2.07001
 Alpha virt. eigenvalues --    2.07958   2.10128   2.18953   2.22481   2.25616
 Alpha virt. eigenvalues --    2.28100   2.29017   2.30141   2.33135   2.36041
 Alpha virt. eigenvalues --    2.38210   2.41328   2.42645   2.44177   2.45036
 Alpha virt. eigenvalues --    2.46737   2.49518   2.53435   2.53487   2.56231
 Alpha virt. eigenvalues --    2.58716   2.59895   2.60816   2.62831   2.64160
 Alpha virt. eigenvalues --    2.65288   2.71275   2.72444   2.75864   2.76104
 Alpha virt. eigenvalues --    2.79591   2.86389   2.92953   3.01223   3.08670
 Alpha virt. eigenvalues --    3.15281   3.17927   3.23289   3.24811   3.27573
 Alpha virt. eigenvalues --    3.33873   3.40254   3.47270   3.49592   3.74331
 Alpha virt. eigenvalues --    3.89877   4.09195   4.10846   4.13930   4.14245
 Alpha virt. eigenvalues --    4.17865   4.27613   4.34459   4.40332   4.49450
 Alpha virt. eigenvalues --    4.61928   4.92007
          Condensed to atoms (all electrons):
               1          2          3          4          5          6
     1  Cl  16.914812   0.230676  -0.066607   0.004695   0.000835   0.000011
     2  C    0.230676   5.041487   0.482111  -0.020750  -0.035037  -0.000540
     3  C   -0.066607   0.482111   4.896816   0.495431  -0.008488   0.009122
     4  C    0.004695  -0.020750   0.495431   5.040190   0.444996  -0.089866
     5  C    0.000835  -0.035037  -0.008488   0.444996   4.717028   0.451180
     6  C    0.000011  -0.000540   0.009122  -0.089866   0.451180   5.026496
     7  C   -0.000001   0.000060  -0.000436   0.008850  -0.007637   0.516633
     8  C    0.000003  -0.000455   0.000055  -0.000555  -0.040436  -0.023170
     9  C   -0.000178   0.008678  -0.000502   0.014756  -0.030936  -0.071768
    10  C    0.003527  -0.001479  -0.038098  -0.027886   0.498862  -0.032063
    11  C   -0.068541   0.486636  -0.026874  -0.071458  -0.036396   0.015642
    12  H   -0.000751  -0.042720   0.370854  -0.030238   0.002952  -0.000197
    13  H   -0.000194   0.004689  -0.043175   0.365976  -0.038770  -0.008906
    14  H    0.000000   0.000020   0.000188  -0.009460  -0.040896   0.365210
    15  H    0.000000  -0.000001   0.000004  -0.000219   0.003015  -0.034740
    16  H   -0.000000   0.000004  -0.000001   0.000011   0.001183   0.004495
    17  H   -0.000010   0.000246   0.000017  -0.000219   0.004888   0.000671
    18  H   -0.001203  -0.047594   0.004296   0.000492   0.004813  -0.000190
               7          8          9         10         11         12
     1  Cl  -0.000001   0.000003  -0.000178   0.003527  -0.068541  -0.000751
     2  C    0.000060  -0.000455   0.008678  -0.001479   0.486636  -0.042720
     3  C   -0.000436   0.000055  -0.000502  -0.038098  -0.026874   0.370854
     4  C    0.008850  -0.000555   0.014756  -0.027886  -0.071458  -0.030238
     5  C   -0.007637  -0.040436  -0.030936   0.498862  -0.036396   0.002952
     6  C    0.516633  -0.023170  -0.071768  -0.032063   0.015642  -0.000197
     7  C    4.849787   0.500090  -0.023943  -0.040811  -0.000656   0.000004
     8  C    0.500090   4.847696   0.518091  -0.008035   0.008889  -0.000000
     9  C   -0.023943   0.518091   5.017978   0.456994  -0.088709   0.000010
    10  C   -0.040811  -0.008035   0.456994   4.725085   0.416352   0.000983
    11  C   -0.000656   0.008889  -0.088709   0.416352   5.115527   0.004241
    12  H    0.000004  -0.000000   0.000010   0.000983   0.004241   0.594710
    13  H    0.000192   0.000026  -0.000246   0.004549   0.000852  -0.006188
    14  H   -0.043725   0.004706   0.000673   0.004947  -0.000218  -0.000011
    15  H    0.366712  -0.040666   0.004483   0.001181   0.000012  -0.000000
    16  H   -0.040673   0.366360  -0.034626   0.003079  -0.000221  -0.000000
    17  H    0.004683  -0.043423   0.365656  -0.040773  -0.009320  -0.000000
    18  H    0.000016   0.000237  -0.009702  -0.035261   0.370486  -0.000195
              13         14         15         16         17         18
     1  Cl  -0.000194   0.000000   0.000000  -0.000000  -0.000010  -0.001203
     2  C    0.004689   0.000020  -0.000001   0.000004   0.000246  -0.047594
     3  C   -0.043175   0.000188   0.000004  -0.000001   0.000017   0.004296
     4  C    0.365976  -0.009460  -0.000219   0.000011  -0.000219   0.000492
     5  C   -0.038770  -0.040896   0.003015   0.001183   0.004888   0.004813
     6  C   -0.008906   0.365210  -0.034740   0.004495   0.000671  -0.000190
     7  C    0.000192  -0.043725   0.366712  -0.040673   0.004683   0.000016
     8  C    0.000026   0.004706  -0.040666   0.366360  -0.043423   0.000237
     9  C   -0.000246   0.000673   0.004483  -0.034626   0.365656  -0.009702
    10  C    0.004549   0.004947   0.001181   0.003079  -0.040773  -0.035261
    11  C    0.000852  -0.000218   0.000012  -0.000221  -0.009320   0.370486
    12  H   -0.006188  -0.000011  -0.000000  -0.000000  -0.000000  -0.000195
    13  H    0.622113   0.006217  -0.000012  -0.000000   0.000003   0.000021
    14  H    0.006217   0.632485  -0.006204  -0.000211   0.000022   0.000003
    15  H   -0.000012  -0.006204   0.624787  -0.005900  -0.000210  -0.000000
    16  H   -0.000000  -0.000211  -0.005900   0.624084  -0.006207  -0.000013
    17  H    0.000003   0.000022  -0.000210  -0.006207   0.630326   0.005955
    18  H    0.000021   0.000003  -0.000000  -0.000013   0.005955   0.603177
 Mulliken charges:
               1
     1  Cl  -0.017075
     2  C   -0.106033
     3  C   -0.074713
     4  C   -0.124745
     5  C    0.108842
     6  C   -0.128019
     7  C   -0.089145
     8  C   -0.089413
     9  C   -0.126707
    10  C    0.108846
    11  C   -0.116245
    12  H    0.106548
    13  H    0.092854
    14  H    0.086254
    15  H    0.087759
    16  H    0.088635
    17  H    0.087695
    18  H    0.104662
 Sum of Mulliken charges =  -0.00000
 Mulliken charges with hydrogens summed into heavy atoms:
               1
     1  Cl  -0.017075
     2  C   -0.106033
     3  C    0.031835
     4  C   -0.031891
     5  C    0.108842
     6  C   -0.041764
     7  C   -0.001387
     8  C   -0.000778
     9  C   -0.039012
    10  C    0.108846
    11  C   -0.011583
 Electronic spatial extent (au):  <R**2>=           2135.6346
 Charge=              0.0000 electrons
 Dipole moment (field-independent basis, Debye):
    X=              1.9409    Y=              0.4597    Z=              0.0005  Tot=              1.9946
 Quadrupole moment (field-independent basis, Debye-Ang):
   XX=            -68.2062   YY=            -61.5332   ZZ=            -73.3669
   XY=             -1.4347   XZ=              0.0027   YZ=             -0.0002
 Traceless Quadrupole moment (field-independent basis, Debye-Ang):
   XX=             -0.5041   YY=              6.1689   ZZ=             -5.6648
   XY=             -1.4347   XZ=              0.0027   YZ=             -0.0002
 Octapole moment (field-independent basis, Debye-Ang**2):
  XXX=             21.8204  YYY=              1.0624  ZZZ=              0.0011  XYY=             -0.5484
  XXY=              2.2186  XXZ=              0.0127  XZZ=             -8.8181  YZZ=             -1.0727
  YYZ=              0.0008  XYZ=             -0.0002
 Hexadecapole moment (field-independent basis, Debye-Ang**3):
 XXXX=          -2088.3391 YYYY=           -530.8241 ZZZZ=            -76.4694 XXXY=             -5.5672
 XXXZ=              0.0484 YYYX=             -0.1687 YYYZ=             -0.0029 ZZZX=             -0.0056
 ZZZY=             -0.0003 XXYY=           -433.3495 XXZZ=           -401.7196 YYZZ=           -119.1961
 XXYZ=             -0.0008 YYXZ=              0.0032 ZZXY=              3.7109
 N-N= 6.089267787906D+02 E-N=-3.203629247881D+03  KE= 8.407034575876D+02
 No NMR shielding tensors so no spin-rotation constants.
 Leave Link  601 at Tue Sep 17 09:48:21 2024, MaxMem=  1342177280 cpu:               0.7 elap:               0.1
 (Enter /groups/ReismanLab/Software/Gaussian16_RevC/Linux_Binary_AVX2-enabled-CPU/g16/l701.exe)
 ... and contract with generalized density number  0.
 Compute integral first derivatives.
 R6Disp: Adding Grimme-D3(BJ) dispersion energy 1st derivatives to the gradient.
 Leave Link  701 at Tue Sep 17 09:48:22 2024, MaxMem=  1342177280 cpu:               0.7 elap:               0.1
 (Enter /groups/ReismanLab/Software/Gaussian16_RevC/Linux_Binary_AVX2-enabled-CPU/g16/l702.exe)
 L702 exits ... SP integral derivatives will be done elsewhere.
 Leave Link  702 at Tue Sep 17 09:48:22 2024, MaxMem=  1342177280 cpu:               0.1 elap:               0.1
 (Enter /groups/ReismanLab/Software/Gaussian16_RevC/Linux_Binary_AVX2-enabled-CPU/g16/l703.exe)
 Integral derivatives from FoFJK, PRISM(SPDF).
 Compute integral first derivatives, UseDBF=F ICtDFT=           0.
 Calling FoFJK, ICntrl=      2127 FMM=F ISym2X=0 I1Cent= 0 IOpClX= 0 NMat=1 NMatS=1 NMatT=0.
 FoFJK:  IHMeth= 1 ICntrl=    2127 DoSepK=F KAlg= 0 I1Cent=           0 FoldK=F
 IRaf=         0 NMat=       1 IRICut=       1 DoRegI=T DoRafI=F ISym2E= 0 IDoP0=0 IntGTp=1.
 FoFCou: FMM=F IPFlag=           0 FMFlag=      100000 FMFlg1=         800
         NFxFlg=           0 DoJE=F BraDBF=F KetDBF=F FulRan=T
         wScrn=  0.000000 ICntrl=      2127 IOpCl=  0 I1Cent=           0 NGrid=           0
         NMat0=    1 NMatS0=      1 NMatT0=    0 NMatD0=    1 NMtDS0=    0 NMtDT0=    0
 Symmetry not used in FoFCou.
 Leave Link  703 at Tue Sep 17 09:48:25 2024, MaxMem=  1342177280 cpu:              21.5 elap:               2.8
 (Enter /groups/ReismanLab/Software/Gaussian16_RevC/Linux_Binary_AVX2-enabled-CPU/g16/l716.exe)
 Dipole        = 7.63599898D-01 1.80849421D-01 2.10528192D-04
 ***** Axes restored to original set *****
 -------------------------------------------------------------------
 Center     Atomic                   Forces (Hartrees/Bohr)
 Number     Number              X              Y              Z
 -------------------------------------------------------------------
      1       17           0.012381636   -0.003338864   -0.000002458
      2        6          -0.003630545   -0.000847838    0.000005606
      3        6           0.004210157    0.005184368   -0.000019640
      4        6          -0.002209804    0.003060342    0.000021064
      5        6          -0.001230609    0.003144262    0.000012382
      6        6          -0.000305447    0.004857362   -0.000013610
      7        6          -0.006153262    0.002575366   -0.000025242
      8        6          -0.003923412   -0.004861010   -0.000000972
      9        6           0.001976562   -0.004764854   -0.000015090
     10        6           0.001364999   -0.002064018    0.000002124
     11        6           0.000364631   -0.004490030    0.000004653
     12        1           0.002643767    0.002684147    0.000006764
     13        1          -0.000706105    0.004094455   -0.000009814
     14        1          -0.001116336    0.004007915    0.000005087
     15        1          -0.003699346    0.001576198    0.000016248
     16        1          -0.002457627   -0.003203722    0.000010071
     17        1           0.000960836   -0.004107306    0.000000741
     18        1           0.001529906   -0.003506773    0.000002085
 -------------------------------------------------------------------
 Cartesian Forces:  Max     0.012381636 RMS     0.003110650
 Leave Link  716 at Tue Sep 17 09:48:25 2024, MaxMem=  1342177280 cpu:               0.1 elap:               0.0
 (Enter /groups/ReismanLab/Software/Gaussian16_RevC/Linux_Binary_AVX2-enabled-CPU/g16/l103.exe)

 GradGradGradGradGradGradGradGradGradGradGradGradGradGradGradGradGradGrad
 Berny optimization.
 FormGI is forming the generalized inverse of G from B-inverse, IUseBI=4.
 Internal  Forces:  Max     0.012823644 RMS     0.003697214
 Search for a local minimum.
 Step number   1 out of a maximum of  103
 All quantities printed in internal units (Hartrees-Bohrs-Radians)
 RMS Force = .36972D-02 SwitMx=.10000D-02 MixMth= 1
 Mixed Optimization -- RFO/linear search
 Second derivative matrix not updated -- first step.
 ITU=  0
     Eigenvalues ---    0.01911   0.01924   0.01925   0.02129   0.02143
     Eigenvalues ---    0.02158   0.02172   0.02245   0.02245   0.02278
     Eigenvalues ---    0.02278   0.02304   0.02327   0.02390   0.02405
     Eigenvalues ---    0.16000   0.16000   0.16000   0.16000   0.16000
     Eigenvalues ---    0.16000   0.16000   0.22000   0.22287   0.22690
     Eigenvalues ---    0.23524   0.24368   0.24751   0.25000   0.32389
     Eigenvalues ---    0.35925   0.35952   0.35958   0.35987   0.35992
     Eigenvalues ---    0.36071   0.36150   0.37889   0.41112   0.41615
     Eigenvalues ---    0.42701   0.43597   0.44338   0.44508   0.49609
     Eigenvalues ---    0.49846   0.50962   0.51106
 RFO step:  Lambda=-2.95409983D-03 EMin= 1.91069998D-02
 Linear search not attempted -- first point.
 Iteration  1 RMS(Cart)=  0.01674836 RMS(Int)=  0.00000753
 Iteration  2 RMS(Cart)=  0.00001084 RMS(Int)=  0.00000079
 Iteration  3 RMS(Cart)=  0.00000000 RMS(Int)=  0.00000079
 ITry= 1 IFail=0 DXMaxC= 7.04D-02 DCOld= 1.00D+10 DXMaxT= 3.00D-01 DXLimC= 3.00D+00 Rises=F
 Variable       Old X    -DE/DX   Delta X   Delta X   Delta X     New X
                                 (Linear)    (Quad)   (Total)
    R1        3.27137   0.01282   0.00000   0.03923   0.03923   3.31061
    R2        2.65470   0.01013   0.00000   0.02270   0.02270   2.67739
    R3        2.58301   0.00848   0.00000   0.01643   0.01643   2.59943
    R4        2.58052   0.00945   0.00000   0.01826   0.01826   2.59878
    R5        2.03848   0.00376   0.00000   0.01033   0.01033   2.04881
    R6        2.66653   0.00818   0.00000   0.01843   0.01843   2.68496
    R7        2.04147   0.00414   0.00000   0.01142   0.01142   2.05289
    R8        2.66462   0.00860   0.00000   0.01923   0.01923   2.68385
    R9        2.68328   0.01095   0.00000   0.02499   0.02499   2.70827
   R10        2.58329   0.00962   0.00000   0.01870   0.01870   2.60199
   R11        2.04199   0.00416   0.00000   0.01148   0.01148   2.05348
   R12        2.65257   0.01125   0.00000   0.02517   0.02517   2.67774
   R13        2.04095   0.00398   0.00000   0.01097   0.01097   2.05192
   R14        2.58289   0.00974   0.00000   0.01893   0.01893   2.60183
   R15        2.04102   0.00399   0.00000   0.01100   0.01100   2.05202
   R16        2.66572   0.00882   0.00000   0.01981   0.01981   2.68553
   R17        2.04157   0.00422   0.00000   0.01163   0.01163   2.05320
   R18        2.66518   0.00856   0.00000   0.01920   0.01920   2.68438
   R19        2.03970   0.00378   0.00000   0.01039   0.01039   2.05009
    A1        2.06953   0.00027   0.00000   0.00087   0.00087   2.07040
    A2        2.09515  -0.00002   0.00000  -0.00027  -0.00027   2.09488
    A3        2.11850  -0.00025   0.00000  -0.00059  -0.00060   2.11790
    A4        2.08587  -0.00028   0.00000  -0.00070  -0.00070   2.08517
    A5        2.08262   0.00029   0.00000   0.00127   0.00127   2.08389
    A6        2.11469  -0.00001   0.00000  -0.00057  -0.00057   2.11413
    A7        2.11344   0.00062   0.00000   0.00263   0.00263   2.11607
    A8        2.09666  -0.00066   0.00000  -0.00345  -0.00345   2.09321
    A9        2.07308   0.00004   0.00000   0.00083   0.00082   2.07391
   A10        2.13262   0.00030   0.00000   0.00218   0.00217   2.13479
   A11        2.07441  -0.00066   0.00000  -0.00293  -0.00293   2.07148
   A12        2.07616   0.00036   0.00000   0.00076   0.00075   2.07691
   A13        2.10679   0.00011   0.00000   0.00028   0.00028   2.10708
   A14        2.07136   0.00005   0.00000   0.00050   0.00050   2.07186
   A15        2.10503  -0.00016   0.00000  -0.00079  -0.00079   2.10425
   A16        2.09997  -0.00038   0.00000  -0.00084  -0.00084   2.09914
   A17        2.10006  -0.00039   0.00000  -0.00315  -0.00315   2.09691
   A18        2.08315   0.00077   0.00000   0.00399   0.00399   2.08714
   A19        2.10146  -0.00007   0.00000   0.00054   0.00054   2.10201
   A20        2.08268   0.00066   0.00000   0.00357   0.00357   2.08625
   A21        2.09904  -0.00059   0.00000  -0.00412  -0.00412   2.09493
   A22        2.10580   0.00007   0.00000   0.00017   0.00017   2.10596
   A23        2.10547  -0.00015   0.00000  -0.00077  -0.00077   2.10470
   A24        2.07192   0.00008   0.00000   0.00061   0.00061   2.07253
   A25        2.07619  -0.00008   0.00000  -0.00091  -0.00091   2.07528
   A26        2.08073   0.00021   0.00000   0.00041   0.00041   2.08114
   A27        2.12627  -0.00013   0.00000   0.00050   0.00049   2.12676
   A28        2.09342   0.00035   0.00000   0.00119   0.00118   2.09461
   A29        2.10628  -0.00078   0.00000  -0.00434  -0.00433   2.10194
   A30        2.08349   0.00044   0.00000   0.00315   0.00315   2.08663
    D1        3.14151   0.00000   0.00000   0.00007   0.00007   3.14158
    D2        0.00015  -0.00000   0.00000  -0.00013  -0.00013   0.00002
    D3       -0.00016   0.00000   0.00000   0.00016   0.00016  -0.00001
    D4       -3.14153  -0.00000   0.00000  -0.00004  -0.00004  -3.14157
    D5        3.14153   0.00000   0.00000   0.00010   0.00010  -3.14155
    D6       -0.00006   0.00000   0.00000   0.00006   0.00006   0.00000
    D7        0.00002   0.00000   0.00000   0.00001   0.00001   0.00003
    D8       -3.14157  -0.00000   0.00000  -0.00002  -0.00002   3.14159
    D9        0.00016  -0.00000   0.00000  -0.00019  -0.00019  -0.00003
   D10        3.14146   0.00000   0.00000   0.00008   0.00008   3.14154
   D11        3.14152   0.00000   0.00000   0.00002   0.00002   3.14154
   D12       -0.00036   0.00001   0.00000   0.00028   0.00028  -0.00008
   D13        3.14158   0.00000   0.00000   0.00009   0.00009  -3.14152
   D14       -0.00002   0.00000   0.00000   0.00005   0.00005   0.00003
   D15        0.00027  -0.00000   0.00000  -0.00017  -0.00017   0.00009
   D16       -3.14133  -0.00001   0.00000  -0.00021  -0.00021  -3.14154
   D17        3.14146   0.00000   0.00000   0.00013   0.00013   3.14159
   D18        0.00018  -0.00001   0.00000  -0.00023  -0.00023  -0.00004
   D19       -0.00014   0.00000   0.00000   0.00017   0.00017   0.00003
   D20       -3.14141  -0.00000   0.00000  -0.00019  -0.00019   3.14159
   D21        3.14156   0.00000   0.00000   0.00003   0.00003   3.14159
   D22       -0.00012   0.00000   0.00000   0.00012   0.00012  -0.00001
   D23       -0.00004  -0.00000   0.00000  -0.00000  -0.00000  -0.00004
   D24        3.14147   0.00000   0.00000   0.00008   0.00008   3.14155
   D25        0.00013  -0.00000   0.00000  -0.00013  -0.00013  -0.00000
   D26       -3.14102  -0.00001   0.00000  -0.00056  -0.00056  -3.14158
   D27        3.14140   0.00001   0.00000   0.00024   0.00024  -3.14155
   D28        0.00025  -0.00001   0.00000  -0.00019  -0.00019   0.00006
   D29        0.00006  -0.00000   0.00000  -0.00009  -0.00009  -0.00003
   D30       -3.14133  -0.00001   0.00000  -0.00028  -0.00028   3.14157
   D31        3.14121   0.00001   0.00000   0.00034   0.00034   3.14155
   D32       -0.00018   0.00000   0.00000   0.00014   0.00014  -0.00004
   D33       -0.00024   0.00001   0.00000   0.00026   0.00026   0.00002
   D34       -3.14156  -0.00000   0.00000  -0.00007  -0.00007   3.14156
   D35        3.14115   0.00001   0.00000   0.00046   0.00046  -3.14157
   D36       -0.00016   0.00000   0.00000   0.00013   0.00013  -0.00003
   D37        0.00022  -0.00001   0.00000  -0.00021  -0.00021   0.00001
   D38       -3.14128  -0.00001   0.00000  -0.00030  -0.00030  -3.14158
   D39        3.14155   0.00000   0.00000   0.00011   0.00011  -3.14153
   D40        0.00004   0.00000   0.00000   0.00002   0.00002   0.00007
   D41        0.00012  -0.00000   0.00000  -0.00015  -0.00015  -0.00002
   D42       -3.14147  -0.00000   0.00000  -0.00011  -0.00011  -3.14158
   D43       -3.14156  -0.00000   0.00000  -0.00006  -0.00006   3.14156
   D44        0.00003  -0.00000   0.00000  -0.00003  -0.00003   0.00001
         Item               Value     Threshold  Converged?
 Maximum Force            0.012824     0.000450     NO 
 RMS     Force            0.003697     0.000300     NO 
 Maximum Displacement     0.070365     0.001800     NO 
 RMS     Displacement     0.016749     0.001200     NO 
 Predicted change in Energy=-1.487504D-03
 Lowest energy point so far.  Saving SCF results.
 GradGradGradGradGradGradGradGradGradGradGradGradGradGradGradGradGradGrad

 Leave Link  103 at Tue Sep 17 09:48:25 2024, MaxMem=  1342177280 cpu:               0.1 elap:               0.0
 (Enter /groups/ReismanLab/Software/Gaussian16_RevC/Linux_Binary_AVX2-enabled-CPU/g16/l202.exe)
                          Input orientation:                          
 ---------------------------------------------------------------------
 Center     Atomic      Atomic             Coordinates (Angstroms)
 Number     Number       Type             X           Y           Z
 ---------------------------------------------------------------------
      1         17           0        3.325979   -0.414365    0.000098
      2          6           0        1.631802    0.031627    0.000074
      3          6           0        1.292002    1.407091    0.000066
      4          6           0       -0.032589    1.776790    0.000031
      5          6           0       -1.068941    0.804829   -0.000029
      6          6           0       -2.443802    1.160952   -0.000151
      7          6           0       -3.421638    0.191559   -0.000209
      8          6           0       -3.067329   -1.180429   -0.000151
      9          6           0       -1.743546   -1.558919   -0.000069
     10          6           0       -0.710676   -0.582825   -0.000012
     11          6           0        0.662937   -0.944830    0.000054
     12          1           0        2.081367    2.150294    0.000059
     13          1           0       -0.301605    2.829297    0.000072
     14          1           0       -2.710129    2.214463   -0.000156
     15          1           0       -4.469954    0.474503   -0.000316
     16          1           0       -3.848268   -1.934929   -0.000175
     17          1           0       -1.469044   -2.610178    0.000005
     18          1           0        0.939899   -1.993743    0.000055
 ---------------------------------------------------------------------
                    Distance matrix (angstroms):
                    1          2          3          4          5
     1  Cl   0.000000
     2  C    1.751897   0.000000
     3  C    2.730341   1.416815   0.000000
     4  C    4.010129   2.411595   1.375215   0.000000
     5  C    4.560894   2.809244   2.436549   1.420822   0.000000
     6  C    5.980969   4.229175   3.743904   2.488615   1.420235
     7  C    6.774768   5.055970   4.867846   3.741472   2.431313
     8  C    6.439040   4.852929   5.069421   4.237310   2.816878
     9  C    5.197123   3.731329   4.244027   3.748910   2.458128
    10  C    4.040168   2.421726   2.823205   2.455114   1.433156
    11  C    2.715361   1.375561   2.434596   2.809087   2.461850
    12  H    2.850708   2.165839   1.084181   2.146699   3.425598
    13  H    4.866283   3.400738   2.135943   1.086343   2.165012
    14  H    6.583717   4.859747   4.082757   2.713076   2.163462
    15  H    7.846442   6.117807   5.836939   4.624517   3.417016
    16  H    7.333616   5.822243   6.131189   5.323182   3.902682
    17  H    5.273882   4.073620   4.874610   4.616155   3.438364
    18  H    2.861435   2.140293   3.419013   3.893925   3.444916
                    6          7          8          9         10
     6  C    0.000000
     7  C    1.376912   0.000000
     8  C    2.422985   1.416999   0.000000
     9  C    2.808569   2.424905   1.376828   0.000000
    10  C    2.458553   2.819395   2.431243   1.421119   0.000000
    11  C    3.753151   4.239709   3.737699   2.483599   1.420514
    12  H    4.632057   5.841208   6.132112   5.328060   3.907102
    13  H    2.715214   4.085618   4.871051   4.619051   3.436556
    14  H    1.086653   2.144385   3.413632   3.895214   3.438405
    15  H    2.139276   1.085828   2.169368   3.401191   3.905139
    16  H    3.399559   2.168862   1.085880   2.138045   3.416529
    17  H    3.895071   3.415019   2.144457   1.086507   2.164551
    18  H    4.626180   4.878376   4.088931   2.718447   2.171426
                   11         12         13         14         15
    11  C    0.000000
    12  H    3.404664   0.000000
    13  H    3.895430   2.477822   0.000000
    14  H    4.621548   4.791926   2.485762   0.000000
    15  H    5.325511   6.762254   4.787504   2.474762   0.000000
    16  H    4.618578   7.200668   5.939417   4.302652   2.488343
    17  H    2.705314   5.938645   5.563344   4.981712   4.303570
    18  H    1.084863   4.298371   4.980266   5.570611   5.946322
                   16         17         18
    16  H    0.000000
    17  H    2.473190   0.000000
    18  H    4.788529   2.486563   0.000000
 Stoichiometry    C10H7Cl
 Framework group  C1[X(C10H7Cl)]
 Deg. of freedom    48
 Full point group                 C1      NOp   1
 RotChk:  IX=0 Diff= 1.77D-03
 Largest Abelian subgroup         C1      NOp   1
 Largest concise Abelian subgroup C1      NOp   1
                         Standard orientation:                         
 ---------------------------------------------------------------------
 Center     Atomic      Atomic             Coordinates (Angstroms)
 Number     Number       Type             X           Y           Z
 ---------------------------------------------------------------------
      1         17           0       -3.401272   -0.452751   -0.000112
      2          6           0       -1.711067    0.008063   -0.000088
      3          6           0       -1.383326    1.386450   -0.000080
      4          6           0       -0.062025    1.767736   -0.000045
      5          6           0        0.982801    0.804889    0.000015
      6          6           0        2.354490    1.173041    0.000137
      7          6           0        3.340779    0.212249    0.000196
      8          6           0        2.998500   -1.162790    0.000137
      9          6           0        1.678083   -1.552859    0.000055
     10          6           0        0.636703   -0.585849   -0.000002
     11          6           0       -0.733686   -0.959871   -0.000068
     12          1           0       -2.179171    2.122711   -0.000073
     13          1           0        0.197763    2.822559   -0.000086
     14          1           0        2.611580    2.228844    0.000142
     15          1           0        4.386576    0.504363    0.000302
     16          1           0        3.786017   -1.910421    0.000161
     17          1           0        1.412798   -2.606482   -0.000019
     18          1           0       -1.001451   -2.011170   -0.000069
 ---------------------------------------------------------------------
 Rotational constants (GHZ):           2.7279386           0.5773129           0.4764763
 Leave Link  202 at Tue Sep 17 09:48:25 2024, MaxMem=  1342177280 cpu:               0.0 elap:               0.0
 (Enter /groups/ReismanLab/Software/Gaussian16_RevC/Linux_Binary_AVX2-enabled-CPU/g16/l301.exe)
 Standard basis: 6-31G(d,p) (6D, 7F)
 Ernie: Thresh=  0.10000D-02 Tol=  0.10000D-05 Strict=F.
 There are   204 symmetry adapted cartesian basis functions of A   symmetry.
 There are   204 symmetry adapted basis functions of A   symmetry.
   204 basis functions,   381 primitive gaussians,   204 cartesian basis functions
    42 alpha electrons       42 beta electrons
       nuclear repulsion energy       604.0722524624 Hartrees.
 IExCor=  402 DFT=T Ex+Corr=B3LYP ExCW=0 ScaHFX=  0.200000
 ScaDFX=  0.800000  0.720000  1.000000  0.810000 ScalE2=  1.000000  1.000000
 IRadAn=      5 IRanWt=     -1 IRanGd=            0 ICorTp=0 IEmpDi=141
 NAtoms=   18 NActive=   18 NUniq=   18 SFac= 1.00D+00 NAtFMM=   60 NAOKFM=F Big=F
 Integral buffers will be    131072 words long.
 Raffenetti 2 integral format.
 Two-electron integral symmetry is turned on.
 R6Disp:  Grimme-D3(BJ) Dispersion energy=       -0.0402338519 Hartrees.
 Nuclear repulsion after empirical dispersion term =      604.0320186105 Hartrees.
 Leave Link  301 at Tue Sep 17 09:48:25 2024, MaxMem=  1342177280 cpu:               0.1 elap:               0.0
 (Enter /groups/ReismanLab/Software/Gaussian16_RevC/Linux_Binary_AVX2-enabled-CPU/g16/l302.exe)
 NPDir=0 NMtPBC=     1 NCelOv=     1 NCel=       1 NClECP=     1 NCelD=      1
         NCelK=      1 NCelE2=     1 NClLst=     1 CellRange=     0.0.
 One-electron integrals computed using PRISM.
 One-electron integral symmetry used in STVInt
 NBasis=   204 RedAO= T EigKep=  3.00D-04  NBF=   204
 NBsUse=   204 1.00D-06 EigRej= -1.00D+00 NBFU=   204
 Precomputing XC quadrature grid using
 IXCGrd= 4 IRadAn=           5 IRanWt=          -1 IRanGd=           0 AccXCQ= 0.00D+00.
 Generated NRdTot=       0 NPtTot=           0 NUsed=           0 NTot=          32
 NSgBfM=   203   203   203   203   203 MxSgAt=    18 MxSgA2=    18.
 Leave Link  302 at Tue Sep 17 09:48:25 2024, MaxMem=  1342177280 cpu:               1.0 elap:               0.2
 (Enter /groups/ReismanLab/Software/Gaussian16_RevC/Linux_Binary_AVX2-enabled-CPU/g16/l303.exe)
 DipDrv:  MaxL=1.
 Leave Link  303 at Tue Sep 17 09:48:25 2024, MaxMem=  1342177280 cpu:               0.1 elap:               0.0
 (Enter /groups/ReismanLab/Software/Gaussian16_RevC/Linux_Binary_AVX2-enabled-CPU/g16/l401.exe)
 Initial guess from the checkpoint file:  "smiles_00073_conf_0.chk"
 B after Tr=    -0.000000   -0.000000   -0.000000
         Rot=    1.000000    0.000000    0.000019    0.000436 Ang=   0.05 deg.
 Guess basis will be translated and rotated to current coordinates.
 JPrj=2 DoOrth=T DoCkMO=T.
 Generating alternative initial guess.
 ExpMin= 1.43D-01 ExpMax= 2.52D+04 ExpMxC= 3.78D+03 IAcc=3 IRadAn=         5 AccDes= 0.00D+00
 Harris functional with IExCor=  402 and IRadAn=       5 diagonalized for initial guess.
 HarFok:  IExCor=  402 AccDes= 0.00D+00 IRadAn=         5 IDoV= 1 UseB2=F ITyADJ=14
 ICtDFT=  3500011 ScaDFX=  1.000000  1.000000  1.000000  1.000000
 FoFCou: FMM=F IPFlag=           0 FMFlag=      100000 FMFlg1=           0
         NFxFlg=           0 DoJE=T BraDBF=F KetDBF=T FulRan=T
         wScrn=  0.000000 ICntrl=       500 IOpCl=  0 I1Cent=   200000004 NGrid=           0
         NMat0=    1 NMatS0=      1 NMatT0=    0 NMatD0=    1 NMtDS0=    0 NMtDT0=    0
 Petite list used in FoFCou.
 Harris En= -845.487284859269    
 Leave Link  401 at Tue Sep 17 09:48:26 2024, MaxMem=  1342177280 cpu:               4.6 elap:               0.6
 (Enter /groups/ReismanLab/Software/Gaussian16_RevC/Linux_Binary_AVX2-enabled-CPU/g16/l502.exe)
 Integral symmetry usage will be decided dynamically.
 Closed shell SCF:
 Using DIIS extrapolation, IDIIS=  1040.
 NGot=  1342177280 LenX=  1342089820 LenY=  1342047763
 Requested convergence on RMS density matrix=1.00D-08 within  32 cycles.
 Requested convergence on MAX density matrix=1.00D-06.
 Requested convergence on             energy=1.00D-06.
 No special actions if energy rises.
 Fock matrices will be formed incrementally for  20 cycles.
 Integral accuracy reduced to 1.0D-05 until final iterations.

 Cycle   1  Pass 0  IDiag  1:
 FoFJK:  IHMeth= 1 ICntrl=       0 DoSepK=F KAlg= 0 I1Cent=           0 FoldK=F
 IRaf= 900000000 NMat=       1 IRICut=       1 DoRegI=T DoRafI=F ISym2E= 0 IDoP0=0 IntGTp=1.
 FoFCou: FMM=F IPFlag=           0 FMFlag=      100000 FMFlg1=           0
         NFxFlg=           0 DoJE=F BraDBF=F KetDBF=F FulRan=T
         wScrn=  0.000000 ICntrl=         0 IOpCl=  0 I1Cent=           0 NGrid=           0
         NMat0=    1 NMatS0=      1 NMatT0=    0 NMatD0=    1 NMtDS0=    0 NMtDT0=    0
 Symmetry not used in FoFCou.
 E= -845.539750110027    
 DIIS: error= 1.42D-03 at cycle   1 NSaved=   1.
 NSaved= 1 IEnMin= 1 EnMin= -845.539750110027     IErMin= 1 ErrMin= 1.42D-03
 ErrMax= 1.42D-03  0.00D+00 EMaxC= 1.00D-01 BMatC= 2.99D-04 BMatP= 2.99D-04
 IDIUse=3 WtCom= 9.86D-01 WtEn= 1.42D-02
 Coeff-Com:  0.100D+01
 Coeff-En:   0.100D+01
 Coeff:      0.100D+01
 Gap=     1.939 Goal=   None    Shift=    0.000
 GapD=    1.939 DampG=2.000 DampE=1.000 DampFc=2.0000 IDamp=-1.
 RMSDP=3.43D-04 MaxDP=7.65D-03              OVMax= 4.51D-03

 Cycle   2  Pass 0  IDiag  1:
 RMSU=  3.36D-04    CP:  9.97D-01
 E= -845.540034386432     Delta-E=       -0.000284276405 Rises=F Damp=F
 DIIS: error= 7.30D-04 at cycle   2 NSaved=   2.
 NSaved= 2 IEnMin= 2 EnMin= -845.540034386432     IErMin= 2 ErrMin= 7.30D-04
 ErrMax= 7.30D-04  0.00D+00 EMaxC= 1.00D-01 BMatC= 8.78D-05 BMatP= 2.99D-04
 IDIUse=3 WtCom= 9.93D-01 WtEn= 7.30D-03
 Coeff-Com:  0.307D+00 0.693D+00
 Coeff-En:   0.000D+00 0.100D+01
 Coeff:      0.304D+00 0.696D+00
 Gap=     0.175 Goal=   None    Shift=    0.000
 RMSDP=9.33D-05 MaxDP=3.20D-03 DE=-2.84D-04 OVMax= 2.75D-03

 Cycle   3  Pass 0  IDiag  1:
 RMSU=  9.15D-05    CP:  9.98D-01  9.49D-01
 E= -845.540087961683     Delta-E=       -0.000053575251 Rises=F Damp=F
 DIIS: error= 3.90D-04 at cycle   3 NSaved=   3.
 NSaved= 3 IEnMin= 3 EnMin= -845.540087961683     IErMin= 3 ErrMin= 3.90D-04
 ErrMax= 3.90D-04  0.00D+00 EMaxC= 1.00D-01 BMatC= 3.87D-05 BMatP= 8.78D-05
 IDIUse=3 WtCom= 9.96D-01 WtEn= 3.90D-03
 Coeff-Com:  0.381D-01 0.398D+00 0.564D+00
 Coeff-En:   0.000D+00 0.310D+00 0.690D+00
 Coeff:      0.379D-01 0.398D+00 0.564D+00
 Gap=     0.175 Goal=   None    Shift=    0.000
 RMSDP=4.68D-05 MaxDP=1.62D-03 DE=-5.36D-05 OVMax= 1.82D-03

 Cycle   4  Pass 0  IDiag  1:
 RMSU=  2.18D-05    CP:  9.97D-01  9.61D-01  5.49D-01
 E= -845.540124225756     Delta-E=       -0.000036264073 Rises=F Damp=F
 DIIS: error= 1.68D-04 at cycle   4 NSaved=   4.
 NSaved= 4 IEnMin= 4 EnMin= -845.540124225756     IErMin= 4 ErrMin= 1.68D-04
 ErrMax= 1.68D-04  0.00D+00 EMaxC= 1.00D-01 BMatC= 4.17D-06 BMatP= 3.87D-05
 IDIUse=3 WtCom= 9.98D-01 WtEn= 1.68D-03
 Coeff-Com:  0.855D-03 0.188D+00 0.340D+00 0.471D+00
 Coeff-En:   0.000D+00 0.000D+00 0.193D-01 0.981D+00
 Coeff:      0.853D-03 0.187D+00 0.340D+00 0.472D+00
 Gap=     0.175 Goal=   None    Shift=    0.000
 RMSDP=1.35D-05 MaxDP=4.62D-04 DE=-3.63D-05 OVMax= 1.01D-03

 Cycle   5  Pass 0  IDiag  1:
 RMSU=  7.65D-06    CP:  9.97D-01  9.58D-01  5.73D-01  5.04D-01
 E= -845.540128611090     Delta-E=       -0.000004385334 Rises=F Damp=F
 DIIS: error= 5.28D-05 at cycle   5 NSaved=   5.
 NSaved= 5 IEnMin= 5 EnMin= -845.540128611090     IErMin= 5 ErrMin= 5.28D-05
 ErrMax= 5.28D-05  0.00D+00 EMaxC= 1.00D-01 BMatC= 2.88D-07 BMatP= 4.17D-06
 IDIUse=1 WtCom= 1.00D+00 WtEn= 0.00D+00
 Coeff-Com: -0.351D-02 0.589D-01 0.127D+00 0.262D+00 0.556D+00
 Coeff:     -0.351D-02 0.589D-01 0.127D+00 0.262D+00 0.556D+00
 Gap=     0.175 Goal=   None    Shift=    0.000
 RMSDP=4.15D-06 MaxDP=1.14D-04 DE=-4.39D-06 OVMax= 2.90D-04

 Initial convergence to 1.0D-05 achieved.  Increase integral accuracy.
 Cycle   6  Pass 1  IDiag  1:
 E= -845.540102266855     Delta-E=        0.000026344235 Rises=F Damp=F
 DIIS: error= 2.68D-05 at cycle   1 NSaved=   1.
 NSaved= 1 IEnMin= 1 EnMin= -845.540102266855     IErMin= 1 ErrMin= 2.68D-05
 ErrMax= 2.68D-05  0.00D+00 EMaxC= 1.00D-01 BMatC= 1.03D-07 BMatP= 1.03D-07
 IDIUse=1 WtCom= 1.00D+00 WtEn= 0.00D+00
 Coeff-Com:  0.100D+01
 Coeff:      0.100D+01
 Gap=     0.175 Goal=   None    Shift=    0.000
 RMSDP=4.15D-06 MaxDP=1.14D-04 DE= 2.63D-05 OVMax= 1.49D-04

 Cycle   7  Pass 1  IDiag  1:
 RMSU=  2.05D-05    CP:  1.00D+00
 E= -845.540102280644     Delta-E=       -0.000000013789 Rises=F Damp=F
 DIIS: error= 2.41D-05 at cycle   2 NSaved=   2.
 NSaved= 2 IEnMin= 2 EnMin= -845.540102280644     IErMin= 2 ErrMin= 2.41D-05
 ErrMax= 2.41D-05  0.00D+00 EMaxC= 1.00D-01 BMatC= 6.51D-08 BMatP= 1.03D-07
 IDIUse=1 WtCom= 1.00D+00 WtEn= 0.00D+00
 Coeff-Com:  0.422D+00 0.578D+00
 Coeff:      0.422D+00 0.578D+00
 Gap=     0.175 Goal=   None    Shift=    0.000
 RMSDP=2.26D-06 MaxDP=7.95D-05 DE=-1.38D-08 OVMax= 1.62D-04

 Cycle   8  Pass 1  IDiag  1:
 RMSU=  2.25D-06    CP:  1.00D+00  1.00D+00
 E= -845.540102319124     Delta-E=       -0.000000038480 Rises=F Damp=F
 DIIS: error= 1.88D-05 at cycle   3 NSaved=   3.
 NSaved= 3 IEnMin= 3 EnMin= -845.540102319124     IErMin= 3 ErrMin= 1.88D-05
 ErrMax= 1.88D-05  0.00D+00 EMaxC= 1.00D-01 BMatC= 2.82D-08 BMatP= 6.51D-08
 IDIUse=1 WtCom= 1.00D+00 WtEn= 0.00D+00
 Coeff-Com:  0.341D-01 0.392D+00 0.574D+00
 Coeff:      0.341D-01 0.392D+00 0.574D+00
 Gap=     0.175 Goal=   None    Shift=    0.000
 RMSDP=1.09D-06 MaxDP=2.98D-05 DE=-3.85D-08 OVMax= 8.35D-05

 Cycle   9  Pass 1  IDiag  1:
 RMSU=  4.10D-07    CP:  1.00D+00  1.01D+00  5.59D-01
 E= -845.540102348484     Delta-E=       -0.000000029360 Rises=F Damp=F
 DIIS: error= 4.03D-06 at cycle   4 NSaved=   4.
 NSaved= 4 IEnMin= 4 EnMin= -845.540102348484     IErMin= 4 ErrMin= 4.03D-06
 ErrMax= 4.03D-06  0.00D+00 EMaxC= 1.00D-01 BMatC= 2.51D-09 BMatP= 2.82D-08
 IDIUse=1 WtCom= 1.00D+00 WtEn= 0.00D+00
 Coeff-Com: -0.318D-02 0.214D+00 0.361D+00 0.429D+00
 Coeff:     -0.318D-02 0.214D+00 0.361D+00 0.429D+00
 Gap=     0.175 Goal=   None    Shift=    0.000
 RMSDP=2.73D-07 MaxDP=9.30D-06 DE=-2.94D-08 OVMax= 1.88D-05

 Cycle  10  Pass 1  IDiag  1:
 RMSU=  8.49D-08    CP:  1.00D+00  1.01D+00  6.11D-01  4.36D-01
 E= -845.540102351146     Delta-E=       -0.000000002662 Rises=F Damp=F
 DIIS: error= 3.81D-07 at cycle   5 NSaved=   5.
 NSaved= 5 IEnMin= 5 EnMin= -845.540102351146     IErMin= 5 ErrMin= 3.81D-07
 ErrMax= 3.81D-07  0.00D+00 EMaxC= 1.00D-01 BMatC= 4.02D-11 BMatP= 2.51D-09
 IDIUse=1 WtCom= 1.00D+00 WtEn= 0.00D+00
 Coeff-Com: -0.264D-02 0.103D+00 0.176D+00 0.230D+00 0.494D+00
 Coeff:     -0.264D-02 0.103D+00 0.176D+00 0.230D+00 0.494D+00
 Gap=     0.175 Goal=   None    Shift=    0.000
 RMSDP=4.72D-08 MaxDP=1.13D-06 DE=-2.66D-09 OVMax= 2.33D-06

 Cycle  11  Pass 1  IDiag  1:
 RMSU=  2.90D-08    CP:  1.00D+00  1.01D+00  6.08D-01  4.61D-01  5.90D-01
 E= -845.540102351187     Delta-E=       -0.000000000041 Rises=F Damp=F
 DIIS: error= 1.12D-07 at cycle   6 NSaved=   6.
 NSaved= 6 IEnMin= 6 EnMin= -845.540102351187     IErMin= 6 ErrMin= 1.12D-07
 ErrMax= 1.12D-07  0.00D+00 EMaxC= 1.00D-01 BMatC= 1.75D-12 BMatP= 4.02D-11
 IDIUse=1 WtCom= 1.00D+00 WtEn= 0.00D+00
 Coeff-Com: -0.104D-02 0.361D-01 0.616D-01 0.841D-01 0.240D+00 0.579D+00
 Coeff:     -0.104D-02 0.361D-01 0.616D-01 0.841D-01 0.240D+00 0.579D+00
 Gap=     0.175 Goal=   None    Shift=    0.000
 RMSDP=1.20D-08 MaxDP=3.87D-07 DE=-4.14D-11 OVMax= 1.06D-06

 Cycle  12  Pass 1  IDiag  1:
[...]
     11  C    Isotropic =    37.1865   Anisotropy =   162.4907
   XX=    13.5707   YX=   -43.6780   ZX=    -0.0072
   XY=   -38.0035   YY=   -47.5248   ZY=    -0.0031
   XZ=    -0.0069   YZ=    -0.0030   ZZ=   145.5136
   Eigenvalues:   -67.9784    34.0242   145.5136
     12  H    Isotropic =    23.5236   Anisotropy =     9.2031
   XX=    25.3910   YX=     3.8281   ZX=     0.0003
   XY=     3.8374   YY=    26.2172   ZY=     0.0002
   XZ=     0.0004   YZ=     0.0002   ZZ=    18.9626
   Eigenvalues:    18.9626    21.9492    29.6590
     13  H    Isotropic =    23.0744   Anisotropy =     8.2943
   XX=    28.5614   YX=    -0.6027   ZX=     0.0005
   XY=    -0.4617   YY=    21.9449   ZY=    -0.0000
   XZ=     0.0005   YZ=     0.0000   ZZ=    18.7169
   Eigenvalues:    18.7169    21.9023    28.6040
     14  H    Isotropic =    23.0121   Anisotropy =     8.4479
   XX=    27.9549   YX=    -2.0834   ZX=     0.0005
   XY=    -2.0880   YY=    22.3312   ZY=    -0.0001
   XZ=     0.0005   YZ=    -0.0001   ZZ=    18.7501
   Eigenvalues:    18.7501    21.6421    28.6440
     15  H    Isotropic =    23.4330   Anisotropy =     6.5686
   XX=    23.3945   YX=    -1.5997   ZX=     0.0002
   XY=    -2.0104   YY=    27.0745   ZY=    -0.0001
   XZ=     0.0002   YZ=    -0.0000   ZZ=    19.8301
   Eigenvalues:    19.8301    22.6569    27.8121
     16  H    Isotropic =    23.3643   Anisotropy =     6.7497
   XX=    25.7220   YX=     2.4129   ZX=     0.0003
   XY=     2.8430   YY=    24.6400   ZY=     0.0002
   XZ=     0.0003   YZ=     0.0002   ZZ=    19.7308
   Eigenvalues:    19.7308    22.4979    27.8640
     17  H    Isotropic =    23.0665   Anisotropy =     8.8923
   XX=    28.7959   YX=    -1.2240   ZX=     0.0005
   XY=    -1.1799   YY=    21.7287   ZY=    -0.0000
   XZ=     0.0005   YZ=    -0.0001   ZZ=    18.6750
   Eigenvalues:    18.6750    21.5299    28.9947
     18  H    Isotropic =    23.0861   Anisotropy =    11.0784
   XX=    29.0472   YX=    -3.7484   ZX=     0.0006
   XY=    -3.0787   YY=    22.2921   ZY=    -0.0001
   XZ=     0.0006   YZ=    -0.0002   ZZ=    17.9191
   Eigenvalues:    17.9191    20.8676    30.4717
 End of Minotr F.D. properties file   721 does not exist.
 End of Minotr F.D. properties file   722 does not exist.
 End of Minotr F.D. properties file   788 does not exist.
 Leave Link 1002 at Tue Sep 17 10:35:06 2024, MaxMem=  1342177280 cpu:             635.7 elap:             637.7
 (Enter /groups/ReismanLab/Software/Gaussian16_RevC/Linux_Binary_AVX2-enabled-CPU/g16/l601.exe)
 Copying SCF densities to generalized density rwf, IOpCl= 0 IROHF=0.

 **********************************************************************

            Population analysis using the SCF Density.

 **********************************************************************

 Orbital symmetries:
       Occupied  (A) (A) (A) (A) (A) (A) (A) (A) (A) (A) (A) (A)
                 (A) (A) (A) (A) (A) (A) (A) (A) (A) (A) (A) (A)
                 (A) (A) (A) (A) (A) (A) (A) (A) (A) (A) (A) (A)
                 (A) (A) (A) (A) (A) (A)
       Virtual   (A) (A) (A) (A) (A) (A) (A) (A) (A) (A) (A) (A)
                 (A) (A) (A) (A) (A) (A) (A) (A) (A) (A) (A) (A)
                 (A) (A) (A) (A) (A) (A) (A) (A) (A) (A) (A) (A)
                 (A) (A) (A) (A) (A) (A) (A) (A) (A) (A) (A) (A)
                 (A) (A) (A) (A) (A) (A) (A) (A) (A) (A) (A) (A)
                 (A) (A) (A) (A) (A) (A) (A) (A) (A) (A) (A) (A)
                 (A) (A) (A) (A) (A) (A) (A) (A) (A) (A) (A) (A)
                 (A) (A) (A) (A) (A) (A) (A) (A) (A) (A) (A) (A)
                 (A) (A) (A) (A) (A) (A) (A) (A) (A) (A) (A) (A)
                 (A) (A) (A) (A) (A) (A) (A) (A) (A) (A) (A) (A)
                 (A) (A) (A) (A) (A) (A) (A) (A) (A) (A) (A) (A)
                 (A) (A) (A) (A) (A) (A) (A) (A) (A) (A) (A) (A)
                 (A) (A) (A) (A) (A) (A) (A) (A) (A) (A) (A) (A)
                 (A) (A) (A) (A) (A) (A) (A) (A) (A) (A) (A) (A)
                 (A) (A) (A) (A) (A) (A) (A) (A) (A) (A) (A) (A)
                 (A) (A) (A) (A) (A) (A) (A) (A) (A) (A) (A) (A)
                 (A) (A) (A) (A) (A) (A) (A) (A) (A) (A) (A) (A)
                 (A) (A) (A) (A) (A) (A) (A) (A) (A) (A) (A) (A)
                 (A) (A) (A) (A) (A) (A) (A) (A) (A) (A) (A) (A)
                 (A) (A) (A) (A) (A) (A) (A) (A) (A) (A) (A) (A)
                 (A) (A) (A) (A) (A) (A) (A) (A) (A) (A) (A) (A)
                 (A) (A) (A) (A) (A) (A) (A) (A) (A) (A) (A) (A)
                 (A) (A) (A) (A) (A) (A) (A) (A) (A) (A) (A) (A)
                 (A) (A) (A) (A) (A) (A) (A) (A) (A) (A) (A) (A)
                 (A) (A) (A) (A) (A) (A) (A) (A) (A) (A) (A) (A)
                 (A) (A) (A) (A) (A) (A) (A) (A) (A) (A) (A) (A)
                 (A) (A) (A) (A) (A) (A) (A) (A) (A) (A) (A) (A)
                 (A) (A) (A) (A) (A) (A) (A) (A) (A) (A) (A) (A)
                 (A) (A) (A) (A) (A) (A) (A) (A) (A) (A) (A)
 The electronic state is 1-A.
 Alpha  occ. eigenvalues -- -102.64633 -10.60864 -10.56277 -10.55980 -10.55645
 Alpha  occ. eigenvalues --  -10.55592 -10.55510 -10.54942 -10.54930 -10.54833
 Alpha  occ. eigenvalues --  -10.54748  -9.80880  -7.53074  -7.52569  -7.52555
 Alpha  occ. eigenvalues --   -1.00058  -0.96478  -0.91259  -0.87875  -0.83594
 Alpha  occ. eigenvalues --   -0.81423  -0.71853  -0.69385  -0.68681  -0.59727
 Alpha  occ. eigenvalues --   -0.58877  -0.56920  -0.52477  -0.51898  -0.49239
 Alpha  occ. eigenvalues --   -0.49122  -0.48290  -0.47417  -0.44358  -0.43570
 Alpha  occ. eigenvalues --   -0.40849  -0.39748  -0.38025  -0.37859  -0.35253
 Alpha  occ. eigenvalues --   -0.29932  -0.27375
 Alpha virt. eigenvalues --   -0.02449   0.00309   0.04345   0.06489   0.09324
 Alpha virt. eigenvalues --    0.09695   0.11594   0.12264   0.12733   0.12990
 Alpha virt. eigenvalues --    0.14665   0.15697   0.16003   0.18332   0.19288
 Alpha virt. eigenvalues --    0.20090   0.21095   0.22451   0.22673   0.24630
 Alpha virt. eigenvalues --    0.25786   0.26727   0.26973   0.28128   0.28529
 Alpha virt. eigenvalues --    0.28537   0.30505   0.30693   0.31650   0.31816
 Alpha virt. eigenvalues --    0.33649   0.34328   0.34566   0.34857   0.36650
 Alpha virt. eigenvalues --    0.37298   0.37570   0.38193   0.38729   0.38864
 Alpha virt. eigenvalues --    0.40845   0.41208   0.42620   0.43463   0.44653
 Alpha virt. eigenvalues --    0.44922   0.45466   0.45539   0.46834   0.46934
 Alpha virt. eigenvalues --    0.48813   0.49346   0.50100   0.50298   0.51923
 Alpha virt. eigenvalues --    0.52350   0.54036   0.54574   0.56155   0.57320
 Alpha virt. eigenvalues --    0.58400   0.59715   0.60763   0.62370   0.64251
 Alpha virt. eigenvalues --    0.64343   0.67080   0.68255   0.69806   0.71760
 Alpha virt. eigenvalues --    0.72060   0.73181   0.73700   0.74161   0.76175
 Alpha virt. eigenvalues --    0.76692   0.76823   0.77718   0.79128   0.79464
 Alpha virt. eigenvalues --    0.79628   0.81881   0.84453   0.87032   0.88071
 Alpha virt. eigenvalues --    0.88869   0.89464   0.91836   0.91948   0.92630
 Alpha virt. eigenvalues --    0.95167   0.95414   0.97804   1.00058   1.01486
 Alpha virt. eigenvalues --    1.01846   1.03816   1.04645   1.08725   1.10149
 Alpha virt. eigenvalues --    1.13350   1.14926   1.16491   1.17624   1.19529
 Alpha virt. eigenvalues --    1.20623   1.22941   1.23955   1.25073   1.25475
 Alpha virt. eigenvalues --    1.26233   1.27480   1.28173   1.29150   1.30047
 Alpha virt. eigenvalues --    1.31653   1.34138   1.37859   1.39275   1.42937
 Alpha virt. eigenvalues --    1.43868   1.44724   1.45725   1.46336   1.50783
 Alpha virt. eigenvalues --    1.51948   1.53687   1.53877   1.53948   1.54859
 Alpha virt. eigenvalues --    1.57360   1.58096   1.58705   1.62626   1.62666
 Alpha virt. eigenvalues --    1.67243   1.67959   1.68192   1.69823   1.71924
 Alpha virt. eigenvalues --    1.72173   1.72582   1.72994   1.74455   1.76057
 Alpha virt. eigenvalues --    1.79200   1.80690   1.82703   1.84411   1.85977
 Alpha virt. eigenvalues --    1.87780   1.89514   1.89656   1.90210   1.91698
 Alpha virt. eigenvalues --    1.93701   1.97273   1.97477   1.99249   2.01621
 Alpha virt. eigenvalues --    2.02259   2.03390   2.04466   2.05676   2.12576
 Alpha virt. eigenvalues --    2.12750   2.12795   2.15636   2.16174   2.17200
 Alpha virt. eigenvalues --    2.17451   2.18477   2.20486   2.21363   2.22596
 Alpha virt. eigenvalues --    2.23521   2.23636   2.26933   2.28284   2.29182
 Alpha virt. eigenvalues --    2.30304   2.32741   2.32938   2.35713   2.38863
 Alpha virt. eigenvalues --    2.42878   2.44680   2.45658   2.47958   2.48349
 Alpha virt. eigenvalues --    2.50493   2.55662   2.57380   2.58900   2.59821
 Alpha virt. eigenvalues --    2.60146   2.62893   2.64933   2.65352   2.66425
 Alpha virt. eigenvalues --    2.67196   2.68194   2.72487   2.72883   2.74134
 Alpha virt. eigenvalues --    2.75048   2.76138   2.76729   2.77237   2.78245
 Alpha virt. eigenvalues --    2.80762   2.81023   2.82422   2.83665   2.84982
 Alpha virt. eigenvalues --    2.85277   2.87980   2.89184   2.90647   2.91520
 Alpha virt. eigenvalues --    2.93311   2.94607   2.94978   2.96114   2.98269
 Alpha virt. eigenvalues --    2.98352   3.00022   3.02055   3.02896   3.03212
 Alpha virt. eigenvalues --    3.06306   3.06339   3.08884   3.10408   3.11096
 Alpha virt. eigenvalues --    3.13429   3.15906   3.16246   3.17914   3.19534
 Alpha virt. eigenvalues --    3.19760   3.20395   3.20815   3.22366   3.23810
 Alpha virt. eigenvalues --    3.24815   3.26036   3.27642   3.28499   3.30641
 Alpha virt. eigenvalues --    3.30834   3.32166   3.33884   3.35289   3.36706
 Alpha virt. eigenvalues --    3.37400   3.41460   3.42102   3.43580   3.43979
 Alpha virt. eigenvalues --    3.45060   3.46415   3.46771   3.47699   3.48056
 Alpha virt. eigenvalues --    3.49482   3.51832   3.54122   3.55980   3.56961
 Alpha virt. eigenvalues --    3.58477   3.61683   3.63133   3.66394   3.67945
 Alpha virt. eigenvalues --    3.71504   3.72994   3.79279   3.80140   3.81584
 Alpha virt. eigenvalues --    3.83869   3.86716   3.89372   3.91289   3.93307
 Alpha virt. eigenvalues --    3.94228   3.96051   4.00332   4.03911   4.05879
 Alpha virt. eigenvalues --    4.09328   4.09480   4.10788   4.11492   4.12087
 Alpha virt. eigenvalues --    4.14567   4.16702   4.18476   4.20762   4.22675
 Alpha virt. eigenvalues --    4.22731   4.22938   4.28388   4.28518   4.32711
 Alpha virt. eigenvalues --    4.38262   4.39748   4.42721   4.48110   4.49486
 Alpha virt. eigenvalues --    4.57754   4.62068   4.67712   4.69432   4.69713
 Alpha virt. eigenvalues --    4.70788   4.71688   4.73727   4.83027   4.88402
 Alpha virt. eigenvalues --    4.92053   5.00866   5.02681   5.04560   5.12191
 Alpha virt. eigenvalues --    5.13405   5.26028   5.26991   5.30145   5.50312
 Alpha virt. eigenvalues --    5.53481   5.58053   5.81363  10.81620  10.89385
 Alpha virt. eigenvalues --   11.40421  21.93598  22.62121  22.71646  22.72731
 Alpha virt. eigenvalues --   22.78567  22.81678  22.91312  23.00435  23.10447
 Alpha virt. eigenvalues --   23.63199  25.96646
          Condensed to atoms (all electrons):
               1          2          3          4          5          6
     1  Cl  16.890201   0.290597  -0.051588   0.014758  -0.001317  -0.000012
     2  C    0.290597   5.035523   0.313135   0.046654  -0.074570  -0.003241
     3  C   -0.051588   0.313135   5.086502   0.448142  -0.012177   0.009525
     4  C    0.014758   0.046654   0.448142   5.142166   0.434321  -0.112960
     5  C   -0.001317  -0.074570  -0.012177   0.434321   4.860875   0.486408
     6  C   -0.000012  -0.003241   0.009525  -0.112960   0.486408   5.060920
     7  C   -0.000009   0.000537  -0.000977   0.006827  -0.067070   0.552987
     8  C    0.000022  -0.001352   0.000286  -0.001282  -0.029105  -0.042468
     9  C   -0.001322   0.006445   0.001219   0.016401  -0.057055  -0.073301
    10  C    0.012725   0.018200  -0.094469   0.000154   0.409299  -0.061197
    11  C   -0.055880   0.363532   0.082330  -0.153094  -0.017000   0.021306
    12  H    0.001847  -0.054240   0.420646  -0.033948   0.006335  -0.000243
    13  H   -0.000253   0.003245  -0.025256   0.397464  -0.031692  -0.003466
    14  H   -0.000001  -0.000084   0.000319  -0.004473  -0.032490   0.399759
    15  H    0.000000  -0.000004   0.000023  -0.000358   0.004537  -0.033192
    16  H   -0.000000   0.000010   0.000001   0.000052   0.000475   0.004166
    17  H   -0.000030   0.000540   0.000125  -0.000359   0.010322  -0.000071
    18  H    0.001808  -0.043208   0.011299  -0.003459   0.012800  -0.000119
               7          8          9         10         11         12
     1  Cl  -0.000009   0.000022  -0.001322   0.012725  -0.055880   0.001847
     2  C    0.000537  -0.001352   0.006445   0.018200   0.363532  -0.054240
     3  C   -0.000977   0.000286   0.001219  -0.094469   0.082330   0.420646
     4  C    0.006827  -0.001282   0.016401   0.000154  -0.153094  -0.033948
     5  C   -0.067070  -0.029105  -0.057055   0.409299  -0.017000   0.006335
     6  C    0.552987  -0.042468  -0.073301  -0.061197   0.021306  -0.000243
     7  C    4.915063   0.467807  -0.042004  -0.028713  -0.001512   0.000026
     8  C    0.467807   4.913380   0.547150  -0.063422   0.007139  -0.000006
     9  C   -0.042004   0.547150   5.081114   0.463343  -0.101469   0.000162
    10  C   -0.028713  -0.063422   0.463343   4.892344   0.374429  -0.002195
    11  C   -0.001512   0.007139  -0.101469   0.374429   5.313820   0.013985
    12  H    0.000026  -0.000006   0.000162  -0.002195   0.013985   0.478444
    13  H    0.000000   0.000091  -0.000397   0.010237   0.000066  -0.003849
    14  H   -0.026380   0.002811   0.000016   0.010702  -0.000204  -0.000010
    15  H    0.414412  -0.034490   0.004137   0.000399   0.000072  -0.000000
    16  H   -0.034451   0.414017  -0.033079   0.004382  -0.000398   0.000000
    17  H    0.002978  -0.027891   0.402916  -0.034268  -0.003830  -0.000002
    18  H    0.000019   0.000240  -0.002888  -0.025975   0.397536  -0.000049
              13         14         15         16         17         18
     1  Cl  -0.000253  -0.000001   0.000000  -0.000000  -0.000030   0.001808
     2  C    0.003245  -0.000084  -0.000004   0.000010   0.000540  -0.043208
     3  C   -0.025256   0.000319   0.000023   0.000001   0.000125   0.011299
     4  C    0.397464  -0.004473  -0.000358   0.000052  -0.000359  -0.003459
     5  C   -0.031692  -0.032490   0.004537   0.000475   0.010322   0.012800
     6  C   -0.003466   0.399759  -0.033192   0.004166  -0.000071  -0.000119
     7  C    0.000000  -0.026380   0.414412  -0.034451   0.002978   0.000019
     8  C    0.000091   0.002811  -0.034490   0.414017  -0.027891   0.000240
     9  C   -0.000397   0.000016   0.004137  -0.033079   0.402916  -0.002888
    10  C    0.010237   0.010702   0.000399   0.004382  -0.034268  -0.025975
    11  C    0.000066  -0.000204   0.000072  -0.000398  -0.003830   0.397536
    12  H   -0.003849  -0.000010  -0.000000   0.000000  -0.000002  -0.000049
    13  H    0.486749   0.005045  -0.000018  -0.000002   0.000011   0.000058
    14  H    0.005045   0.490820  -0.003757  -0.000247   0.000062   0.000012
    15  H   -0.000018  -0.003757   0.488308  -0.003021  -0.000241  -0.000002
    16  H   -0.000002  -0.000247  -0.003021   0.488308  -0.003766  -0.000013
    17  H    0.000011   0.000062  -0.000241  -0.003766   0.489956   0.005208
    18  H    0.000058   0.000012  -0.000002  -0.000013   0.005208   0.477288
 Mulliken charges:
               1
     1  Cl  -0.101545
     2  C    0.098280
     3  C   -0.189085
     4  C   -0.197004
     5  C    0.097103
     6  C   -0.204799
     7  C   -0.159540
     8  C   -0.152927
     9  C   -0.211389
    10  C    0.114022
    11  C   -0.240826
    12  H    0.173098
    13  H    0.161968
    14  H    0.158101
    15  H    0.163197
    16  H    0.163565
    17  H    0.158337
    18  H    0.169443
 Sum of Mulliken charges =  -0.00000
 Mulliken charges with hydrogens summed into heavy atoms:
               1
     1  Cl  -0.101545
     2  C    0.098280
     3  C   -0.015987
     4  C   -0.035035
     5  C    0.097103
     6  C   -0.046698
     7  C    0.003658
     8  C    0.010638
     9  C   -0.053052
    10  C    0.114022
    11  C   -0.071383
 Electronic spatial extent (au):  <R**2>=           2167.5996
 Charge=              0.0000 electrons
 Dipole moment (field-independent basis, Debye):
    X=              2.2863    Y=              0.5318    Z=              0.0001  Tot=              2.3473
 Quadrupole moment (field-independent basis, Debye-Ang):
   XX=            -68.3914   YY=            -60.7261   ZZ=            -76.0200
   XY=             -1.5896   XZ=              0.0004   YZ=             -0.0000
 Traceless Quadrupole moment (field-independent basis, Debye-Ang):
   XX=             -0.0123   YY=              7.6531   ZZ=             -7.6408
   XY=             -1.5896   XZ=              0.0004   YZ=             -0.0000
 Octapole moment (field-independent basis, Debye-Ang**2):
  XXX=             29.7790  YYY=              1.8837  ZZZ=             -0.0017  XYY=              0.7525
  XXY=              2.6784  XXZ=              0.0026  XZZ=            -11.0594  YZZ=             -1.3112
  YYZ=              0.0001  XYZ=              0.0002
 Hexadecapole moment (field-independent basis, Debye-Ang**3):
 XXXX=          -2123.7289 YYYY=           -528.9231 ZZZZ=            -88.7416 XXXY=             -9.0900
 XXXZ=             -0.0446 YYYX=             -0.8944 YYYZ=             -0.0007 ZZZX=             -0.0606
 ZZZY=             -0.0007 XXYY=           -438.4723 XXZZ=           -422.3176 YYZZ=           -127.4816
 XXYZ=             -0.0011 YYXZ=             -0.0161 ZZXY=              4.7532
 N-N= 6.044070677125D+02 E-N=-3.196706332612D+03  KE= 8.429264845935D+02
 Calculating spin-rotation constants.
 Leave Link  601 at Tue Sep 17 10:35:09 2024, MaxMem=  1342177280 cpu:               3.3 elap:               3.3
 (Enter /groups/ReismanLab/Software/Gaussian16_RevC/Linux_Binary_AVX2-enabled-CPU/g16/l9999.exe)
 Unable to Open any file for archive entry.
 1\1\GINC-HPC-34-26\SP\RM062X\def2TZVP\C10H7Cl1\MANTIND\17-Sep-2024\0\\
 #p M062X/def2tzvp geom=check guess=read scf(xqc,tight) integral(grid=u
 ltrafine) scrf(SMD, solvent=1,4-Dioxane) nmr=giao\\spe\\0,1\Cl,0,3.324
 8196009,-0.4146060064,0.0001753296\C,0,1.6248145752,0.0330268651,0.000
 0877957\C,0,1.2905858265,1.4074720775,0.0000620257\C,0,-0.0335877519,1
 .7755400154,-0.0000072939\C,0,-1.0684348255,0.803988285,-0.0000562774\
 C,0,-2.4418865462,1.1596403783,-0.0001286454\C,0,-3.4193783773,0.19148
 11347,-0.0001739857\C,0,-3.0657252061,-1.1794968962,-0.0001507319\C,0,
 -1.7430486746,-1.557621633,-0.0000819571\C,0,-0.7110483325,-0.58257812
 03,-0.0000317976\C,0,0.6609962177,-0.9451453742,0.0000422869\H,0,2.080
 5104284,2.1492899951,0.000099317\H,0,-0.302149006,2.8279842184,-0.0000
 296595\H,0,-2.7082374481,2.2128260952,-0.0001460576\H,0,-4.4670533635,
 0.475235993,-0.0002265829\H,0,-3.8460034988,-1.9341674583,-0.000186952
 1\H,0,-1.4692173247,-2.6087054212,-0.0000644846\H,0,0.9405083475,-1.99
 29757363,0.0000626856\\Version=ES64L-G16RevC.02\State=1-A\HF=-845.4711
 084\RMSD=4.819e-09\Dipole=-0.9012784,0.201367,-0.0000474\Quadrupole=-0
 .029324,5.7100871,-5.6807631,1.1318775,0.0002745,0.0000026\PG=C01 [X(C
 10H7Cl1)]\\@
 The archive entry for this job was punched.


 THOSE WHO TRY TO PASS CHEMISTRY OFF AS A NEW SCIENCE
 SHOW HOW LITTLE KNOWLEDGE THEY HAVE OF THE CHARACTER
 AND LITERATURE OF THE ANCIENTS.
   -- NICOLAS LEFEVRE
 "COURS DE CHYMIE" J.-N.LELOUP, PARIS, 1751
 Job cpu time:       0 days  0 hours 11 minutes 43.7 seconds.
 Elapsed time:       0 days  0 hours 11 minutes 47.4 seconds.
 File lengths (MBytes):  RWF=    248 Int=      0 D2E=      0 Chk=     24 Scr=     16
 Normal termination of Gaussian 16 at Tue Sep 17 10:35:09 2024.
