 Entering Gaussian System, Link 0=g16
 Input=smiles_00058_conf_2.gjf
 Output=smiles_00058_conf_2.log
 Initial command:
 /groups/ReismanLab/Software/Gaussian16_RevC/Linux_Binary_AVX2-enabled-CPU/g16/l1.exe "/central/groups/ReismanLab/DM/dft_final/smiles_00058/Gau-915834.inp" -scrdir="/central/groups/ReismanLab/DM/dft_final/smiles_00058/"
 Entering Link 1 = /groups/ReismanLab/Software/Gaussian16_RevC/Linux_Binary_AVX2-enabled-CPU/g16/l1.exe PID=    915837.
  
 Copyright (c) 1988-2021, Gaussian, Inc.  All Rights Reserved.
  
 This is part of the Gaussian(R) 16 program.  It is based on
 the Gaussian(R) 09 system (copyright 2009, Gaussian, Inc.),
 the Gaussian(R) 03 system (copyright 2003, Gaussian, Inc.),
 the Gaussian(R) 98 system (copyright 1998, Gaussian, Inc.),
 the Gaussian(R) 94 system (copyright 1995, Gaussian, Inc.),
 the Gaussian 92(TM) system (copyright 1992, Gaussian, Inc.),
 the Gaussian 90(TM) system (copyright 1990, Gaussian, Inc.),
 the Gaussian 88(TM) system (copyright 1988, Gaussian, Inc.),
 the Gaussian 86(TM) system (copyright 1986, Carnegie Mellon
 University), and the Gaussian 82(TM) system (copyright 1983,
 Carnegie Mellon University). Gaussian is a federally registered
 trademark of Gaussian, Inc.
  
 This software contains proprietary and confidential information,
 including trade secrets, belonging to Gaussian, Inc.
  
 This software is provided under written license and may be
 used, copied, transmitted, or stored only in accord with that
 written license.
  
 The following legend is applicable only to US Government
 contracts under FAR:
  
                    RESTRICTED RIGHTS LEGEND
  
 Use, reproduction and disclosure by the US Government is
 subject to restrictions as set forth in subparagraphs (a)
 and (c) of the Commercial Computer Software - Restricted
 Rights clause in FAR 52.227-19.
  
 Gaussian, Inc.
 340 Quinnipiac St., Bldg. 40, Wallingford CT 06492
  
  
 ---------------------------------------------------------------
 Warning -- This program may not be used in any manner that
 competes with the business of Gaussian, Inc. or will provide
 assistance to any competitor of Gaussian, Inc.  The licensee
 of this program is prohibited from giving any competitor of
 Gaussian, Inc. access to this program.  By using this program,
 the user acknowledges that Gaussian, Inc. is engaged in the
 business of creating and licensing software in the field of
 computational chemistry and represents and warrants to the
 licensee that it is not a competitor of Gaussian, Inc. and that
 it will not use this program in any manner prohibited above.
 ---------------------------------------------------------------
  

 Cite this work as:
 Gaussian 16, Revision C.02,
 M. J. Frisch, G. W. Trucks, H. B. Schlegel, G. E. Scuseria, 
 M. A. Robb, J. R. Cheeseman, G. Scalmani, V. Barone, 
 G. A. Petersson, H. Nakatsuji, X. Li, M. Caricato, A. V. Marenich, 
 J. Bloino, B. G. Janesko, R. Gomperts, B. Mennucci, H. P. Hratchian, 
 J. V. Ortiz, A. F. Izmaylov, J. L. Sonnenberg, D. Williams-Young, 
 F. Ding, F. Lipparini, F. Egidi, J. Goings, B. Peng, A. Petrone, 
 T. Henderson, D. Ranasinghe, V. G. Zakrzewski, J. Gao, N. Rega, 
 G. Zheng, W. Liang, M. Hada, M. Ehara, K. Toyota, R. Fukuda, 
 J. Hasegawa, M. Ishida, T. Nakajima, Y. Honda, O. Kitao, H. Nakai, 
 T. Vreven, K. Throssell, J. A. Montgomery, Jr., J. E. Peralta, 
 F. Ogliaro, M. J. Bearpark, J. J. Heyd, E. N. Brothers, K. N. Kudin, 
 V. N. Staroverov, T. A. Keith, R. Kobayashi, J. Normand, 
 K. Raghavachari, A. P. Rendell, J. C. Burant, S. S. Iyengar, 
 J. Tomasi, M. Cossi, J. M. Millam, M. Klene, C. Adamo, R. Cammi, 
 J. W. Ochterski, R. L. Martin, K. Morokuma, O. Farkas, 
 J. B. Foresman, and D. J. Fox, Gaussian, Inc., Wallingford CT, 2019.
 
 ******************************************
 Gaussian 16:  ES64L-G16RevC.02  7-Dec-2021
                17-Sep-2024 
 ******************************************
 %nprocshared=8
 Will use up to    8 processors via shared memory.
 %Mem=10GB
 %Chk=smiles_00058_conf_2.chk
 ----------------------------------------------------------------------
 #p B3LYP/6-31G(d,p) EmpiricalDispersion=GD3BJ opt freq scf(xqc,tight) 
 integral(grid=ultrafine)
 ----------------------------------------------------------------------
 1/18=20,19=15,26=4,38=1/1,3;
 2/9=110,12=2,17=6,18=5,40=1/2;
 3/5=1,6=6,7=101,11=2,25=1,30=1,71=1,74=-5,75=-5,124=41/1,2,3;
 4//1;
 5/5=2,8=3,13=1,32=2,38=5/2,8;
 6/7=2,8=2,9=2,10=2,28=1/1;
 7//1,2,3,16;
 1/18=20,19=15,26=4/3(2);
 2/9=110/2;
 99//99;
 2/9=110/2;
 3/5=1,6=6,7=101,11=2,25=1,30=1,71=1,74=-5,75=-5,124=41/1,2,3;
 4/5=5,16=3,69=1/1;
 5/5=2,8=3,13=1,32=2,38=5/2,8;
 7//1,2,3,16;
 1/18=20,19=15,26=4/3(-5);
 2/9=110/2;
 6/7=2,8=2,9=2,10=2,19=2,28=1/1;
 99/9=1/99;
 Leave Link    1 at Tue Sep 17 09:42:02 2024, MaxMem=  1342177280 cpu:               0.2 elap:               0.9
 (Enter /groups/ReismanLab/Software/Gaussian16_RevC/Linux_Binary_AVX2-enabled-CPU/g16/l101.exe)
 ----------------------------------
 opt-freq conformers_unique/conf_ac
 ----------------------------------
 Symbolic Z-matrix:
 Charge =  0 Multiplicity = 1
 C                     4.50559  -1.39017  -0.09884 
 O                     3.34097  -0.5745   -0.10512 
 C                     2.17721  -1.22575   0.03877 
 O                     2.09292  -2.41495   0.16887 
 C                     1.01401  -0.27948   0.01693 
 C                     1.20657   1.10256   0.00234 
 C                     0.08052   1.91314  -0.01402 
 Cl                    0.24758   3.62603  -0.03166 
 C                    -1.17785   1.33155  -0.01603 
 C                    -1.24767  -0.06126   0.00093 
 C                    -2.60279  -0.70743  -0.00097 
 O                    -3.62823  -0.0718   -0.04 
 O                    -2.51862  -2.02499   0.05046 
 C                    -3.72849  -2.77031   0.05712 
 N                    -0.18272  -0.84283   0.01769 
 H                     4.45727  -2.12411  -0.9055 
 H                     5.34781  -0.71821  -0.24102 
 H                     4.59116  -1.91985   0.85192 
 H                     2.20007   1.51877   0.00397 
 H                    -2.0856    1.91332  -0.02993 
 H                    -3.83745  -3.27186  -0.90555 
 H                    -3.65175  -3.51156   0.85127 
 H                    -4.5798   -2.10869   0.22904 
 
 ITRead=  0  0  0  0  0  0  0  0  0  0  0  0  0  0  0  0  0  0  0  0
 ITRead=  0  0  0
 MicOpt= -1 -1 -1 -1 -1 -1 -1 -1 -1 -1 -1 -1 -1 -1 -1 -1 -1 -1 -1 -1
 MicOpt= -1 -1 -1
 NAtoms=     23 NQM=       23 NQMF=       0 NMMI=      0 NMMIF=      0
                NMic=       0 NMicF=      0.
                    Isotopes and Nuclear Properties:
 (Nuclear quadrupole moments (NQMom) in fm**2, nuclear magnetic moments (NMagM)
  in nuclear magnetons)

  Atom         1           2           3           4           5           6           7           8           9          10
 IAtWgt=          12          16          12          16          12          12          12          35          12          12
 AtmWgt=  12.0000000  15.9949146  12.0000000  15.9949146  12.0000000  12.0000000  12.0000000  34.9688527  12.0000000  12.0000000
 NucSpn=           0           0           0           0           0           0           0           3           0           0
 AtZEff=  -0.0000000  -0.0000000  -0.0000000  -0.0000000  -0.0000000  -0.0000000  -0.0000000  -0.0000000  -0.0000000  -0.0000000
 NQMom=    0.0000000   0.0000000   0.0000000   0.0000000   0.0000000   0.0000000   0.0000000  -8.1650000   0.0000000   0.0000000
 NMagM=    0.0000000   0.0000000   0.0000000   0.0000000   0.0000000   0.0000000   0.0000000   0.8218740   0.0000000   0.0000000
 AtZNuc=   6.0000000   8.0000000   6.0000000   8.0000000   6.0000000   6.0000000   6.0000000  17.0000000   6.0000000   6.0000000

  Atom        11          12          13          14          15          16          17          18          19          20
 IAtWgt=          12          16          16          12          14           1           1           1           1           1
 AtmWgt=  12.0000000  15.9949146  15.9949146  12.0000000  14.0030740   1.0078250   1.0078250   1.0078250   1.0078250   1.0078250
 NucSpn=           0           0           0           0           2           1           1           1           1           1
 AtZEff=  -0.0000000  -0.0000000  -0.0000000  -0.0000000  -0.0000000  -0.0000000  -0.0000000  -0.0000000  -0.0000000  -0.0000000
 NQMom=    0.0000000   0.0000000   0.0000000   0.0000000   2.0440000   0.0000000   0.0000000   0.0000000   0.0000000   0.0000000
 NMagM=    0.0000000   0.0000000   0.0000000   0.0000000   0.4037610   2.7928460   2.7928460   2.7928460   2.7928460   2.7928460
 AtZNuc=   6.0000000   8.0000000   8.0000000   6.0000000   7.0000000   1.0000000   1.0000000   1.0000000   1.0000000   1.0000000

  Atom        21          22          23
 IAtWgt=           1           1           1
 AtmWgt=   1.0078250   1.0078250   1.0078250
 NucSpn=           1           1           1
 AtZEff=  -0.0000000  -0.0000000  -0.0000000
 NQMom=    0.0000000   0.0000000   0.0000000
 NMagM=    2.7928460   2.7928460   2.7928460
 AtZNuc=   1.0000000   1.0000000   1.0000000
 Leave Link  101 at Tue Sep 17 09:42:03 2024, MaxMem=  1342177280 cpu:               0.2 elap:               0.2
 (Enter /groups/ReismanLab/Software/Gaussian16_RevC/Linux_Binary_AVX2-enabled-CPU/g16/l103.exe)

 GradGradGradGradGradGradGradGradGradGradGradGradGradGradGradGradGradGrad
 Berny optimization.
 Initialization pass.
                           ----------------------------
                           !    Initial Parameters    !
                           ! (Angstroms and Degrees)  !
 --------------------------                            --------------------------
 ! Name  Definition              Value          Derivative Info.                !
 --------------------------------------------------------------------------------
 ! R1    R(1,2)                  1.4219         estimate D2E/DX2                !
 ! R2    R(1,16)                 1.0916         estimate D2E/DX2                !
 ! R3    R(1,17)                 1.0868         estimate D2E/DX2                !
 ! R4    R(1,18)                 1.0917         estimate D2E/DX2                !
 ! R5    R(2,3)                  1.3413         estimate D2E/DX2                !
 ! R6    R(3,4)                  1.1993         estimate D2E/DX2                !
 ! R7    R(3,5)                  1.4996         estimate D2E/DX2                !
 ! R8    R(5,6)                  1.3955         estimate D2E/DX2                !
 ! R9    R(5,15)                 1.3227         estimate D2E/DX2                !
 ! R10   R(6,7)                  1.3875         estimate D2E/DX2                !
 ! R11   R(6,19)                 1.0772         estimate D2E/DX2                !
 ! R12   R(7,8)                  1.7211         estimate D2E/DX2                !
 ! R13   R(7,9)                  1.3863         estimate D2E/DX2                !
 ! R14   R(9,10)                 1.3947         estimate D2E/DX2                !
 ! R15   R(9,20)                 1.0783         estimate D2E/DX2                !
 ! R16   R(10,11)                1.5013         estimate D2E/DX2                !
 ! R17   R(10,15)                1.3211         estimate D2E/DX2                !
 ! R18   R(11,12)                1.2071         estimate D2E/DX2                !
 ! R19   R(11,13)                1.3212         estimate D2E/DX2                !
 ! R20   R(13,14)                1.421          estimate D2E/DX2                !
 ! R21   R(14,21)                1.0909         estimate D2E/DX2                !
 ! R22   R(14,22)                1.089          estimate D2E/DX2                !
 ! R23   R(14,23)                1.0918         estimate D2E/DX2                !
 ! A1    A(2,1,16)             110.2527         estimate D2E/DX2                !
 ! A2    A(2,1,17)             106.2289         estimate D2E/DX2                !
 ! A3    A(2,1,18)             110.2659         estimate D2E/DX2                !
 ! A4    A(16,1,17)            110.6918         estimate D2E/DX2                !
 ! A5    A(16,1,18)            108.7119         estimate D2E/DX2                !
 ! A6    A(17,1,18)            110.6823         estimate D2E/DX2                !
 ! A7    A(1,2,3)              115.5715         estimate D2E/DX2                !
 ! A8    A(2,3,4)              123.6474         estimate D2E/DX2                !
 ! A9    A(2,3,5)              111.4096         estimate D2E/DX2                !
 ! A10   A(4,3,5)              124.9429         estimate D2E/DX2                !
 ! A11   A(3,5,6)              121.2013         estimate D2E/DX2                !
 ! A12   A(3,5,15)             115.6598         estimate D2E/DX2                !
 ! A13   A(6,5,15)             123.1384         estimate D2E/DX2                !
 ! A14   A(5,6,7)              117.8204         estimate D2E/DX2                !
 ! A15   A(5,6,19)             120.6594         estimate D2E/DX2                !
 ! A16   A(7,6,19)             121.5203         estimate D2E/DX2                !
 ! A17   A(6,7,8)              120.1817         estimate D2E/DX2                !
 ! A18   A(6,7,9)              119.4458         estimate D2E/DX2                !
 ! A19   A(8,7,9)              120.3725         estimate D2E/DX2                !
 ! A20   A(7,9,10)             117.6711         estimate D2E/DX2                !
 ! A21   A(7,9,20)             122.5377         estimate D2E/DX2                !
 ! A22   A(10,9,20)            119.7911         estimate D2E/DX2                !
 ! A23   A(9,10,11)            118.3597         estimate D2E/DX2                !
 ! A24   A(9,10,15)            123.4101         estimate D2E/DX2                !
 ! A25   A(11,10,15)           118.2301         estimate D2E/DX2                !
 ! A26   A(10,11,12)           122.6964         estimate D2E/DX2                !
 ! A27   A(10,11,13)           111.8176         estimate D2E/DX2                !
 ! A28   A(12,11,13)           125.4853         estimate D2E/DX2                !
 ! A29   A(11,13,14)           117.9673         estimate D2E/DX2                !
 ! A30   A(13,14,21)           108.7857         estimate D2E/DX2                !
 ! A31   A(13,14,22)           107.4824         estimate D2E/DX2                !
 ! A32   A(13,14,23)           110.29           estimate D2E/DX2                !
 ! A33   A(21,14,22)           109.7302         estimate D2E/DX2                !
 ! A34   A(21,14,23)           109.857          estimate D2E/DX2                !
 ! A35   A(22,14,23)           110.6451         estimate D2E/DX2                !
 ! A36   A(5,15,10)            118.5139         estimate D2E/DX2                !
 ! D1    D(16,1,2,3)            59.0695         estimate D2E/DX2                !
 ! D2    D(17,1,2,3)           179.0467         estimate D2E/DX2                !
 ! D3    D(18,1,2,3)           -60.9804         estimate D2E/DX2                !
 ! D4    D(1,2,3,4)              0.1552         estimate D2E/DX2                !
 ! D5    D(1,2,3,5)           -179.9146         estimate D2E/DX2                !
 ! D6    D(2,3,5,6)             -6.7521         estimate D2E/DX2                !
 ! D7    D(2,3,5,15)           173.4904         estimate D2E/DX2                !
 ! D8    D(4,3,5,6)            173.1771         estimate D2E/DX2                !
 ! D9    D(4,3,5,15)            -6.5805         estimate D2E/DX2                !
 ! D10   D(3,5,6,7)           -179.8347         estimate D2E/DX2                !
 ! D11   D(3,5,6,19)             0.1567         estimate D2E/DX2                !
 ! D12   D(15,5,6,7)            -0.0957         estimate D2E/DX2                !
 ! D13   D(15,5,6,19)          179.8956         estimate D2E/DX2                !
 ! D14   D(3,5,15,10)          179.9032         estimate D2E/DX2                !
 ! D15   D(6,5,15,10)            0.1509         estimate D2E/DX2                !
 ! D16   D(5,6,7,8)            179.9657         estimate D2E/DX2                !
 ! D17   D(5,6,7,9)             -0.0351         estimate D2E/DX2                !
 ! D18   D(19,6,7,8)            -0.0256         estimate D2E/DX2                !
 ! D19   D(19,6,7,9)           179.9736         estimate D2E/DX2                !
 ! D20   D(6,7,9,10)             0.1018         estimate D2E/DX2                !
 ! D21   D(6,7,9,20)          -179.9055         estimate D2E/DX2                !
 ! D22   D(8,7,9,10)          -179.899          estimate D2E/DX2                !
 ! D23   D(8,7,9,20)             0.0937         estimate D2E/DX2                !
 ! D24   D(7,9,10,11)          179.9993         estimate D2E/DX2                !
 ! D25   D(7,9,10,15)           -0.0485         estimate D2E/DX2                !
 ! D26   D(20,9,10,11)           0.0064         estimate D2E/DX2                !
 ! D27   D(20,9,10,15)         179.9586         estimate D2E/DX2                !
 ! D28   D(9,10,11,12)           1.3244         estimate D2E/DX2                !
 ! D29   D(9,10,11,13)        -178.3988         estimate D2E/DX2                !
 ! D30   D(15,10,11,12)       -178.6303         estimate D2E/DX2                !
 ! D31   D(15,10,11,13)          1.6465         estimate D2E/DX2                !
 ! D32   D(9,10,15,5)           -0.0767         estimate D2E/DX2                !
 ! D33   D(11,10,15,5)         179.8756         estimate D2E/DX2                !
 ! D34   D(10,11,13,14)        179.9094         estimate D2E/DX2                !
 ! D35   D(12,11,13,14)          0.1955         estimate D2E/DX2                !
 ! D36   D(11,13,14,21)        108.6014         estimate D2E/DX2                !
 ! D37   D(11,13,14,22)       -132.6485         estimate D2E/DX2                !
 ! D38   D(11,13,14,23)        -11.9479         estimate D2E/DX2                !
 --------------------------------------------------------------------------------
 Trust Radius=3.00D-01 FncErr=1.00D-07 GrdErr=1.00D-06 EigMax=2.50D+02 EigMin=1.00D-04
 Number of steps in this run=    107 maximum allowed number of steps=    138.
 GradGradGradGradGradGradGradGradGradGradGradGradGradGradGradGradGradGrad

 Leave Link  103 at Tue Sep 17 09:42:03 2024, MaxMem=  1342177280 cpu:               0.0 elap:               0.0
 (Enter /groups/ReismanLab/Software/Gaussian16_RevC/Linux_Binary_AVX2-enabled-CPU/g16/l202.exe)
                          Input orientation:                          
 ---------------------------------------------------------------------
 Center     Atomic      Atomic             Coordinates (Angstroms)
 Number     Number       Type             X           Y           Z
 ---------------------------------------------------------------------
      1          6           0        4.505593   -1.390175   -0.098842
      2          8           0        3.340967   -0.574495   -0.105121
      3          6           0        2.177214   -1.225751    0.038771
      4          8           0        2.092916   -2.414948    0.168873
      5          6           0        1.014013   -0.279480    0.016928
      6          6           0        1.206572    1.102556    0.002337
      7          6           0        0.080524    1.913137   -0.014021
      8         17           0        0.247579    3.626029   -0.031664
      9          6           0       -1.177850    1.331554   -0.016033
     10          6           0       -1.247666   -0.061259    0.000931
     11          6           0       -2.602794   -0.707434   -0.000971
     12          8           0       -3.628229   -0.071796   -0.040004
     13          8           0       -2.518620   -2.024989    0.050464
     14          6           0       -3.728492   -2.770307    0.057119
     15          7           0       -0.182716   -0.842826    0.017686
     16          1           0        4.457266   -2.124109   -0.905502
     17          1           0        5.347806   -0.718207   -0.241017
     18          1           0        4.591161   -1.919852    0.851919
     19          1           0        2.200074    1.518766    0.003972
     20          1           0       -2.085597    1.913321   -0.029935
     21          1           0       -3.837447   -3.271862   -0.905555
     22          1           0       -3.651753   -3.511557    0.851268
     23          1           0       -4.579804   -2.108693    0.229040
 ---------------------------------------------------------------------
                    Distance matrix (angstroms):
                    1          2          3          4          5
     1  C    0.000000
     2  O    1.421874   0.000000
     3  C    2.338230   1.341328   0.000000
     4  O    2.634927   2.240530   1.199260   0.000000
     5  C    3.665811   2.348754   1.499647   2.397362   0.000000
     6  C    4.136119   2.716559   2.522793   3.631278   1.395462
     7  C    5.522707   4.102085   3.775117   4.776557   2.383260
     8  Cl   6.580083   5.217169   5.221898   6.319723   3.980300
     9  C    6.302078   4.905168   4.218918   4.976784   2.720438
    10  C    5.905586   4.618464   3.617633   4.089932   2.272239
    11  C    7.141770   5.946160   4.808192   4.999415   3.642082
    12  O    8.240185   6.987607   5.919543   6.185911   4.647235
    13  O    7.054421   6.038452   4.763379   4.629509   3.940486
    14  C    8.350403   7.404401   6.104371   5.833314   5.356976
    15  N    4.721589   3.536018   2.390888   2.770005   1.322694
    16  H    1.091648   2.070758   2.626278   2.613240   4.013667
    17  H    1.086774   2.016562   3.223125   3.693406   4.363574
    18  H    1.091708   2.070965   2.640099   2.636835   4.022936
    19  H    3.713209   2.386479   2.744832   3.938627   2.154204
    20  H    7.373033   5.970132   5.294341   6.019419   3.797125
    21  H    8.590567   7.710130   6.422963   6.087519   5.774252
    22  H    8.482055   7.644550   6.313629   5.888075   5.736882
    23  H    9.119660   8.074902   6.817116   6.680015   5.889126
                    6          7          8          9         10
     6  C    0.000000
     7  C    1.387549   0.000000
     8  Cl   2.699767   1.721110   0.000000
     9  C    2.395464   1.386272   2.701243   0.000000
    10  C    2.716201   2.379612   3.979060   1.394665   0.000000
    11  C    4.217505   3.750701   5.186952   2.487602   1.501306
    12  O    4.975560   4.206601   5.356853   2.823884   2.380939
    13  O    4.864248   4.718956   6.292267   3.615033   2.339661
    14  C    6.273509   6.037244   7.531941   4.830775   3.673771
    15  N    2.390579   2.768688   4.489795   2.391518   1.321077
    16  H    4.669320   6.020794   7.179774   6.669880   6.133777
    17  H    4.530366   5.892347   6.702875   6.843707   6.632523
    18  H    4.616512   5.982265   7.099593   6.678807   6.186311
    19  H    1.077162   2.156001   2.872989   3.383167   3.792544
    20  H    3.390687   2.166179   2.894319   1.078262   2.145239
    21  H    6.738095   6.559691   8.064244   5.390374   4.223346
    22  H    6.753817   6.641229   8.181045   5.507098   4.290369
    23  H    6.621605   6.160589   7.500576   4.844445   3.917546
                   11         12         13         14         15
    11  C    0.000000
    12  O    1.207094   0.000000
    13  O    1.321243   2.248195   0.000000
    14  C    2.350748   2.702119   1.421032   0.000000
    15  N    2.423935   3.531201   2.618212   4.035996   0.000000
    16  H    7.257382   8.386675   7.041781   8.267457   4.901367
    17  H    7.954230   9.001526   7.979555   9.310165   5.537972
    18  H    7.345092   8.471671   7.155583   8.400690   4.964456
    19  H    5.293725   6.041600   5.901392   7.317572   3.354846
    20  H    2.671458   2.514062   3.962860   4.964177   3.349563
    21  H    2.986457   3.321651   2.051333   1.090949   4.484378
    22  H    3.112833   3.553431   2.033509   1.089042   4.455468
    23  H    2.434132   2.264250   2.070597   1.091797   4.580553
                   16         17         18         19         20
    16  H    0.000000
    17  H    1.791972   0.000000
    18  H    1.774310   1.791918   0.000000
    19  H    4.380936   3.869404   4.273219   0.000000
    20  H    7.737992   7.888281   7.749192   4.303928   0.000000
    21  H    8.373744   9.556758   8.715392   7.760734   5.542726
    22  H    8.412338   9.486198   8.395186   7.763113   5.714776
    23  H    9.108021  10.035529   9.194032   7.692584   4.739698
                   21         22         23
    21  H    0.000000
    22  H    1.782796   0.000000
    23  H    1.786438   1.793452   0.000000
 Stoichiometry    C9H8ClNO4
 Framework group  C1[X(C9H8ClNO4)]
 Deg. of freedom    63
 Full point group                 C1      NOp   1
 Largest Abelian subgroup         C1      NOp   1
 Largest concise Abelian subgroup C1      NOp   1
                         Standard orientation:                         
 ---------------------------------------------------------------------
 Center     Atomic      Atomic             Coordinates (Angstroms)
 Number     Number       Type             X           Y           Z
 ---------------------------------------------------------------------
      1          6           0       -4.289820   -1.891304    0.086254
      2          8           0       -3.239841   -0.932523    0.089279
      3          6           0       -2.000842   -1.430364   -0.037980
      4          8           0       -1.763241   -2.600367   -0.151389
      5          6           0       -0.969199   -0.342075   -0.021171
      6          6           0       -1.337985    1.003764   -0.026598
      7          6           0       -0.325692    1.952652   -0.013685
      8         17           0       -0.711756    3.629890   -0.020372
      9          6           0        0.996959    1.537910    0.004633
     10          6           0        1.245430    0.165559    0.007012
     11          6           0        2.672334   -0.300783    0.026744
     12          8           0        3.607159    0.461968    0.064026
     13          8           0        2.758712   -1.618758   -0.007397
     14          6           0        4.054390   -2.202210    0.004150
     15          7           0        0.289998   -0.746701   -0.006283
     16          1           0       -4.154285   -2.602714    0.903090
     17          1           0       -5.212609   -1.331569    0.213667
     18          1           0       -4.298594   -2.439503   -0.857795
     19          1           0       -2.376709    1.288611   -0.040525
     20          1           0        1.822213    2.231781    0.016730
     21          1           0        4.218858   -2.673428    0.974239
     22          1           0        4.080263   -2.957100   -0.780378
     23          1           0        4.814971   -1.438762   -0.171015
 ---------------------------------------------------------------------
 Rotational constants (GHZ):           0.5658021           0.3836773           0.2294496
 Leave Link  202 at Tue Sep 17 09:42:03 2024, MaxMem=  1342177280 cpu:               0.0 elap:               0.0
 (Enter /groups/ReismanLab/Software/Gaussian16_RevC/Linux_Binary_AVX2-enabled-CPU/g16/l301.exe)
 Standard basis: 6-31G(d,p) (6D, 7F)
 Ernie: Thresh=  0.10000D-02 Tol=  0.10000D-05 Strict=F.
 There are   269 symmetry adapted cartesian basis functions of A   symmetry.
 There are   269 symmetry adapted basis functions of A   symmetry.
   269 basis functions,   500 primitive gaussians,   269 cartesian basis functions
    59 alpha electrons       59 beta electrons
       nuclear repulsion energy      1057.1702775680 Hartrees.
 IExCor=  402 DFT=T Ex+Corr=B3LYP ExCW=0 ScaHFX=  0.200000
 ScaDFX=  0.800000  0.720000  1.000000  0.810000 ScalE2=  1.000000  1.000000
 IRadAn=      5 IRanWt=     -1 IRanGd=            0 ICorTp=0 IEmpDi=141
 NAtoms=   23 NActive=   23 NUniq=   23 SFac= 1.00D+00 NAtFMM=   60 NAOKFM=F Big=F
 Integral buffers will be    131072 words long.
 Raffenetti 2 integral format.
 Two-electron integral symmetry is turned on.
 R6Disp:  Grimme-D3(BJ) Dispersion energy=       -0.0436203636 Hartrees.
 Nuclear repulsion after empirical dispersion term =     1057.1266572045 Hartrees.
 Leave Link  301 at Tue Sep 17 09:42:03 2024, MaxMem=  1342177280 cpu:               0.1 elap:               0.1
 (Enter /groups/ReismanLab/Software/Gaussian16_RevC/Linux_Binary_AVX2-enabled-CPU/g16/l302.exe)
 NPDir=0 NMtPBC=     1 NCelOv=     1 NCel=       1 NClECP=     1 NCelD=      1
         NCelK=      1 NCelE2=     1 NClLst=     1 CellRange=     0.0.
 One-electron integrals computed using PRISM.
 One-electron integral symmetry used in STVInt
 NBasis=   269 RedAO= T EigKep=  6.69D-04  NBF=   269
 NBsUse=   269 1.00D-06 EigRej= -1.00D+00 NBFU=   269
 Precomputing XC quadrature grid using
 IXCGrd= 4 IRadAn=           5 IRanWt=          -1 IRanGd=           0 AccXCQ= 0.00D+00.
 Generated NRdTot=       0 NPtTot=           0 NUsed=           0 NTot=          32
 NSgBfM=   267   267   267   267   267 MxSgAt=    23 MxSgA2=    23.
 Leave Link  302 at Tue Sep 17 09:42:03 2024, MaxMem=  1342177280 cpu:               1.1 elap:               0.2
 (Enter /groups/ReismanLab/Software/Gaussian16_RevC/Linux_Binary_AVX2-enabled-CPU/g16/l303.exe)
 DipDrv:  MaxL=1.
 Leave Link  303 at Tue Sep 17 09:42:03 2024, MaxMem=  1342177280 cpu:               0.1 elap:               0.1
 (Enter /groups/ReismanLab/Software/Gaussian16_RevC/Linux_Binary_AVX2-enabled-CPU/g16/l401.exe)
 ExpMin= 1.43D-01 ExpMax= 2.52D+04 ExpMxC= 3.78D+03 IAcc=3 IRadAn=         5 AccDes= 0.00D+00
 Harris functional with IExCor=  402 and IRadAn=       5 diagonalized for initial guess.
 HarFok:  IExCor=  402 AccDes= 0.00D+00 IRadAn=         5 IDoV= 1 UseB2=F ITyADJ=14
 ICtDFT=  3500011 ScaDFX=  1.000000  1.000000  1.000000  1.000000
 FoFCou: FMM=F IPFlag=           0 FMFlag=      100000 FMFlg1=           0
         NFxFlg=           0 DoJE=T BraDBF=F KetDBF=T FulRan=T
         wScrn=  0.000000 ICntrl=       500 IOpCl=  0 I1Cent=   200000004 NGrid=           0
         NMat0=    1 NMatS0=      1 NMatT0=    0 NMatD0=    1 NMtDS0=    0 NMtDT0=    0
 Petite list used in FoFCou.
 Harris En= -1163.60421162427    
 JPrj=0 DoOrth=F DoCkMO=F.
 Leave Link  401 at Tue Sep 17 09:42:04 2024, MaxMem=  1342177280 cpu:               5.2 elap:               0.7
 (Enter /groups/ReismanLab/Software/Gaussian16_RevC/Linux_Binary_AVX2-enabled-CPU/g16/l502.exe)
 Integral symmetry usage will be decided dynamically.
 Closed shell SCF:
 Using DIIS extrapolation, IDIIS=  1040.
 NGot=  1342177280 LenX=  1342027030 LenY=  1341954228
 Requested convergence on RMS density matrix=1.00D-08 within  32 cycles.
 Requested convergence on MAX density matrix=1.00D-06.
 Requested convergence on             energy=1.00D-06.
 No special actions if energy rises.
 Fock matrices will be formed incrementally for  20 cycles.
 Integral accuracy reduced to 1.0D-05 until final iterations.

 Cycle   1  Pass 0  IDiag  1:
 FoFJK:  IHMeth= 1 ICntrl=       0 DoSepK=F KAlg= 0 I1Cent=           0 FoldK=F
 IRaf= 770000000 NMat=       1 IRICut=       1 DoRegI=T DoRafI=F ISym2E= 0 IDoP0=0 IntGTp=1.
 FoFCou: FMM=F IPFlag=           0 FMFlag=      100000 FMFlg1=           0
         NFxFlg=           0 DoJE=F BraDBF=F KetDBF=F FulRan=T
         wScrn=  0.000000 ICntrl=         0 IOpCl=  0 I1Cent=           0 NGrid=           0
         NMat0=    1 NMatS0=      1 NMatT0=    0 NMatD0=    1 NMtDS0=    0 NMtDT0=    0
 Symmetry not used in FoFCou.
 E= -1163.34751363103    
 DIIS: error= 3.48D-02 at cycle   1 NSaved=   1.
 NSaved= 1 IEnMin= 1 EnMin= -1163.34751363103     IErMin= 1 ErrMin= 3.48D-02
 ErrMax= 3.48D-02  0.00D+00 EMaxC= 1.00D-01 BMatC= 3.89D-01 BMatP= 3.89D-01
 IDIUse=3 WtCom= 6.52D-01 WtEn= 3.48D-01
 Coeff-Com:  0.100D+01
 Coeff-En:   0.100D+01
 Coeff:      0.100D+01
 Gap=     0.345 Goal=   None    Shift=    0.000
 GapD=    0.345 DampG=1.000 DampE=0.500 DampFc=0.5000 IDamp=-1.
 Damping current iteration by 5.00D-01
 RMSDP=5.65D-03 MaxDP=2.17D-01              OVMax= 2.66D-01

 Cycle   2  Pass 0  IDiag  1:
 RMSU=  2.81D-03    CP:  9.87D-01
 E= -1163.43281468154     Delta-E=       -0.085301050509 Rises=F Damp=T
 DIIS: error= 1.20D-02 at cycle   2 NSaved=   2.
 NSaved= 2 IEnMin= 2 EnMin= -1163.43281468154     IErMin= 2 ErrMin= 1.20D-02
 ErrMax= 1.20D-02  0.00D+00 EMaxC= 1.00D-01 BMatC= 7.04D-02 BMatP= 3.89D-01
 IDIUse=3 WtCom= 8.80D-01 WtEn= 1.20D-01
 Coeff-Com:  0.233D+00 0.767D+00
 Coeff-En:   0.358D+00 0.642D+00
 Coeff:      0.248D+00 0.752D+00
 Gap=     0.306 Goal=   None    Shift=    0.000
 RMSDP=1.70D-03 MaxDP=5.66D-02 DE=-8.53D-02 OVMax= 1.75D-01

 Cycle   3  Pass 0  IDiag  1:
 RMSU=  1.56D-03    CP:  9.80D-01  7.69D-01
 E= -1163.63388146481     Delta-E=       -0.201066783265 Rises=F Damp=F
 DIIS: error= 1.10D-02 at cycle   3 NSaved=   3.
 NSaved= 3 IEnMin= 3 EnMin= -1163.63388146481     IErMin= 3 ErrMin= 1.10D-02
 ErrMax= 1.10D-02  0.00D+00 EMaxC= 1.00D-01 BMatC= 5.28D-02 BMatP= 7.04D-02
 IDIUse=3 WtCom= 8.90D-01 WtEn= 1.10D-01
 Coeff-Com:  0.732D-01 0.456D+00 0.471D+00
 Coeff-En:   0.000D+00 0.000D+00 0.100D+01
 Coeff:      0.651D-01 0.405D+00 0.530D+00
 Gap=     0.202 Goal=   None    Shift=    0.000
 RMSDP=1.20D-03 MaxDP=4.86D-02 DE=-2.01D-01 OVMax= 8.42D-02

 Cycle   4  Pass 0  IDiag  1:
 RMSU=  8.34D-04    CP:  9.83D-01  8.21D-01  4.55D-01
 E= -1163.66797680514     Delta-E=       -0.034095340336 Rises=F Damp=F
 DIIS: error= 5.72D-03 at cycle   4 NSaved=   4.
 NSaved= 4 IEnMin= 4 EnMin= -1163.66797680514     IErMin= 4 ErrMin= 5.72D-03
 ErrMax= 5.72D-03  0.00D+00 EMaxC= 1.00D-01 BMatC= 1.37D-02 BMatP= 5.28D-02
 IDIUse=3 WtCom= 9.43D-01 WtEn= 5.72D-02
 Coeff-Com:  0.104D-01 0.101D+00 0.343D+00 0.546D+00
 Coeff-En:   0.000D+00 0.000D+00 0.237D+00 0.763D+00
 Coeff:      0.980D-02 0.951D-01 0.337D+00 0.558D+00
 Gap=     0.201 Goal=   None    Shift=    0.000
 RMSDP=4.46D-04 MaxDP=1.68D-02 DE=-3.41D-02 OVMax= 3.26D-02

 Cycle   5  Pass 0  IDiag  1:
 RMSU=  1.88D-04    CP:  9.83D-01  7.92D-01  6.17D-01  6.34D-01
 E= -1163.67853754583     Delta-E=       -0.010560740683 Rises=F Damp=F
 DIIS: error= 1.26D-03 at cycle   5 NSaved=   5.
 NSaved= 5 IEnMin= 5 EnMin= -1163.67853754583     IErMin= 5 ErrMin= 1.26D-03
 ErrMax= 1.26D-03  0.00D+00 EMaxC= 1.00D-01 BMatC= 7.23D-04 BMatP= 1.37D-02
 IDIUse=3 WtCom= 9.87D-01 WtEn= 1.26D-02
 Coeff-Com:  0.121D-02 0.146D-01 0.140D+00 0.307D+00 0.537D+00
 Coeff-En:   0.000D+00 0.000D+00 0.000D+00 0.000D+00 0.100D+01
 Coeff:      0.119D-02 0.144D-01 0.139D+00 0.303D+00 0.543D+00
 Gap=     0.199 Goal=   None    Shift=    0.000
 RMSDP=1.05D-04 MaxDP=3.51D-03 DE=-1.06D-02 OVMax= 6.82D-03

 Cycle   6  Pass 0  IDiag  1:
 RMSU=  6.84D-05    CP:  9.83D-01  7.98D-01  6.14D-01  6.46D-01  5.88D-01
 E= -1163.67909061378     Delta-E=       -0.000553067951 Rises=F Damp=F
 DIIS: error= 3.41D-04 at cycle   6 NSaved=   6.
 NSaved= 6 IEnMin= 6 EnMin= -1163.67909061378     IErMin= 6 ErrMin= 3.41D-04
 ErrMax= 3.41D-04  0.00D+00 EMaxC= 1.00D-01 BMatC= 6.24D-05 BMatP= 7.23D-04
 IDIUse=3 WtCom= 9.97D-01 WtEn= 3.41D-03
 Coeff-Com: -0.133D-04-0.518D-03 0.485D-01 0.121D+00 0.302D+00 0.529D+00
 Coeff-En:   0.000D+00 0.000D+00 0.000D+00 0.000D+00 0.104D-01 0.990D+00
 Coeff:     -0.132D-04-0.517D-03 0.483D-01 0.120D+00 0.301D+00 0.531D+00
 Gap=     0.198 Goal=   None    Shift=    0.000
 RMSDP=3.99D-05 MaxDP=1.52D-03 DE=-5.53D-04 OVMax= 2.63D-03

 Cycle   7  Pass 0  IDiag  1:
 RMSU=  2.00D-05    CP:  9.83D-01  7.98D-01  6.16D-01  6.60D-01  6.44D-01
                    CP:  5.50D-01
 E= -1163.67914251267     Delta-E=       -0.000051898894 Rises=F Damp=F
 DIIS: error= 1.52D-04 at cycle   7 NSaved=   7.
 NSaved= 7 IEnMin= 7 EnMin= -1163.67914251267     IErMin= 7 ErrMin= 1.52D-04
 ErrMax= 1.52D-04  0.00D+00 EMaxC= 1.00D-01 BMatC= 5.75D-06 BMatP= 6.24D-05
 IDIUse=3 WtCom= 9.98D-01 WtEn= 1.52D-03
 Coeff-Com: -0.448D-04-0.159D-02 0.169D-01 0.447D-01 0.132D+00 0.306D+00
 Coeff-Com:  0.502D+00
 Coeff-En:   0.000D+00 0.000D+00 0.000D+00 0.000D+00 0.000D+00 0.136D-01
 Coeff-En:   0.986D+00
 Coeff:     -0.448D-04-0.158D-02 0.168D-01 0.446D-01 0.132D+00 0.306D+00
 Coeff:      0.502D+00
 Gap=     0.199 Goal=   None    Shift=    0.000
 RMSDP=1.17D-05 MaxDP=5.01D-04 DE=-5.19D-05 OVMax= 1.08D-03

 Cycle   8  Pass 0  IDiag  1:
 RMSU=  6.64D-06    CP:  9.83D-01  7.97D-01  6.16D-01  6.61D-01  6.40D-01
                    CP:  6.10D-01  5.87D-01
 E= -1163.67914776995     Delta-E=       -0.000005257282 Rises=F Damp=F
 DIIS: error= 3.83D-05 at cycle   8 NSaved=   8.
 NSaved= 8 IEnMin= 8 EnMin= -1163.67914776995     IErMin= 8 ErrMin= 3.83D-05
 ErrMax= 3.83D-05  0.00D+00 EMaxC= 1.00D-01 BMatC= 6.32D-07 BMatP= 5.75D-06
 IDIUse=1 WtCom= 1.00D+00 WtEn= 0.00D+00
 Coeff-Com:  0.374D-04-0.915D-03 0.345D-02 0.957D-02 0.364D-01 0.101D+00
 Coeff-Com:  0.284D+00 0.567D+00
 Coeff:      0.374D-04-0.915D-03 0.345D-02 0.957D-02 0.364D-01 0.101D+00
 Coeff:      0.284D+00 0.567D+00
 Gap=     0.198 Goal=   None    Shift=    0.000
 RMSDP=3.76D-06 MaxDP=1.61D-04 DE=-5.26D-06 OVMax= 3.34D-04

 Initial convergence to 1.0D-05 achieved.  Increase integral accuracy.
 Cycle   9  Pass 1  IDiag  1:
 E= -1163.67913859623     Delta-E=        0.000009173722 Rises=F Damp=F
 DIIS: error= 2.11D-05 at cycle   1 NSaved=   1.
 NSaved= 1 IEnMin= 1 EnMin= -1163.67913859623     IErMin= 1 ErrMin= 2.11D-05
 ErrMax= 2.11D-05  0.00D+00 EMaxC= 1.00D-01 BMatC= 1.54D-07 BMatP= 1.54D-07
 IDIUse=1 WtCom= 1.00D+00 WtEn= 0.00D+00
 Coeff-Com:  0.100D+01
 Coeff:      0.100D+01
 Gap=     0.198 Goal=   None    Shift=    0.000
 RMSDP=3.76D-06 MaxDP=1.61D-04 DE= 9.17D-06 OVMax= 1.47D-04

 Cycle  10  Pass 1  IDiag  1:
 RMSU=  1.01D-05    CP:  1.00D+00
 E= -1163.67913855956     Delta-E=        0.000000036673 Rises=F Damp=F
 DIIS: error= 1.60D-05 at cycle   2 NSaved=   2.
 NSaved= 2 IEnMin= 1 EnMin= -1163.67913859623     IErMin= 2 ErrMin= 1.60D-05
 ErrMax= 1.60D-05  0.00D+00 EMaxC= 1.00D-01 BMatC= 1.87D-07 BMatP= 1.54D-07
 IDIUse=1 WtCom= 1.00D+00 WtEn= 0.00D+00
 Coeff-Com:  0.530D+00 0.470D+00
 Coeff:      0.530D+00 0.470D+00
 Gap=     0.198 Goal=   None    Shift=    0.000
 RMSDP=2.12D-06 MaxDP=8.06D-05 DE= 3.67D-08 OVMax= 1.54D-04

 Cycle  11  Pass 1  IDiag  1:
 RMSU=  2.11D-06    CP:  1.00D+00  9.78D-01
 E= -1163.67913869892     Delta-E=       -0.000000139364 Rises=F Damp=F
 DIIS: error= 7.88D-06 at cycle   3 NSaved=   3.
 NSaved= 3 IEnMin= 3 EnMin= -1163.67913869892     IErMin= 3 ErrMin= 7.88D-06
 ErrMax= 7.88D-06  0.00D+00 EMaxC= 1.00D-01 BMatC= 3.10D-08 BMatP= 1.54D-07
 IDIUse=1 WtCom= 1.00D+00 WtEn= 0.00D+00
 Coeff-Com:  0.727D-01 0.288D+00 0.639D+00
 Coeff:      0.727D-01 0.288D+00 0.639D+00
 Gap=     0.198 Goal=   None    Shift=    0.000
 RMSDP=7.52D-07 MaxDP=4.01D-05 DE=-1.39D-07 OVMax= 5.88D-05

 Cycle  12  Pass 1  IDiag  1:
 RMSU=  5.00D-07    CP:  1.00D+00  9.92D-01  7.42D-01
 E= -1163.67913872071     Delta-E=       -0.000000021786 Rises=F Damp=F
 DIIS: error= 2.64D-06 at cycle   4 NSaved=   4.
 NSaved= 4 IEnMin= 4 EnMin= -1163.67913872071     IErMin= 4 ErrMin= 2.64D-06
 ErrMax= 2.64D-06  0.00D+00 EMaxC= 1.00D-01 BMatC= 4.96D-09 BMatP= 3.10D-08
 IDIUse=1 WtCom= 1.00D+00 WtEn= 0.00D+00
 Coeff-Com: -0.336D-03 0.143D+00 0.406D+00 0.451D+00
 Coeff:     -0.336D-03 0.143D+00 0.406D+00 0.451D+00
 Gap=     0.198 Goal=   None    Shift=    0.000
 RMSDP=2.93D-07 MaxDP=1.41D-05 DE=-2.18D-08 OVMax= 1.68D-05

 Cycle  13  Pass 1  IDiag  1:
 RMSU=  8.65D-08    CP:  1.00D+00  9.93D-01  7.47D-01  4.41D-01
 E= -1163.67913872485     Delta-E=       -0.000000004139 Rises=F Damp=F
 DIIS: error= 7.02D-07 at cycle   5 NSaved=   5.
 NSaved= 5 IEnMin= 5 EnMin= -1163.67913872485     IErMin= 5 ErrMin= 7.02D-07
 ErrMax= 7.02D-07  0.00D+00 EMaxC= 1.00D-01 BMatC= 1.66D-10 BMatP= 4.96D-09
 IDIUse=1 WtCom= 1.00D+00 WtEn= 0.00D+00
 Coeff-Com: -0.222D-02 0.764D-01 0.220D+00 0.269D+00 0.436D+00
 Coeff:     -0.222D-02 0.764D-01 0.220D+00 0.269D+00 0.436D+00
 Gap=     0.198 Goal=   None    Shift=    0.000
 RMSDP=5.20D-08 MaxDP=2.18D-06 DE=-4.14D-09 OVMax= 3.45D-06

 Cycle  14  Pass 1  IDiag  1:
 RMSU=  3.59D-08    CP:  1.00D+00  9.93D-01  7.51D-01  4.57D-01  5.85D-01
 E= -1163.67913872498     Delta-E=       -0.000000000137 Rises=F Damp=F
 DIIS: error= 2.58D-07 at cycle   6 NSaved=   6.
 NSaved= 6 IEnMin= 6 EnMin= -1163.67913872498     IErMin= 6 ErrMin= 2.58D-07
 ErrMax= 2.58D-07  0.00D+00 EMaxC= 1.00D-01 BMatC= 1.51D-11 BMatP= 1.66D-10
 IDIUse=1 WtCom= 1.00D+00 WtEn= 0.00D+00
 Coeff-Com: -0.133D-02 0.350D-01 0.101D+00 0.127D+00 0.275D+00 0.464D+00
 Coeff:     -0.133D-02 0.350D-01 0.101D+00 0.127D+00 0.275D+00 0.464D+00
 Gap=     0.198 Goal=   None    Shift=    0.000
 RMSDP=1.88D-08 MaxDP=6.42D-07 DE=-1.37D-10 OVMax= 1.50D-06

 Cycle  15  Pass 1  IDiag  1:
 RMSU=  1.19D-08    CP:  1.00D+00  9.93D-01  7.49D-01  4.61D-01  6.11D-01
                    CP:  6.15D-01
 E= -1163.67913872498     Delta-E=        0.000000000000 Rises=F Damp=F
 DIIS: error= 4.76D-08 at cycle   7 NSaved=   7.
 NSaved= 7 IEnMin= 6 EnMin= -1163.67913872498     IErMin= 7 ErrMin= 4.76D-08
 ErrMax= 4.76D-08  0.00D+00 EMaxC= 1.00D-01 BMatC= 1.30D-12 BMatP= 1.51D-11
 IDIUse=1 WtCom= 1.00D+00 WtEn= 0.00D+00
 Coeff-Com: -0.431D-03 0.883D-02 0.246D-01 0.325D-01 0.986D-01 0.265D+00
 Coeff-Com:  0.570D+00
 Coeff:     -0.431D-03 0.883D-02 0.246D-01 0.325D-01 0.986D-01 0.265D+00
 Coeff:      0.570D+00
 Gap=     0.198 Goal=   None    Shift=    0.000
 RMSDP=4.86D-09 MaxDP=2.50D-07 DE= 0.00D+00 OVMax= 3.49D-07

 SCF Done:  E(RB3LYP) =  -1163.67913872     A.U. after   15 cycles
            NFock= 15  Conv=0.49D-08     -V/T= 2.0064
 KE= 1.156324644296D+03 PE=-4.850650352148D+03 EE= 1.473519911923D+03
 Leave Link  502 at Tue Sep 17 09:42:17 2024, MaxMem=  1342177280 cpu:              98.0 elap:              13.0
 (Enter /groups/ReismanLab/Software/Gaussian16_RevC/Linux_Binary_AVX2-enabled-CPU/g16/l508.exe)
 QCSCF skips out because SCF is already converged.
 Leave Link  508 at Tue Sep 17 09:42:17 2024, MaxMem=  1342177280 cpu:               0.0 elap:               0.1
 (Enter /groups/ReismanLab/Software/Gaussian16_RevC/Linux_Binary_AVX2-enabled-CPU/g16/l601.exe)
 Copying SCF densities to generalized density rwf, IOpCl= 0 IROHF=0.

 **********************************************************************

            Population analysis using the SCF Density.

 **********************************************************************

 Orbital symmetries:
       Occupied  (A) (A) (A) (A) (A) (A) (A) (A) (A) (A) (A) (A)
                 (A) (A) (A) (A) (A) (A) (A) (A) (A) (A) (A) (A)
                 (A) (A) (A) (A) (A) (A) (A) (A) (A) (A) (A) (A)
                 (A) (A) (A) (A) (A) (A) (A) (A) (A) (A) (A) (A)
                 (A) (A) (A) (A) (A) (A) (A) (A) (A) (A) (A)
       Virtual   (A) (A) (A) (A) (A) (A) (A) (A) (A) (A) (A) (A)
                 (A) (A) (A) (A) (A) (A) (A) (A) (A) (A) (A) (A)
                 (A) (A) (A) (A) (A) (A) (A) (A) (A) (A) (A) (A)
                 (A) (A) (A) (A) (A) (A) (A) (A) (A) (A) (A) (A)
                 (A) (A) (A) (A) (A) (A) (A) (A) (A) (A) (A) (A)
                 (A) (A) (A) (A) (A) (A) (A) (A) (A) (A) (A) (A)
                 (A) (A) (A) (A) (A) (A) (A) (A) (A) (A) (A) (A)
                 (A) (A) (A) (A) (A) (A) (A) (A) (A) (A) (A) (A)
                 (A) (A) (A) (A) (A) (A) (A) (A) (A) (A) (A) (A)
                 (A) (A) (A) (A) (A) (A) (A) (A) (A) (A) (A) (A)
                 (A) (A) (A) (A) (A) (A) (A) (A) (A) (A) (A) (A)
                 (A) (A) (A) (A) (A) (A) (A) (A) (A) (A) (A) (A)
                 (A) (A) (A) (A) (A) (A) (A) (A) (A) (A) (A) (A)
                 (A) (A) (A) (A) (A) (A) (A) (A) (A) (A) (A) (A)
                 (A) (A) (A) (A) (A) (A) (A) (A) (A) (A) (A) (A)
                 (A) (A) (A) (A) (A) (A) (A) (A) (A) (A) (A) (A)
                 (A) (A) (A) (A) (A) (A) (A) (A) (A) (A) (A) (A)
                 (A) (A) (A) (A) (A) (A)
 The electronic state is 1-A.
 Alpha  occ. eigenvalues -- -101.57125 -19.20421 -19.19883 -19.14273 -19.14259
 Alpha  occ. eigenvalues --  -14.35195 -10.32345 -10.32250 -10.28354 -10.25598
 Alpha  occ. eigenvalues --  -10.25448 -10.24830 -10.24098 -10.22929 -10.22751
 Alpha  occ. eigenvalues --   -9.48798  -7.25199  -7.24230  -7.24170  -1.12020
 Alpha  occ. eigenvalues --   -1.11891  -1.02826  -1.02734  -0.98012  -0.90696
 Alpha  occ. eigenvalues --   -0.81637  -0.80147  -0.75289  -0.73734  -0.67467
 Alpha  occ. eigenvalues --   -0.65866  -0.58793  -0.57506  -0.55248  -0.53127
 Alpha  occ. eigenvalues --   -0.51103  -0.50753  -0.49635  -0.49099  -0.47590
 Alpha  occ. eigenvalues --   -0.46897  -0.44917  -0.44534  -0.43478  -0.42841
 Alpha  occ. eigenvalues --   -0.41133  -0.40742  -0.40179  -0.36907  -0.36873
 Alpha  occ. eigenvalues --   -0.35350  -0.33440  -0.31205  -0.30604  -0.29847
 Alpha  occ. eigenvalues --   -0.28894  -0.28742  -0.28109  -0.26954
 Alpha virt. eigenvalues --   -0.07107  -0.06396   0.01703   0.02131   0.07197
 Alpha virt. eigenvalues --    0.10609   0.11676   0.12223   0.12961   0.14551
 Alpha virt. eigenvalues --    0.15071   0.15267   0.15656   0.16301   0.17056
 Alpha virt. eigenvalues --    0.17294   0.22495   0.23938   0.25547   0.26225
 Alpha virt. eigenvalues --    0.28020   0.29800   0.31621   0.35637   0.36676
 Alpha virt. eigenvalues --    0.37272   0.39291   0.39947   0.41134   0.42377
 Alpha virt. eigenvalues --    0.47885   0.48609   0.49657   0.50613   0.50827
 Alpha virt. eigenvalues --    0.51717   0.52123   0.54168   0.54968   0.55664
 Alpha virt. eigenvalues --    0.57617   0.58036   0.59680   0.59836   0.61903
 Alpha virt. eigenvalues --    0.63461   0.64884   0.65744   0.65852   0.66513
 Alpha virt. eigenvalues --    0.67598   0.71987   0.72511   0.75297   0.75322
 Alpha virt. eigenvalues --    0.76155   0.77450   0.78234   0.81122   0.82267
 Alpha virt. eigenvalues --    0.82468   0.82778   0.84072   0.84403   0.85106
 Alpha virt. eigenvalues --    0.85185   0.85702   0.87397   0.89321   0.89971
 Alpha virt. eigenvalues --    0.91923   0.93535   0.94264   0.95509   0.96082
 Alpha virt. eigenvalues --    0.97140   0.98394   1.00276   1.02001   1.04529
 Alpha virt. eigenvalues --    1.05820   1.07017   1.07450   1.11337   1.12812
 Alpha virt. eigenvalues --    1.16791   1.20820   1.21939   1.23737   1.27386
 Alpha virt. eigenvalues --    1.28663   1.28818   1.30189   1.31363   1.31813
 Alpha virt. eigenvalues --    1.32766   1.34126   1.37548   1.38127   1.44483
 Alpha virt. eigenvalues --    1.45836   1.47284   1.49090   1.50290   1.50949
 Alpha virt. eigenvalues --    1.53350   1.58571   1.59044   1.63090   1.65008
 Alpha virt. eigenvalues --    1.66442   1.69328   1.72231   1.73657   1.74419
 Alpha virt. eigenvalues --    1.77958   1.80125   1.83937   1.85142   1.85836
 Alpha virt. eigenvalues --    1.86660   1.89799   1.91564   1.91986   1.92602
 Alpha virt. eigenvalues --    1.93670   1.94282   1.96085   1.98182   1.98719
 Alpha virt. eigenvalues --    2.00388   2.00655   2.01829   2.02704   2.03111
 Alpha virt. eigenvalues --    2.04496   2.04606   2.05770   2.06982   2.07372
 Alpha virt. eigenvalues --    2.08562   2.11124   2.12803   2.16034   2.20122
 Alpha virt. eigenvalues --    2.27526   2.28692   2.31225   2.33201   2.38583
 Alpha virt. eigenvalues --    2.39551   2.41554   2.42212   2.43765   2.47807
 Alpha virt. eigenvalues --    2.49441   2.49753   2.51195   2.52921   2.54651
 Alpha virt. eigenvalues --    2.58380   2.59142   2.59892   2.62117   2.63864
 Alpha virt. eigenvalues --    2.65309   2.68030   2.68865   2.70551   2.72125
 Alpha virt. eigenvalues --    2.74641   2.78309   2.81375   2.83986   2.86012
 Alpha virt. eigenvalues --    2.87995   2.89174   2.91882   2.93553   2.96035
 Alpha virt. eigenvalues --    2.97887   2.99329   3.09027   3.15722   3.18600
 Alpha virt. eigenvalues --    3.19977   3.22594   3.29137   3.30642   3.40201
 Alpha virt. eigenvalues --    3.40651   3.41803   3.42960   3.43954   3.67826
 Alpha virt. eigenvalues --    3.94860   4.01022   4.05372   4.10525   4.18042
 Alpha virt. eigenvalues --    4.20879   4.27460   4.31490   4.37463   4.43320
 Alpha virt. eigenvalues --    4.45060   4.55601   4.61319   4.66012   4.76038
          Condensed to atoms (all electrons):
               1          2          3          4          5          6
     1  C    4.721194   0.216046  -0.023338   0.003074   0.008259  -0.000682
     2  O    0.216046   8.255292   0.272685  -0.089269  -0.106009   0.008418
     3  C   -0.023338   0.272685   4.412559   0.569926   0.309242  -0.081747
     4  O    0.003074  -0.089269   0.569926   8.019670  -0.070271   0.004060
     5  C    0.008259  -0.106009   0.309242  -0.070271   4.918778   0.410434
     6  C   -0.000682   0.008418  -0.081747   0.004060   0.410434   5.099610
     7  C   -0.000003   0.000662   0.003744  -0.000068  -0.015063   0.464830
     8  Cl  -0.000000  -0.000007  -0.000107   0.000000   0.004877  -0.071756
     9  C    0.000001  -0.000006   0.000150  -0.000028  -0.048462  -0.030680
    10  C    0.000001  -0.000023   0.006387   0.000620  -0.019964  -0.048675
    11  C   -0.000000   0.000000  -0.000091   0.000014   0.005008   0.000198
    12  O    0.000000  -0.000000   0.000000  -0.000000  -0.000082  -0.000013
    13  O    0.000000  -0.000000   0.000014  -0.000001   0.000051  -0.000031
    14  C   -0.000000   0.000000  -0.000001   0.000000   0.000016   0.000001
    15  N   -0.000096   0.001726  -0.070560   0.000660   0.444877  -0.065556
    16  H    0.385380  -0.031891  -0.005708   0.006673  -0.000241   0.000065
    17  H    0.389437  -0.032856   0.004187   0.000715   0.000077  -0.000074
    18  H    0.385610  -0.032199  -0.005339   0.006109  -0.000064   0.000044
    19  H   -0.000234   0.010838  -0.005680   0.000182  -0.028457   0.368928
    20  H    0.000000  -0.000000   0.000018  -0.000000   0.000213   0.004309
    21  H   -0.000000   0.000000   0.000000   0.000000  -0.000000  -0.000000
    22  H   -0.000000   0.000000  -0.000000   0.000000  -0.000000   0.000000
    23  H   -0.000000   0.000000   0.000000   0.000000   0.000003  -0.000000
               7          8          9         10         11         12
     1  C   -0.000003  -0.000000   0.000001   0.000001  -0.000000   0.000000
     2  O    0.000662  -0.000007  -0.000006  -0.000023   0.000000  -0.000000
     3  C    0.003744  -0.000107   0.000150   0.006387  -0.000091   0.000000
     4  O   -0.000068   0.000000  -0.000028   0.000620   0.000014  -0.000000
     5  C   -0.015063   0.004877  -0.048462  -0.019964   0.005008  -0.000082
     6  C    0.464830  -0.071756  -0.030680  -0.048675   0.000198  -0.000013
     7  C    5.046111   0.254704   0.459525  -0.019385   0.006002   0.001092
     8  Cl   0.254704  16.854948  -0.072984   0.004848  -0.000113   0.000001
     9  C    0.459525  -0.072984   5.092511   0.416523  -0.078425   0.008029
    10  C   -0.019385   0.004848   0.416523   4.954481   0.296027  -0.096521
    11  C    0.006002  -0.000113  -0.078425   0.296027   4.409834   0.573350
    12  O    0.001092   0.000001   0.008029  -0.096521   0.573350   8.052869
    13  O   -0.000029   0.000000   0.004856  -0.086921   0.282747  -0.083127
    14  C    0.000000  -0.000000  -0.000159   0.007121  -0.024338  -0.012750
    15  N   -0.031379  -0.000098  -0.061035   0.410640  -0.063864   0.002244
    16  H    0.000002  -0.000000   0.000000  -0.000000  -0.000000   0.000000
    17  H   -0.000001  -0.000000   0.000000  -0.000000  -0.000000  -0.000000
    18  H    0.000001  -0.000000   0.000000  -0.000000  -0.000000   0.000000
    19  H   -0.043286  -0.001228   0.004478   0.000222   0.000017  -0.000000
    20  H   -0.041959  -0.001225   0.368464  -0.031379  -0.005369   0.012729
    21  H   -0.000000   0.000000   0.000006  -0.000152  -0.000572   0.000535
    22  H   -0.000000   0.000000   0.000004  -0.000017   0.002047   0.000428
    23  H    0.000000  -0.000000  -0.000047   0.000172  -0.010015   0.024210
              13         14         15         16         17         18
     1  C    0.000000  -0.000000  -0.000096   0.385380   0.389437   0.385610
     2  O   -0.000000   0.000000   0.001726  -0.031891  -0.032856  -0.032199
     3  C    0.000014  -0.000001  -0.070560  -0.005708   0.004187  -0.005339
     4  O   -0.000001   0.000000   0.000660   0.006673   0.000715   0.006109
     5  C    0.000051   0.000016   0.444877  -0.000241   0.000077  -0.000064
     6  C   -0.000031   0.000001  -0.065556   0.000065  -0.000074   0.000044
     7  C   -0.000029   0.000000  -0.031379   0.000002  -0.000001   0.000001
     8  Cl   0.000000  -0.000000  -0.000098  -0.000000  -0.000000  -0.000000
     9  C    0.004856  -0.000159  -0.061035   0.000000   0.000000   0.000000
    10  C   -0.086921   0.007121   0.410640  -0.000000  -0.000000  -0.000000
    11  C    0.282747  -0.024338  -0.063864  -0.000000  -0.000000  -0.000000
    12  O   -0.083127  -0.012750   0.002244   0.000000  -0.000000   0.000000
    13  O    8.191709   0.220425   0.000045   0.000000  -0.000000   0.000000
    14  C    0.220425   4.759004  -0.000339   0.000000   0.000000   0.000000
    15  N    0.000045  -0.000339   6.914572   0.000003   0.000001  -0.000003
    16  H    0.000000   0.000000   0.000003   0.580968  -0.032374  -0.037903
    17  H   -0.000000   0.000000   0.000001  -0.032374   0.581299  -0.032853
    18  H    0.000000   0.000000  -0.000003  -0.037903  -0.032853   0.582741
    19  H   -0.000000   0.000000   0.004563   0.000037  -0.000061   0.000028
    20  H    0.000305  -0.000008   0.004838   0.000000  -0.000000   0.000000
    21  H   -0.033309   0.390611   0.000007  -0.000000  -0.000000   0.000000
    22  H   -0.033914   0.391995  -0.000000   0.000000   0.000000  -0.000000
    23  H   -0.032023   0.373492  -0.000030   0.000000   0.000000   0.000000
              19         20         21         22         23
     1  C   -0.000234   0.000000  -0.000000  -0.000000  -0.000000
     2  O    0.010838  -0.000000   0.000000   0.000000   0.000000
     3  C   -0.005680   0.000018   0.000000  -0.000000   0.000000
     4  O    0.000182  -0.000000   0.000000   0.000000   0.000000
     5  C   -0.028457   0.000213  -0.000000  -0.000000   0.000003
     6  C    0.368928   0.004309  -0.000000   0.000000  -0.000000
     7  C   -0.043286  -0.041959  -0.000000  -0.000000   0.000000
     8  Cl  -0.001228  -0.001225   0.000000   0.000000  -0.000000
     9  C    0.004478   0.368464   0.000006   0.000004  -0.000047
    10  C    0.000222  -0.031379  -0.000152  -0.000017   0.000172
    11  C    0.000017  -0.005369  -0.000572   0.002047  -0.010015
    12  O   -0.000000   0.012729   0.000535   0.000428   0.024210
    13  O   -0.000000   0.000305  -0.033309  -0.033914  -0.032023
    14  C    0.000000  -0.000008   0.390611   0.391995   0.373492
    15  N    0.004563   0.004838   0.000007  -0.000000  -0.000030
    16  H    0.000037   0.000000  -0.000000   0.000000   0.000000
    17  H   -0.000061  -0.000000  -0.000000   0.000000   0.000000
    18  H    0.000028   0.000000   0.000000  -0.000000   0.000000
    19  H    0.548896  -0.000099  -0.000000  -0.000000   0.000000
    20  H   -0.000099   0.541229   0.000000   0.000000  -0.000013
    21  H   -0.000000   0.000000   0.581941  -0.036810  -0.032239
    22  H   -0.000000   0.000000  -0.036810   0.573759  -0.028933
    23  H    0.000000  -0.000013  -0.032239  -0.028933   0.558986
 Mulliken charges:
               1
     1  C   -0.084649
     2  O   -0.473409
     3  C    0.613659
     4  O   -0.452067
     5  C    0.186781
     6  C   -0.061684
     7  C   -0.085498
     8  Cl   0.028140
     9  C   -0.062722
    10  C    0.205995
    11  C    0.607545
    12  O   -0.482994
    13  O   -0.430795
    14  C   -0.105072
    15  N   -0.491217
    16  H    0.134991
    17  H    0.122502
    18  H    0.133829
    19  H    0.140857
    20  H    0.147948
    21  H    0.129981
    22  H    0.131442
    23  H    0.146437
 Sum of Mulliken charges =  -0.00000
 Mulliken charges with hydrogens summed into heavy atoms:
               1
     1  C    0.306674
     2  O   -0.473409
     3  C    0.613659
     4  O   -0.452067
     5  C    0.186781
     6  C    0.079173
     7  C   -0.085498
     8  Cl   0.028140
     9  C    0.085226
    10  C    0.205995
    11  C    0.607545
    12  O   -0.482994
    13  O   -0.430795
    14  C    0.302788
    15  N   -0.491217
 Electronic spatial extent (au):  <R**2>=           4415.4343
 Charge=             -0.0000 electrons
 Dipole moment (field-independent basis, Debye):
    X=             -1.8786    Y=              0.1672    Z=              0.1147  Tot=              1.8895
 Quadrupole moment (field-independent basis, Debye-Ang):
   XX=            -75.4694   YY=            -95.0950   ZZ=            -89.2980
   XY=             -5.2751   XZ=             -0.5845   YZ=             -0.9021
 Traceless Quadrupole moment (field-independent basis, Debye-Ang):
   XX=             11.1514   YY=             -8.4742   ZZ=             -2.6772
   XY=             -5.2751   XZ=             -0.5845   YZ=             -0.9021
 Octapole moment (field-independent basis, Debye-Ang**2):
  XXX=            -56.1190  YYY=              1.7850  ZZZ=              0.1372  XYY=             16.6046
  XXY=            -71.2647  XXZ=             -0.4077  XZZ=              1.9202  YZZ=             -8.2837
  YYZ=              2.2978  XYZ=              1.3072
 Hexadecapole moment (field-independent basis, Debye-Ang**3):
 XXXX=          -2923.0446 YYYY=          -2147.3266 ZZZZ=            -97.1471 XXXY=            -57.8261
 XXXZ=            -12.1360 YYYX=            -47.6313 YYYZ=             -4.3252 ZZZX=              2.5681
 ZZZY=              0.4616 XXYY=           -769.0634 XXZZ=           -551.5964 YYZZ=           -366.8828
 XXYZ=             -5.3691 YYXZ=             -5.6783 ZZXY=              2.7416
 N-N= 1.057126657204D+03 E-N=-4.850650348967D+03  KE= 1.156324644296D+03
 No NMR shielding tensors so no spin-rotation constants.
 Leave Link  601 at Tue Sep 17 09:42:17 2024, MaxMem=  1342177280 cpu:               0.5 elap:               0.1
 (Enter /groups/ReismanLab/Software/Gaussian16_RevC/Linux_Binary_AVX2-enabled-CPU/g16/l701.exe)
 ... and contract with generalized density number  0.
 Compute integral first derivatives.
 R6Disp: Adding Grimme-D3(BJ) dispersion energy 1st derivatives to the gradient.
 Leave Link  701 at Tue Sep 17 09:42:17 2024, MaxMem=  1342177280 cpu:               0.6 elap:               0.1
 (Enter /groups/ReismanLab/Software/Gaussian16_RevC/Linux_Binary_AVX2-enabled-CPU/g16/l702.exe)
 L702 exits ... SP integral derivatives will be done elsewhere.
 Leave Link  702 at Tue Sep 17 09:42:17 2024, MaxMem=  1342177280 cpu:               0.1 elap:               0.0
 (Enter /groups/ReismanLab/Software/Gaussian16_RevC/Linux_Binary_AVX2-enabled-CPU/g16/l703.exe)
 Integral derivatives from FoFJK, PRISM(SPDF).
 Compute integral first derivatives, UseDBF=F ICtDFT=           0.
 Calling FoFJK, ICntrl=      2127 FMM=F ISym2X=0 I1Cent= 0 IOpClX= 0 NMat=1 NMatS=1 NMatT=0.
 FoFJK:  IHMeth= 1 ICntrl=    2127 DoSepK=F KAlg= 0 I1Cent=           0 FoldK=F
 IRaf=         0 NMat=       1 IRICut=       1 DoRegI=T DoRafI=F ISym2E= 0 IDoP0=0 IntGTp=1.
 FoFCou: FMM=F IPFlag=           0 FMFlag=      100000 FMFlg1=         800
         NFxFlg=           0 DoJE=F BraDBF=F KetDBF=F FulRan=T
         wScrn=  0.000000 ICntrl=      2127 IOpCl=  0 I1Cent=           0 NGrid=           0
         NMat0=    1 NMatS0=      1 NMatT0=    0 NMatD0=    1 NMtDS0=    0 NMtDT0=    0
 Symmetry not used in FoFCou.
 Leave Link  703 at Tue Sep 17 09:42:22 2024, MaxMem=  1342177280 cpu:              31.7 elap:               4.1
 (Enter /groups/ReismanLab/Software/Gaussian16_RevC/Linux_Binary_AVX2-enabled-CPU/g16/l716.exe)
 Dipole        =-7.39113768D-01 6.57699549D-02 4.51305609D-02
 ***** Axes restored to original set *****
 -------------------------------------------------------------------
 Center     Atomic                   Forces (Hartrees/Bohr)
 Number     Number              X              Y              Z
 -------------------------------------------------------------------
      1        6           0.003847007   -0.005558305    0.000490999
      2        8           0.001872771    0.012979008   -0.001564932
      3        6          -0.001896409    0.006301651   -0.000275323
      4        8          -0.002541560   -0.016502092    0.001595774
      5        6           0.005916987    0.005188751   -0.000145372
      6        6           0.003805069    0.000831897   -0.000165393
      7        6          -0.001662053   -0.007903174    0.000208827
      8       17           0.001154668    0.012288248   -0.000109242
      9        6          -0.004519922    0.001430667   -0.000133467
     10        6          -0.004041402    0.003667858   -0.000122872
     11        6           0.007909853    0.004731120   -0.000009197
     12        8          -0.013125486    0.010335328   -0.000720461
     13        8           0.009102861   -0.011500754    0.000693921
     14        6          -0.009473141   -0.000734678    0.000601211
     15        7          -0.000080110   -0.015401209    0.000493678
     16        1           0.000713446   -0.000833198   -0.000392528
     17        1           0.001157701    0.001270914   -0.000197585
     18        1           0.000845366   -0.000816626    0.000513068
     19        1           0.002721286    0.001455420   -0.000150025
     20        1          -0.002423434    0.001993171   -0.000052851
     21        1           0.000070868   -0.000781143   -0.001235772
     22        1           0.000689395   -0.001271459    0.000756396
     23        1          -0.000043760   -0.001171396   -0.000078856
 -------------------------------------------------------------------
 Cartesian Forces:  Max     0.016502092 RMS     0.005152682
 Leave Link  716 at Tue Sep 17 09:42:22 2024, MaxMem=  1342177280 cpu:               0.1 elap:               0.2
 (Enter /groups/ReismanLab/Software/Gaussian16_RevC/Linux_Binary_AVX2-enabled-CPU/g16/l103.exe)

 GradGradGradGradGradGradGradGradGradGradGradGradGradGradGradGradGradGrad
 Berny optimization.
 FormGI is forming the generalized inverse of G from B-inverse, IUseBI=4.
 Internal  Forces:  Max     0.016715373 RMS     0.004444385
 Search for a local minimum.
 Step number   1 out of a maximum of  107
 All quantities printed in internal units (Hartrees-Bohrs-Radians)
 RMS Force = .44444D-02 SwitMx=.10000D-02 MixMth= 1
 Mixed Optimization -- RFO/linear search
 Second derivative matrix not updated -- first step.
 ITU=  0
     Eigenvalues ---    0.00749   0.00771   0.01325   0.01402   0.01414
     Eigenvalues ---    0.01440   0.01772   0.01810   0.02196   0.02209
     Eigenvalues ---    0.02232   0.02262   0.02274   0.02468   0.02600
     Eigenvalues ---    0.02734   0.10308   0.10364   0.10625   0.10644
     Eigenvalues ---    0.16000   0.16000   0.16000   0.16000   0.16000
     Eigenvalues ---    0.16000   0.16000   0.16000   0.23493   0.23558
     Eigenvalues ---    0.25000   0.25000   0.25000   0.25000   0.25000
     Eigenvalues ---    0.25000   0.25000   0.25000   0.25000   0.25000
     Eigenvalues ---    0.32241   0.32414   0.33465   0.34606   0.34616
     Eigenvalues ---    0.34623   0.34703   0.34924   0.35188   0.36205
     Eigenvalues ---    0.36339   0.42179   0.42305   0.42789   0.45570
     Eigenvalues ---    0.46458   0.47633   0.56908   0.58952   0.60506
     Eigenvalues ---    0.61623   1.01338   1.05196
 RFO step:  Lambda=-3.59282553D-03 EMin= 7.48674487D-03
 Linear search not attempted -- first point.
 Iteration  1 RMS(Cart)=  0.05415737 RMS(Int)=  0.00038887
 Iteration  2 RMS(Cart)=  0.00088637 RMS(Int)=  0.00001261
 Iteration  3 RMS(Cart)=  0.00000049 RMS(Int)=  0.00001261
 ITry= 1 IFail=0 DXMaxC= 2.19D-01 DCOld= 1.00D+10 DXMaxT= 3.00D-01 DXLimC= 3.00D+00 Rises=F
 Variable       Old X    -DE/DX   Delta X   Delta X   Delta X     New X
                                 (Linear)    (Quad)   (Total)
    R1        2.68695   0.00878   0.00000   0.02065   0.02065   2.70760
    R2        2.06292   0.00082   0.00000   0.00234   0.00234   2.06526
    R3        2.05370   0.00171   0.00000   0.00481   0.00481   2.05851
    R4        2.06303   0.00091   0.00000   0.00260   0.00260   2.06563
    R5        2.53474   0.01086   0.00000   0.01897   0.01897   2.55371
    R6        2.26627   0.01672   0.00000   0.01584   0.01584   2.28211
    R7        2.83392   0.00510   0.00000   0.01555   0.01555   2.84947
    R8        2.63704   0.00533   0.00000   0.01151   0.01151   2.64855
    R9        2.49953   0.01326   0.00000   0.02230   0.02231   2.52184
   R10        2.62209   0.00591   0.00000   0.01132   0.01131   2.63340
   R11        2.03554   0.00307   0.00000   0.00837   0.00837   2.04391
   R12        3.25243   0.01234   0.00000   0.03649   0.03649   3.28892
   R13        2.61967   0.00487   0.00000   0.00907   0.00906   2.62873
   R14        2.63553   0.00478   0.00000   0.01021   0.01021   2.64574
   R15        2.03762   0.00312   0.00000   0.00852   0.00852   2.04614
   R16        2.83706   0.00456   0.00000   0.01400   0.01400   2.85106
   R17        2.49647   0.01384   0.00000   0.02307   0.02308   2.51955
   R18        2.28108   0.01662   0.00000   0.01634   0.01634   2.29742
   R19        2.49679   0.01547   0.00000   0.02495   0.02495   2.52174
   R20        2.68536   0.00953   0.00000   0.02234   0.02234   2.70770
   R21        2.06159   0.00144   0.00000   0.00411   0.00411   2.06571
   R22        2.05799   0.00147   0.00000   0.00415   0.00415   2.06214
   R23        2.06320  -0.00069   0.00000  -0.00197  -0.00197   2.06123
    A1        1.92427   0.00117   0.00000   0.00750   0.00748   1.93176
    A2        1.85404  -0.00093   0.00000  -0.00638  -0.00638   1.84766
    A3        1.92450   0.00130   0.00000   0.00830   0.00829   1.93279
    A4        1.93194  -0.00035   0.00000  -0.00286  -0.00285   1.92909
    A5        1.89738  -0.00074   0.00000  -0.00319  -0.00322   1.89416
    A6        1.93177  -0.00041   0.00000  -0.00319  -0.00318   1.92859
    A7        2.01710  -0.00068   0.00000  -0.00269  -0.00269   2.01442
    A8        2.15805   0.00250   0.00000   0.00987   0.00986   2.16792
    A9        1.94446  -0.00194   0.00000  -0.00765  -0.00765   1.93681
   A10        2.18067  -0.00056   0.00000  -0.00223  -0.00223   2.17843
   A11        2.11536  -0.00114   0.00000  -0.00537  -0.00538   2.10999
   A12        2.01864   0.00046   0.00000   0.00093   0.00092   2.01956
   A13        2.14917   0.00068   0.00000   0.00444   0.00444   2.15362
   A14        2.05635   0.00035   0.00000  -0.00076  -0.00077   2.05558
   A15        2.10590   0.00012   0.00000   0.00220   0.00221   2.10811
   A16        2.12093  -0.00047   0.00000  -0.00144  -0.00143   2.11949
   A17        2.09757  -0.00081   0.00000  -0.00116  -0.00115   2.09641
   A18        2.08472   0.00176   0.00000   0.00289   0.00286   2.08759
   A19        2.10090  -0.00095   0.00000  -0.00172  -0.00171   2.09919
   A20        2.05375   0.00047   0.00000  -0.00050  -0.00051   2.05323
   A21        2.13869  -0.00061   0.00000  -0.00206  -0.00205   2.13664
   A22        2.09075   0.00014   0.00000   0.00256   0.00256   2.09331
   A23        2.06577  -0.00602   0.00000  -0.02450  -0.02450   2.04127
   A24        2.15391   0.00090   0.00000   0.00510   0.00510   2.15902
   A25        2.06350   0.00511   0.00000   0.01940   0.01940   2.08290
   A26        2.14146  -0.00349   0.00000  -0.01375  -0.01376   2.12769
   A27        1.95158   0.00271   0.00000   0.01069   0.01068   1.96226
   A28        2.19013   0.00078   0.00000   0.00310   0.00309   2.19322
   A29        2.05892  -0.00033   0.00000  -0.00131  -0.00131   2.05760
   A30        1.89867  -0.00051   0.00000  -0.00362  -0.00364   1.89503
   A31        1.87592  -0.00091   0.00000  -0.00617  -0.00618   1.86974
   A32        1.92492   0.00188   0.00000   0.01265   0.01264   1.93756
   A33        1.91515  -0.00033   0.00000  -0.00450  -0.00453   1.91062
   A34        1.91737  -0.00018   0.00000   0.00011   0.00010   1.91746
   A35        1.93112   0.00003   0.00000   0.00130   0.00130   1.93242
   A36        2.06846  -0.00416   0.00000  -0.01116  -0.01113   2.05733
    D1        1.03096   0.00036   0.00000   0.00479   0.00482   1.03578
    D2        3.12495   0.00003   0.00000   0.00169   0.00169   3.12664
    D3       -1.06431  -0.00030   0.00000  -0.00137  -0.00140  -1.06571
    D4        0.00271  -0.00015   0.00000  -0.00432  -0.00430  -0.00159
    D5       -3.14010  -0.00025   0.00000  -0.00992  -0.00993   3.13315
    D6       -0.11785   0.00027   0.00000   0.02361   0.02360  -0.09424
    D7        3.02798   0.00032   0.00000   0.02591   0.02590   3.05388
    D8        3.02251   0.00018   0.00000   0.01793   0.01794   3.04045
    D9       -0.11485   0.00022   0.00000   0.02023   0.02024  -0.09461
   D10       -3.13871   0.00011   0.00000   0.00462   0.00462  -3.13409
   D11        0.00273   0.00011   0.00000   0.00466   0.00466   0.00740
   D12       -0.00167   0.00006   0.00000   0.00213   0.00213   0.00046
   D13        3.13977   0.00006   0.00000   0.00218   0.00217  -3.14124
   D14        3.13990  -0.00007   0.00000  -0.00268  -0.00269   3.13721
   D15        0.00263  -0.00001   0.00000  -0.00031  -0.00031   0.00233
   D16        3.14099  -0.00003   0.00000  -0.00105  -0.00104   3.13995
   D17       -0.00061  -0.00006   0.00000  -0.00238  -0.00238  -0.00299
   D18       -0.00045  -0.00003   0.00000  -0.00109  -0.00109  -0.00154
   D19        3.14113  -0.00006   0.00000  -0.00242  -0.00243   3.13871
   D20        0.00178   0.00003   0.00000   0.00093   0.00093   0.00271
   D21       -3.13994   0.00004   0.00000   0.00149   0.00150  -3.13845
   D22       -3.13983  -0.00001   0.00000  -0.00041  -0.00041  -3.14024
   D23        0.00164   0.00001   0.00000   0.00016   0.00016   0.00180
   D24        3.14158   0.00003   0.00000   0.00116   0.00116  -3.14045
   D25       -0.00085   0.00003   0.00000   0.00100   0.00101   0.00016
   D26        0.00011   0.00002   0.00000   0.00060   0.00060   0.00072
   D27        3.14087   0.00001   0.00000   0.00045   0.00045   3.14132
   D28        0.02311   0.00000   0.00000  -0.00271  -0.00273   0.02039
   D29       -3.11365  -0.00017   0.00000  -0.01241  -0.01240  -3.12604
   D30       -3.11769   0.00001   0.00000  -0.00256  -0.00258  -3.12027
   D31        0.02874  -0.00017   0.00000  -0.01226  -0.01225   0.01649
   D32       -0.00134  -0.00003   0.00000  -0.00131  -0.00131  -0.00265
   D33        3.13942  -0.00004   0.00000  -0.00148  -0.00149   3.13794
   D34        3.14001  -0.00009   0.00000  -0.00059  -0.00055   3.13946
   D35        0.00341  -0.00026   0.00000  -0.01056  -0.01059  -0.00718
   D36        1.89545   0.00028   0.00000  -0.01232  -0.01234   1.88311
   D37       -2.31515  -0.00090   0.00000  -0.02311  -0.02309  -2.33824
   D38       -0.20853  -0.00033   0.00000  -0.01793  -0.01793  -0.22646
         Item               Value     Threshold  Converged?
 Maximum Force            0.016715     0.000450     NO 
 RMS     Force            0.004444     0.000300     NO 
 Maximum Displacement     0.218599     0.001800     NO 
 RMS     Displacement     0.054666     0.001200     NO 
 Predicted change in Energy=-1.817167D-03
 Lowest energy point so far.  Saving SCF results.
 GradGradGradGradGradGradGradGradGradGradGradGradGradGradGradGradGradGrad

 Leave Link  103 at Tue Sep 17 09:42:22 2024, MaxMem=  1342177280 cpu:               0.1 elap:               0.0
 (Enter /groups/ReismanLab/Software/Gaussian16_RevC/Linux_Binary_AVX2-enabled-CPU/g16/l202.exe)
                          Input orientation:                          
 ---------------------------------------------------------------------
 Center     Atomic      Atomic             Coordinates (Angstroms)
 Number     Number       Type             X           Y           Z
 ---------------------------------------------------------------------
      1          6           0        4.562871   -1.357825   -0.083434
      2          8           0        3.374882   -0.557009   -0.100525
      3          6           0        2.214316   -1.238287    0.022493
      4          8           0        2.140294   -2.438001    0.139117
      5          6           0        1.033553   -0.300660    0.003935
      6          6           0        1.218043    1.088571   -0.014726
      7          6           0        0.081294    1.894603   -0.021985
      8         17           0        0.239774    3.627670   -0.042584
      9          6           0       -1.178927    1.305665   -0.014302
     10          6           0       -1.242237   -0.092851    0.003965
     11          6           0       -2.616588   -0.715215    0.010544
     12          8           0       -3.627584   -0.040717   -0.020504
     13          8           0       -2.571620   -2.048400    0.047263
     14          6           0       -3.814695   -2.760911    0.059996
     15          7           0       -0.167624   -0.882000    0.014459
     16          1           0        4.548925   -2.086476   -0.897851
     17          1           0        5.392379   -0.662654   -0.206995
     18          1           0        4.652837   -1.896753    0.863294
     19          1           0        2.212005    1.514965   -0.023045
     20          1           0       -2.091826    1.887857   -0.022316
     21          1           0       -3.953124   -3.237136   -0.914156
     22          1           0       -3.737511   -3.528063    0.832217
     23          1           0       -4.648721   -2.088749    0.265782
 ---------------------------------------------------------------------
                    Distance matrix (angstroms):
                    1          2          3          4          5
     1  C    0.000000
     2  O    1.432801   0.000000
     3  C    2.353980   1.351365   0.000000
     4  O    2.661802   2.262690   1.207640   0.000000
     5  C    3.685284   2.357636   1.507876   2.410680   0.000000
     6  C    4.144569   2.714268   2.531445   3.648414   1.401553
     7  C    5.537744   4.106616   3.790352   4.799677   2.393042
     8  Cl   6.598939   5.229129   5.251723   6.359038   4.007996
     9  C    6.329866   4.920789   4.241126   5.005577   2.734169
    10  C    5.941976   4.641567   3.641446   4.118193   2.285258
    11  C    7.208773   5.994587   4.859154   5.060875   3.673612
    12  O    8.295920   7.021929   5.963540   6.248269   4.668443
    13  O    7.169026   6.132452   4.854078   4.728886   4.006712
    14  C    8.495460   7.521501   6.218422   5.964263   5.437048
    15  N    4.755374   3.559240   2.408453   2.786246   1.334501
    16  H    1.092887   2.086474   2.648935   2.645821   4.044774
    17  H    1.089318   2.023064   3.237916   3.721250   4.378915
    18  H    1.093084   2.087351   2.662125   2.670253   4.047867
    19  H    3.712565   2.377259   2.753630   3.956941   2.164711
    20  H    7.404268   5.989022   5.321433   6.053920   3.815533
    21  H    8.760370   7.845046   6.550574   6.235202   5.859413
    22  H    8.628134   7.764232   6.428294   6.018074   5.819383
    23  H    9.247142   8.176712   6.919809   6.799173   5.962722
                    6          7          8          9         10
     6  C    0.000000
     7  C    1.393535   0.000000
     8  Cl   2.721178   1.740420   0.000000
     9  C    2.406781   1.391066   2.721254   0.000000
    10  C    2.729301   2.387966   4.005097   1.400067   0.000000
    11  C    4.237768   3.753768   5.198296   2.480210   1.508715
    12  O    4.975482   4.183448   5.330480   2.794405   2.386042
    13  O    4.919957   4.752896   6.334807   3.632235   2.365017
    14  C    6.336604   6.071183   7.567247   4.846631   3.706647
    15  N    2.409165   2.787976   4.528394   2.410277   1.333289
    16  H    4.685681   6.047798   7.207755   6.715323   6.190749
    17  H    4.530876   5.897577   6.706955   6.862468   6.662380
    18  H    4.634748   6.004757   7.128464   6.710822   6.224501
    19  H    1.081592   2.164269   2.890260   3.397397   3.810195
    20  H    3.405018   2.173130   2.909247   1.082772   2.155388
    21  H    6.801594   6.588417   8.091081   5.398420   4.251868
    22  H    6.825550   6.687169   8.233383   5.534245   4.325861
    23  H    6.677797   6.190553   7.527943   4.862094   3.956803
                   11         12         13         14         15
    11  C    0.000000
    12  O    1.215740   0.000000
    13  O    1.334449   2.269459   0.000000
    14  C    2.371240   2.727810   1.432854   0.000000
    15  N    2.454639   3.560940   2.672220   4.102866   0.000000
    16  H    7.351878   8.474087   7.183094   8.445263   4.952667
    17  H    8.012093   9.043302   8.087658   9.446914   5.568733
    18  H    7.414024   8.531784   7.271979   8.549337   4.998709
    19  H    5.318848   6.043257   5.965365   7.389935   3.377793
    20  H    2.655643   2.465351   3.966001   4.958438   3.372834
    21  H    3.000247   3.334918   2.060576   1.093126   4.554009
    22  H    3.137471   3.591768   2.040798   1.091240   4.518237
    23  H    2.466031   2.306321   2.088954   1.090756   4.647541
                   16         17         18         19         20
    16  H    0.000000
    17  H    1.793312   0.000000
    18  H    1.774379   1.793165   0.000000
    19  H    4.381422   3.858839   4.287549   0.000000
    20  H    7.788546   7.909016   7.784475   4.319955   0.000000
    21  H    8.579575   9.719386   8.889236   7.834881   5.524976
    22  H    8.586985   9.625249   8.547518   7.846040   5.724570
    23  H    9.270962  10.152879   9.322707   7.754982   4.736466
                   21         22         23
    21  H    0.000000
    22  H    1.783521   0.000000
    23  H    1.787428   1.795209   0.000000
 Stoichiometry    C9H8ClNO4
 Framework group  C1[X(C9H8ClNO4)]
 Deg. of freedom    63
 Full point group                 C1      NOp   1
 RotChk:  IX=0 Diff= 5.13D-03
 Largest Abelian subgroup         C1      NOp   1
 Largest concise Abelian subgroup C1      NOp   1
                         Standard orientation:                         
 ---------------------------------------------------------------------
 Center     Atomic      Atomic             Coordinates (Angstroms)
 Number     Number       Type             X           Y           Z
 ---------------------------------------------------------------------
      1          6           0       -4.354647   -1.847111    0.062465
      2          8           0       -3.276679   -0.903352    0.077316
      3          6           0       -2.038697   -1.435168   -0.026416
      4          8           0       -1.813684   -2.617570   -0.124843
      5          6           0       -0.985068   -0.356580   -0.012161
      6          6           0       -1.342480    0.998631   -0.015344
      7          6           0       -0.315903    1.940999   -0.010810
      8         17           0       -0.690647    3.640585   -0.016888
      9          6           0        1.008236    1.514855    0.000221
     10          6           0        1.246591    0.135229    0.002965
     11          6           0        2.688134   -0.309732    0.016502
     12          8           0        3.606218    0.486691    0.045745
     13          8           0        2.811058   -1.638391   -0.001027
     14          6           0        4.133733   -2.189340    0.006629
     15          7           0        0.279571   -0.782635   -0.004554
     16          1           0       -4.257402   -2.557154    0.887561
     17          1           0       -5.265947   -1.259951    0.169183
     18          1           0       -4.367065   -2.405839   -0.876950
     19          1           0       -2.382099    1.296961   -0.021227
     20          1           0        1.840801    2.207087    0.007001
     21          1           0        4.321258   -2.631187    0.988734
     22          1           0        4.160908   -2.970497   -0.754855
     23          1           0        4.878860   -1.420654   -0.202310
 ---------------------------------------------------------------------
[...]
 Alpha  occ. eigenvalues --  -10.61552 -10.59331 -10.58979 -10.58526 -10.58315
 Alpha  occ. eigenvalues --   -9.82971  -7.55174  -7.54656  -7.54629  -1.24353
 Alpha  occ. eigenvalues --   -1.24293  -1.15143  -1.14962  -1.08876  -1.00042
 Alpha  occ. eigenvalues --   -0.91600  -0.89798  -0.84249  -0.82554  -0.76108
 Alpha  occ. eigenvalues --   -0.74633  -0.67011  -0.65775  -0.63428  -0.61021
 Alpha  occ. eigenvalues --   -0.58725  -0.58346  -0.57886  -0.57411  -0.56714
 Alpha  occ. eigenvalues --   -0.55496  -0.51826  -0.51516  -0.50073  -0.49357
 Alpha  occ. eigenvalues --   -0.47869  -0.47388  -0.46980  -0.44263  -0.43745
 Alpha  occ. eigenvalues --   -0.43661  -0.40096  -0.38724  -0.38709  -0.38430
 Alpha  occ. eigenvalues --   -0.36828  -0.35114  -0.34756  -0.34524
 Alpha virt. eigenvalues --   -0.04751  -0.04125   0.04853   0.05162   0.08026
 Alpha virt. eigenvalues --    0.08578   0.10336   0.10588   0.10995   0.12069
 Alpha virt. eigenvalues --    0.12726   0.13334   0.14701   0.15349   0.15665
 Alpha virt. eigenvalues --    0.16313   0.18274   0.18654   0.18721   0.20446
 Alpha virt. eigenvalues --    0.21336   0.22241   0.22707   0.24512   0.24527
 Alpha virt. eigenvalues --    0.25088   0.25792   0.26145   0.27398   0.28069
 Alpha virt. eigenvalues --    0.28251   0.28598   0.29330   0.30840   0.30845
 Alpha virt. eigenvalues --    0.31507   0.32368   0.33415   0.33980   0.34999
 Alpha virt. eigenvalues --    0.35481   0.36289   0.36781   0.38042   0.38226
 Alpha virt. eigenvalues --    0.38960   0.39861   0.39906   0.41096   0.41493
 Alpha virt. eigenvalues --    0.41970   0.42176   0.43277   0.44273   0.45638
 Alpha virt. eigenvalues --    0.45945   0.46495   0.47014   0.47714   0.49003
 Alpha virt. eigenvalues --    0.49733   0.50061   0.50636   0.50894   0.51460
 Alpha virt. eigenvalues --    0.52429   0.53411   0.53875   0.55218   0.55620
 Alpha virt. eigenvalues --    0.56919   0.56963   0.58938   0.59982   0.60854
 Alpha virt. eigenvalues --    0.61073   0.62317   0.63035   0.63337   0.64511
 Alpha virt. eigenvalues --    0.65262   0.65998   0.66261   0.66874   0.69078
 Alpha virt. eigenvalues --    0.69539   0.70351   0.70843   0.71069   0.72449
 Alpha virt. eigenvalues --    0.72945   0.74896   0.75776   0.77868   0.79136
 Alpha virt. eigenvalues --    0.79391   0.80878   0.82651   0.84079   0.84773
 Alpha virt. eigenvalues --    0.84860   0.85918   0.86627   0.88151   0.88175
 Alpha virt. eigenvalues --    0.89661   0.90587   0.92177   0.93477   0.95037
 Alpha virt. eigenvalues --    0.95637   0.95888   0.97786   0.98326   1.01168
 Alpha virt. eigenvalues --    1.01409   1.03491   1.03700   1.04973   1.05683
 Alpha virt. eigenvalues --    1.06984   1.07553   1.08959   1.11667   1.12489
 Alpha virt. eigenvalues --    1.12563   1.17373   1.18816   1.19110   1.23694
 Alpha virt. eigenvalues --    1.23973   1.26333   1.27974   1.28687   1.31340
 Alpha virt. eigenvalues --    1.32143   1.33430   1.34963   1.37720   1.39043
 Alpha virt. eigenvalues --    1.39493   1.41978   1.42678   1.44629   1.47025
 Alpha virt. eigenvalues --    1.48388   1.50318   1.50498   1.51392   1.51532
 Alpha virt. eigenvalues --    1.52235   1.52833   1.54694   1.55964   1.56367
 Alpha virt. eigenvalues --    1.57387   1.57537   1.57978   1.58200   1.60291
 Alpha virt. eigenvalues --    1.60465   1.62554   1.62996   1.65836   1.66104
 Alpha virt. eigenvalues --    1.66676   1.68506   1.70807   1.72796   1.73109
 Alpha virt. eigenvalues --    1.76220   1.77266   1.78671   1.79316   1.81334
 Alpha virt. eigenvalues --    1.81594   1.82483   1.83260   1.83879   1.85895
 Alpha virt. eigenvalues --    1.86237   1.86594   1.88172   1.90789   1.91232
 Alpha virt. eigenvalues --    1.92942   1.95993   1.96685   1.97125   1.97154
 Alpha virt. eigenvalues --    1.99603   2.00545   2.01275   2.01979   2.03290
 Alpha virt. eigenvalues --    2.03995   2.05447   2.05805   2.06143   2.07998
 Alpha virt. eigenvalues --    2.09878   2.10776   2.10805   2.11760   2.12246
 Alpha virt. eigenvalues --    2.13117   2.13389   2.15642   2.15842   2.16711
 Alpha virt. eigenvalues --    2.17373   2.18011   2.21355   2.21855   2.25049
 Alpha virt. eigenvalues --    2.26381   2.26798   2.27086   2.28031   2.30463
 Alpha virt. eigenvalues --    2.32208   2.33389   2.34534   2.34747   2.35555
 Alpha virt. eigenvalues --    2.38268   2.39315   2.39978   2.41252   2.42134
 Alpha virt. eigenvalues --    2.44118   2.44575   2.46033   2.46717   2.48568
 Alpha virt. eigenvalues --    2.52409   2.53664   2.54572   2.55230   2.55723
 Alpha virt. eigenvalues --    2.56038   2.57176   2.59047   2.62090   2.62598
 Alpha virt. eigenvalues --    2.64418   2.65525   2.66867   2.67825   2.70602
 Alpha virt. eigenvalues --    2.71010   2.72499   2.73117   2.76396   2.79615
 Alpha virt. eigenvalues --    2.80640   2.80795   2.81249   2.82000   2.82600
 Alpha virt. eigenvalues --    2.83121   2.85201   2.86095   2.87147   2.87746
 Alpha virt. eigenvalues --    2.91192   2.92216   2.92584   2.95216   2.96689
 Alpha virt. eigenvalues --    2.98080   3.00791   3.02006   3.02371   3.04653
 Alpha virt. eigenvalues --    3.05278   3.05640   3.06127   3.06877   3.08416
 Alpha virt. eigenvalues --    3.09712   3.10144   3.13095   3.13968   3.14929
 Alpha virt. eigenvalues --    3.16657   3.17203   3.18433   3.19545   3.19753
 Alpha virt. eigenvalues --    3.21061   3.21439   3.22697   3.22867   3.23158
 Alpha virt. eigenvalues --    3.24363   3.26477   3.28276   3.28414   3.29921
 Alpha virt. eigenvalues --    3.30075   3.30840   3.31315   3.31336   3.32530
 Alpha virt. eigenvalues --    3.33637   3.33872   3.36336   3.36467   3.38053
 Alpha virt. eigenvalues --    3.38187   3.39144   3.39645   3.42692   3.42772
 Alpha virt. eigenvalues --    3.44568   3.44896   3.47321   3.47889   3.48361
 Alpha virt. eigenvalues --    3.50048   3.51187   3.51196   3.53838   3.56919
 Alpha virt. eigenvalues --    3.57834   3.57931   3.58016   3.59534   3.60288
 Alpha virt. eigenvalues --    3.62803   3.64983   3.67968   3.70622   3.72886
 Alpha virt. eigenvalues --    3.75134   3.76167   3.77706   3.79778   3.83603
 Alpha virt. eigenvalues --    3.88312   3.93994   3.94644   3.97395   3.98890
 Alpha virt. eigenvalues --    4.00592   4.01859   4.02003   4.07006   4.09261
 Alpha virt. eigenvalues --    4.11869   4.13465   4.14115   4.17406   4.18536
 Alpha virt. eigenvalues --    4.22292   4.23870   4.25693   4.29890   4.31146
 Alpha virt. eigenvalues --    4.33083   4.33570   4.36268   4.37138   4.40274
 Alpha virt. eigenvalues --    4.41660   4.44457   4.48802   4.54555   4.54888
 Alpha virt. eigenvalues --    4.59270   4.62735   4.64174   4.65715   4.68249
 Alpha virt. eigenvalues --    4.75410   4.84888   4.85689   4.88665   4.90315
 Alpha virt. eigenvalues --    4.96413   4.99411   5.03689   5.07040   5.14664
 Alpha virt. eigenvalues --    5.16040   5.17669   5.17978   5.18466   5.24500
 Alpha virt. eigenvalues --    5.24612   5.28647   5.30422   5.32939   5.35310
 Alpha virt. eigenvalues --    5.38294   5.43929   5.48553   5.48621   5.49262
 Alpha virt. eigenvalues --    5.54181   5.60478   5.65366   5.66040   5.66094
 Alpha virt. eigenvalues --    5.73417   5.75768   5.83211   5.88238   5.93941
 Alpha virt. eigenvalues --    5.96591   5.96898   6.09382   6.10484   6.14553
 Alpha virt. eigenvalues --    6.16235   6.22805   6.30913   6.34462   6.34809
 Alpha virt. eigenvalues --    6.38745   6.39431   6.53262   6.55151   6.63115
 Alpha virt. eigenvalues --    6.63797   6.68520   6.69583   6.74174   6.74467
 Alpha virt. eigenvalues --    6.85648   6.86499   6.88970   6.90792   7.01529
 Alpha virt. eigenvalues --    7.03285   7.10789   7.12207   7.27942   7.29270
 Alpha virt. eigenvalues --    7.39907   7.42100  10.79835  10.88045  11.40294
 Alpha virt. eigenvalues --   22.41441  22.43561  22.49363  22.77870  22.80604
 Alpha virt. eigenvalues --   23.05208  23.28313  23.43327  23.49122  26.03042
 Alpha virt. eigenvalues --   32.77291  44.04494  44.06331  44.25953  44.31334
          Condensed to atoms (all electrons):
               1          2          3          4          5          6
     1  C    4.871310   0.205059  -0.052149   0.002381   0.009836  -0.001139
     2  O    0.205059   7.995524   0.396914  -0.084888  -0.187474   0.031461
     3  C   -0.052149   0.396914   4.499007   0.708914   0.260275  -0.055907
     4  O    0.002381  -0.084888   0.708914   7.785048  -0.098808   0.007517
     5  C    0.009836  -0.187474   0.260275  -0.098808   5.193510   0.362788
     6  C   -0.001139   0.031461  -0.055907   0.007517   0.362788   5.232450
     7  C   -0.000149   0.000495   0.002653  -0.000091  -0.018017   0.344709
     8  Cl  -0.000000   0.000002  -0.000384   0.000002   0.008276  -0.064566
     9  C    0.000012   0.000666   0.005302   0.000349  -0.068689   0.066367
    10  C   -0.000012  -0.001021  -0.009437  -0.001664  -0.053068  -0.086109
    11  C   -0.000004  -0.000017  -0.003214  -0.000163  -0.005512   0.004698
    12  O    0.000000  -0.000000  -0.000038  -0.000000  -0.000723   0.000225
    13  O    0.000000   0.000000  -0.000021  -0.000031  -0.001246   0.000131
    14  C   -0.000000   0.000000   0.000006   0.000001  -0.000021   0.000025
    15  N   -0.000274   0.001968  -0.055462  -0.011988   0.518912  -0.084881
    16  H    0.419129  -0.032849  -0.008014   0.003577  -0.002041   0.000471
    17  H    0.398450  -0.030900   0.003584   0.001603   0.004083  -0.001332
    18  H    0.419068  -0.032886  -0.008054   0.003641  -0.002006   0.000471
    19  H   -0.000144   0.013054  -0.009252   0.000426  -0.005822   0.395735
    20  H    0.000000  -0.000001   0.000191  -0.000000  -0.000262   0.008171
    21  H   -0.000000  -0.000000  -0.000001  -0.000000   0.000002   0.000000
    22  H    0.000000   0.000000   0.000009  -0.000000  -0.000012  -0.000000
    23  H   -0.000000  -0.000000  -0.000001  -0.000000   0.000002   0.000000
               7          8          9         10         11         12
     1  C   -0.000149  -0.000000   0.000012  -0.000012  -0.000004   0.000000
     2  O    0.000495   0.000002   0.000666  -0.001021  -0.000017  -0.000000
     3  C    0.002653  -0.000384   0.005302  -0.009437  -0.003214  -0.000038
     4  O   -0.000091   0.000002   0.000349  -0.001664  -0.000163  -0.000000
     5  C   -0.018017   0.008276  -0.068689  -0.053068  -0.005512  -0.000723
     6  C    0.344709  -0.064566   0.066367  -0.086109   0.004698   0.000225
     7  C    4.958575   0.355862   0.350555  -0.008144   0.001723   0.006457
     8  Cl   0.355862  16.813499  -0.067097   0.008331  -0.000709   0.000023
     9  C    0.350555  -0.067097   5.250048   0.364844  -0.080462   0.028178
    10  C   -0.008144   0.008331   0.364844   5.182004   0.280986  -0.149787
    11  C    0.001723  -0.000709  -0.080462   0.280986   4.492538   0.660159
    12  O    0.006457   0.000023   0.028178  -0.149787   0.660159   7.869490
    13  O    0.000225   0.000001   0.010885  -0.108313   0.421537  -0.077220
    14  C   -0.000047  -0.000001  -0.000773   0.008821  -0.054565   0.000514
    15  N   -0.001672  -0.000493  -0.082794   0.477109  -0.036223   0.003586
    16  H    0.000019  -0.000000   0.000002  -0.000012  -0.000000   0.000000
    17  H   -0.000062  -0.000001  -0.000007   0.000011   0.000000  -0.000000
    18  H    0.000018  -0.000000   0.000002  -0.000012  -0.000000   0.000000
    19  H   -0.049586   0.000890   0.010115  -0.000974   0.000171  -0.000003
    20  H   -0.037122   0.000561   0.388803  -0.005345  -0.012342   0.013224
    21  H   -0.000000   0.000000  -0.000009  -0.002427  -0.008662   0.004166
    22  H   -0.000006  -0.000000  -0.000019   0.002948   0.003821   0.001492
    23  H   -0.000000   0.000000  -0.000008  -0.002437  -0.008656   0.004167
              13         14         15         16         17         18
     1  C    0.000000  -0.000000  -0.000274   0.419129   0.398450   0.419068
     2  O    0.000000   0.000000   0.001968  -0.032849  -0.030900  -0.032886
     3  C   -0.000021   0.000006  -0.055462  -0.008014   0.003584  -0.008054
     4  O   -0.000031   0.000001  -0.011988   0.003577   0.001603   0.003641
     5  C   -0.001246  -0.000021   0.518912  -0.002041   0.004083  -0.002006
     6  C    0.000131   0.000025  -0.084881   0.000471  -0.001332   0.000471
     7  C    0.000225  -0.000047  -0.001672   0.000019  -0.000062   0.000018
     8  Cl   0.000001  -0.000001  -0.000493  -0.000000  -0.000001  -0.000000
     9  C    0.010885  -0.000773  -0.082794   0.000002  -0.000007   0.000002
    10  C   -0.108313   0.008821   0.477109  -0.000012   0.000011  -0.000012
    11  C    0.421537  -0.054565  -0.036223  -0.000000   0.000000  -0.000000
    12  O   -0.077220   0.000514   0.003586   0.000000  -0.000000   0.000000
    13  O    7.892397   0.207076  -0.017437  -0.000000   0.000000  -0.000000
    14  C    0.207076   4.881052  -0.000344  -0.000000   0.000000  -0.000000
    15  N   -0.017437  -0.000344   6.478823  -0.000046   0.000031  -0.000047
    16  H   -0.000000  -0.000000  -0.000046   0.518952  -0.023381  -0.039444
    17  H    0.000000   0.000000   0.000031  -0.023381   0.513252  -0.023377
    18  H   -0.000000  -0.000000  -0.000047  -0.039444  -0.023377   0.518992
    19  H   -0.000001   0.000000   0.004028   0.000115  -0.000327   0.000116
    20  H    0.000622  -0.000164   0.004081   0.000000  -0.000000   0.000000
    21  H   -0.032493   0.418730  -0.000100   0.000000  -0.000000   0.000000
    22  H   -0.029872   0.398053  -0.000087  -0.000000   0.000000  -0.000000
    23  H   -0.032490   0.418722  -0.000099   0.000000  -0.000000   0.000000
              19         20         21         22         23
     1  C   -0.000144   0.000000  -0.000000   0.000000  -0.000000
     2  O    0.013054  -0.000001  -0.000000   0.000000  -0.000000
     3  C   -0.009252   0.000191  -0.000001   0.000009  -0.000001
     4  O    0.000426  -0.000000  -0.000000  -0.000000  -0.000000
     5  C   -0.005822  -0.000262   0.000002  -0.000012   0.000002
     6  C    0.395735   0.008171   0.000000  -0.000000   0.000000
     7  C   -0.049586  -0.037122  -0.000000  -0.000006  -0.000000
     8  Cl   0.000890   0.000561   0.000000  -0.000000   0.000000
     9  C    0.010115   0.388803  -0.000009  -0.000019  -0.000008
    10  C   -0.000974  -0.005345  -0.002427   0.002948  -0.002437
    11  C    0.000171  -0.012342  -0.008662   0.003821  -0.008656
    12  O   -0.000003   0.013224   0.004166   0.001492   0.004167
    13  O   -0.000001   0.000622  -0.032493  -0.029872  -0.032490
    14  C    0.000000  -0.000164   0.418730   0.398053   0.418722
    15  N    0.004028   0.004081  -0.000100  -0.000087  -0.000099
    16  H    0.000115   0.000000   0.000000  -0.000000   0.000000
    17  H   -0.000327  -0.000000  -0.000000   0.000000  -0.000000
    18  H    0.000116   0.000000   0.000000  -0.000000   0.000000
    19  H    0.445174   0.000049   0.000000   0.000000   0.000000
    20  H    0.000049   0.434905  -0.000016   0.000002  -0.000016
    21  H    0.000000  -0.000016   0.523119  -0.022267  -0.041246
    22  H    0.000000   0.000002  -0.022267   0.504817  -0.022267
    23  H    0.000000  -0.000016  -0.041246  -0.022267   0.523129
 Mulliken charges:
               1
     1  C   -0.271373
     2  O   -0.275107
     3  C    0.325080
     4  O   -0.315827
     5  C    0.086015
     6  C   -0.161287
     7  C    0.093607
     8  Cl  -0.054198
     9  C   -0.176272
    10  C    0.103706
    11  C    0.344897
    12  O   -0.363911
    13  O   -0.233751
    14  C   -0.277086
    15  N   -0.196591
    16  H    0.163524
    17  H    0.158372
    18  H    0.163518
    19  H    0.196235
    20  H    0.204659
    21  H    0.161203
    22  H    0.163387
    23  H    0.161199
 Sum of Mulliken charges =  -0.00000
 Mulliken charges with hydrogens summed into heavy atoms:
               1
     1  C    0.214041
     2  O   -0.275107
     3  C    0.325080
     4  O   -0.315827
     5  C    0.086015
     6  C    0.034948
     7  C    0.093607
     8  Cl  -0.054198
     9  C    0.028387
    10  C    0.103706
    11  C    0.344897
    12  O   -0.363911
    13  O   -0.233751
    14  C    0.208705
    15  N   -0.196591
 Electronic spatial extent (au):  <R**2>=           4480.5730
 Charge=              0.0000 electrons
 Dipole moment (field-independent basis, Debye):
    X=             -2.1789    Y=              0.6442    Z=             -0.0000  Tot=              2.2721
 Quadrupole moment (field-independent basis, Debye-Ang):
   XX=            -73.9601   YY=            -97.3521   ZZ=            -91.3282
   XY=             -6.2187   XZ=             -0.0042   YZ=             -0.0052
 Traceless Quadrupole moment (field-independent basis, Debye-Ang):
   XX=             13.5867   YY=             -9.8053   ZZ=             -3.7814
   XY=             -6.2187   XZ=             -0.0042   YZ=             -0.0052
 Octapole moment (field-independent basis, Debye-Ang**2):
  XXX=            -66.1926  YYY=              7.9409  ZZZ=              0.0058  XYY=             18.8588
  XXY=            -76.8152  XXZ=             -0.0198  XZZ=              1.7219  YZZ=             -6.7761
  YYZ=              0.0098  XYZ=              0.0088
 Hexadecapole moment (field-independent basis, Debye-Ang**3):
 XXXX=          -2974.2829 YYYY=          -2162.2535 ZZZZ=           -104.1307 XXXY=            -73.9479
 XXXZ=             -0.0559 YYYX=            -65.2155 YYYZ=             -0.0090 ZZZX=             -0.0163
 ZZZY=             -0.0093 XXYY=           -787.8255 XXZZ=           -574.7081 YYZZ=           -376.6438
 XXYZ=             -0.0474 YYXZ=             -0.0291 ZZXY=              6.0946
 N-N= 1.050549858468D+03 E-N=-4.840500781133D+03  KE= 1.159717964146D+03
 Calculating spin-rotation constants.
 Leave Link  601 at Tue Sep 17 11:25:24 2024, MaxMem=  1342177280 cpu:               8.8 elap:               8.9
 (Enter /groups/ReismanLab/Software/Gaussian16_RevC/Linux_Binary_AVX2-enabled-CPU/g16/l9999.exe)
 Unable to Open any file for archive entry.
 1\1\GINC-HPC-81-18\SP\RM062X\def2TZVP\C9H8Cl1N1O4\MANTIND\17-Sep-2024\
 0\\#p M062X/def2tzvp geom=check guess=read scf(xqc,tight) integral(gri
 d=ultrafine) scrf(SMD, solvent=1,4-Dioxane) nmr=giao\\spe\\0,1\C,0,4.5
 757503527,-1.3450984322,0.0159730904\O,0,3.3878104492,-0.5374338669,-0
 .0188392216\C,0,2.2270301293,-1.2318338013,0.0176829949\O,0,2.16220309
 14,-2.4361168134,0.0749514879\C,0,1.0406504034,-0.3039088845,-0.022454
 7319\C,0,1.2144714138,1.0838937584,-0.0878316152\C,0,0.0704662071,1.87
 56609729,-0.1216905002\Cl,0,0.2170606643,3.6148419235,-0.2033861573\C,
 0,-1.1846469402,1.2823438871,-0.0905145183\C,0,-1.2338454498,-0.115345
 0951,-0.0250005949\C,0,-2.5988928749,-0.7482729581,0.0083255484\O,0,-3
 .6243744851,-0.0952238794,-0.0197745187\O,0,-2.5505903967,-2.081737097
 9,0.0710632555\C,0,-3.8308493996,-2.7341390135,0.1051582632\N,0,-0.155
 3646774,-0.899361968,0.0087084053\H,0,4.6030080654,-2.0196075109,-0.84
 28128254\H,0,5.4087964336,-0.6442411238,-0.0171576873\H,0,4.6057388196
 ,-1.939209503,0.9321020577\H,0,2.204326394,1.5177747875,-0.1108590336\
 H,0,-2.1024419982,1.8550315761,-0.1148317428\H,0,-4.4041642306,-2.4972
 727995,-0.7941635635\H,0,-3.6118786041,-3.7995145414,0.1548082349\H,0,
 -4.3995471976,-2.4136055537,0.9811864392\\Version=ES64L-G16RevC.02\Sta
 te=1-A\HF=-1163.6433502\RMSD=3.900e-09\Dipole=0.8183716,0.3591859,-0.0
 191133\Quadrupole=8.6656225,-5.8491344,-2.8164881,6.6455776,-0.3470169
 ,0.1269261\PG=C01 [X(C9H8Cl1N1O4)]\\@
 The archive entry for this job was punched.


 THE FIRST AND LAST THING REQUIRED OF GENIUS IS THE LOVE OF TRUTH.

                          -- GOETHE
 Job cpu time:       0 days  0 hours 26 minutes  2.1 seconds.
 Elapsed time:       0 days  0 hours 26 minutes  8.6 seconds.
 File lengths (MBytes):  RWF=    352 Int=      0 D2E=      0 Chk=     32 Scr=     16
 Normal termination of Gaussian 16 at Tue Sep 17 11:25:24 2024.
