 Entering Gaussian System, Link 0=g16
 Input=smiles_00058_conf_4.gjf
 Output=smiles_00058_conf_4.log
 Initial command:
 /groups/ReismanLab/Software/Gaussian16_RevC/Linux_Binary_AVX2-enabled-CPU/g16/l1.exe "/central/groups/ReismanLab/DM/dft_final/smiles_00058/Gau-926736.inp" -scrdir="/central/groups/ReismanLab/DM/dft_final/smiles_00058/"
 Entering Link 1 = /groups/ReismanLab/Software/Gaussian16_RevC/Linux_Binary_AVX2-enabled-CPU/g16/l1.exe PID=    926737.
  
 Copyright (c) 1988-2021, Gaussian, Inc.  All Rights Reserved.
  
 This is part of the Gaussian(R) 16 program.  It is based on
 the Gaussian(R) 09 system (copyright 2009, Gaussian, Inc.),
 the Gaussian(R) 03 system (copyright 2003, Gaussian, Inc.),
 the Gaussian(R) 98 system (copyright 1998, Gaussian, Inc.),
 the Gaussian(R) 94 system (copyright 1995, Gaussian, Inc.),
 the Gaussian 92(TM) system (copyright 1992, Gaussian, Inc.),
 the Gaussian 90(TM) system (copyright 1990, Gaussian, Inc.),
 the Gaussian 88(TM) system (copyright 1988, Gaussian, Inc.),
 the Gaussian 86(TM) system (copyright 1986, Carnegie Mellon
 University), and the Gaussian 82(TM) system (copyright 1983,
 Carnegie Mellon University). Gaussian is a federally registered
 trademark of Gaussian, Inc.
  
 This software contains proprietary and confidential information,
 including trade secrets, belonging to Gaussian, Inc.
  
 This software is provided under written license and may be
 used, copied, transmitted, or stored only in accord with that
 written license.
  
 The following legend is applicable only to US Government
 contracts under FAR:
  
                    RESTRICTED RIGHTS LEGEND
  
 Use, reproduction and disclosure by the US Government is
 subject to restrictions as set forth in subparagraphs (a)
 and (c) of the Commercial Computer Software - Restricted
 Rights clause in FAR 52.227-19.
  
 Gaussian, Inc.
 340 Quinnipiac St., Bldg. 40, Wallingford CT 06492
  
  
 ---------------------------------------------------------------
 Warning -- This program may not be used in any manner that
 competes with the business of Gaussian, Inc. or will provide
 assistance to any competitor of Gaussian, Inc.  The licensee
 of this program is prohibited from giving any competitor of
 Gaussian, Inc. access to this program.  By using this program,
 the user acknowledges that Gaussian, Inc. is engaged in the
 business of creating and licensing software in the field of
 computational chemistry and represents and warrants to the
 licensee that it is not a competitor of Gaussian, Inc. and that
 it will not use this program in any manner prohibited above.
 ---------------------------------------------------------------
  

 Cite this work as:
 Gaussian 16, Revision C.02,
 M. J. Frisch, G. W. Trucks, H. B. Schlegel, G. E. Scuseria, 
 M. A. Robb, J. R. Cheeseman, G. Scalmani, V. Barone, 
 G. A. Petersson, H. Nakatsuji, X. Li, M. Caricato, A. V. Marenich, 
 J. Bloino, B. G. Janesko, R. Gomperts, B. Mennucci, H. P. Hratchian, 
 J. V. Ortiz, A. F. Izmaylov, J. L. Sonnenberg, D. Williams-Young, 
 F. Ding, F. Lipparini, F. Egidi, J. Goings, B. Peng, A. Petrone, 
 T. Henderson, D. Ranasinghe, V. G. Zakrzewski, J. Gao, N. Rega, 
 G. Zheng, W. Liang, M. Hada, M. Ehara, K. Toyota, R. Fukuda, 
 J. Hasegawa, M. Ishida, T. Nakajima, Y. Honda, O. Kitao, H. Nakai, 
 T. Vreven, K. Throssell, J. A. Montgomery, Jr., J. E. Peralta, 
 F. Ogliaro, M. J. Bearpark, J. J. Heyd, E. N. Brothers, K. N. Kudin, 
 V. N. Staroverov, T. A. Keith, R. Kobayashi, J. Normand, 
 K. Raghavachari, A. P. Rendell, J. C. Burant, S. S. Iyengar, 
 J. Tomasi, M. Cossi, J. M. Millam, M. Klene, C. Adamo, R. Cammi, 
 J. W. Ochterski, R. L. Martin, K. Morokuma, O. Farkas, 
 J. B. Foresman, and D. J. Fox, Gaussian, Inc., Wallingford CT, 2019.
 
 ******************************************
 Gaussian 16:  ES64L-G16RevC.02  7-Dec-2021
                17-Sep-2024 
 ******************************************
 %nprocshared=8
 Will use up to    8 processors via shared memory.
 %Mem=10GB
 %Chk=smiles_00058_conf_4.chk
 ----------------------------------------------------------------------
 #p B3LYP/6-31G(d,p) EmpiricalDispersion=GD3BJ opt freq scf(xqc,tight) 
 integral(grid=ultrafine)
 ----------------------------------------------------------------------
 1/18=20,19=15,26=4,38=1/1,3;
 2/9=110,12=2,17=6,18=5,40=1/2;
 3/5=1,6=6,7=101,11=2,25=1,30=1,71=1,74=-5,75=-5,124=41/1,2,3;
 4//1;
 5/5=2,8=3,13=1,32=2,38=5/2,8;
 6/7=2,8=2,9=2,10=2,28=1/1;
 7//1,2,3,16;
 1/18=20,19=15,26=4/3(2);
 2/9=110/2;
 99//99;
 2/9=110/2;
 3/5=1,6=6,7=101,11=2,25=1,30=1,71=1,74=-5,75=-5,124=41/1,2,3;
 4/5=5,16=3,69=1/1;
 5/5=2,8=3,13=1,32=2,38=5/2,8;
 7//1,2,3,16;
 1/18=20,19=15,26=4/3(-5);
 2/9=110/2;
 6/7=2,8=2,9=2,10=2,19=2,28=1/1;
 99/9=1/99;
 Leave Link    1 at Tue Sep 17 09:42:02 2024, MaxMem=  1342177280 cpu:               0.1 elap:               0.5
 (Enter /groups/ReismanLab/Software/Gaussian16_RevC/Linux_Binary_AVX2-enabled-CPU/g16/l101.exe)
 ----------------------------------
 opt-freq conformers_unique/conf_ae
 ----------------------------------
 Symbolic Z-matrix:
 Charge =  0 Multiplicity = 1
 C                     1.66127  -2.85099  -0.47787 
 O                     2.71357  -1.99701  -0.06255 
 C                     2.58358  -0.70034   0.18012 
 O                     3.55776  -0.06244   0.49448 
 C                     1.24629  -0.00987   0.06605 
 C                     1.26231   1.3859    0.00716 
 C                     0.04918   2.05311  -0.06031 
 Cl                    0.00282   3.76921  -0.1433 
 C                    -1.12988   1.3196   -0.05625 
 C                    -1.02821  -0.06671   0.01362 
 C                    -2.28112  -0.88649   0.0247 
 O                    -3.38703  -0.40979  -0.02254 
 O                    -2.02583  -2.18898   0.08968 
 C                    -3.16058  -3.04484   0.1069 
 N                     0.12635  -0.7133    0.06895 
 H                     0.92127  -2.97983   0.31162 
 H                     1.16337  -2.46896  -1.36984 
 H                     2.14485  -3.80163  -0.70111 
 H                     2.20676   1.90583   0.02217 
 H                    -2.10136   1.78467  -0.10259 
 H                    -2.77458  -4.05988   0.14535 
 H                    -3.78057  -2.83543   0.98097 
 H                    -3.76248  -2.89517  -0.79177 
 
 ITRead=  0  0  0  0  0  0  0  0  0  0  0  0  0  0  0  0  0  0  0  0
 ITRead=  0  0  0
 MicOpt= -1 -1 -1 -1 -1 -1 -1 -1 -1 -1 -1 -1 -1 -1 -1 -1 -1 -1 -1 -1
 MicOpt= -1 -1 -1
 NAtoms=     23 NQM=       23 NQMF=       0 NMMI=      0 NMMIF=      0
                NMic=       0 NMicF=      0.
                    Isotopes and Nuclear Properties:
 (Nuclear quadrupole moments (NQMom) in fm**2, nuclear magnetic moments (NMagM)
  in nuclear magnetons)

  Atom         1           2           3           4           5           6           7           8           9          10
 IAtWgt=          12          16          12          16          12          12          12          35          12          12
 AtmWgt=  12.0000000  15.9949146  12.0000000  15.9949146  12.0000000  12.0000000  12.0000000  34.9688527  12.0000000  12.0000000
 NucSpn=           0           0           0           0           0           0           0           3           0           0
 AtZEff=  -0.0000000  -0.0000000  -0.0000000  -0.0000000  -0.0000000  -0.0000000  -0.0000000  -0.0000000  -0.0000000  -0.0000000
 NQMom=    0.0000000   0.0000000   0.0000000   0.0000000   0.0000000   0.0000000   0.0000000  -8.1650000   0.0000000   0.0000000
 NMagM=    0.0000000   0.0000000   0.0000000   0.0000000   0.0000000   0.0000000   0.0000000   0.8218740   0.0000000   0.0000000
 AtZNuc=   6.0000000   8.0000000   6.0000000   8.0000000   6.0000000   6.0000000   6.0000000  17.0000000   6.0000000   6.0000000

  Atom        11          12          13          14          15          16          17          18          19          20
 IAtWgt=          12          16          16          12          14           1           1           1           1           1
 AtmWgt=  12.0000000  15.9949146  15.9949146  12.0000000  14.0030740   1.0078250   1.0078250   1.0078250   1.0078250   1.0078250
 NucSpn=           0           0           0           0           2           1           1           1           1           1
 AtZEff=  -0.0000000  -0.0000000  -0.0000000  -0.0000000  -0.0000000  -0.0000000  -0.0000000  -0.0000000  -0.0000000  -0.0000000
 NQMom=    0.0000000   0.0000000   0.0000000   0.0000000   2.0440000   0.0000000   0.0000000   0.0000000   0.0000000   0.0000000
 NMagM=    0.0000000   0.0000000   0.0000000   0.0000000   0.4037610   2.7928460   2.7928460   2.7928460   2.7928460   2.7928460
 AtZNuc=   6.0000000   8.0000000   8.0000000   6.0000000   7.0000000   1.0000000   1.0000000   1.0000000   1.0000000   1.0000000

  Atom        21          22          23
 IAtWgt=           1           1           1
 AtmWgt=   1.0078250   1.0078250   1.0078250
 NucSpn=           1           1           1
 AtZEff=  -0.0000000  -0.0000000  -0.0000000
 NQMom=    0.0000000   0.0000000   0.0000000
 NMagM=    2.7928460   2.7928460   2.7928460
 AtZNuc=   1.0000000   1.0000000   1.0000000
 Leave Link  101 at Tue Sep 17 09:42:02 2024, MaxMem=  1342177280 cpu:               0.3 elap:               0.3
 (Enter /groups/ReismanLab/Software/Gaussian16_RevC/Linux_Binary_AVX2-enabled-CPU/g16/l103.exe)

 GradGradGradGradGradGradGradGradGradGradGradGradGradGradGradGradGradGrad
 Berny optimization.
 Initialization pass.
                           ----------------------------
                           !    Initial Parameters    !
                           ! (Angstroms and Degrees)  !
 --------------------------                            --------------------------
 ! Name  Definition              Value          Derivative Info.                !
 --------------------------------------------------------------------------------
 ! R1    R(1,2)                  1.4174         estimate D2E/DX2                !
 ! R2    R(1,16)                 1.0897         estimate D2E/DX2                !
 ! R3    R(1,17)                 1.0906         estimate D2E/DX2                !
 ! R4    R(1,18)                 1.0897         estimate D2E/DX2                !
 ! R5    R(2,3)                  1.3256         estimate D2E/DX2                !
 ! R6    R(3,4)                  1.2061         estimate D2E/DX2                !
 ! R7    R(3,5)                  1.5093         estimate D2E/DX2                !
 ! R8    R(5,6)                  1.3971         estimate D2E/DX2                !
 ! R9    R(5,15)                 1.3225         estimate D2E/DX2                !
 ! R10   R(6,7)                  1.3861         estimate D2E/DX2                !
 ! R11   R(6,19)                 1.0782         estimate D2E/DX2                !
 ! R12   R(7,8)                  1.7187         estimate D2E/DX2                !
 ! R13   R(7,9)                  1.3886         estimate D2E/DX2                !
 ! R14   R(9,10)                 1.3918         estimate D2E/DX2                !
 ! R15   R(9,20)                 1.0781         estimate D2E/DX2                !
 ! R16   R(10,11)                1.4973         estimate D2E/DX2                !
 ! R17   R(10,15)                1.3244         estimate D2E/DX2                !
 ! R18   R(11,12)                1.2052         estimate D2E/DX2                !
 ! R19   R(11,13)                1.3289         estimate D2E/DX2                !
 ! R20   R(13,14)                1.4214         estimate D2E/DX2                !
 ! R21   R(14,21)                1.0866         estimate D2E/DX2                !
 ! R22   R(14,22)                1.0919         estimate D2E/DX2                !
 ! R23   R(14,23)                1.0919         estimate D2E/DX2                !
 ! A1    A(2,1,16)             111.2903         estimate D2E/DX2                !
 ! A2    A(2,1,17)             111.5633         estimate D2E/DX2                !
 ! A3    A(2,1,18)             104.843          estimate D2E/DX2                !
 ! A4    A(16,1,17)            108.9003         estimate D2E/DX2                !
 ! A5    A(16,1,18)            110.2819         estimate D2E/DX2                !
 ! A6    A(17,1,18)            109.9155         estimate D2E/DX2                !
 ! A7    A(1,2,3)              124.7628         estimate D2E/DX2                !
 ! A8    A(2,3,4)              119.0685         estimate D2E/DX2                !
 ! A9    A(2,3,5)              121.3688         estimate D2E/DX2                !
 ! A10   A(4,3,5)              119.5623         estimate D2E/DX2                !
 ! A11   A(3,5,6)              116.7473         estimate D2E/DX2                !
 ! A12   A(3,5,15)             120.4511         estimate D2E/DX2                !
 ! A13   A(6,5,15)             122.7637         estimate D2E/DX2                !
 ! A14   A(5,6,7)              118.2227         estimate D2E/DX2                !
 ! A15   A(5,6,19)             119.42           estimate D2E/DX2                !
 ! A16   A(7,6,19)             122.3559         estimate D2E/DX2                !
 ! A17   A(6,7,8)              120.4352         estimate D2E/DX2                !
 ! A18   A(6,7,9)              119.2559         estimate D2E/DX2                !
 ! A19   A(8,7,9)              120.3086         estimate D2E/DX2                !
 ! A20   A(7,9,10)             117.6629         estimate D2E/DX2                !
 ! A21   A(7,9,20)             122.4898         estimate D2E/DX2                !
 ! A22   A(10,9,20)            119.8472         estimate D2E/DX2                !
 ! A23   A(9,10,11)            118.9858         estimate D2E/DX2                !
 ! A24   A(9,10,15)            123.5083         estimate D2E/DX2                !
 ! A25   A(11,10,15)           117.5058         estimate D2E/DX2                !
 ! A26   A(10,11,12)           123.4346         estimate D2E/DX2                !
 ! A27   A(10,11,13)           112.1015         estimate D2E/DX2                !
 ! A28   A(12,11,13)           124.4638         estimate D2E/DX2                !
 ! A29   A(11,13,14)           115.9376         estimate D2E/DX2                !
 ! A30   A(13,14,21)           106.2178         estimate D2E/DX2                !
 ! A31   A(13,14,22)           110.3352         estimate D2E/DX2                !
 ! A32   A(13,14,23)           110.3379         estimate D2E/DX2                !
 ! A33   A(21,14,22)           110.6417         estimate D2E/DX2                !
 ! A34   A(21,14,23)           110.6692         estimate D2E/DX2                !
 ! A35   A(22,14,23)           108.6356         estimate D2E/DX2                !
 ! A36   A(5,15,10)            118.5835         estimate D2E/DX2                !
 ! D1    D(16,1,2,3)           -67.6882         estimate D2E/DX2                !
 ! D2    D(17,1,2,3)            54.1695         estimate D2E/DX2                !
 ! D3    D(18,1,2,3)           173.0931         estimate D2E/DX2                !
 ! D4    D(1,2,3,4)           -178.0193         estimate D2E/DX2                !
 ! D5    D(1,2,3,5)              1.7612         estimate D2E/DX2                !
 ! D6    D(2,3,5,6)           -164.3333         estimate D2E/DX2                !
 ! D7    D(2,3,5,15)            17.8435         estimate D2E/DX2                !
 ! D8    D(4,3,5,6)             15.446          estimate D2E/DX2                !
 ! D9    D(4,3,5,15)          -162.3771         estimate D2E/DX2                !
 ! D10   D(3,5,6,7)           -178.2331         estimate D2E/DX2                !
 ! D11   D(3,5,6,19)             1.357          estimate D2E/DX2                !
 ! D12   D(15,5,6,7)            -0.4648         estimate D2E/DX2                !
 ! D13   D(15,5,6,19)          179.1254         estimate D2E/DX2                !
 ! D14   D(3,5,15,10)          177.6921         estimate D2E/DX2                !
 ! D15   D(6,5,15,10)            0.0039         estimate D2E/DX2                !
 ! D16   D(5,6,7,8)           -179.6734         estimate D2E/DX2                !
 ! D17   D(5,6,7,9)              0.5106         estimate D2E/DX2                !
 ! D18   D(19,6,7,8)             0.7492         estimate D2E/DX2                !
 ! D19   D(19,6,7,9)          -179.0668         estimate D2E/DX2                !
 ! D20   D(6,7,9,10)            -0.1309         estimate D2E/DX2                !
 ! D21   D(6,7,9,20)           179.736          estimate D2E/DX2                !
 ! D22   D(8,7,9,10)          -179.9472         estimate D2E/DX2                !
 ! D23   D(8,7,9,20)            -0.0803         estimate D2E/DX2                !
 ! D24   D(7,9,10,11)          179.7897         estimate D2E/DX2                !
 ! D25   D(7,9,10,15)           -0.3521         estimate D2E/DX2                !
 ! D26   D(20,9,10,11)          -0.0808         estimate D2E/DX2                !
 ! D27   D(20,9,10,15)         179.7774         estimate D2E/DX2                !
 ! D28   D(9,10,11,12)          -0.0819         estimate D2E/DX2                !
 ! D29   D(9,10,11,13)         179.7984         estimate D2E/DX2                !
 ! D30   D(15,10,11,12)       -179.9486         estimate D2E/DX2                !
 ! D31   D(15,10,11,13)         -0.0683         estimate D2E/DX2                !
 ! D32   D(9,10,15,5)            0.4171         estimate D2E/DX2                !
 ! D33   D(11,10,15,5)        -179.7228         estimate D2E/DX2                !
 ! D34   D(10,11,13,14)        179.9108         estimate D2E/DX2                !
 ! D35   D(12,11,13,14)         -0.2104         estimate D2E/DX2                !
 ! D36   D(11,13,14,21)        179.131          estimate D2E/DX2                !
 ! D37   D(11,13,14,22)        -60.9132         estimate D2E/DX2                !
 ! D38   D(11,13,14,23)         59.1408         estimate D2E/DX2                !
 --------------------------------------------------------------------------------
 Trust Radius=3.00D-01 FncErr=1.00D-07 GrdErr=1.00D-06 EigMax=2.50D+02 EigMin=1.00D-04
 Number of steps in this run=    107 maximum allowed number of steps=    138.
 GradGradGradGradGradGradGradGradGradGradGradGradGradGradGradGradGradGrad

 Leave Link  103 at Tue Sep 17 09:42:02 2024, MaxMem=  1342177280 cpu:               0.0 elap:               0.0
 (Enter /groups/ReismanLab/Software/Gaussian16_RevC/Linux_Binary_AVX2-enabled-CPU/g16/l202.exe)
                          Input orientation:                          
 ---------------------------------------------------------------------
 Center     Atomic      Atomic             Coordinates (Angstroms)
 Number     Number       Type             X           Y           Z
 ---------------------------------------------------------------------
      1          6           0        1.661269   -2.850990   -0.477874
      2          8           0        2.713574   -1.997014   -0.062553
      3          6           0        2.583578   -0.700341    0.180118
      4          8           0        3.557756   -0.062439    0.494478
      5          6           0        1.246290   -0.009872    0.066048
      6          6           0        1.262307    1.385899    0.007157
      7          6           0        0.049183    2.053106   -0.060308
      8         17           0        0.002819    3.769213   -0.143300
      9          6           0       -1.129883    1.319599   -0.056248
     10          6           0       -1.028209   -0.066706    0.013616
     11          6           0       -2.281118   -0.886494    0.024698
     12          8           0       -3.387033   -0.409792   -0.022544
     13          8           0       -2.025830   -2.188980    0.089677
     14          6           0       -3.160579   -3.044840    0.106896
     15          7           0        0.126355   -0.713301    0.068954
     16          1           0        0.921271   -2.979827    0.311615
     17          1           0        1.163367   -2.468965   -1.369843
     18          1           0        2.144846   -3.801628   -0.701114
     19          1           0        2.206761    1.905828    0.022171
     20          1           0       -2.101363    1.784672   -0.102588
     21          1           0       -2.774581   -4.059878    0.145350
     22          1           0       -3.780573   -2.835426    0.980968
     23          1           0       -3.762477   -2.895174   -0.791774
 ---------------------------------------------------------------------
                    Distance matrix (angstroms):
                    1          2          3          4          5
     1  C    0.000000
     2  O    1.417432   0.000000
     3  C    2.430822   1.325575   0.000000
     4  O    3.509723   2.183004   1.206137   0.000000
     5  C    2.922329   2.473498   1.509337   2.351423   0.000000
     6  C    4.283183   3.681731   2.475494   2.757581   1.397105
     7  C    5.179126   4.847934   3.749991   4.134417   2.388496
     8  Cl   6.832970   6.372134   5.171250   5.265538   3.983909
     9  C    5.036081   5.076625   4.233889   4.918057   2.725555
    10  C    3.902190   4.211037   3.670724   4.611109   2.275813
    11  C    4.433310   5.117403   4.870736   5.915421   3.634939
    12  O    5.626022   6.303830   5.981110   6.972665   4.651394
    13  O    3.788809   4.745733   4.844674   5.988529   3.931392
    14  C    4.861044   5.969282   6.204625   7.360772   5.351000
    15  N    2.687880   2.891180   2.459770   3.518410   1.322526
    16  H    1.089719   2.078045   2.824289   3.936451   2.997761
    17  H    1.090622   2.082039   2.747254   3.873004   2.848823
    18  H    1.089677   1.996959   3.253772   4.172205   3.971568
    19  H    4.814035   3.936523   2.638003   2.433585   2.143441
    20  H    5.982274   6.122612   5.310733   5.982803   3.802053
    21  H    4.639675   5.866727   6.324363   7.496660   5.707560
    22  H    5.634012   6.630672   6.760352   7.859847   5.838680
    23  H    5.433001   6.578579   6.784856   7.953908   5.843678
                    6          7          8          9         10
     6  C    0.000000
     7  C    1.386141   0.000000
     8  Cl   2.699839   1.718738   0.000000
     9  C    2.393948   1.388613   2.700222   0.000000
    10  C    2.712299   2.379043   3.975163   1.391784   0.000000
    11  C    4.209505   3.752170   5.188468   2.489727   1.497316
    12  O    4.984150   4.227869   5.382356   2.843704   2.383918
    13  O    4.857820   4.724772   6.298393   3.624106   2.346290
    14  C    6.261256   6.026574   7.516716   4.816501   3.664012
    15  N    2.387645   2.770500   4.489236   2.393009   1.324448
    16  H    4.389598   5.121454   6.826423   4.777826   3.517890
    17  H    4.094618   4.837914   6.462673   4.619280   3.533809
    18  H    5.309517   6.251428   7.887780   6.112828   4.952651
    19  H    1.078214   2.164171   2.890838   3.388659   3.788931
    20  H    3.389002   2.167647   2.892688   1.078060   2.143074
    21  H    6.780270   6.736803   8.312156   5.628894   4.360343
    22  H    6.648197   6.296748   7.694107   5.036488   4.022075
    23  H    6.649386   6.288821   7.681929   5.023531   4.015608
                   11         12         13         14         15
    11  C    0.000000
    12  O    1.205207   0.000000
    13  O    1.328858   2.242983   0.000000
    14  C    2.332096   2.647927   1.421425   0.000000
    15  N    2.414100   3.527659   2.609590   4.030068   0.000000
    16  H    3.836621   5.027746   3.059429   4.087498   2.414109
    17  H    4.038989   5.173156   3.518461   4.605312   2.495574
    18  H    5.349202   6.524315   4.540983   5.419699   3.768963
    19  H    5.285653   6.054307   5.889554   7.302373   3.345163
    20  H    2.680232   2.544607   3.979017   4.948739   3.351421
    21  H    3.213788   3.704918   2.015934   1.086634   4.429542
    22  H    2.638400   2.654357   2.071572   1.091901   4.538641
    23  H    2.625995   2.628649   2.071620   1.091920   4.541414
                   16         17         18         19         20
    16  H    0.000000
    17  H    1.773948   0.000000
    18  H    1.788326   1.785074   0.000000
    19  H    5.060227   4.707992   5.753437   0.000000
    20  H    5.657591   5.509793   7.042391   4.311633   0.000000
    21  H    3.854022   4.509352   4.998396   7.772940   5.888418
    22  H    4.751444   5.486633   6.234864   7.697204   5.033800
    23  H    4.812706   4.977927   5.977152   7.703502   5.013505
                   21         22         23
    21  H    0.000000
    22  H    1.791524   0.000000
    23  H    1.791836   1.773841   0.000000
 Stoichiometry    C9H8ClNO4
 Framework group  C1[X(C9H8ClNO4)]
 Deg. of freedom    63
 Full point group                 C1      NOp   1
 Largest Abelian subgroup         C1      NOp   1
 Largest concise Abelian subgroup C1      NOp   1
                         Standard orientation:                         
 ---------------------------------------------------------------------
 Center     Atomic      Atomic             Coordinates (Angstroms)
 Number     Number       Type             X           Y           Z
 ---------------------------------------------------------------------
      1          6           0       -1.139223    3.025307    0.503158
      2          8           0        0.182513    3.332797    0.093794
      3          6           0        1.124441    2.434399   -0.156803
      4          8           0        2.227633    2.812327   -0.464868
      5          6           0        0.844484    0.954454   -0.059408
      6          6           0        1.953816    0.106754   -0.007540
      7          6           0        1.732103   -1.260547    0.044590
      8         17           0        3.055323   -2.354948    0.118300
      9          6           0        0.428031   -1.737520    0.032736
     10          6           0       -0.601332   -0.802821   -0.028998
     11          6           0       -2.018843   -1.284745   -0.048155
     12          8           0       -2.324562   -2.450039   -0.014215
     13          8           0       -2.887567   -0.280718   -0.103930
     14          6           0       -4.260706   -0.647278   -0.127878
     15          7           0       -0.399473    0.505522   -0.069684
     16          1           0       -1.694936    2.530338   -0.292879
     17          1           0       -1.146715    2.388079    1.388224
     18          1           0       -1.590726    3.989319    0.736016
     19          1           0        2.945164    0.530668   -0.015962
     20          1           0        0.195956   -2.789742    0.067153
     21          1           0       -4.822523    0.282382   -0.157325
     22          1           0       -4.475863   -1.255129   -1.009055
     23          1           0       -4.515317   -1.223389    0.764064
 ---------------------------------------------------------------------
 Rotational constants (GHZ):           0.5432556           0.4539343           0.2502732
 Leave Link  202 at Tue Sep 17 09:42:02 2024, MaxMem=  1342177280 cpu:               0.0 elap:               0.0
 (Enter /groups/ReismanLab/Software/Gaussian16_RevC/Linux_Binary_AVX2-enabled-CPU/g16/l301.exe)
 Standard basis: 6-31G(d,p) (6D, 7F)
 Ernie: Thresh=  0.10000D-02 Tol=  0.10000D-05 Strict=F.
 There are   269 symmetry adapted cartesian basis functions of A   symmetry.
 There are   269 symmetry adapted basis functions of A   symmetry.
   269 basis functions,   500 primitive gaussians,   269 cartesian basis functions
    59 alpha electrons       59 beta electrons
       nuclear repulsion energy      1075.9418841767 Hartrees.
 IExCor=  402 DFT=T Ex+Corr=B3LYP ExCW=0 ScaHFX=  0.200000
 ScaDFX=  0.800000  0.720000  1.000000  0.810000 ScalE2=  1.000000  1.000000
 IRadAn=      5 IRanWt=     -1 IRanGd=            0 ICorTp=0 IEmpDi=141
 NAtoms=   23 NActive=   23 NUniq=   23 SFac= 1.00D+00 NAtFMM=   60 NAOKFM=F Big=F
 Integral buffers will be    131072 words long.
 Raffenetti 2 integral format.
 Two-electron integral symmetry is turned on.
 R6Disp:  Grimme-D3(BJ) Dispersion energy=       -0.0458536782 Hartrees.
 Nuclear repulsion after empirical dispersion term =     1075.8960304985 Hartrees.
 Leave Link  301 at Tue Sep 17 09:42:03 2024, MaxMem=  1342177280 cpu:               0.1 elap:               0.1
 (Enter /groups/ReismanLab/Software/Gaussian16_RevC/Linux_Binary_AVX2-enabled-CPU/g16/l302.exe)
 NPDir=0 NMtPBC=     1 NCelOv=     1 NCel=       1 NClECP=     1 NCelD=      1
         NCelK=      1 NCelE2=     1 NClLst=     1 CellRange=     0.0.
 One-electron integrals computed using PRISM.
 One-electron integral symmetry used in STVInt
 NBasis=   269 RedAO= T EigKep=  6.45D-04  NBF=   269
 NBsUse=   269 1.00D-06 EigRej= -1.00D+00 NBFU=   269
 Precomputing XC quadrature grid using
 IXCGrd= 4 IRadAn=           5 IRanWt=          -1 IRanGd=           0 AccXCQ= 0.00D+00.
 Generated NRdTot=       0 NPtTot=           0 NUsed=           0 NTot=          32
 NSgBfM=   267   267   267   267   267 MxSgAt=    23 MxSgA2=    23.
 Leave Link  302 at Tue Sep 17 09:42:03 2024, MaxMem=  1342177280 cpu:               1.2 elap:               0.2
 (Enter /groups/ReismanLab/Software/Gaussian16_RevC/Linux_Binary_AVX2-enabled-CPU/g16/l303.exe)
 DipDrv:  MaxL=1.
 Leave Link  303 at Tue Sep 17 09:42:03 2024, MaxMem=  1342177280 cpu:               0.1 elap:               0.1
 (Enter /groups/ReismanLab/Software/Gaussian16_RevC/Linux_Binary_AVX2-enabled-CPU/g16/l401.exe)
 ExpMin= 1.43D-01 ExpMax= 2.52D+04 ExpMxC= 3.78D+03 IAcc=3 IRadAn=         5 AccDes= 0.00D+00
 Harris functional with IExCor=  402 and IRadAn=       5 diagonalized for initial guess.
 HarFok:  IExCor=  402 AccDes= 0.00D+00 IRadAn=         5 IDoV= 1 UseB2=F ITyADJ=14
 ICtDFT=  3500011 ScaDFX=  1.000000  1.000000  1.000000  1.000000
 FoFCou: FMM=F IPFlag=           0 FMFlag=      100000 FMFlg1=           0
         NFxFlg=           0 DoJE=T BraDBF=F KetDBF=T FulRan=T
         wScrn=  0.000000 ICntrl=       500 IOpCl=  0 I1Cent=   200000004 NGrid=           0
         NMat0=    1 NMatS0=      1 NMatT0=    0 NMatD0=    1 NMtDS0=    0 NMtDT0=    0
 Petite list used in FoFCou.
 Harris En= -1163.59862668239    
 JPrj=0 DoOrth=F DoCkMO=F.
 Leave Link  401 at Tue Sep 17 09:42:04 2024, MaxMem=  1342177280 cpu:               5.6 elap:               0.8
 (Enter /groups/ReismanLab/Software/Gaussian16_RevC/Linux_Binary_AVX2-enabled-CPU/g16/l502.exe)
 Integral symmetry usage will be decided dynamically.
 Closed shell SCF:
 Using DIIS extrapolation, IDIIS=  1040.
 NGot=  1342177280 LenX=  1342027030 LenY=  1341954228
 Requested convergence on RMS density matrix=1.00D-08 within  32 cycles.
 Requested convergence on MAX density matrix=1.00D-06.
 Requested convergence on             energy=1.00D-06.
 No special actions if energy rises.
 Fock matrices will be formed incrementally for  20 cycles.
 Integral accuracy reduced to 1.0D-05 until final iterations.

 Cycle   1  Pass 0  IDiag  1:
 FoFJK:  IHMeth= 1 ICntrl=       0 DoSepK=F KAlg= 0 I1Cent=           0 FoldK=F
 IRaf= 820000000 NMat=       1 IRICut=       1 DoRegI=T DoRafI=F ISym2E= 0 IDoP0=0 IntGTp=1.
 FoFCou: FMM=F IPFlag=           0 FMFlag=      100000 FMFlg1=           0
         NFxFlg=           0 DoJE=F BraDBF=F KetDBF=F FulRan=T
         wScrn=  0.000000 ICntrl=         0 IOpCl=  0 I1Cent=           0 NGrid=           0
         NMat0=    1 NMatS0=      1 NMatT0=    0 NMatD0=    1 NMtDS0=    0 NMtDT0=    0
 Symmetry not used in FoFCou.
 E= -1163.33718584652    
 DIIS: error= 2.80D-02 at cycle   1 NSaved=   1.
 NSaved= 1 IEnMin= 1 EnMin= -1163.33718584652     IErMin= 1 ErrMin= 2.80D-02
 ErrMax= 2.80D-02  0.00D+00 EMaxC= 1.00D-01 BMatC= 3.95D-01 BMatP= 3.95D-01
 IDIUse=3 WtCom= 7.20D-01 WtEn= 2.80D-01
 Coeff-Com:  0.100D+01
 Coeff-En:   0.100D+01
 Coeff:      0.100D+01
 Gap=     0.335 Goal=   None    Shift=    0.000
 GapD=    0.335 DampG=1.000 DampE=0.500 DampFc=0.5000 IDamp=-1.
 Damping current iteration by 5.00D-01
 RMSDP=5.83D-03 MaxDP=2.19D-01              OVMax= 2.70D-01

 Cycle   2  Pass 0  IDiag  1:
 RMSU=  2.90D-03    CP:  9.89D-01
 E= -1163.41976257670     Delta-E=       -0.082576730182 Rises=F Damp=T
 DIIS: error= 1.14D-02 at cycle   2 NSaved=   2.
 NSaved= 2 IEnMin= 2 EnMin= -1163.41976257670     IErMin= 2 ErrMin= 1.14D-02
 ErrMax= 1.14D-02  0.00D+00 EMaxC= 1.00D-01 BMatC= 7.37D-02 BMatP= 3.95D-01
 IDIUse=3 WtCom= 8.86D-01 WtEn= 1.14D-01
 Coeff-Com:  0.238D+00 0.762D+00
 Coeff-En:   0.366D+00 0.634D+00
 Coeff:      0.252D+00 0.748D+00
 Gap=     0.294 Goal=   None    Shift=    0.000
 RMSDP=1.81D-03 MaxDP=5.89D-02 DE=-8.26D-02 OVMax= 1.87D-01

 Cycle   3  Pass 0  IDiag  1:
 RMSU=  1.64D-03    CP:  9.81D-01  7.38D-01
 E= -1163.62050443503     Delta-E=       -0.200741858327 Rises=F Damp=F
 DIIS: error= 1.09D-02 at cycle   3 NSaved=   3.
 NSaved= 3 IEnMin= 3 EnMin= -1163.62050443503     IErMin= 3 ErrMin= 1.09D-02
 ErrMax= 1.09D-02  0.00D+00 EMaxC= 1.00D-01 BMatC= 5.85D-02 BMatP= 7.37D-02
 IDIUse=3 WtCom= 8.91D-01 WtEn= 1.09D-01
 Coeff-Com:  0.765D-01 0.463D+00 0.461D+00
 Coeff-En:   0.000D+00 0.000D+00 0.100D+01
 Coeff:      0.681D-01 0.412D+00 0.520D+00
 Gap=     0.205 Goal=   None    Shift=    0.000
 RMSDP=1.28D-03 MaxDP=4.93D-02 DE=-2.01D-01 OVMax= 7.79D-02

 Cycle   4  Pass 0  IDiag  1:
 RMSU=  8.17D-04    CP:  9.85D-01  8.14D-01  4.19D-01
 E= -1163.65848629115     Delta-E=       -0.037981856125 Rises=F Damp=F
 DIIS: error= 5.26D-03 at cycle   4 NSaved=   4.
 NSaved= 4 IEnMin= 4 EnMin= -1163.65848629115     IErMin= 4 ErrMin= 5.26D-03
 ErrMax= 5.26D-03  0.00D+00 EMaxC= 1.00D-01 BMatC= 1.55D-02 BMatP= 5.85D-02
 IDIUse=3 WtCom= 9.47D-01 WtEn= 5.26D-02
 Coeff-Com:  0.121D-01 0.110D+00 0.344D+00 0.533D+00
 Coeff-En:   0.000D+00 0.000D+00 0.245D+00 0.755D+00
 Coeff:      0.114D-01 0.104D+00 0.339D+00 0.545D+00
 Gap=     0.194 Goal=   None    Shift=    0.000
 RMSDP=4.99D-04 MaxDP=1.85D-02 DE=-3.80D-02 OVMax= 3.70D-02

 Cycle   5  Pass 0  IDiag  1:
 RMSU=  2.18D-04    CP:  9.84D-01  7.79D-01  6.01D-01  6.10D-01
 E= -1163.67060804628     Delta-E=       -0.012121755128 Rises=F Damp=F
 DIIS: error= 1.63D-03 at cycle   5 NSaved=   5.
 NSaved= 5 IEnMin= 5 EnMin= -1163.67060804628     IErMin= 5 ErrMin= 1.63D-03
 ErrMax= 1.63D-03  0.00D+00 EMaxC= 1.00D-01 BMatC= 1.01D-03 BMatP= 1.55D-02
 IDIUse=3 WtCom= 9.84D-01 WtEn= 1.63D-02
 Coeff-Com:  0.157D-02 0.200D-01 0.152D+00 0.319D+00 0.508D+00
 Coeff-En:   0.000D+00 0.000D+00 0.000D+00 0.000D+00 0.100D+01
 Coeff:      0.155D-02 0.196D-01 0.149D+00 0.314D+00 0.516D+00
 Gap=     0.192 Goal=   None    Shift=    0.000
 RMSDP=1.42D-04 MaxDP=7.25D-03 DE=-1.21D-02 OVMax= 9.55D-03

 Cycle   6  Pass 0  IDiag  1:
 RMSU=  8.49D-05    CP:  9.84D-01  7.83D-01  5.91D-01  6.37D-01  4.98D-01
 E= -1163.67139662966     Delta-E=       -0.000788583379 Rises=F Damp=F
 DIIS: error= 5.32D-04 at cycle   6 NSaved=   6.
 NSaved= 6 IEnMin= 6 EnMin= -1163.67139662966     IErMin= 6 ErrMin= 5.32D-04
 ErrMax= 5.32D-04  0.00D+00 EMaxC= 1.00D-01 BMatC= 1.03D-04 BMatP= 1.01D-03
 IDIUse=3 WtCom= 9.95D-01 WtEn= 5.32D-03
 Coeff-Com:  0.418D-04 0.100D-03 0.529D-01 0.128D+00 0.304D+00 0.514D+00
 Coeff-En:   0.000D+00 0.000D+00 0.000D+00 0.000D+00 0.650D-01 0.935D+00
 Coeff:      0.416D-04 0.998D-04 0.527D-01 0.128D+00 0.303D+00 0.517D+00
 Gap=     0.190 Goal=   None    Shift=    0.000
 RMSDP=5.26D-05 MaxDP=2.26D-03 DE=-7.89D-04 OVMax= 3.17D-03

 Cycle   7  Pass 0  IDiag  1:
 RMSU=  2.40D-05    CP:  9.84D-01  7.84D-01  5.96D-01  6.45D-01  6.00D-01
                    CP:  5.30D-01
 E= -1163.67148629725     Delta-E=       -0.000089667592 Rises=F Damp=F
 DIIS: error= 1.69D-04 at cycle   7 NSaved=   7.
 NSaved= 7 IEnMin= 7 EnMin= -1163.67148629725     IErMin= 7 ErrMin= 1.69D-04
 ErrMax= 1.69D-04  0.00D+00 EMaxC= 1.00D-01 BMatC= 9.47D-06 BMatP= 1.03D-04
 IDIUse=3 WtCom= 9.98D-01 WtEn= 1.69D-03
 Coeff-Com: -0.621D-04-0.174D-02 0.178D-01 0.466D-01 0.134D+00 0.308D+00
 Coeff-Com:  0.496D+00
 Coeff-En:   0.000D+00 0.000D+00 0.000D+00 0.000D+00 0.000D+00 0.370D-01
 Coeff-En:   0.963D+00
 Coeff:     -0.620D-04-0.173D-02 0.178D-01 0.465D-01 0.133D+00 0.308D+00
 Coeff:      0.497D+00
 Gap=     0.190 Goal=   None    Shift=    0.000
 RMSDP=1.42D-05 MaxDP=4.12D-04 DE=-8.97D-05 OVMax= 1.08D-03

 Cycle   8  Pass 0  IDiag  1:
 RMSU=  7.37D-06    CP:  9.84D-01  7.83D-01  5.95D-01  6.49D-01  5.91D-01
                    CP:  5.91D-01  5.97D-01
 E= -1163.67149517237     Delta-E=       -0.000008875126 Rises=F Damp=F
 DIIS: error= 3.42D-05 at cycle   8 NSaved=   8.
 NSaved= 8 IEnMin= 8 EnMin= -1163.67149517237     IErMin= 8 ErrMin= 3.42D-05
 ErrMax= 3.42D-05  0.00D+00 EMaxC= 1.00D-01 BMatC= 6.71D-07 BMatP= 9.47D-06
 IDIUse=1 WtCom= 1.00D+00 WtEn= 0.00D+00
 Coeff-Com:  0.426D-04-0.106D-02 0.375D-02 0.102D-01 0.377D-01 0.105D+00
 Coeff-Com:  0.255D+00 0.590D+00
 Coeff:      0.426D-04-0.106D-02 0.375D-02 0.102D-01 0.377D-01 0.105D+00
 Coeff:      0.255D+00 0.590D+00
 Gap=     0.190 Goal=   None    Shift=    0.000
 RMSDP=3.96D-06 MaxDP=1.85D-04 DE=-8.88D-06 OVMax= 3.84D-04

 Initial convergence to 1.0D-05 achieved.  Increase integral accuracy.
 Cycle   9  Pass 1  IDiag  1:
 E= -1163.67150602021     Delta-E=       -0.000010847832 Rises=F Damp=F
 DIIS: error= 1.89D-05 at cycle   1 NSaved=   1.
 NSaved= 1 IEnMin= 1 EnMin= -1163.67150602021     IErMin= 1 ErrMin= 1.89D-05
 ErrMax= 1.89D-05  0.00D+00 EMaxC= 1.00D-01 BMatC= 1.62D-07 BMatP= 1.62D-07
 IDIUse=1 WtCom= 1.00D+00 WtEn= 0.00D+00
 Coeff-Com:  0.100D+01
 Coeff:      0.100D+01
 Gap=     0.190 Goal=   None    Shift=    0.000
 RMSDP=3.96D-06 MaxDP=1.85D-04 DE=-1.08D-05 OVMax= 1.51D-04

 Cycle  10  Pass 1  IDiag  1:
 RMSU=  8.67D-06    CP:  1.00D+00
 E= -1163.67150594585     Delta-E=        0.000000074352 Rises=F Damp=F
 DIIS: error= 2.12D-05 at cycle   2 NSaved=   2.
 NSaved= 2 IEnMin= 1 EnMin= -1163.67150602021     IErMin= 1 ErrMin= 1.89D-05
 ErrMax= 2.12D-05  0.00D+00 EMaxC= 1.00D-01 BMatC= 2.40D-07 BMatP= 1.62D-07
 IDIUse=1 WtCom= 1.00D+00 WtEn= 0.00D+00
 Coeff-Com:  0.560D+00 0.440D+00
 Coeff:      0.560D+00 0.440D+00
 Gap=     0.190 Goal=   None    Shift=    0.000
 RMSDP=2.18D-06 MaxDP=9.62D-05 DE= 7.44D-08 OVMax= 1.47D-04

 Cycle  11  Pass 1  IDiag  1:
 RMSU=  2.10D-06    CP:  1.00D+00  9.34D-01
 E= -1163.67150612046     Delta-E=       -0.000000174602 Rises=F Damp=F
 DIIS: error= 1.02D-05 at cycle   3 NSaved=   3.
 NSaved= 3 IEnMin= 3 EnMin= -1163.67150612046     IErMin= 3 ErrMin= 1.02D-05
 ErrMax= 1.02D-05  0.00D+00 EMaxC= 1.00D-01 BMatC= 3.26D-08 BMatP= 1.62D-07
 IDIUse=1 WtCom= 1.00D+00 WtEn= 0.00D+00
 Coeff-Com:  0.934D-01 0.269D+00 0.638D+00
 Coeff:      0.934D-01 0.269D+00 0.638D+00
 Gap=     0.190 Goal=   None    Shift=    0.000
 RMSDP=7.92D-07 MaxDP=4.66D-05 DE=-1.75D-07 OVMax= 6.69D-05

 Cycle  12  Pass 1  IDiag  1:
 RMSU=  5.77D-07    CP:  1.00D+00  9.55D-01  7.58D-01
 E= -1163.67150614009     Delta-E=       -0.000000019633 Rises=F Damp=F
 DIIS: error= 4.29D-06 at cycle   4 NSaved=   4.
 NSaved= 4 IEnMin= 4 EnMin= -1163.67150614009     IErMin= 4 ErrMin= 4.29D-06
 ErrMax= 4.29D-06  0.00D+00 EMaxC= 1.00D-01 BMatC= 6.49D-09 BMatP= 3.26D-08
 IDIUse=1 WtCom= 1.00D+00 WtEn= 0.00D+00
 Coeff-Com:  0.747D-03 0.130D+00 0.416D+00 0.454D+00
 Coeff:      0.747D-03 0.130D+00 0.416D+00 0.454D+00
 Gap=     0.190 Goal=   None    Shift=    0.000
 RMSDP=3.22D-07 MaxDP=1.50D-05 DE=-1.96D-08 OVMax= 2.05D-05

 Cycle  13  Pass 1  IDiag  1:
 RMSU=  9.11D-08    CP:  1.00D+00  9.58D-01  7.67D-01  4.68D-01
 E= -1163.67150614553     Delta-E=       -0.000000005445 Rises=F Damp=F
 DIIS: error= 5.22D-07 at cycle   5 NSaved=   5.
 NSaved= 5 IEnMin= 5 EnMin= -1163.67150614553     IErMin= 5 ErrMin= 5.22D-07
 ErrMax= 5.22D-07  0.00D+00 EMaxC= 1.00D-01 BMatC= 1.75D-10 BMatP= 6.49D-09
 IDIUse=1 WtCom= 1.00D+00 WtEn= 0.00D+00
 Coeff-Com: -0.233D-02 0.669D-01 0.218D+00 0.260D+00 0.457D+00
 Coeff:     -0.233D-02 0.669D-01 0.218D+00 0.260D+00 0.457D+00
 Gap=     0.190 Goal=   None    Shift=    0.000
 RMSDP=5.16D-08 MaxDP=2.06D-06 DE=-5.45D-09 OVMax= 4.03D-06

 Cycle  14  Pass 1  IDiag  1:
 RMSU=  3.41D-08    CP:  1.00D+00  9.58D-01  7.68D-01  4.79D-01  5.82D-01
 E= -1163.67150614568     Delta-E=       -0.000000000151 Rises=F Damp=F
 DIIS: error= 1.73D-07 at cycle   6 NSaved=   6.
 NSaved= 6 IEnMin= 6 EnMin= -1163.67150614568     IErMin= 6 ErrMin= 1.73D-07
 ErrMax= 1.73D-07  0.00D+00 EMaxC= 1.00D-01 BMatC= 1.09D-11 BMatP= 1.75D-10
 IDIUse=1 WtCom= 1.00D+00 WtEn= 0.00D+00
 Coeff-Com: -0.133D-02 0.286D-01 0.919D-01 0.112D+00 0.260D+00 0.509D+00
 Coeff:     -0.133D-02 0.286D-01 0.919D-01 0.112D+00 0.260D+00 0.509D+00
 Gap=     0.190 Goal=   None    Shift=    0.000
 RMSDP=1.71D-08 MaxDP=6.11D-07 DE=-1.51D-10 OVMax= 1.18D-06

 Cycle  15  Pass 1  IDiag  1:
 RMSU=  1.20D-08    CP:  1.00D+00  9.58D-01  7.67D-01  4.80D-01  6.13D-01
                    CP:  6.61D-01
 E= -1163.67150614566     Delta-E=        0.000000000025 Rises=F Damp=F
 DIIS: error= 5.54D-08 at cycle   7 NSaved=   7.
 NSaved= 7 IEnMin= 6 EnMin= -1163.67150614568     IErMin= 7 ErrMin= 5.54D-08
 ErrMax= 5.54D-08  0.00D+00 EMaxC= 1.00D-01 BMatC= 1.59D-12 BMatP= 1.09D-11
 IDIUse=1 WtCom= 1.00D+00 WtEn= 0.00D+00
 Coeff-Com: -0.430D-03 0.662D-02 0.198D-01 0.245D-01 0.903D-01 0.308D+00
 Coeff-Com:  0.551D+00
 Coeff:     -0.430D-03 0.662D-02 0.198D-01 0.245D-01 0.903D-01 0.308D+00
 Coeff:      0.551D+00
 Gap=     0.190 Goal=   None    Shift=    0.000
 RMSDP=6.00D-09 MaxDP=2.96D-07 DE= 2.50D-11 OVMax= 4.93D-07

 SCF Done:  E(RB3LYP) =  -1163.67150615     A.U. after   15 cycles
            NFock= 15  Conv=0.60D-08     -V/T= 2.0063
 KE= 1.156355465760D+03 PE=-4.887669221254D+03 EE= 1.491746218850D+03
 Leave Link  502 at Tue Sep 17 09:42:19 2024, MaxMem=  1342177280 cpu:             113.3 elap:              15.1
 (Enter /groups/ReismanLab/Software/Gaussian16_RevC/Linux_Binary_AVX2-enabled-CPU/g16/l508.exe)
 QCSCF skips out because SCF is already converged.
 Leave Link  508 at Tue Sep 17 09:42:19 2024, MaxMem=  1342177280 cpu:               0.0 elap:               0.0
 (Enter /groups/ReismanLab/Software/Gaussian16_RevC/Linux_Binary_AVX2-enabled-CPU/g16/l601.exe)
 Copying SCF densities to generalized density rwf, IOpCl= 0 IROHF=0.

 **********************************************************************

            Population analysis using the SCF Density.

 **********************************************************************

 Orbital symmetries:
       Occupied  (A) (A) (A) (A) (A) (A) (A) (A) (A) (A) (A) (A)
                 (A) (A) (A) (A) (A) (A) (A) (A) (A) (A) (A) (A)
                 (A) (A) (A) (A) (A) (A) (A) (A) (A) (A) (A) (A)
                 (A) (A) (A) (A) (A) (A) (A) (A) (A) (A) (A) (A)
                 (A) (A) (A) (A) (A) (A) (A) (A) (A) (A) (A)
       Virtual   (A) (A) (A) (A) (A) (A) (A) (A) (A) (A) (A) (A)
                 (A) (A) (A) (A) (A) (A) (A) (A) (A) (A) (A) (A)
                 (A) (A) (A) (A) (A) (A) (A) (A) (A) (A) (A) (A)
                 (A) (A) (A) (A) (A) (A) (A) (A) (A) (A) (A) (A)
                 (A) (A) (A) (A) (A) (A) (A) (A) (A) (A) (A) (A)
                 (A) (A) (A) (A) (A) (A) (A) (A) (A) (A) (A) (A)
                 (A) (A) (A) (A) (A) (A) (A) (A) (A) (A) (A) (A)
                 (A) (A) (A) (A) (A) (A) (A) (A) (A) (A) (A) (A)
                 (A) (A) (A) (A) (A) (A) (A) (A) (A) (A) (A) (A)
                 (A) (A) (A) (A) (A) (A) (A) (A) (A) (A) (A) (A)
                 (A) (A) (A) (A) (A) (A) (A) (A) (A) (A) (A) (A)
                 (A) (A) (A) (A) (A) (A) (A) (A) (A) (A) (A) (A)
                 (A) (A) (A) (A) (A) (A) (A) (A) (A) (A) (A) (A)
                 (A) (A) (A) (A) (A) (A) (A) (A) (A) (A) (A) (A)
                 (A) (A) (A) (A) (A) (A) (A) (A) (A) (A) (A) (A)
                 (A) (A) (A) (A) (A) (A) (A) (A) (A) (A) (A) (A)
                 (A) (A) (A) (A) (A) (A) (A) (A) (A) (A) (A) (A)
                 (A) (A) (A) (A) (A) (A)
 The electronic state is 1-A.
 Alpha  occ. eigenvalues -- -101.57518 -19.21092 -19.19720 -19.15384 -19.13548
 Alpha  occ. eigenvalues --  -14.36273 -10.33279 -10.32459 -10.28964 -10.26355
 Alpha  occ. eigenvalues --  -10.26346 -10.25374 -10.24026 -10.23539 -10.23257
 Alpha  occ. eigenvalues --   -9.49191  -7.25596  -7.24623  -7.24558  -1.12992
 Alpha  occ. eigenvalues --   -1.11311  -1.03778  -1.02562  -0.98990  -0.91245
 Alpha  occ. eigenvalues --   -0.81886  -0.80790  -0.75298  -0.73675  -0.68511
 Alpha  occ. eigenvalues --   -0.67288  -0.59976  -0.57611  -0.54938  -0.54863
 Alpha  occ. eigenvalues --   -0.51823  -0.51123  -0.50406  -0.48983  -0.48416
 Alpha  occ. eigenvalues --   -0.47059  -0.44999  -0.44745  -0.44081  -0.42594
 Alpha  occ. eigenvalues --   -0.41449  -0.41225  -0.40435  -0.37837  -0.37212
 Alpha  occ. eigenvalues --   -0.35586  -0.33681  -0.31977  -0.31054  -0.30350
 Alpha  occ. eigenvalues --   -0.29441  -0.29080  -0.28320  -0.26896
 Alpha virt. eigenvalues --   -0.07849  -0.07055   0.00927   0.01786   0.06256
 Alpha virt. eigenvalues --    0.09827   0.11517   0.12067   0.13135   0.13595
 Alpha virt. eigenvalues --    0.14484   0.14609   0.15282   0.16078   0.16406
 Alpha virt. eigenvalues --    0.18491   0.21435   0.22720   0.24720   0.25577
 Alpha virt. eigenvalues --    0.27495   0.29148   0.32097   0.35461   0.35922
 Alpha virt. eigenvalues --    0.37853   0.38905   0.39582   0.40695   0.42073
 Alpha virt. eigenvalues --    0.47278   0.48229   0.48674   0.49650   0.50713
 Alpha virt. eigenvalues --    0.51791   0.52375   0.54241   0.54749   0.55348
 Alpha virt. eigenvalues --    0.56581   0.57211   0.58037   0.59497   0.61547
 Alpha virt. eigenvalues --    0.62266   0.62817   0.64416   0.65305   0.68561
 Alpha virt. eigenvalues --    0.69349   0.70612   0.72285   0.72940   0.74916
 Alpha virt. eigenvalues --    0.75735   0.77459   0.77830   0.79348   0.81811
 Alpha virt. eigenvalues --    0.82311   0.83528   0.84548   0.84664   0.84985
 Alpha virt. eigenvalues --    0.87074   0.87973   0.89062   0.91321   0.91781
 Alpha virt. eigenvalues --    0.92789   0.93622   0.95172   0.95576   0.96649
 Alpha virt. eigenvalues --    0.97056   0.99098   1.01399   1.02546   1.05678
 Alpha virt. eigenvalues --    1.06454   1.06708   1.07810   1.10864   1.12463
 Alpha virt. eigenvalues --    1.14954   1.19392   1.22999   1.25980   1.26151
 Alpha virt. eigenvalues --    1.27082   1.27967   1.29402   1.31037   1.33240
 Alpha virt. eigenvalues --    1.35385   1.36019   1.38803   1.40530   1.41819
 Alpha virt. eigenvalues --    1.44190   1.46023   1.47542   1.48251   1.50039
 Alpha virt. eigenvalues --    1.51875   1.57123   1.60688   1.62832   1.66576
 Alpha virt. eigenvalues --    1.67074   1.70957   1.72697   1.73793   1.75325
 Alpha virt. eigenvalues --    1.78732   1.80955   1.83326   1.84188   1.84936
 Alpha virt. eigenvalues --    1.85681   1.88907   1.90318   1.90625   1.91067
 Alpha virt. eigenvalues --    1.91801   1.93690   1.95253   1.96951   1.97601
 Alpha virt. eigenvalues --    1.99705   2.00096   2.01636   2.02236   2.03442
 Alpha virt. eigenvalues --    2.03820   2.04891   2.05774   2.06457   2.07324
 Alpha virt. eigenvalues --    2.10065   2.12102   2.13603   2.14580   2.19771
 Alpha virt. eigenvalues --    2.25927   2.26665   2.29400   2.33599   2.36236
 Alpha virt. eigenvalues --    2.37665   2.39244   2.40505   2.43999   2.47462
 Alpha virt. eigenvalues --    2.50591   2.51263   2.52174   2.54450   2.57149
 Alpha virt. eigenvalues --    2.58458   2.59976   2.61260   2.61367   2.64827
 Alpha virt. eigenvalues --    2.66302   2.67071   2.68622   2.70602   2.71787
 Alpha virt. eigenvalues --    2.73852   2.74384   2.77169   2.83476   2.83617
 Alpha virt. eigenvalues --    2.84280   2.86168   2.93653   2.95573   2.96915
 Alpha virt. eigenvalues --    2.99658   3.02922   3.09108   3.14818   3.17794
 Alpha virt. eigenvalues --    3.20764   3.21590   3.28072   3.30129   3.39655
 Alpha virt. eigenvalues --    3.40545   3.42581   3.43730   3.45898   3.67280
 Alpha virt. eigenvalues --    3.95066   3.99068   4.04741   4.11750   4.16608
 Alpha virt. eigenvalues --    4.21413   4.28374   4.31756   4.40898   4.43196
 Alpha virt. eigenvalues --    4.49943   4.53987   4.56306   4.62252   4.72383
          Condensed to atoms (all electrons):
               1          2          3          4          5          6
     1  C    4.745675   0.208659  -0.018647   0.003237   0.000486  -0.000203
     2  O    0.208659   8.215568   0.273729  -0.087492  -0.082140   0.005175
     3  C   -0.018647   0.273729   4.402268   0.604189   0.261638  -0.053839
     4  O    0.003237  -0.087492   0.604189   8.016495  -0.110067   0.007757
     5  C    0.000486  -0.082140   0.261638  -0.110067   5.037576   0.415902
     6  C   -0.000203   0.005175  -0.053839   0.007757   0.415902   5.077288
     7  C   -0.000003  -0.000065   0.005185   0.001296  -0.023730   0.446245
     8  Cl   0.000000   0.000000  -0.000086  -0.000002   0.004551  -0.070827
     9  C   -0.000004   0.000003   0.000441  -0.000006  -0.043961  -0.029980
    10  C    0.000608  -0.000081   0.002418  -0.000106  -0.021624  -0.043865
    11  C    0.000113   0.000002  -0.000142   0.000000   0.004523   0.000199
    12  O   -0.000001  -0.000000   0.000000  -0.000000  -0.000072  -0.000010
    13  O   -0.000743   0.000004   0.000000  -0.000000  -0.000005  -0.000018
    14  C    0.000022  -0.000000  -0.000001   0.000000   0.000012   0.000001
    15  N   -0.019359   0.001619  -0.051143   0.002176   0.377777  -0.062227
    16  H    0.386998  -0.028466  -0.005406  -0.000081   0.001437  -0.000042
    17  H    0.381852  -0.030222  -0.005562  -0.000062   0.002617  -0.000093
    18  H    0.378931  -0.034664   0.001043  -0.000087  -0.000188   0.000035
    19  H   -0.000027   0.000305  -0.006027   0.014835  -0.030752   0.369117
    20  H    0.000000  -0.000000   0.000012  -0.000000   0.000206   0.004015
    21  H    0.000017  -0.000000  -0.000000   0.000000  -0.000001   0.000000
    22  H    0.000000   0.000000   0.000000   0.000000   0.000001  -0.000000
    23  H   -0.000002   0.000000  -0.000000  -0.000000   0.000002  -0.000000
               7          8          9         10         11         12
     1  C   -0.000003   0.000000  -0.000004   0.000608   0.000113  -0.000001
     2  O   -0.000065   0.000000   0.000003  -0.000081   0.000002  -0.000000
     3  C    0.005185  -0.000086   0.000441   0.002418  -0.000142   0.000000
     4  O    0.001296  -0.000002  -0.000006  -0.000106   0.000000  -0.000000
     5  C   -0.023730   0.004551  -0.043961  -0.021624   0.004523  -0.000072
     6  C    0.446245  -0.070827  -0.029980  -0.043865   0.000199  -0.000010
     7  C    5.069654   0.258632   0.452147  -0.022289   0.005537   0.000957
     8  Cl   0.258632  16.838905  -0.072229   0.004546  -0.000124   0.000001
     9  C    0.452147  -0.072229   5.087355   0.433217  -0.078254   0.006688
    10  C   -0.022289   0.004546   0.433217   4.897673   0.312708  -0.090272
    11  C    0.005537  -0.000124  -0.078254   0.312708   4.404369   0.566882
    12  O    0.000957   0.000001   0.006688  -0.090272   0.566882   8.052513
    13  O   -0.000038   0.000000   0.005094  -0.083756   0.269713  -0.087669
    14  C    0.000000  -0.000000  -0.000212   0.007877  -0.022199   0.002447
    15  N   -0.028155  -0.000010  -0.068348   0.429627  -0.065460   0.002313
    16  H    0.000004   0.000000  -0.000005  -0.000463   0.000244   0.000004
    17  H    0.000036  -0.000000  -0.000066   0.000630   0.000040   0.000000
    18  H   -0.000000   0.000000   0.000002  -0.000011  -0.000012   0.000000
    19  H   -0.040028  -0.001122   0.004169   0.000302   0.000016  -0.000000
    20  H   -0.040770  -0.000864   0.369285  -0.030849  -0.005174   0.012094
    21  H   -0.000000   0.000000   0.000001   0.000053   0.004182   0.000646
    22  H    0.000000   0.000000  -0.000001  -0.000305  -0.005832   0.006071
    23  H    0.000000   0.000000  -0.000001  -0.000297  -0.006116   0.006676
              13         14         15         16         17         18
     1  C   -0.000743   0.000022  -0.019359   0.386998   0.381852   0.378931
     2  O    0.000004  -0.000000   0.001619  -0.028466  -0.030222  -0.034664
     3  C    0.000000  -0.000001  -0.051143  -0.005406  -0.005562   0.001043
     4  O   -0.000000   0.000000   0.002176  -0.000081  -0.000062  -0.000087
     5  C   -0.000005   0.000012   0.377777   0.001437   0.002617  -0.000188
     6  C   -0.000018   0.000001  -0.062227  -0.000042  -0.000093   0.000035
     7  C   -0.000038   0.000000  -0.028155   0.000004   0.000036  -0.000000
     8  Cl   0.000000  -0.000000  -0.000010   0.000000  -0.000000   0.000000
     9  C    0.005094  -0.000212  -0.068348  -0.000005  -0.000066   0.000002
    10  C   -0.083756   0.007877   0.429627  -0.000463   0.000630  -0.000011
    11  C    0.269713  -0.022199  -0.065460   0.000244   0.000040  -0.000012
    12  O   -0.087669   0.002447   0.002313   0.000004   0.000000   0.000000
    13  O    8.223596   0.215070  -0.000891   0.002994   0.000343   0.000008
    14  C    0.215070   4.725636  -0.000242  -0.000104  -0.000006  -0.000001
    15  N   -0.000891  -0.000242   7.008855   0.001793   0.000953   0.001744
    16  H    0.002994  -0.000104   0.001793   0.566891  -0.038176  -0.033035
    17  H    0.000343  -0.000006   0.000953  -0.038176   0.603851  -0.034986
    18  H    0.000008  -0.000001   0.001744  -0.033035  -0.034986   0.605363
    19  H   -0.000000   0.000000   0.004775  -0.000003  -0.000001   0.000000
    20  H    0.000305  -0.000019   0.004724  -0.000000  -0.000000  -0.000000
    21  H   -0.032749   0.391124  -0.000031   0.000003  -0.000003  -0.000001
    22  H   -0.031490   0.384885  -0.000008   0.000005   0.000001  -0.000000
    23  H   -0.031487   0.383996  -0.000007   0.000011  -0.000001  -0.000000
              19         20         21         22         23
     1  C   -0.000027   0.000000   0.000017   0.000000  -0.000002
     2  O    0.000305  -0.000000  -0.000000   0.000000   0.000000
     3  C   -0.006027   0.000012  -0.000000   0.000000  -0.000000
     4  O    0.014835  -0.000000   0.000000   0.000000  -0.000000
     5  C   -0.030752   0.000206  -0.000001   0.000001   0.000002
     6  C    0.369117   0.004015   0.000000  -0.000000  -0.000000
     7  C   -0.040028  -0.040770  -0.000000   0.000000   0.000000
     8  Cl  -0.001122  -0.000864   0.000000   0.000000   0.000000
     9  C    0.004169   0.369285   0.000001  -0.000001  -0.000001
    10  C    0.000302  -0.030849   0.000053  -0.000305  -0.000297
    11  C    0.000016  -0.005174   0.004182  -0.005832  -0.006116
    12  O   -0.000000   0.012094   0.000646   0.006071   0.006676
    13  O   -0.000000   0.000305  -0.032749  -0.031490  -0.031487
    14  C    0.000000  -0.000019   0.391124   0.384885   0.383996
    15  N    0.004775   0.004724  -0.000031  -0.000008  -0.000007
    16  H   -0.000003  -0.000000   0.000003   0.000005   0.000011
    17  H   -0.000001  -0.000000  -0.000003   0.000001  -0.000001
    18  H    0.000000  -0.000000  -0.000001  -0.000000  -0.000000
    19  H    0.529675  -0.000100  -0.000000   0.000000   0.000000
    20  H   -0.000100   0.537763  -0.000000  -0.000002  -0.000002
    21  H   -0.000000  -0.000000   0.575254  -0.032402  -0.032378
    22  H    0.000000  -0.000002  -0.032402   0.582241  -0.037754
    23  H    0.000000  -0.000002  -0.032378  -0.037754   0.583479
 Mulliken charges:
               1
     1  C   -0.067609
     2  O   -0.441935
     3  C    0.589932
     4  O   -0.452082
     5  C    0.205814
     6  C   -0.064630
     7  C   -0.084617
     8  Cl   0.038629
     9  C   -0.065337
    10  C    0.204259
    11  C    0.614782
    12  O   -0.479269
    13  O   -0.448283
    14  C   -0.088287
    15  N   -0.540474
    16  H    0.145399
    17  H    0.118854
    18  H    0.115858
    19  H    0.154867
    20  H    0.149376
    21  H    0.126284
    22  H    0.134589
    23  H    0.133881
 Sum of Mulliken charges =  -0.00000
 Mulliken charges with hydrogens summed into heavy atoms:
               1
     1  C    0.312501
     2  O   -0.441935
     3  C    0.589932
     4  O   -0.452082
     5  C    0.205814
     6  C    0.090237
     7  C   -0.084617
     8  Cl   0.038629
     9  C    0.084040
    10  C    0.204259
    11  C    0.614782
    12  O   -0.479269
    13  O   -0.448283
    14  C    0.306466
    15  N   -0.540474
 Electronic spatial extent (au):  <R**2>=           4028.7346
 Charge=             -0.0000 electrons
 Dipole moment (field-independent basis, Debye):
    X=             -3.3931    Y=             -1.1043    Z=              0.9752  Tot=              3.6991
 Quadrupole moment (field-independent basis, Debye-Ang):
   XX=            -84.1659   YY=           -104.6515   ZZ=            -89.4906
   XY=            -12.5704   XZ=              1.5404   YZ=              3.3721
 Traceless Quadrupole moment (field-independent basis, Debye-Ang):
   XX=              8.6034   YY=            -11.8822   ZZ=              3.2787
   XY=            -12.5704   XZ=              1.5404   YZ=              3.3721
 Octapole moment (field-independent basis, Debye-Ang**2):
  XXX=            -78.3406  YYY=            -12.4855  ZZZ=             -1.0435  XYY=            -22.9010
  XXY=             -6.6219  XXZ=              2.5106  XZZ=             -6.8123  YZZ=              2.8247
  YYZ=              9.5867  XYZ=              2.7577
 Hexadecapole moment (field-independent basis, Debye-Ang**3):
 XXXX=          -2388.7791 YYYY=          -2341.7503 ZZZZ=           -118.0122 XXXY=            -29.7461
 XXXZ=             20.8539 YYYX=           -174.4047 YYYZ=             27.7578 ZZZX=             -0.6631
 ZZZY=             -2.1619 XXYY=           -891.6612 XXZZ=           -466.5312 YYZZ=           -380.0057
 XXYZ=             15.2907 YYXZ=              8.8547 ZZXY=             10.9303
 N-N= 1.075896030499D+03 E-N=-4.887669215606D+03  KE= 1.156355465760D+03
 No NMR shielding tensors so no spin-rotation constants.
 Leave Link  601 at Tue Sep 17 09:42:19 2024, MaxMem=  1342177280 cpu:               0.5 elap:               0.1
 (Enter /groups/ReismanLab/Software/Gaussian16_RevC/Linux_Binary_AVX2-enabled-CPU/g16/l701.exe)
 ... and contract with generalized density number  0.
 Compute integral first derivatives.
 R6Disp: Adding Grimme-D3(BJ) dispersion energy 1st derivatives to the gradient.
 Leave Link  701 at Tue Sep 17 09:42:19 2024, MaxMem=  1342177280 cpu:               0.5 elap:               0.1
 (Enter /groups/ReismanLab/Software/Gaussian16_RevC/Linux_Binary_AVX2-enabled-CPU/g16/l702.exe)
 L702 exits ... SP integral derivatives will be done elsewhere.
 Leave Link  702 at Tue Sep 17 09:42:19 2024, MaxMem=  1342177280 cpu:               0.0 elap:               0.0
 (Enter /groups/ReismanLab/Software/Gaussian16_RevC/Linux_Binary_AVX2-enabled-CPU/g16/l703.exe)
 Integral derivatives from FoFJK, PRISM(SPDF).
 Compute integral first derivatives, UseDBF=F ICtDFT=           0.
 Calling FoFJK, ICntrl=      2127 FMM=F ISym2X=0 I1Cent= 0 IOpClX= 0 NMat=1 NMatS=1 NMatT=0.
 FoFJK:  IHMeth= 1 ICntrl=    2127 DoSepK=F KAlg= 0 I1Cent=           0 FoldK=F
 IRaf=         0 NMat=       1 IRICut=       1 DoRegI=T DoRafI=F ISym2E= 0 IDoP0=0 IntGTp=1.
 FoFCou: FMM=F IPFlag=           0 FMFlag=      100000 FMFlg1=         800
         NFxFlg=           0 DoJE=F BraDBF=F KetDBF=F FulRan=T
         wScrn=  0.000000 ICntrl=      2127 IOpCl=  0 I1Cent=           0 NGrid=           0
         NMat0=    1 NMatS0=      1 NMatT0=    0 NMatD0=    1 NMtDS0=    0 NMtDT0=    0
 Symmetry not used in FoFCou.
 Leave Link  703 at Tue Sep 17 09:42:24 2024, MaxMem=  1342177280 cpu:              35.7 elap:               4.6
 (Enter /groups/ReismanLab/Software/Gaussian16_RevC/Linux_Binary_AVX2-enabled-CPU/g16/l716.exe)
 Dipole        =-1.33493523D+00-4.34453543D-01 3.83666153D-01
 ***** Axes restored to original set *****
 -------------------------------------------------------------------
 Center     Atomic                   Forces (Hartrees/Bohr)
 Number     Number              X              Y              Z
 -------------------------------------------------------------------
      1        6          -0.007337157   -0.010929605   -0.002664666
      2        8           0.007467036   -0.005836896    0.001657041
      3        6          -0.005809588    0.005551181   -0.000015713
      4        8           0.010832025    0.008931328    0.003255995
      5        6           0.005016596    0.004358734   -0.000474789
      6        6           0.004491457    0.002176772   -0.000068335
      7        6           0.000499339   -0.009035982    0.000303508
      8       17          -0.000368092    0.012232982   -0.000635552
      9        6          -0.004632231    0.000109108   -0.000003978
     10        6          -0.005086702    0.001817606   -0.000032555
     11        6           0.008177208    0.002603719    0.000077347
     12        8          -0.015664166    0.007746336   -0.000685088
     13        8           0.010765575   -0.007331864    0.000491355
     14        6          -0.007883783   -0.001586343   -0.000206787
     15        7           0.001189757   -0.008847798    0.001816585
     16        1          -0.000288623   -0.000703816   -0.001677176
     17        1          -0.000857420   -0.001037334   -0.000427114
     18        1           0.000984158   -0.001136262   -0.001012894
     19        1           0.002277852    0.001659186    0.000336569
     20        1          -0.002893721    0.001636286   -0.000223435
     21        1           0.000962988   -0.001360235    0.000122329
     22        1          -0.000915286   -0.000474054    0.000538847
     23        1          -0.000927223   -0.000543047   -0.000471495
 -------------------------------------------------------------------
 Cartesian Forces:  Max     0.015664166 RMS     0.004857108
 Leave Link  716 at Tue Sep 17 09:42:24 2024, MaxMem=  1342177280 cpu:               0.1 elap:               0.1
 (Enter /groups/ReismanLab/Software/Gaussian16_RevC/Linux_Binary_AVX2-enabled-CPU/g16/l103.exe)

 GradGradGradGradGradGradGradGradGradGradGradGradGradGradGradGradGradGrad
 Berny optimization.
 FormGI is forming the generalized inverse of G from B-inverse, IUseBI=4.
 Internal  Forces:  Max     0.019968950 RMS     0.005354342
 Search for a local minimum.
 Step number   1 out of a maximum of  107
 All quantities printed in internal units (Hartrees-Bohrs-Radians)
 RMS Force = .53543D-02 SwitMx=.10000D-02 MixMth= 1
 Mixed Optimization -- RFO/linear search
 Second derivative matrix not updated -- first step.
 ITU=  0
     Eigenvalues ---    0.00642   0.00801   0.01316   0.01408   0.01422
     Eigenvalues ---    0.01461   0.01733   0.01823   0.02191   0.02217
     Eigenvalues ---    0.02227   0.02257   0.02276   0.02584   0.02633
     Eigenvalues ---    0.02676   0.10097   0.10298   0.10641   0.10746
     Eigenvalues ---    0.16000   0.16000   0.16000   0.16000   0.16000
     Eigenvalues ---    0.16000   0.16000   0.16000   0.23492   0.23552
     Eigenvalues ---    0.24987   0.24997   0.25000   0.25000   0.25000
     Eigenvalues ---    0.25000   0.25000   0.25000   0.25000   0.25000
     Eigenvalues ---    0.31417   0.32661   0.33726   0.34592   0.34594
     Eigenvalues ---    0.34741   0.34845   0.34850   0.35204   0.36211
     Eigenvalues ---    0.36230   0.42246   0.42816   0.42849   0.45491
     Eigenvalues ---    0.46567   0.47620   0.58583   0.59776   0.60142
     Eigenvalues ---    0.60563   1.01799   1.02250
 RFO step:  Lambda=-6.85237783D-03 EMin= 6.42438675D-03
 Linear search not attempted -- first point.
 Iteration  1 RMS(Cart)=  0.14504866 RMS(Int)=  0.00467393
 Iteration  2 RMS(Cart)=  0.02243712 RMS(Int)=  0.00009963
 Iteration  3 RMS(Cart)=  0.00019101 RMS(Int)=  0.00005660
 Iteration  4 RMS(Cart)=  0.00000003 RMS(Int)=  0.00005660
 ITry= 1 IFail=0 DXMaxC= 7.65D-01 DCOld= 1.00D+10 DXMaxT= 3.00D-01 DXLimC= 3.00D+00 Rises=F
 Variable       Old X    -DE/DX   Delta X   Delta X   Delta X     New X
                                 (Linear)    (Quad)   (Total)
    R1        2.67856   0.01558   0.00000   0.03579   0.03579   2.71435
    R2        2.05927  -0.00094   0.00000  -0.00263  -0.00263   2.05664
    R3        2.06098   0.00038   0.00000   0.00107   0.00107   2.06204
    R4        2.05919   0.00164   0.00000   0.00460   0.00460   2.06379
    R5        2.50497   0.01997   0.00000   0.03260   0.03260   2.53758
    R6        2.27927   0.01432   0.00000   0.01397   0.01397   2.29324
    R7        2.85223   0.00672   0.00000   0.02092   0.02092   2.87315
    R8        2.64015   0.00527   0.00000   0.01136   0.01137   2.65152
    R9        2.49921   0.01210   0.00000   0.02021   0.02022   2.51943
   R10        2.61943   0.00533   0.00000   0.01011   0.01011   2.62954
   R11        2.03753   0.00280   0.00000   0.00759   0.00759   2.04512
   R12        3.24794   0.01225   0.00000   0.03561   0.03561   3.28356
   R13        2.62410   0.00554   0.00000   0.01059   0.01058   2.63468
   R14        2.63009   0.00367   0.00000   0.00769   0.00769   2.63778
   R15        2.03724   0.00332   0.00000   0.00900   0.00900   2.04624
   R16        2.82952   0.00511   0.00000   0.01531   0.01531   2.84483
   R17        2.50284   0.01321   0.00000   0.02213   0.02213   2.52498
   R18        2.27751   0.01746   0.00000   0.01697   0.01697   2.29448
   R19        2.51118   0.01148   0.00000   0.01898   0.01898   2.53016
   R20        2.68610   0.00938   0.00000   0.02185   0.02185   2.70796
   R21        2.05344   0.00162   0.00000   0.00450   0.00450   2.05795
   R22        2.06339   0.00086   0.00000   0.00244   0.00244   2.06583
   R23        2.06343   0.00083   0.00000   0.00234   0.00234   2.06577
    A1        1.94238   0.00238   0.00000   0.01550   0.01545   1.95783
    A2        1.94715   0.00151   0.00000   0.00898   0.00893   1.95607
    A3        1.82986  -0.00108   0.00000  -0.00759  -0.00759   1.82227
    A4        1.90067  -0.00136   0.00000  -0.00621  -0.00630   1.89437
    A5        1.92478  -0.00028   0.00000  -0.00127  -0.00126   1.92352
    A6        1.91839  -0.00118   0.00000  -0.00963  -0.00962   1.90876
    A7        2.17752   0.01930   0.00000   0.07516   0.07516   2.25268
    A8        2.07814  -0.00362   0.00000  -0.01411  -0.01426   2.06388
    A9        2.11828   0.01065   0.00000   0.04142   0.04128   2.15956
   A10        2.08676  -0.00703   0.00000  -0.02742  -0.02756   2.05920
   A11        2.03763  -0.00461   0.00000  -0.01904  -0.01912   2.01850
   A12        2.10227   0.00566   0.00000   0.02097   0.02086   2.12313
   A13        2.14263  -0.00106   0.00000  -0.00274  -0.00280   2.13983
   A14        2.06338   0.00011   0.00000  -0.00139  -0.00139   2.06199
   A15        2.08427   0.00029   0.00000   0.00276   0.00276   2.08703
   A16        2.13551  -0.00040   0.00000  -0.00138  -0.00138   2.13414
   A17        2.10199  -0.00127   0.00000  -0.00318  -0.00318   2.09882
   A18        2.08141   0.00266   0.00000   0.00684   0.00683   2.08824
   A19        2.09978  -0.00139   0.00000  -0.00366  -0.00366   2.09612
   A20        2.05361   0.00017   0.00000  -0.00149  -0.00150   2.05210
   A21        2.13785  -0.00032   0.00000  -0.00066  -0.00065   2.13720
   A22        2.09173   0.00015   0.00000   0.00214   0.00215   2.09388
   A23        2.07669  -0.00560   0.00000  -0.02246  -0.02246   2.05424
   A24        2.15563  -0.00073   0.00000  -0.00150  -0.00150   2.15412
   A25        2.05086   0.00633   0.00000   0.02395   0.02396   2.07482
   A26        2.15434  -0.00257   0.00000  -0.01002  -0.01002   2.14432
   A27        1.95654   0.00307   0.00000   0.01194   0.01193   1.96848
   A28        2.17230  -0.00049   0.00000  -0.00192  -0.00192   2.17038
   A29        2.02349  -0.00303   0.00000  -0.01181  -0.01181   2.01169
   A30        1.85385  -0.00118   0.00000  -0.00792  -0.00791   1.84594
   A31        1.92571   0.00114   0.00000   0.00722   0.00720   1.93291
   A32        1.92576   0.00128   0.00000   0.00817   0.00816   1.93392
   A33        1.93106  -0.00035   0.00000  -0.00313  -0.00312   1.92794
   A34        1.93154  -0.00030   0.00000  -0.00251  -0.00250   1.92904
   A35        1.89605  -0.00057   0.00000  -0.00173  -0.00177   1.89427
   A36        2.06967  -0.00115   0.00000   0.00022   0.00023   2.06991
    D1       -1.18138  -0.00050   0.00000  -0.01429  -0.01436  -1.19574
    D2        0.94544   0.00050   0.00000  -0.00498  -0.00491   0.94052
    D3        3.02105  -0.00077   0.00000  -0.01634  -0.01634   3.00470
    D4       -3.10702   0.00193   0.00000   0.06397   0.06405  -3.04297
    D5        0.03074   0.00128   0.00000   0.03155   0.03147   0.06221
    D6       -2.86816   0.00073   0.00000   0.05789   0.05780  -2.81036
    D7        0.31143   0.00134   0.00000   0.08121   0.08121   0.39264
    D8        0.26958   0.00008   0.00000   0.02534   0.02533   0.29492
    D9       -2.83402   0.00069   0.00000   0.04866   0.04875  -2.78527
   D10       -3.11075   0.00015   0.00000   0.00973   0.00952  -3.10124
   D11        0.02368   0.00012   0.00000   0.00870   0.00853   0.03221
   D12       -0.00811  -0.00032   0.00000  -0.01363  -0.01358  -0.02170
   D13        3.12633  -0.00035   0.00000  -0.01466  -0.01458   3.11175
   D14        3.10131  -0.00041   0.00000  -0.01304  -0.01331   3.08800
   D15        0.00007   0.00031   0.00000   0.01204   0.01205   0.01212
   D16       -3.13589   0.00012   0.00000   0.00433   0.00434  -3.13156
   D17        0.00891   0.00016   0.00000   0.00652   0.00649   0.01540
   D18        0.01308   0.00014   0.00000   0.00537   0.00534   0.01842
   D19       -3.12531   0.00018   0.00000   0.00756   0.00749  -3.11781
   D20       -0.00229   0.00004   0.00000   0.00130   0.00133  -0.00096
   D21        3.13698   0.00002   0.00000   0.00004   0.00007   3.13705
   D22       -3.14067   0.00008   0.00000   0.00349   0.00348  -3.13720
   D23       -0.00140   0.00006   0.00000   0.00222   0.00222   0.00081
   D24        3.13792  -0.00003   0.00000  -0.00142  -0.00144   3.13649
   D25       -0.00614  -0.00006   0.00000  -0.00312  -0.00309  -0.00923
   D26       -0.00141  -0.00001   0.00000  -0.00019  -0.00021  -0.00162
   D27        3.13771  -0.00004   0.00000  -0.00189  -0.00186   3.13585
   D28       -0.00143  -0.00005   0.00000  -0.00292  -0.00291  -0.00434
   D29        3.13807  -0.00006   0.00000  -0.00375  -0.00374   3.13434
   D30       -3.14069  -0.00001   0.00000  -0.00129  -0.00130   3.14119
   D31       -0.00119  -0.00003   0.00000  -0.00212  -0.00213  -0.00332
   D32        0.00728  -0.00011   0.00000  -0.00346  -0.00351   0.00377
   D33       -3.13675  -0.00016   0.00000  -0.00519  -0.00524   3.14119
   D34        3.14004   0.00002   0.00000   0.00081   0.00081   3.14084
   D35       -0.00367   0.00000   0.00000  -0.00004  -0.00004  -0.00372
   D36        3.12643   0.00008   0.00000   0.00206   0.00206   3.12849
   D37       -1.06314  -0.00041   0.00000  -0.00244  -0.00247  -1.06561
   D38        1.03220   0.00043   0.00000   0.00530   0.00533   1.03754
         Item               Value     Threshold  Converged?
 Maximum Force            0.019969     0.000450     NO 
 RMS     Force            0.005354     0.000300     NO 
 Maximum Displacement     0.764860     0.001800     NO 
 RMS     Displacement     0.165552     0.001200     NO 
 Predicted change in Energy=-3.557171D-03
 Lowest energy point so far.  Saving SCF results.
 GradGradGradGradGradGradGradGradGradGradGradGradGradGradGradGradGradGrad

 Leave Link  103 at Tue Sep 17 09:42:24 2024, MaxMem=  1342177280 cpu:               0.1 elap:               0.0
 (Enter /groups/ReismanLab/Software/Gaussian16_RevC/Linux_Binary_AVX2-enabled-CPU/g16/l202.exe)
                          Input orientation:                          
 ---------------------------------------------------------------------
 Center     Atomic      Atomic             Coordinates (Angstroms)
 Number     Number       Type             X           Y           Z
 ---------------------------------------------------------------------
      1          6           0        1.915652   -2.958008   -0.573473
      2          8           0        2.813793   -1.972235   -0.039843
      3          6           0        2.583336   -0.678413    0.236019
      4          8           0        3.519116    0.009391    0.588014
      5          6           0        1.224290   -0.012823    0.088983
      6          6           0        1.239022    1.388223    0.014115
      7          6           0        0.020031    2.053758   -0.071749
      8         17           0       -0.025079    3.787248   -0.182080
      9          6           0       -1.167057    1.322623   -0.062364
     10          6           0       -1.069650   -0.066528    0.033391
     11          6           0       -2.349946   -0.858255    0.050551
     12          8           0       -3.446116   -0.339663   -0.010444
     13          8           0       -2.142263   -2.178204    0.135783
     14          6           0       -3.327317   -2.983594    0.157049
     15          7           0        0.093880   -0.719509    0.105095
     16          1           0        1.127721   -3.219606    0.130219
     17          1           0        1.453279   -2.629625   -1.505709
     18          1           0        2.549592   -3.825401   -0.769584
     19          1           0        2.184643    1.914241    0.032261
     20          1           0       -2.140140    1.793768   -0.122690
     21          1           0       -2.982984   -4.015163    0.214163
     22          1           0       -3.946427   -2.738779    1.024134
     23          1           0       -3.919646   -2.826791   -0.748242
 ---------------------------------------------------------------------
                    Distance matrix (angstroms):
                    1          2          3          4          5
     1  C    0.000000
     2  O    1.436373   0.000000
     3  C    2.509508   1.342828   0.000000
     4  O    3.567296   2.195114   1.213531   0.000000
     5  C    3.096925   2.526344   1.520406   2.348563   0.000000
     6  C    4.437658   3.711536   2.475360   2.725687   1.403122
     7  C    5.381719   4.900484   3.758991   4.105888   2.397255
     8  Cl   7.029801   6.422699   5.188522   5.237038   4.009355
     9  C    5.299824   5.167569   4.261294   4.909969   2.743149
    10  C    4.200115   4.326455   3.709416   4.622785   2.295242
    11  C    4.795175   5.283307   4.940042   5.957144   3.673065
    12  O    5.993438   6.469360   6.043988   6.999604   4.682885
    13  O    4.192590   4.963442   4.958901   6.086156   4.003092
    14  C    5.293679   6.226945   6.344755   7.484473   5.435738
    15  N    2.964825   2.998042   2.493236   3.535074   1.333227
    16  H    1.088325   2.104209   2.930473   4.044103   3.208502
    17  H    1.091187   2.105214   2.849188   3.951678   3.072968
    18  H    1.092113   2.009116   3.303923   4.181947   4.126659
    19  H    4.917121   3.937731   2.631032   2.391262   2.153849
    20  H    6.263548   6.223432   5.343368   5.976310   3.824653
    21  H    5.072927   6.151480   6.489861   7.655985   5.808232
    22  H    6.079834   6.886234   6.892317   7.967243   5.919600
    23  H    5.839389   6.824316   6.919037   8.072464   5.922790
                    6          7          8          9         10
     6  C    0.000000
     7  C    1.391491   0.000000
     8  Cl   2.718779   1.737583   0.000000
     9  C    2.408188   1.394211   2.718974   0.000000
    10  C    2.728853   2.386226   3.998643   1.395851   0.000000
    11  C    4.234228   3.756537   5.199983   2.483588   1.505418
    12  O    4.993667   4.212647   5.363240   2.821347   2.392512
    13  O    4.916024   4.756898   6.337990   3.639516   2.370687
    14  C    6.323343   6.052438   7.540828   4.822694   3.690748
    15  N    2.400451   2.779881   4.517464   2.405891   1.336161
    16  H    4.610635   5.392229   7.107916   5.092636   3.844439
    17  H    4.301032   5.103383   6.716680   4.956780   3.911964
    18  H    5.432647   6.438180   8.057699   6.388724   5.279470
    19  H    1.082230   2.171596   2.904646   3.404829   3.809707
    20  H    3.406159   2.176357   2.907056   1.082824   2.151979
    21  H    6.860170   6.777289   8.353671   5.644999   4.391496
    22  H    6.703817   6.316815   7.708498   5.039877   4.049486
    23  H    6.705176   6.308601   7.696343   5.026411   4.043819
                   11         12         13         14         15
    11  C    0.000000
    12  O    1.214186   0.000000
    13  O    1.338903   2.258683   0.000000
    14  C    2.341722   2.651894   1.432990   0.000000
    15  N    2.448369   3.562191   2.670031   4.102848   0.000000
    16  H    4.204342   5.406833   3.431813   4.461365   2.705539
    17  H    4.474843   5.611044   3.978215   5.073870   2.844503
    18  H    5.786368   6.976760   5.054349   6.008772   4.054892
    19  H    5.315032   6.065258   5.956587   7.374690   3.363515
    20  H    2.665944   2.503937   3.980373   4.930601   3.370355
    21  H    3.223906   3.711366   2.021725   1.089018   4.510024
    22  H    2.651977   2.660154   2.087683   1.093192   4.609356
    23  H    2.641431   2.637116   2.088362   1.093158   4.612722
                   16         17         18         19         20
    16  H    0.000000
    17  H    1.769273   0.000000
    18  H    1.788394   1.781478   0.000000
    19  H    5.242429   4.852521   5.806861   0.000000
    20  H    5.989724   5.864453   7.347593   4.329235   0.000000
    21  H    4.187822   4.955614   5.622559   7.867356   5.879416
    22  H    5.174674   5.963962   6.826158   7.760439   5.012171
    23  H    5.138278   5.429636   6.545893   7.768456   4.990743
                   21         22         23
    21  H    0.000000
    22  H    1.792604   0.000000
    23  H    1.793261   1.774762   0.000000
 Stoichiometry    C9H8ClNO4
 Framework group  C1[X(C9H8ClNO4)]
 Deg. of freedom    63
 Full point group                 C1      NOp   1
 RotChk:  IX=0 Diff= 1.74D-01
 Largest Abelian subgroup         C1      NOp   1
 Largest concise Abelian subgroup C1      NOp   1
                         Standard orientation:                         
 ---------------------------------------------------------------------
 Center     Atomic      Atomic             Coordinates (Angstroms)
 Number     Number       Type             X           Y           Z
 ---------------------------------------------------------------------
      1          6           0       -0.648792    3.418771    0.612670
      2          8           0        0.682181    3.360538    0.075747
      3          6           0        1.432302    2.284618   -0.212180
      4          8           0        2.579833    2.462112   -0.564780
      5          6           0        0.940619    0.852165   -0.078161
      6          6           0        1.940754   -0.129916   -0.014928
      7          6           0        1.548055   -1.462814    0.058689
      8         17           0        2.740704   -2.722832    0.154276
      9          6           0        0.191283   -1.783592    0.048912
     10          6           0       -0.721109   -0.730525   -0.034692
     11          6           0       -2.186677   -1.074167   -0.052247
     12          8           0       -2.596265   -2.216060   -0.001597
     13          8           0       -2.972103    0.007696   -0.125302
     14          6           0       -4.379906   -0.258966   -0.146328
     15          7           0       -0.358776    0.554176   -0.094558
     16          1           0       -1.392770    3.054335   -0.093116
     17          1           0       -0.742287    2.850631    1.539582
     18          1           0       -0.812258    4.478588    0.819497
     19          1           0        2.981659    0.165784   -0.032290
     20          1           0       -0.164684   -2.804958    0.099965
     21          1           0       -4.864859    0.715000   -0.192929
     22          1           0       -4.647026   -0.861040   -1.018808
     23          1           0       -4.686639   -0.797172    0.754362
[...]
 Alpha  occ. eigenvalues --  -14.78633 -10.69280 -10.68949 -10.64437 -10.62147
 Alpha  occ. eigenvalues --  -10.62053 -10.59571 -10.59104 -10.58749 -10.58688
 Alpha  occ. eigenvalues --   -9.83128  -7.55332  -7.54813  -7.54783  -1.24887
 Alpha  occ. eigenvalues --   -1.23500  -1.15570  -1.14862  -1.09499  -1.00320
 Alpha  occ. eigenvalues --   -0.91615  -0.90089  -0.83874  -0.82650  -0.77167
 Alpha  occ. eigenvalues --   -0.75824  -0.67861  -0.65669  -0.62763  -0.62345
 Alpha  occ. eigenvalues --   -0.59143  -0.58411  -0.58204  -0.57035  -0.56747
 Alpha  occ. eigenvalues --   -0.55465  -0.52079  -0.51603  -0.50599  -0.49099
 Alpha  occ. eigenvalues --   -0.48376  -0.47784  -0.47385  -0.44433  -0.44360
 Alpha  occ. eigenvalues --   -0.43107  -0.40138  -0.39828  -0.39073  -0.37622
 Alpha  occ. eigenvalues --   -0.37047  -0.35136  -0.35001  -0.34454
 Alpha virt. eigenvalues --   -0.05143  -0.04427   0.04158   0.05138   0.07028
 Alpha virt. eigenvalues --    0.08908   0.09353   0.10392   0.10917   0.12275
 Alpha virt. eigenvalues --    0.12512   0.12755   0.13824   0.15242   0.15636
 Alpha virt. eigenvalues --    0.17047   0.17489   0.17967   0.19141   0.20822
 Alpha virt. eigenvalues --    0.21702   0.22328   0.22606   0.23962   0.24092
 Alpha virt. eigenvalues --    0.24358   0.25778   0.26332   0.26595   0.27168
 Alpha virt. eigenvalues --    0.28109   0.28738   0.29344   0.30089   0.31071
 Alpha virt. eigenvalues --    0.31429   0.31672   0.32825   0.33532   0.34525
 Alpha virt. eigenvalues --    0.35078   0.35958   0.36142   0.37773   0.38233
 Alpha virt. eigenvalues --    0.39364   0.39520   0.40381   0.40925   0.41205
 Alpha virt. eigenvalues --    0.41707   0.42336   0.43405   0.43912   0.45110
 Alpha virt. eigenvalues --    0.46068   0.46500   0.47230   0.47922   0.48800
 Alpha virt. eigenvalues --    0.49098   0.49577   0.50376   0.51041   0.51798
 Alpha virt. eigenvalues --    0.52655   0.54348   0.55202   0.55952   0.56805
 Alpha virt. eigenvalues --    0.57664   0.58527   0.59136   0.60348   0.60755
 Alpha virt. eigenvalues --    0.60918   0.62848   0.63231   0.63787   0.64014
 Alpha virt. eigenvalues --    0.64642   0.65280   0.66825   0.67707   0.68264
 Alpha virt. eigenvalues --    0.69595   0.70638   0.72144   0.72483   0.73365
 Alpha virt. eigenvalues --    0.74547   0.75093   0.75738   0.76201   0.77457
 Alpha virt. eigenvalues --    0.79107   0.79710   0.81124   0.81706   0.82684
 Alpha virt. eigenvalues --    0.83677   0.84755   0.85317   0.87752   0.88484
 Alpha virt. eigenvalues --    0.89128   0.90516   0.92298   0.93352   0.94897
 Alpha virt. eigenvalues --    0.95444   0.96624   0.96858   0.99415   1.00924
 Alpha virt. eigenvalues --    1.01349   1.02254   1.03376   1.04256   1.05401
 Alpha virt. eigenvalues --    1.06560   1.09739   1.10576   1.11167   1.12943
 Alpha virt. eigenvalues --    1.13171   1.16019   1.16551   1.19279   1.22112
 Alpha virt. eigenvalues --    1.24538   1.24805   1.26133   1.27059   1.30662
 Alpha virt. eigenvalues --    1.32009   1.34839   1.36126   1.37392   1.39559
 Alpha virt. eigenvalues --    1.41313   1.41606   1.42464   1.43737   1.46430
 Alpha virt. eigenvalues --    1.46799   1.48356   1.48972   1.50038   1.51243
 Alpha virt. eigenvalues --    1.51898   1.53234   1.54762   1.55627   1.56431
 Alpha virt. eigenvalues --    1.57083   1.57353   1.57895   1.59882   1.61104
 Alpha virt. eigenvalues --    1.62360   1.62773   1.64515   1.65216   1.67145
 Alpha virt. eigenvalues --    1.68229   1.68412   1.69767   1.72427   1.73755
 Alpha virt. eigenvalues --    1.76556   1.77953   1.78226   1.79775   1.80416
 Alpha virt. eigenvalues --    1.81828   1.82778   1.83630   1.84738   1.85441
 Alpha virt. eigenvalues --    1.86360   1.87173   1.89757   1.90387   1.90434
 Alpha virt. eigenvalues --    1.92564   1.94049   1.95712   1.96510   1.96680
 Alpha virt. eigenvalues --    1.98396   1.99009   2.00892   2.01732   2.02128
 Alpha virt. eigenvalues --    2.02771   2.03246   2.04666   2.06623   2.07924
 Alpha virt. eigenvalues --    2.09047   2.09311   2.10330   2.10765   2.11855
 Alpha virt. eigenvalues --    2.13828   2.14310   2.16108   2.16836   2.17001
 Alpha virt. eigenvalues --    2.19031   2.19818   2.21032   2.21828   2.25305
 Alpha virt. eigenvalues --    2.26235   2.26789   2.28065   2.28790   2.30204
 Alpha virt. eigenvalues --    2.32418   2.32621   2.33089   2.35016   2.36032
 Alpha virt. eigenvalues --    2.37440   2.38205   2.39589   2.40226   2.41079
 Alpha virt. eigenvalues --    2.43466   2.45236   2.46581   2.47761   2.48999
 Alpha virt. eigenvalues --    2.50671   2.52244   2.54247   2.55314   2.55398
 Alpha virt. eigenvalues --    2.56216   2.58642   2.58950   2.60142   2.62635
 Alpha virt. eigenvalues --    2.64357   2.65341   2.67174   2.68156   2.69272
 Alpha virt. eigenvalues --    2.69624   2.71955   2.72049   2.73192   2.76808
 Alpha virt. eigenvalues --    2.78127   2.79099   2.80526   2.80719   2.83028
 Alpha virt. eigenvalues --    2.85266   2.85336   2.85684   2.86370   2.89673
 Alpha virt. eigenvalues --    2.91144   2.92592   2.93669   2.94677   2.96749
 Alpha virt. eigenvalues --    2.98059   3.00509   3.01986   3.02569   3.03516
 Alpha virt. eigenvalues --    3.04972   3.05968   3.06164   3.08246   3.08878
 Alpha virt. eigenvalues --    3.10654   3.11546   3.11800   3.12257   3.14286
 Alpha virt. eigenvalues --    3.14934   3.16867   3.17559   3.18575   3.19816
 Alpha virt. eigenvalues --    3.20066   3.20276   3.21576   3.21833   3.23302
 Alpha virt. eigenvalues --    3.23615   3.25200   3.26618   3.27938   3.28353
 Alpha virt. eigenvalues --    3.29296   3.29941   3.30789   3.31579   3.32225
 Alpha virt. eigenvalues --    3.33402   3.34404   3.35143   3.36724   3.38264
 Alpha virt. eigenvalues --    3.39109   3.39566   3.40923   3.42317   3.43245
 Alpha virt. eigenvalues --    3.44205   3.46369   3.46620   3.47100   3.48627
 Alpha virt. eigenvalues --    3.51102   3.51386   3.54391   3.54915   3.55633
 Alpha virt. eigenvalues --    3.57001   3.57872   3.58564   3.59579   3.61396
 Alpha virt. eigenvalues --    3.62799   3.64372   3.68306   3.70875   3.72384
 Alpha virt. eigenvalues --    3.74224   3.74991   3.77218   3.80195   3.83333
 Alpha virt. eigenvalues --    3.88198   3.91722   3.94577   3.96265   3.98212
 Alpha virt. eigenvalues --    4.00072   4.00913   4.03843   4.04857   4.07051
 Alpha virt. eigenvalues --    4.10912   4.12615   4.14017   4.16981   4.17848
 Alpha virt. eigenvalues --    4.21003   4.22920   4.27602   4.29766   4.30375
 Alpha virt. eigenvalues --    4.32531   4.34852   4.35496   4.38242   4.38775
 Alpha virt. eigenvalues --    4.40865   4.41423   4.47860   4.49107   4.57456
 Alpha virt. eigenvalues --    4.58598   4.61537   4.63049   4.65451   4.67076
 Alpha virt. eigenvalues --    4.73967   4.78446   4.83353   4.89044   4.91956
 Alpha virt. eigenvalues --    4.92838   4.94921   5.04910   5.06243   5.11257
 Alpha virt. eigenvalues --    5.16858   5.17076   5.17547   5.20194   5.24057
 Alpha virt. eigenvalues --    5.24663   5.26700   5.28249   5.31537   5.34261
 Alpha virt. eigenvalues --    5.37105   5.41735   5.43358   5.47947   5.48663
 Alpha virt. eigenvalues --    5.51814   5.58027   5.62532   5.65267   5.73936
 Alpha virt. eigenvalues --    5.75535   5.80646   5.83582   5.87108   5.91419
 Alpha virt. eigenvalues --    5.95243   5.95776   6.02600   6.09862   6.14100
 Alpha virt. eigenvalues --    6.16541   6.22465   6.29019   6.34063   6.37137
 Alpha virt. eigenvalues --    6.39197   6.39489   6.52388   6.54417   6.60913
 Alpha virt. eigenvalues --    6.63187   6.69334   6.72569   6.73788   6.81715
 Alpha virt. eigenvalues --    6.83294   6.85652   6.89028   6.90589   7.02189
 Alpha virt. eigenvalues --    7.02411   7.11380   7.14091   7.14684   7.27918
 Alpha virt. eigenvalues --    7.34379   7.41021  10.79736  10.87427  11.39782
 Alpha virt. eigenvalues --   22.40391  22.42921  22.46148  22.77488  22.79202
 Alpha virt. eigenvalues --   23.06149  23.25020  23.41496  23.47862  26.02558
 Alpha virt. eigenvalues --   32.82173  44.03265  44.04518  44.26458  44.29724
          Condensed to atoms (all electrons):
               1          2          3          4          5          6
     1  C    4.919546   0.191560  -0.056098   0.002250   0.027577  -0.000402
     2  O    0.191560   7.900266   0.430383  -0.087508  -0.123054   0.010507
     3  C   -0.056098   0.430383   4.517460   0.705191   0.116892  -0.029255
     4  O    0.002250  -0.087508   0.705191   7.841626  -0.177503   0.032303
     5  C    0.027577  -0.123054   0.116892  -0.177503   5.526049   0.346591
     6  C   -0.000402   0.010507  -0.029255   0.032303   0.346591   5.200642
     7  C   -0.000242  -0.000376   0.010553   0.004863  -0.035427   0.368394
     8  Cl  -0.000001   0.000003  -0.000155   0.000018   0.009213  -0.064279
     9  C   -0.000025   0.000294   0.005055   0.000570  -0.066885   0.045153
    10  C   -0.003765  -0.000882  -0.011142  -0.001813  -0.070756  -0.060853
    11  C   -0.000192  -0.000173  -0.003425  -0.000079  -0.007674   0.005853
    12  O   -0.000015  -0.000000  -0.000022  -0.000000  -0.000564   0.000024
    13  O   -0.001362   0.000008  -0.000098  -0.000000  -0.001255   0.000051
    14  C    0.000149  -0.000001  -0.000004  -0.000000  -0.000058   0.000026
    15  N   -0.034008   0.003730  -0.006842   0.003792   0.381529  -0.081701
    16  H    0.417653  -0.028167  -0.009061  -0.000147  -0.000670  -0.001674
    17  H    0.416490  -0.036197  -0.014453   0.000545   0.011361   0.003317
    18  H    0.396987  -0.033344   0.006275  -0.000032  -0.004969   0.000311
    19  H   -0.000011   0.000346  -0.008396   0.010909  -0.015080   0.395960
    20  H    0.000019  -0.000001  -0.000014  -0.000002  -0.001186   0.009132
    21  H    0.000111  -0.000001   0.000003  -0.000000  -0.000003   0.000001
    22  H    0.000007  -0.000000   0.000001   0.000000  -0.000014  -0.000003
    23  H   -0.000037   0.000000  -0.000002   0.000000   0.000018   0.000002
               7          8          9         10         11         12
     1  C   -0.000242  -0.000001  -0.000025  -0.003765  -0.000192  -0.000015
     2  O   -0.000376   0.000003   0.000294  -0.000882  -0.000173  -0.000000
     3  C    0.010553  -0.000155   0.005055  -0.011142  -0.003425  -0.000022
     4  O    0.004863   0.000018   0.000570  -0.001813  -0.000079  -0.000000
     5  C   -0.035427   0.009213  -0.066885  -0.070756  -0.007674  -0.000564
     6  C    0.368394  -0.064279   0.045153  -0.060853   0.005853   0.000024
     7  C    4.924180   0.354766   0.369157  -0.025565  -0.001332   0.006237
     8  Cl   0.354766  16.808274  -0.065982   0.007727  -0.000865   0.000021
     9  C    0.369157  -0.065982   5.190956   0.427399  -0.070197   0.026343
    10  C   -0.025565   0.007727   0.427399   5.106521   0.289070  -0.145557
    11  C   -0.001332  -0.000865  -0.070197   0.289070   4.474838   0.662400
    12  O    0.006237   0.000021   0.026343  -0.145557   0.662400   7.859865
    13  O    0.000307   0.000002   0.010528  -0.108873   0.405652  -0.077307
    14  C   -0.000053  -0.000001  -0.000860   0.010332  -0.054812   0.000396
    15  N   -0.004898  -0.000282  -0.084608   0.483760  -0.024838   0.003677
    16  H    0.000002   0.000000  -0.000079   0.001075  -0.000060   0.000032
    17  H    0.000095   0.000001   0.000064  -0.001965   0.000492   0.000002
    18  H   -0.000001   0.000000   0.000020   0.000054  -0.000019   0.000000
    19  H   -0.038375   0.000174   0.010663  -0.000823   0.000187  -0.000003
    20  H   -0.036869   0.000762   0.388179  -0.007319  -0.009491   0.012029
    21  H   -0.000007  -0.000000  -0.000008   0.002522   0.004283   0.001522
    22  H    0.000004   0.000000  -0.000098  -0.001350  -0.008554   0.003856
    23  H   -0.000002   0.000000   0.000049  -0.002366  -0.008473   0.003924
              13         14         15         16         17         18
     1  C   -0.001362   0.000149  -0.034008   0.417653   0.416490   0.396987
     2  O    0.000008  -0.000001   0.003730  -0.028167  -0.036197  -0.033344
     3  C   -0.000098  -0.000004  -0.006842  -0.009061  -0.014453   0.006275
     4  O   -0.000000  -0.000000   0.003792  -0.000147   0.000545  -0.000032
     5  C   -0.001255  -0.000058   0.381529  -0.000670   0.011361  -0.004969
     6  C    0.000051   0.000026  -0.081701  -0.001674   0.003317   0.000311
     7  C    0.000307  -0.000053  -0.004898   0.000002   0.000095  -0.000001
     8  Cl   0.000002  -0.000001  -0.000282   0.000000   0.000001   0.000000
     9  C    0.010528  -0.000860  -0.084608  -0.000079   0.000064   0.000020
    10  C   -0.108873   0.010332   0.483760   0.001075  -0.001965   0.000054
    11  C    0.405652  -0.054812  -0.024838  -0.000060   0.000492  -0.000019
    12  O   -0.077307   0.000396   0.003677   0.000032   0.000002   0.000000
    13  O    7.918712   0.205813  -0.014816   0.003987   0.000145   0.000056
    14  C    0.205813   4.877675  -0.000542  -0.000266  -0.000005  -0.000007
    15  N   -0.014816  -0.000542   6.638594  -0.003402  -0.006357   0.003338
    16  H    0.003987  -0.000266  -0.003402   0.517098  -0.040791  -0.023523
    17  H    0.000145  -0.000005  -0.006357  -0.040791   0.520414  -0.019525
    18  H    0.000056  -0.000007   0.003338  -0.023523  -0.019525   0.511526
    19  H   -0.000000   0.000000   0.003596  -0.000015   0.000056  -0.000004
    20  H    0.000531  -0.000119   0.004457  -0.000004   0.000001  -0.000000
    21  H   -0.031002   0.397784  -0.000106  -0.000235  -0.000004  -0.000006
    22  H   -0.032119   0.418998  -0.000069   0.000016   0.000001   0.000000
    23  H   -0.031761   0.418226  -0.000084   0.000055  -0.000001  -0.000001
              19         20         21         22         23
     1  C   -0.000011   0.000019   0.000111   0.000007  -0.000037
     2  O    0.000346  -0.000001  -0.000001  -0.000000   0.000000
     3  C   -0.008396  -0.000014   0.000003   0.000001  -0.000002
     4  O    0.010909  -0.000002  -0.000000   0.000000   0.000000
     5  C   -0.015080  -0.001186  -0.000003  -0.000014   0.000018
     6  C    0.395960   0.009132   0.000001  -0.000003   0.000002
     7  C   -0.038375  -0.036869  -0.000007   0.000004  -0.000002
     8  Cl   0.000174   0.000762  -0.000000   0.000000   0.000000
     9  C    0.010663   0.388179  -0.000008  -0.000098   0.000049
    10  C   -0.000823  -0.007319   0.002522  -0.001350  -0.002366
    11  C    0.000187  -0.009491   0.004283  -0.008554  -0.008473
    12  O   -0.000003   0.012029   0.001522   0.003856   0.003924
    13  O   -0.000000   0.000531  -0.031002  -0.032119  -0.031761
    14  C    0.000000  -0.000119   0.397784   0.418998   0.418226
    15  N    0.003596   0.004457  -0.000106  -0.000069  -0.000084
    16  H   -0.000015  -0.000004  -0.000235   0.000016   0.000055
    17  H    0.000056   0.000001  -0.000004   0.000001  -0.000001
    18  H   -0.000004  -0.000000  -0.000006   0.000000  -0.000001
    19  H    0.435716   0.000031   0.000000   0.000000   0.000000
    20  H    0.000031   0.434227   0.000003  -0.000015  -0.000012
    21  H    0.000000   0.000003   0.510723  -0.022494  -0.023075
    22  H    0.000000  -0.000015  -0.022494   0.517709  -0.039947
    23  H    0.000000  -0.000012  -0.023075  -0.039947   0.520829
 Mulliken charges:
               1
     1  C   -0.276194
     2  O   -0.227393
     3  C    0.347153
     4  O   -0.334982
     5  C    0.085869
     6  C   -0.180101
     7  C    0.104591
     8  Cl  -0.049397
     9  C   -0.185683
    10  C    0.114571
    11  C    0.347408
    12  O   -0.356858
    13  O   -0.247197
    14  C   -0.272669
    15  N   -0.263921
    16  H    0.168176
    17  H    0.166315
    18  H    0.162862
    19  H    0.205068
    20  H    0.205663
    21  H    0.159990
    22  H    0.164072
    23  H    0.162658
 Sum of Mulliken charges =  -0.00000
 Mulliken charges with hydrogens summed into heavy atoms:
               1
     1  C    0.221159
     2  O   -0.227393
     3  C    0.347153
     4  O   -0.334982
     5  C    0.085869
     6  C    0.024967
     7  C    0.104591
     8  Cl  -0.049397
     9  C    0.019980
    10  C    0.114571
    11  C    0.347408
    12  O   -0.356858
    13  O   -0.247197
    14  C    0.214051
    15  N   -0.263921
 Electronic spatial extent (au):  <R**2>=           4093.2215
 Charge=             -0.0000 electrons
 Dipole moment (field-independent basis, Debye):
    X=             -3.6811    Y=             -0.9275    Z=              1.9012  Tot=              4.2456
 Quadrupole moment (field-independent basis, Debye-Ang):
   XX=            -86.9849   YY=           -104.4043   ZZ=            -91.4645
   XY=            -15.0101   XZ=              2.7613   YZ=              6.3334
 Traceless Quadrupole moment (field-independent basis, Debye-Ang):
   XX=              7.2997   YY=            -10.1198   ZZ=              2.8201
   XY=            -15.0101   XZ=              2.7613   YZ=              6.3334
 Octapole moment (field-independent basis, Debye-Ang**2):
  XXX=            -89.8052  YYY=             -6.2195  ZZZ=              0.2348  XYY=            -24.2069
  XXY=             -6.7694  XXZ=              4.7573  XZZ=             -8.5868  YZZ=              3.5746
  YYZ=             19.4742  XYZ=              5.2097
 Hexadecapole moment (field-independent basis, Debye-Ang**3):
 XXXX=          -2402.8031 YYYY=          -2359.5166 ZZZZ=           -159.2103 XXXY=            -90.0369
 XXXZ=             39.1453 YYYX=           -187.2366 YYYZ=             59.1450 ZZZX=              0.3621
 ZZZY=              1.5992 XXYY=           -947.0446 XXZZ=           -484.6617 YYZZ=           -399.5773
 XXYZ=             22.8616 YYXZ=             13.6492 ZZXY=              3.1582
 N-N= 1.067310203040D+03 E-N=-4.873423985951D+03  KE= 1.159714033041D+03
 Calculating spin-rotation constants.
 Leave Link  601 at Tue Sep 17 11:45:20 2024, MaxMem=  1342177280 cpu:               9.5 elap:               9.9
 (Enter /groups/ReismanLab/Software/Gaussian16_RevC/Linux_Binary_AVX2-enabled-CPU/g16/l9999.exe)
 Unable to Open any file for archive entry.
 1\1\GINC-HPC-80-18\SP\RM062X\def2TZVP\C9H8Cl1N1O4\MANTIND\17-Sep-2024\
 0\\#p M062X/def2tzvp geom=check guess=read scf(xqc,tight) integral(gri
 d=ultrafine) scrf(SMD, solvent=1,4-Dioxane) nmr=giao\\spe\\0,1\C,0,1.8
 024134752,-2.8172827592,-0.6658142516\O,0,2.7303910258,-2.0252512613,0
 .0996877944\C,0,2.582499555,-0.7157691826,0.3538385368\O,0,3.520852889
 1,-0.080511131,0.7843986993\C,0,1.2507203962,-0.0309212443,0.140501878
 6\C,0,1.2680394463,1.3637991305,0.0072416036\C,0,0.047035716,2.0129580
 785,-0.1302321966\Cl,0,-0.0054509371,3.7472797796,-0.3175793064\C,0,-1
 .1363805295,1.2800364114,-0.112278137\C,0,-1.0336109943,-0.1045009972,
 0.0411637484\C,0,-2.3088793988,-0.898594711,0.0640816733\O,0,-3.406656
 5316,-0.3861278637,-0.0259551457\O,0,-2.0957133046,-2.2157539696,0.188
 0822493\C,0,-3.2885749393,-3.0192233727,0.2196622654\N,0,0.1288126652,
 -0.7527889086,0.1606985289\H,0,0.9335138405,-3.0900411619,-0.069343246
 2\H,0,1.4681648276,-2.2852634602,-1.559378236\H,0,2.37129238,-3.701165
 8544,-0.9578334873\H,0,2.2095192915,1.8964141184,0.0272855593\H,0,-2.1
 095366639,1.7430392491,-0.2105071988\H,0,-2.9445144783,-4.0464263111,0
 .3298595127\H,0,-3.9207404091,-2.7300612252,1.0621183074\H,0,-3.855466
 6587,-2.8971901498,-0.7060993895\\Version=ES64L-G16RevC.02\State=1-A\H
 F=-1163.6343587\RMSD=4.976e-09\Dipole=-1.2458834,-0.824735,-0.7467626\
 Quadrupole=-12.266302,10.5346344,1.7316676,5.702107,-5.3790747,1.57628
 77\PG=C01 [X(C9H8Cl1N1O4)]\\@
 The archive entry for this job was punched.


 REPARTEE - WHAT YOU THINK OF AFTER YOU BECOME A DEPARTEE.
 Job cpu time:       0 days  0 hours 31 minutes 29.7 seconds.
 Elapsed time:       0 days  0 hours 31 minutes 40.9 seconds.
 File lengths (MBytes):  RWF=    360 Int=      0 D2E=      0 Chk=     32 Scr=     16
 Normal termination of Gaussian 16 at Tue Sep 17 11:45:21 2024.
