 Entering Gaussian System, Link 0=g16
 Input=smiles_00119_conf_0.gjf
 Output=smiles_00119_conf_0.log
 Initial command:
 /groups/ReismanLab/Software/Gaussian16_RevC/Linux_Binary_AVX2-enabled-CPU/g16/l1.exe "/central/groups/ReismanLab/DM/dft_final/smiles_00119/Gau-1780104.inp" -scrdir="/central/groups/ReismanLab/DM/dft_final/smiles_00119/"
 Entering Link 1 = /groups/ReismanLab/Software/Gaussian16_RevC/Linux_Binary_AVX2-enabled-CPU/g16/l1.exe PID=   1780105.
  
 Copyright (c) 1988-2021, Gaussian, Inc.  All Rights Reserved.
  
 This is part of the Gaussian(R) 16 program.  It is based on
 the Gaussian(R) 09 system (copyright 2009, Gaussian, Inc.),
 the Gaussian(R) 03 system (copyright 2003, Gaussian, Inc.),
 the Gaussian(R) 98 system (copyright 1998, Gaussian, Inc.),
 the Gaussian(R) 94 system (copyright 1995, Gaussian, Inc.),
 the Gaussian 92(TM) system (copyright 1992, Gaussian, Inc.),
 the Gaussian 90(TM) system (copyright 1990, Gaussian, Inc.),
 the Gaussian 88(TM) system (copyright 1988, Gaussian, Inc.),
 the Gaussian 86(TM) system (copyright 1986, Carnegie Mellon
 University), and the Gaussian 82(TM) system (copyright 1983,
 Carnegie Mellon University). Gaussian is a federally registered
 trademark of Gaussian, Inc.
  
 This software contains proprietary and confidential information,
 including trade secrets, belonging to Gaussian, Inc.
  
 This software is provided under written license and may be
 used, copied, transmitted, or stored only in accord with that
 written license.
  
 The following legend is applicable only to US Government
 contracts under FAR:
  
                    RESTRICTED RIGHTS LEGEND
  
 Use, reproduction and disclosure by the US Government is
 subject to restrictions as set forth in subparagraphs (a)
 and (c) of the Commercial Computer Software - Restricted
 Rights clause in FAR 52.227-19.
  
 Gaussian, Inc.
 340 Quinnipiac St., Bldg. 40, Wallingford CT 06492
  
  
 ---------------------------------------------------------------
 Warning -- This program may not be used in any manner that
 competes with the business of Gaussian, Inc. or will provide
 assistance to any competitor of Gaussian, Inc.  The licensee
 of this program is prohibited from giving any competitor of
 Gaussian, Inc. access to this program.  By using this program,
 the user acknowledges that Gaussian, Inc. is engaged in the
 business of creating and licensing software in the field of
 computational chemistry and represents and warrants to the
 licensee that it is not a competitor of Gaussian, Inc. and that
 it will not use this program in any manner prohibited above.
 ---------------------------------------------------------------
  

 Cite this work as:
 Gaussian 16, Revision C.02,
 M. J. Frisch, G. W. Trucks, H. B. Schlegel, G. E. Scuseria, 
 M. A. Robb, J. R. Cheeseman, G. Scalmani, V. Barone, 
 G. A. Petersson, H. Nakatsuji, X. Li, M. Caricato, A. V. Marenich, 
 J. Bloino, B. G. Janesko, R. Gomperts, B. Mennucci, H. P. Hratchian, 
 J. V. Ortiz, A. F. Izmaylov, J. L. Sonnenberg, D. Williams-Young, 
 F. Ding, F. Lipparini, F. Egidi, J. Goings, B. Peng, A. Petrone, 
 T. Henderson, D. Ranasinghe, V. G. Zakrzewski, J. Gao, N. Rega, 
 G. Zheng, W. Liang, M. Hada, M. Ehara, K. Toyota, R. Fukuda, 
 J. Hasegawa, M. Ishida, T. Nakajima, Y. Honda, O. Kitao, H. Nakai, 
 T. Vreven, K. Throssell, J. A. Montgomery, Jr., J. E. Peralta, 
 F. Ogliaro, M. J. Bearpark, J. J. Heyd, E. N. Brothers, K. N. Kudin, 
 V. N. Staroverov, T. A. Keith, R. Kobayashi, J. Normand, 
 K. Raghavachari, A. P. Rendell, J. C. Burant, S. S. Iyengar, 
 J. Tomasi, M. Cossi, J. M. Millam, M. Klene, C. Adamo, R. Cammi, 
 J. W. Ochterski, R. L. Martin, K. Morokuma, O. Farkas, 
 J. B. Foresman, and D. J. Fox, Gaussian, Inc., Wallingford CT, 2019.
 
 ******************************************
 Gaussian 16:  ES64L-G16RevC.02  7-Dec-2021
                17-Sep-2024 
 ******************************************
 %nprocshared=8
 Will use up to    8 processors via shared memory.
 %Mem=10GB
 %Chk=smiles_00119_conf_0.chk
 ----------------------------------------------------------------------
 #p B3LYP/6-31G(d,p) EmpiricalDispersion=GD3BJ opt freq scf(xqc,tight) 
 integral(grid=ultrafine)
 ----------------------------------------------------------------------
 1/18=20,19=15,26=4,38=1/1,3;
 2/9=110,12=2,17=6,18=5,40=1/2;
 3/5=1,6=6,7=101,11=2,25=1,30=1,71=1,74=-5,75=-5,124=41/1,2,3;
 4//1;
 5/5=2,8=3,13=1,32=2,38=5/2,8;
 6/7=2,8=2,9=2,10=2,28=1/1;
 7//1,2,3,16;
 1/18=20,19=15,26=4/3(2);
 2/9=110/2;
 99//99;
 2/9=110/2;
 3/5=1,6=6,7=101,11=2,25=1,30=1,71=1,74=-5,75=-5,124=41/1,2,3;
 4/5=5,16=3,69=1/1;
 5/5=2,8=3,13=1,32=2,38=5/2,8;
 7//1,2,3,16;
 1/18=20,19=15,26=4/3(-5);
 2/9=110/2;
 6/7=2,8=2,9=2,10=2,19=2,28=1/1;
 99/9=1/99;
 Leave Link    1 at Tue Sep 17 09:50:12 2024, MaxMem=  1342177280 cpu:               0.2 elap:               0.8
 (Enter /groups/ReismanLab/Software/Gaussian16_RevC/Linux_Binary_AVX2-enabled-CPU/g16/l101.exe)
 ----------------------------------
 opt-freq conformers_unique/conf_aa
 ----------------------------------
 Symbolic Z-matrix:
 Charge =  0 Multiplicity = 1
 C                     3.5368   -1.5567   -0.00385 
 O                     2.18465  -1.11991  -0.00445 
 C                     1.99282   0.18815   0.00195 
 O                     2.87036   1.01559   0.00787 
 C                     0.53556   0.55114   0.00055 
 C                     0.15693   1.8917   -0.00184 
 C                    -1.20935   2.13874  -0.00375 
 N                    -2.09864   1.16126  -0.00284 
 C                    -1.62412  -0.07219   0.00007 
 Cl                   -2.76917  -1.3281    0.00185 
 N                    -0.3563   -0.43117   0.00157 
 H                     4.05247  -1.19318   0.88753 
 H                     4.05747  -1.18012  -0.88688 
 H                     3.50377  -2.64272  -0.01189 
 H                     0.899     2.67182  -0.00228 
 H                    -1.61571   3.14117  -0.0062 
 
 ITRead=  0  0  0  0  0  0  0  0  0  0  0  0  0  0  0  0
 MicOpt= -1 -1 -1 -1 -1 -1 -1 -1 -1 -1 -1 -1 -1 -1 -1 -1
 NAtoms=     16 NQM=       16 NQMF=       0 NMMI=      0 NMMIF=      0
                NMic=       0 NMicF=      0.
                    Isotopes and Nuclear Properties:
 (Nuclear quadrupole moments (NQMom) in fm**2, nuclear magnetic moments (NMagM)
  in nuclear magnetons)

  Atom         1           2           3           4           5           6           7           8           9          10
 IAtWgt=          12          16          12          16          12          12          12          14          12          35
 AtmWgt=  12.0000000  15.9949146  12.0000000  15.9949146  12.0000000  12.0000000  12.0000000  14.0030740  12.0000000  34.9688527
 NucSpn=           0           0           0           0           0           0           0           2           0           3
 AtZEff=  -0.0000000  -0.0000000  -0.0000000  -0.0000000  -0.0000000  -0.0000000  -0.0000000  -0.0000000  -0.0000000  -0.0000000
 NQMom=    0.0000000   0.0000000   0.0000000   0.0000000   0.0000000   0.0000000   0.0000000   2.0440000   0.0000000  -8.1650000
 NMagM=    0.0000000   0.0000000   0.0000000   0.0000000   0.0000000   0.0000000   0.0000000   0.4037610   0.0000000   0.8218740
 AtZNuc=   6.0000000   8.0000000   6.0000000   8.0000000   6.0000000   6.0000000   6.0000000   7.0000000   6.0000000  17.0000000

  Atom        11          12          13          14          15          16
 IAtWgt=          14           1           1           1           1           1
 AtmWgt=  14.0030740   1.0078250   1.0078250   1.0078250   1.0078250   1.0078250
 NucSpn=           2           1           1           1           1           1
 AtZEff=  -0.0000000  -0.0000000  -0.0000000  -0.0000000  -0.0000000  -0.0000000
 NQMom=    2.0440000   0.0000000   0.0000000   0.0000000   0.0000000   0.0000000
 NMagM=    0.4037610   2.7928460   2.7928460   2.7928460   2.7928460   2.7928460
 AtZNuc=   7.0000000   1.0000000   1.0000000   1.0000000   1.0000000   1.0000000
 Leave Link  101 at Tue Sep 17 09:50:13 2024, MaxMem=  1342177280 cpu:               0.2 elap:               0.2
 (Enter /groups/ReismanLab/Software/Gaussian16_RevC/Linux_Binary_AVX2-enabled-CPU/g16/l103.exe)

 GradGradGradGradGradGradGradGradGradGradGradGradGradGradGradGradGradGrad
 Berny optimization.
 Initialization pass.
                           ----------------------------
                           !    Initial Parameters    !
                           ! (Angstroms and Degrees)  !
 --------------------------                            --------------------------
 ! Name  Definition              Value          Derivative Info.                !
 --------------------------------------------------------------------------------
 ! R1    R(1,2)                  1.4209         estimate D2E/DX2                !
 ! R2    R(1,12)                 1.0921         estimate D2E/DX2                !
 ! R3    R(1,13)                 1.0921         estimate D2E/DX2                !
 ! R4    R(1,14)                 1.0866         estimate D2E/DX2                !
 ! R5    R(2,3)                  1.3221         estimate D2E/DX2                !
 ! R6    R(3,4)                  1.2061         estimate D2E/DX2                !
 ! R7    R(3,5)                  1.5018         estimate D2E/DX2                !
 ! R8    R(5,6)                  1.393          estimate D2E/DX2                !
 ! R9    R(5,11)                 1.3268         estimate D2E/DX2                !
 ! R10   R(6,7)                  1.3884         estimate D2E/DX2                !
 ! R11   R(6,15)                 1.0767         estimate D2E/DX2                !
 ! R12   R(7,8)                  1.3215         estimate D2E/DX2                !
 ! R13   R(7,16)                 1.0817         estimate D2E/DX2                !
 ! R14   R(8,9)                  1.3216         estimate D2E/DX2                !
 ! R15   R(9,10)                 1.6996         estimate D2E/DX2                !
 ! R16   R(9,11)                 1.3177         estimate D2E/DX2                !
 ! A1    A(2,1,12)             110.3258         estimate D2E/DX2                !
 ! A2    A(2,1,13)             110.3249         estimate D2E/DX2                !
 ! A3    A(2,1,14)             106.1597         estimate D2E/DX2                !
 ! A4    A(12,1,13)            108.6672         estimate D2E/DX2                !
 ! A5    A(12,1,14)            110.677          estimate D2E/DX2                !
 ! A6    A(13,1,14)            110.6809         estimate D2E/DX2                !
 ! A7    A(1,2,3)              116.2445         estimate D2E/DX2                !
 ! A8    A(2,3,4)              124.9749         estimate D2E/DX2                !
 ! A9    A(2,3,5)              112.3292         estimate D2E/DX2                !
 ! A10   A(4,3,5)              122.6959         estimate D2E/DX2                !
 ! A11   A(3,5,6)              119.7588         estimate D2E/DX2                !
 ! A12   A(3,5,11)             118.2498         estimate D2E/DX2                !
 ! A13   A(6,5,11)             121.9914         estimate D2E/DX2                !
 ! A14   A(5,6,7)              116.0211         estimate D2E/DX2                !
 ! A15   A(5,6,15)             120.6601         estimate D2E/DX2                !
 ! A16   A(7,6,15)             123.3188         estimate D2E/DX2                !
 ! A17   A(6,7,8)              122.046          estimate D2E/DX2                !
 ! A18   A(6,7,16)             122.3157         estimate D2E/DX2                !
 ! A19   A(8,7,16)             115.6383         estimate D2E/DX2                !
 ! A20   A(7,8,9)              116.6624         estimate D2E/DX2                !
 ! A21   A(8,9,10)             116.6013         estimate D2E/DX2                !
 ! A22   A(8,9,11)             126.8519         estimate D2E/DX2                !
 ! A23   A(10,9,11)            116.5469         estimate D2E/DX2                !
 ! A24   A(5,11,9)             116.4272         estimate D2E/DX2                !
 ! D1    D(12,1,2,3)            60.1685         estimate D2E/DX2                !
 ! D2    D(13,1,2,3)           -59.9105         estimate D2E/DX2                !
 ! D3    D(14,1,2,3)          -179.8731         estimate D2E/DX2                !
 ! D4    D(1,2,3,4)              0.0147         estimate D2E/DX2                !
 ! D5    D(1,2,3,5)            179.9923         estimate D2E/DX2                !
 ! D6    D(2,3,5,6)           -179.5955         estimate D2E/DX2                !
 ! D7    D(2,3,5,11)             0.4007         estimate D2E/DX2                !
 ! D8    D(4,3,5,6)              0.3827         estimate D2E/DX2                !
 ! D9    D(4,3,5,11)          -179.6211         estimate D2E/DX2                !
 ! D10   D(3,5,6,7)            179.9657         estimate D2E/DX2                !
 ! D11   D(3,5,6,15)            -0.0258         estimate D2E/DX2                !
 ! D12   D(11,5,6,7)            -0.0305         estimate D2E/DX2                !
 ! D13   D(11,5,6,15)          179.9781         estimate D2E/DX2                !
 ! D14   D(3,5,11,9)          -179.9895         estimate D2E/DX2                !
 ! D15   D(6,5,11,9)             0.0067         estimate D2E/DX2                !
 ! D16   D(5,6,7,8)              0.0249         estimate D2E/DX2                !
 ! D17   D(5,6,7,16)          -179.9674         estimate D2E/DX2                !
 ! D18   D(15,6,7,8)          -179.9839         estimate D2E/DX2                !
 ! D19   D(15,6,7,16)            0.0238         estimate D2E/DX2                !
 ! D20   D(6,7,8,9)              0.0038         estimate D2E/DX2                !
 ! D21   D(16,7,8,9)           179.9966         estimate D2E/DX2                !
 ! D22   D(7,8,9,10)           179.9767         estimate D2E/DX2                !
 ! D23   D(7,8,9,11)            -0.0322         estimate D2E/DX2                !
 ! D24   D(8,9,11,5)             0.0269         estimate D2E/DX2                !
 ! D25   D(10,9,11,5)         -179.982          estimate D2E/DX2                !
 --------------------------------------------------------------------------------
 Trust Radius=3.00D-01 FncErr=1.00D-07 GrdErr=1.00D-06 EigMax=2.50D+02 EigMin=1.00D-04
 Number of steps in this run=     75 maximum allowed number of steps=    100.
 GradGradGradGradGradGradGradGradGradGradGradGradGradGradGradGradGradGrad

 Leave Link  103 at Tue Sep 17 09:50:13 2024, MaxMem=  1342177280 cpu:               0.1 elap:               0.3
 (Enter /groups/ReismanLab/Software/Gaussian16_RevC/Linux_Binary_AVX2-enabled-CPU/g16/l202.exe)
                          Input orientation:                          
 ---------------------------------------------------------------------
 Center     Atomic      Atomic             Coordinates (Angstroms)
 Number     Number       Type             X           Y           Z
 ---------------------------------------------------------------------
      1          6           0        3.536795   -1.556697   -0.003850
      2          8           0        2.184646   -1.119909   -0.004455
      3          6           0        1.992822    0.188155    0.001947
      4          8           0        2.870357    1.015593    0.007869
      5          6           0        0.535560    0.551139    0.000547
      6          6           0        0.156933    1.891695   -0.001841
      7          6           0       -1.209348    2.138740   -0.003750
      8          7           0       -2.098640    1.161261   -0.002842
      9          6           0       -1.624118   -0.072188    0.000069
     10         17           0       -2.769175   -1.328099    0.001852
     11          7           0       -0.356296   -0.431172    0.001570
     12          1           0        4.052465   -1.193177    0.887526
     13          1           0        4.057465   -1.180123   -0.886881
     14          1           0        3.503770   -2.642720   -0.011885
     15          1           0        0.899004    2.671816   -0.002279
     16          1           0       -1.615707    3.141167   -0.006196
 ---------------------------------------------------------------------
                    Distance matrix (angstroms):
                    1          2          3          4          5
     1  C    0.000000
     2  O    1.420948   0.000000
     3  C    2.329892   1.322070   0.000000
     4  O    2.657246   2.242927   1.206133   0.000000
     5  C    3.667480   2.347746   1.501789   2.380556   0.000000
     6  C    4.828549   3.630618   2.504506   2.851371   1.393002
     7  C    6.015159   4.705102   3.749494   4.231499   2.359067
     8  N    6.256631   4.852862   4.205593   4.971143   2.703936
     9  C    5.370178   3.950243   3.626297   4.624244   2.247831
    10  Cl   6.310114   4.958197   4.997563   6.107147   3.801685
    11  N    4.052530   2.632638   2.429387   3.536165   1.326780
    12  H    1.092068   2.071170   2.633336   2.655154   4.024673
    13  H    1.092085   2.071172   2.631530   2.651599   4.023508
    14  H    1.086555   2.014721   3.208896   3.712797   4.360180
    15  H    4.983801   4.003756   2.713859   2.574764   2.151597
    16  H    6.972676   5.709593   4.662813   4.964175   3.366933
                    6          7          8          9         10
     6  C    0.000000
     7  C    1.388438   0.000000
     8  N    2.370895   1.321478   0.000000
     9  C    2.651223   2.249500   1.321581   0.000000
    10  Cl   4.350770   3.801587   2.578092   1.699551   0.000000
    11  N    2.378892   2.707799   2.360429   1.317666   2.574191
    12  H    5.048027   6.291480   6.646219   5.853870   6.880217
    13  H    5.043165   6.287615   6.645392   5.856158   6.885837
    14  H    5.635809   6.713860   6.771806   5.736115   6.409232
    15  H    1.076688   2.174700   3.356731   3.727694   5.427235
    16  H    2.168744   1.081662   2.037956   3.213372   4.615723
                   11         12         13         14         15
    11  N    0.000000
    12  H    4.561003   0.000000
    13  H    4.564161   1.774462   0.000000
    14  H    4.448735   1.791978   1.792034   0.000000
    15  H    3.347287   5.066976   5.059233   5.918547   0.000000
    16  H    3.787847   7.191206   7.185683   7.724146   2.558139
                   16
    16  H    0.000000
 Stoichiometry    C6H5ClN2O2
 Framework group  C1[X(C6H5ClN2O2)]
 Deg. of freedom    42
 Full point group                 C1      NOp   1
 Largest Abelian subgroup         C1      NOp   1
 Largest concise Abelian subgroup C1      NOp   1
                         Standard orientation:                         
 ---------------------------------------------------------------------
 Center     Atomic      Atomic             Coordinates (Angstroms)
 Number     Number       Type             X           Y           Z
 ---------------------------------------------------------------------
      1          6           0        3.521912   -1.409826   -0.003724
      2          8           0        2.150930   -1.036329   -0.004329
      3          6           0        1.898541    0.261410    0.002073
      4          8           0        2.736686    1.128725    0.007995
      5          6           0        0.425989    0.556299    0.000673
      6          6           0       -0.014511    1.877816   -0.001715
      7          6           0       -1.390794    2.061118   -0.003624
      8          7           0       -2.233712    1.043379   -0.002716
      9          6           0       -1.702398   -0.166692    0.000194
     10         17           0       -2.787869   -1.474447    0.001978
     11          7           0       -0.419267   -0.466387    0.001696
     12          1           0        4.020136   -1.022740    0.887652
     13          1           0        4.024525   -1.009468   -0.886755
     14          1           0        3.539379   -2.496210   -0.011759
     15          1           0        0.690515    2.691571   -0.002153
     16          1           0       -1.843286    3.043584   -0.006070
 ---------------------------------------------------------------------
 Rotational constants (GHZ):           1.8090158           0.6009458           0.4523776
 Leave Link  202 at Tue Sep 17 09:50:13 2024, MaxMem=  1342177280 cpu:               0.1 elap:               0.0
 (Enter /groups/ReismanLab/Software/Gaussian16_RevC/Linux_Binary_AVX2-enabled-CPU/g16/l301.exe)
 Standard basis: 6-31G(d,p) (6D, 7F)
 Ernie: Thresh=  0.10000D-02 Tol=  0.10000D-05 Strict=F.
 There are   194 symmetry adapted cartesian basis functions of A   symmetry.
 There are   194 symmetry adapted basis functions of A   symmetry.
   194 basis functions,   367 primitive gaussians,   194 cartesian basis functions
    44 alpha electrons       44 beta electrons
       nuclear repulsion energy       662.0156876807 Hartrees.
 IExCor=  402 DFT=T Ex+Corr=B3LYP ExCW=0 ScaHFX=  0.200000
 ScaDFX=  0.800000  0.720000  1.000000  0.810000 ScalE2=  1.000000  1.000000
 IRadAn=      5 IRanWt=     -1 IRanGd=            0 ICorTp=0 IEmpDi=141
 NAtoms=   16 NActive=   16 NUniq=   16 SFac= 1.00D+00 NAtFMM=   60 NAOKFM=F Big=F
 Integral buffers will be    131072 words long.
 Raffenetti 2 integral format.
 Two-electron integral symmetry is turned on.
 R6Disp:  Grimme-D3(BJ) Dispersion energy=       -0.0299160216 Hartrees.
 Nuclear repulsion after empirical dispersion term =      661.9857716590 Hartrees.
 Leave Link  301 at Tue Sep 17 09:50:13 2024, MaxMem=  1342177280 cpu:               0.1 elap:               0.1
 (Enter /groups/ReismanLab/Software/Gaussian16_RevC/Linux_Binary_AVX2-enabled-CPU/g16/l302.exe)
 NPDir=0 NMtPBC=     1 NCelOv=     1 NCel=       1 NClECP=     1 NCelD=      1
         NCelK=      1 NCelE2=     1 NClLst=     1 CellRange=     0.0.
 One-electron integrals computed using PRISM.
 One-electron integral symmetry used in STVInt
 NBasis=   194 RedAO= T EigKep=  1.08D-03  NBF=   194
 NBsUse=   194 1.00D-06 EigRej= -1.00D+00 NBFU=   194
 Precomputing XC quadrature grid using
 IXCGrd= 4 IRadAn=           5 IRanWt=          -1 IRanGd=           0 AccXCQ= 0.00D+00.
 Generated NRdTot=       0 NPtTot=           0 NUsed=           0 NTot=          32
 NSgBfM=   193   193   193   193   193 MxSgAt=    16 MxSgA2=    16.
 Leave Link  302 at Tue Sep 17 09:50:13 2024, MaxMem=  1342177280 cpu:               1.0 elap:               0.2
 (Enter /groups/ReismanLab/Software/Gaussian16_RevC/Linux_Binary_AVX2-enabled-CPU/g16/l303.exe)
 DipDrv:  MaxL=1.
 Leave Link  303 at Tue Sep 17 09:50:14 2024, MaxMem=  1342177280 cpu:               0.1 elap:               0.0
 (Enter /groups/ReismanLab/Software/Gaussian16_RevC/Linux_Binary_AVX2-enabled-CPU/g16/l401.exe)
 ExpMin= 1.43D-01 ExpMax= 2.52D+04 ExpMxC= 3.78D+03 IAcc=3 IRadAn=         5 AccDes= 0.00D+00
 Harris functional with IExCor=  402 and IRadAn=       5 diagonalized for initial guess.
 HarFok:  IExCor=  402 AccDes= 0.00D+00 IRadAn=         5 IDoV= 1 UseB2=F ITyADJ=14
 ICtDFT=  3500011 ScaDFX=  1.000000  1.000000  1.000000  1.000000
 FoFCou: FMM=F IPFlag=           0 FMFlag=      100000 FMFlg1=           0
         NFxFlg=           0 DoJE=T BraDBF=F KetDBF=T FulRan=T
         wScrn=  0.000000 ICntrl=       500 IOpCl=  0 I1Cent=   200000004 NGrid=           0
         NMat0=    1 NMatS0=      1 NMatT0=    0 NMatD0=    1 NMtDS0=    0 NMtDT0=    0
 Petite list used in FoFCou.
 Harris En= -951.734345870762    
 JPrj=0 DoOrth=F DoCkMO=F.
 Leave Link  401 at Tue Sep 17 09:50:14 2024, MaxMem=  1342177280 cpu:               3.6 elap:               0.5
 (Enter /groups/ReismanLab/Software/Gaussian16_RevC/Linux_Binary_AVX2-enabled-CPU/g16/l502.exe)
 Integral symmetry usage will be decided dynamically.
 Closed shell SCF:
 Using DIIS extrapolation, IDIIS=  1040.
 NGot=  1342177280 LenX=  1342098008 LenY=  1342059931
 Requested convergence on RMS density matrix=1.00D-08 within  32 cycles.
 Requested convergence on MAX density matrix=1.00D-06.
 Requested convergence on             energy=1.00D-06.
 No special actions if energy rises.
 Fock matrices will be formed incrementally for  20 cycles.
 Integral accuracy reduced to 1.0D-05 until final iterations.

 Cycle   1  Pass 0  IDiag  1:
 FoFJK:  IHMeth= 1 ICntrl=       0 DoSepK=F KAlg= 0 I1Cent=           0 FoldK=F
 IRaf= 860000000 NMat=       1 IRICut=       1 DoRegI=T DoRafI=F ISym2E= 0 IDoP0=0 IntGTp=1.
 FoFCou: FMM=F IPFlag=           0 FMFlag=      100000 FMFlg1=           0
         NFxFlg=           0 DoJE=F BraDBF=F KetDBF=F FulRan=T
         wScrn=  0.000000 ICntrl=         0 IOpCl=  0 I1Cent=           0 NGrid=           0
         NMat0=    1 NMatS0=      1 NMatT0=    0 NMatD0=    1 NMtDS0=    0 NMtDT0=    0
 Symmetry not used in FoFCou.
 E= -951.604062333754    
 DIIS: error= 2.62D-02 at cycle   1 NSaved=   1.
 NSaved= 1 IEnMin= 1 EnMin= -951.604062333754     IErMin= 1 ErrMin= 2.62D-02
 ErrMax= 2.62D-02  0.00D+00 EMaxC= 1.00D-01 BMatC= 2.63D-01 BMatP= 2.63D-01
 IDIUse=3 WtCom= 7.38D-01 WtEn= 2.62D-01
 Coeff-Com:  0.100D+01
 Coeff-En:   0.100D+01
 Coeff:      0.100D+01
 Gap=     0.306 Goal=   None    Shift=    0.000
 GapD=    0.306 DampG=1.000 DampE=0.500 DampFc=0.5000 IDamp=-1.
 Damping current iteration by 5.00D-01
 RMSDP=6.24D-03 MaxDP=2.12D-01              OVMax= 2.90D-01

 Cycle   2  Pass 0  IDiag  1:
 RMSU=  3.10D-03    CP:  9.87D-01
 E= -951.660304244578     Delta-E=       -0.056241910824 Rises=F Damp=T
 DIIS: error= 1.18D-02 at cycle   2 NSaved=   2.
 NSaved= 2 IEnMin= 2 EnMin= -951.660304244578     IErMin= 2 ErrMin= 1.18D-02
 ErrMax= 1.18D-02  0.00D+00 EMaxC= 1.00D-01 BMatC= 4.55D-02 BMatP= 2.63D-01
 IDIUse=3 WtCom= 8.82D-01 WtEn= 1.18D-01
 Coeff-Com:  0.226D+00 0.774D+00
 Coeff-En:   0.364D+00 0.636D+00
 Coeff:      0.242D+00 0.758D+00
 Gap=     0.221 Goal=   None    Shift=    0.000
 RMSDP=1.86D-03 MaxDP=5.63D-02 DE=-5.62D-02 OVMax= 2.10D-01

 Cycle   3  Pass 0  IDiag  1:
 RMSU=  1.71D-03    CP:  9.82D-01  7.67D-01
 E= -951.799437623663     Delta-E=       -0.139133379085 Rises=F Damp=F
 DIIS: error= 1.20D-02 at cycle   3 NSaved=   3.
 NSaved= 3 IEnMin= 3 EnMin= -951.799437623663     IErMin= 2 ErrMin= 1.18D-02
 ErrMax= 1.20D-02  0.00D+00 EMaxC= 1.00D-01 BMatC= 3.25D-02 BMatP= 4.55D-02
 IDIUse=3 WtCom= 8.80D-01 WtEn= 1.20D-01
 Coeff-Com:  0.688D-01 0.450D+00 0.481D+00
 Coeff-En:   0.000D+00 0.000D+00 0.100D+01
 Coeff:      0.606D-01 0.396D+00 0.544D+00
 Gap=     0.190 Goal=   None    Shift=    0.000
 RMSDP=1.37D-03 MaxDP=5.11D-02 DE=-1.39D-01 OVMax= 9.94D-02

 Cycle   4  Pass 0  IDiag  1:
 RMSU=  9.10D-04    CP:  9.86D-01  8.26D-01  4.12D-01
 E= -951.817496820525     Delta-E=       -0.018059196863 Rises=F Damp=F
 DIIS: error= 7.62D-03 at cycle   4 NSaved=   4.
 NSaved= 4 IEnMin= 4 EnMin= -951.817496820525     IErMin= 4 ErrMin= 7.62D-03
 ErrMax= 7.62D-03  0.00D+00 EMaxC= 1.00D-01 BMatC= 1.23D-02 BMatP= 3.25D-02
 IDIUse=3 WtCom= 9.24D-01 WtEn= 7.62D-02
 Coeff-Com:  0.639D-02 0.108D+00 0.380D+00 0.506D+00
 Coeff-En:   0.000D+00 0.000D+00 0.304D+00 0.696D+00
 Coeff:      0.590D-02 0.998D-01 0.374D+00 0.520D+00
 Gap=     0.187 Goal=   None    Shift=    0.000
 RMSDP=5.56D-04 MaxDP=1.95D-02 DE=-1.81D-02 OVMax= 3.77D-02

 Cycle   5  Pass 0  IDiag  1:
 RMSU=  2.27D-04    CP:  9.85D-01  7.97D-01  6.06D-01  5.90D-01
 E= -951.826969632107     Delta-E=       -0.009472811582 Rises=F Damp=F
 DIIS: error= 1.18D-03 at cycle   5 NSaved=   5.
 NSaved= 5 IEnMin= 5 EnMin= -951.826969632107     IErMin= 5 ErrMin= 1.18D-03
 ErrMax= 1.18D-03  0.00D+00 EMaxC= 1.00D-01 BMatC= 5.02D-04 BMatP= 1.23D-02
 IDIUse=3 WtCom= 9.88D-01 WtEn= 1.18D-02
 Coeff-Com: -0.310D-03 0.157D-01 0.154D+00 0.279D+00 0.551D+00
 Coeff-En:   0.000D+00 0.000D+00 0.000D+00 0.000D+00 0.100D+01
 Coeff:     -0.306D-03 0.155D-01 0.152D+00 0.276D+00 0.557D+00
 Gap=     0.185 Goal=   None    Shift=    0.000
 RMSDP=1.26D-04 MaxDP=3.79D-03 DE=-9.47D-03 OVMax= 4.80D-03

 Cycle   6  Pass 0  IDiag  1:
 RMSU=  7.63D-05    CP:  9.85D-01  8.04D-01  6.04D-01  5.98D-01  5.71D-01
 E= -951.827368560181     Delta-E=       -0.000398928074 Rises=F Damp=F
 DIIS: error= 3.19D-04 at cycle   6 NSaved=   6.
 NSaved= 6 IEnMin= 6 EnMin= -951.827368560181     IErMin= 6 ErrMin= 3.19D-04
 ErrMax= 3.19D-04  0.00D+00 EMaxC= 1.00D-01 BMatC= 3.24D-05 BMatP= 5.02D-04
 IDIUse=3 WtCom= 9.97D-01 WtEn= 3.19D-03
 Coeff-Com: -0.290D-03-0.344D-03 0.493D-01 0.101D+00 0.286D+00 0.564D+00
 Coeff-En:   0.000D+00 0.000D+00 0.000D+00 0.000D+00 0.000D+00 0.100D+01
 Coeff:     -0.289D-03-0.343D-03 0.491D-01 0.100D+00 0.285D+00 0.566D+00
 Gap=     0.185 Goal=   None    Shift=    0.000
 RMSDP=4.09D-05 MaxDP=1.35D-03 DE=-3.99D-04 OVMax= 1.79D-03

 Cycle   7  Pass 0  IDiag  1:
 RMSU=  2.06D-05    CP:  9.85D-01  8.02D-01  6.06D-01  6.12D-01  6.25D-01
                    CP:  6.07D-01
 E= -951.827395668212     Delta-E=       -0.000027108031 Rises=F Damp=F
 DIIS: error= 9.76D-05 at cycle   7 NSaved=   7.
 NSaved= 7 IEnMin= 7 EnMin= -951.827395668212     IErMin= 7 ErrMin= 9.76D-05
 ErrMax= 9.76D-05  0.00D+00 EMaxC= 1.00D-01 BMatC= 3.07D-06 BMatP= 3.24D-05
 IDIUse=1 WtCom= 1.00D+00 WtEn= 0.00D+00
 Coeff-Com: -0.624D-04-0.138D-02 0.175D-01 0.377D-01 0.125D+00 0.313D+00
 Coeff-Com:  0.509D+00
 Coeff:     -0.624D-04-0.138D-02 0.175D-01 0.377D-01 0.125D+00 0.313D+00
 Coeff:      0.509D+00
 Gap=     0.185 Goal=   None    Shift=    0.000
 RMSDP=1.22D-05 MaxDP=4.54D-04 DE=-2.71D-05 OVMax= 9.01D-04

 Cycle   8  Pass 0  IDiag  1:
 RMSU=  7.62D-06    CP:  9.85D-01  8.02D-01  6.06D-01  6.14D-01  6.27D-01
                    CP:  6.44D-01  5.74D-01
 E= -951.827398107654     Delta-E=       -0.000002439442 Rises=F Damp=F
 DIIS: error= 4.40D-05 at cycle   8 NSaved=   8.
 NSaved= 8 IEnMin= 8 EnMin= -951.827398107654     IErMin= 8 ErrMin= 4.40D-05
 ErrMax= 4.40D-05  0.00D+00 EMaxC= 1.00D-01 BMatC= 5.27D-07 BMatP= 3.07D-06
 IDIUse=1 WtCom= 1.00D+00 WtEn= 0.00D+00
 Coeff-Com:  0.706D-04-0.925D-03 0.358D-02 0.806D-02 0.336D-01 0.100D+00
 Coeff-Com:  0.312D+00 0.543D+00
 Coeff:      0.706D-04-0.925D-03 0.358D-02 0.806D-02 0.336D-01 0.100D+00
 Coeff:      0.312D+00 0.543D+00
 Gap=     0.185 Goal=   None    Shift=    0.000
 RMSDP=4.35D-06 MaxDP=1.36D-04 DE=-2.44D-06 OVMax= 3.23D-04

 Initial convergence to 1.0D-05 achieved.  Increase integral accuracy.
 Cycle   9  Pass 1  IDiag  1:
 E= -951.827402277194     Delta-E=       -0.000004169541 Rises=F Damp=F
 DIIS: error= 1.29D-05 at cycle   1 NSaved=   1.
 NSaved= 1 IEnMin= 1 EnMin= -951.827402277194     IErMin= 1 ErrMin= 1.29D-05
 ErrMax= 1.29D-05  0.00D+00 EMaxC= 1.00D-01 BMatC= 7.00D-08 BMatP= 7.00D-08
 IDIUse=1 WtCom= 1.00D+00 WtEn= 0.00D+00
 Coeff-Com:  0.100D+01
 Coeff:      0.100D+01
 Gap=     0.185 Goal=   None    Shift=    0.000
 RMSDP=4.35D-06 MaxDP=1.36D-04 DE=-4.17D-06 OVMax= 1.63D-04

 Cycle  10  Pass 1  IDiag  1:
 RMSU=  6.91D-06    CP:  1.00D+00
 E= -951.827402232898     Delta-E=        0.000000044296 Rises=F Damp=F
 DIIS: error= 1.95D-05 at cycle   2 NSaved=   2.
 NSaved= 2 IEnMin= 1 EnMin= -951.827402277194     IErMin= 1 ErrMin= 1.29D-05
 ErrMax= 1.95D-05  0.00D+00 EMaxC= 1.00D-01 BMatC= 1.12D-07 BMatP= 7.00D-08
 IDIUse=1 WtCom= 1.00D+00 WtEn= 0.00D+00
 Coeff-Com:  0.569D+00 0.431D+00
 Coeff:      0.569D+00 0.431D+00
 Gap=     0.185 Goal=   None    Shift=    0.000
 RMSDP=2.05D-06 MaxDP=4.79D-05 DE= 4.43D-08 OVMax= 1.44D-04

 Cycle  11  Pass 1  IDiag  1:
 RMSU=  1.90D-06    CP:  1.00D+00  8.90D-01
 E= -951.827402331039     Delta-E=       -0.000000098141 Rises=F Damp=F
 DIIS: error= 6.14D-06 at cycle   3 NSaved=   3.
 NSaved= 3 IEnMin= 3 EnMin= -951.827402331039     IErMin= 3 ErrMin= 6.14D-06
 ErrMax= 6.14D-06  0.00D+00 EMaxC= 1.00D-01 BMatC= 1.08D-08 BMatP= 7.00D-08
 IDIUse=1 WtCom= 1.00D+00 WtEn= 0.00D+00
 Coeff-Com:  0.124D+00 0.243D+00 0.633D+00
 Coeff:      0.124D+00 0.243D+00 0.633D+00
 Gap=     0.185 Goal=   None    Shift=    0.000
 RMSDP=6.93D-07 MaxDP=2.25D-05 DE=-9.81D-08 OVMax= 3.90D-05

 Cycle  12  Pass 1  IDiag  1:
 RMSU=  5.27D-07    CP:  1.00D+00  9.18D-01  7.86D-01
 E= -951.827402338712     Delta-E=       -0.000000007673 Rises=F Damp=F
 DIIS: error= 2.38D-06 at cycle   4 NSaved=   4.
 NSaved= 4 IEnMin= 4 EnMin= -951.827402338712     IErMin= 4 ErrMin= 2.38D-06
 ErrMax= 2.38D-06  0.00D+00 EMaxC= 1.00D-01 BMatC= 2.27D-09 BMatP= 1.08D-08
 IDIUse=1 WtCom= 1.00D+00 WtEn= 0.00D+00
 Coeff-Com:  0.121D-02 0.967D-01 0.398D+00 0.504D+00
 Coeff:      0.121D-02 0.967D-01 0.398D+00 0.504D+00
 Gap=     0.185 Goal=   None    Shift=    0.000
 RMSDP=2.78D-07 MaxDP=8.28D-06 DE=-7.67D-09 OVMax= 1.17D-05

 Cycle  13  Pass 1  IDiag  1:
 RMSU=  1.01D-07    CP:  1.00D+00  9.23D-01  7.97D-01  5.16D-01
 E= -951.827402340653     Delta-E=       -0.000000001941 Rises=F Damp=F
 DIIS: error= 5.30D-07 at cycle   5 NSaved=   5.
 NSaved= 5 IEnMin= 5 EnMin= -951.827402340653     IErMin= 5 ErrMin= 5.30D-07
 ErrMax= 5.30D-07  0.00D+00 EMaxC= 1.00D-01 BMatC= 7.51D-11 BMatP= 2.27D-09
 IDIUse=1 WtCom= 1.00D+00 WtEn= 0.00D+00
 Coeff-Com: -0.322D-02 0.474D-01 0.204D+00 0.285D+00 0.467D+00
 Coeff:     -0.322D-02 0.474D-01 0.204D+00 0.285D+00 0.467D+00
 Gap=     0.185 Goal=   None    Shift=    0.000
 RMSDP=5.48D-08 MaxDP=1.46D-06 DE=-1.94D-09 OVMax= 2.65D-06

 Cycle  14  Pass 1  IDiag  1:
 RMSU=  3.40D-08    CP:  1.00D+00  9.22D-01  8.02D-01  5.24D-01  5.92D-01
 E= -951.827402340714     Delta-E=       -0.000000000061 Rises=F Damp=F
 DIIS: error= 1.96D-07 at cycle   6 NSaved=   6.
 NSaved= 6 IEnMin= 6 EnMin= -951.827402340714     IErMin= 6 ErrMin= 1.96D-07
 ErrMax= 1.96D-07  0.00D+00 EMaxC= 1.00D-01 BMatC= 1.05D-11 BMatP= 7.51D-11
 IDIUse=1 WtCom= 1.00D+00 WtEn= 0.00D+00
 Coeff-Com: -0.222D-02 0.233D-01 0.100D+00 0.145D+00 0.307D+00 0.427D+00
 Coeff:     -0.222D-02 0.233D-01 0.100D+00 0.145D+00 0.307D+00 0.427D+00
 Gap=     0.185 Goal=   None    Shift=    0.000
 RMSDP=1.82D-08 MaxDP=5.58D-07 DE=-6.12D-11 OVMax= 1.16D-06

 Cycle  15  Pass 1  IDiag  1:
 RMSU=  1.20D-08    CP:  1.00D+00  9.22D-01  8.00D-01  5.28D-01  6.14D-01
                    CP:  6.13D-01
 E= -951.827402340717     Delta-E=       -0.000000000003 Rises=F Damp=F
 DIIS: error= 3.95D-08 at cycle   7 NSaved=   7.
 NSaved= 7 IEnMin= 7 EnMin= -951.827402340717     IErMin= 7 ErrMin= 3.95D-08
 ErrMax= 3.95D-08  0.00D+00 EMaxC= 1.00D-01 BMatC= 6.88D-13 BMatP= 1.05D-11
 IDIUse=1 WtCom= 1.00D+00 WtEn= 0.00D+00
 Coeff-Com: -0.624D-03 0.429D-02 0.168D-01 0.265D-01 0.853D-01 0.232D+00
 Coeff-Com:  0.636D+00
 Coeff:     -0.624D-03 0.429D-02 0.168D-01 0.265D-01 0.853D-01 0.232D+00
 Coeff:      0.636D+00
 Gap=     0.185 Goal=   None    Shift=    0.000
 RMSDP=4.57D-09 MaxDP=1.19D-07 DE=-2.73D-12 OVMax= 1.79D-07

 SCF Done:  E(RB3LYP) =  -951.827402341     A.U. after   15 cycles
            NFock= 15  Conv=0.46D-08     -V/T= 2.0058
 KE= 9.463274148426D+02 PE=-3.564306283205D+03 EE= 1.004165694363D+03
 Leave Link  502 at Tue Sep 17 09:50:21 2024, MaxMem=  1342177280 cpu:              55.9 elap:               7.4
 (Enter /groups/ReismanLab/Software/Gaussian16_RevC/Linux_Binary_AVX2-enabled-CPU/g16/l508.exe)
 QCSCF skips out because SCF is already converged.
 Leave Link  508 at Tue Sep 17 09:50:22 2024, MaxMem=  1342177280 cpu:               0.0 elap:               0.0
 (Enter /groups/ReismanLab/Software/Gaussian16_RevC/Linux_Binary_AVX2-enabled-CPU/g16/l601.exe)
 Copying SCF densities to generalized density rwf, IOpCl= 0 IROHF=0.

 **********************************************************************

            Population analysis using the SCF Density.

 **********************************************************************

 Orbital symmetries:
       Occupied  (A) (A) (A) (A) (A) (A) (A) (A) (A) (A) (A) (A)
                 (A) (A) (A) (A) (A) (A) (A) (A) (A) (A) (A) (A)
                 (A) (A) (A) (A) (A) (A) (A) (A) (A) (A) (A) (A)
                 (A) (A) (A) (A) (A) (A) (A) (A)
       Virtual   (A) (A) (A) (A) (A) (A) (A) (A) (A) (A) (A) (A)
                 (A) (A) (A) (A) (A) (A) (A) (A) (A) (A) (A) (A)
                 (A) (A) (A) (A) (A) (A) (A) (A) (A) (A) (A) (A)
                 (A) (A) (A) (A) (A) (A) (A) (A) (A) (A) (A) (A)
                 (A) (A) (A) (A) (A) (A) (A) (A) (A) (A) (A) (A)
                 (A) (A) (A) (A) (A) (A) (A) (A) (A) (A) (A) (A)
                 (A) (A) (A) (A) (A) (A) (A) (A) (A) (A) (A) (A)
                 (A) (A) (A) (A) (A) (A) (A) (A) (A) (A) (A) (A)
                 (A) (A) (A) (A) (A) (A) (A) (A) (A) (A) (A) (A)
                 (A) (A) (A) (A) (A) (A) (A) (A) (A) (A) (A) (A)
                 (A) (A) (A) (A) (A) (A) (A) (A) (A) (A) (A) (A)
                 (A) (A) (A) (A) (A) (A) (A) (A) (A) (A) (A) (A)
                 (A) (A) (A) (A) (A) (A)
 The electronic state is 1-A.
 Alpha  occ. eigenvalues -- -101.55634 -19.20946 -19.15388 -14.36257 -14.36214
 Alpha  occ. eigenvalues --  -10.33288 -10.32273 -10.27060 -10.26246 -10.25107
 Alpha  occ. eigenvalues --  -10.22647  -9.47442  -7.23829  -7.22894  -7.22770
 Alpha  occ. eigenvalues --   -1.13007  -1.03740  -1.03119  -0.92597  -0.88457
 Alpha  occ. eigenvalues --   -0.80037  -0.75981  -0.69529  -0.66539  -0.59414
 Alpha  occ. eigenvalues --   -0.56404  -0.54676  -0.50300  -0.49070  -0.48804
 Alpha  occ. eigenvalues --   -0.47511  -0.46754  -0.43857  -0.42888  -0.41495
 Alpha  occ. eigenvalues --   -0.36940  -0.35726  -0.33960  -0.33280  -0.32630
 Alpha  occ. eigenvalues --   -0.31757  -0.29718  -0.28400  -0.26898
 Alpha virt. eigenvalues --   -0.08388  -0.04740   0.03255   0.05057   0.10008
 Alpha virt. eigenvalues --    0.10921   0.12857   0.13151   0.15107   0.15891
 Alpha virt. eigenvalues --    0.16677   0.21370   0.23732   0.25765   0.28590
 Alpha virt. eigenvalues --    0.30363   0.32104   0.34908   0.37987   0.40517
 Alpha virt. eigenvalues --    0.42153   0.42700   0.44375   0.48266   0.48300
 Alpha virt. eigenvalues --    0.50812   0.51568   0.53188   0.55020   0.56296
 Alpha virt. eigenvalues --    0.57350   0.57704   0.58588   0.62095   0.63534
 Alpha virt. eigenvalues --    0.63547   0.67661   0.68028   0.70521   0.74004
 Alpha virt. eigenvalues --    0.76421   0.76576   0.78635   0.79002   0.81207
 Alpha virt. eigenvalues --    0.81653   0.83532   0.84075   0.84245   0.87022
 Alpha virt. eigenvalues --    0.87746   0.89391   0.91592   0.92437   0.94184
 Alpha virt. eigenvalues --    0.95446   0.97350   0.98104   1.02704   1.03936
 Alpha virt. eigenvalues --    1.06864   1.09962   1.11062   1.14444   1.16028
 Alpha virt. eigenvalues --    1.21201   1.24219   1.26084   1.27004   1.31210
 Alpha virt. eigenvalues --    1.31432   1.34463   1.40104   1.40988   1.45729
 Alpha virt. eigenvalues --    1.47682   1.47943   1.55696   1.56175   1.57358
 Alpha virt. eigenvalues --    1.61895   1.64257   1.66476   1.72694   1.76277
 Alpha virt. eigenvalues --    1.80188   1.83142   1.84547   1.85902   1.89538
 Alpha virt. eigenvalues --    1.90793   1.91272   1.95589   1.97600   1.98335
 Alpha virt. eigenvalues --    2.00795   2.00929   2.03793   2.04038   2.05706
 Alpha virt. eigenvalues --    2.12080   2.12663   2.17958   2.20517   2.25619
 Alpha virt. eigenvalues --    2.29747   2.30416   2.32061   2.35320   2.40830
 Alpha virt. eigenvalues --    2.42784   2.46995   2.47134   2.48942   2.49310
 Alpha virt. eigenvalues --    2.52442   2.53539   2.57748   2.63536   2.64986
 Alpha virt. eigenvalues --    2.68750   2.71216   2.72635   2.75307   2.79379
 Alpha virt. eigenvalues --    2.83069   2.83834   2.91727   2.96353   3.01872
 Alpha virt. eigenvalues --    3.02536   3.17133   3.20124   3.24818   3.28085
 Alpha virt. eigenvalues --    3.30501   3.39894   3.43069   3.71035   3.96168
 Alpha virt. eigenvalues --    4.01627   4.04507   4.15068   4.17042   4.28173
 Alpha virt. eigenvalues --    4.36861   4.40249   4.46398   4.58671   4.65702
          Condensed to atoms (all electrons):
               1          2          3          4          5          6
     1  C    4.726047   0.215586  -0.022385   0.002448   0.007972  -0.000198
     2  O    0.215586   8.199374   0.279523  -0.087210  -0.086612   0.004881
     3  C   -0.022385   0.279523   4.400262   0.567485   0.307212  -0.079234
     4  O    0.002448  -0.087210   0.567485   8.051388  -0.090318   0.006242
     5  C    0.007972  -0.086612   0.307212  -0.090318   4.901989   0.453414
     6  C   -0.000198   0.004881  -0.079234   0.006242   0.453414   5.112820
     7  C    0.000001  -0.000047   0.005683   0.000701  -0.026468   0.438248
     8  N    0.000000  -0.000003  -0.000134  -0.000003  -0.039655  -0.027960
     9  C    0.000014  -0.000044   0.006576  -0.000093  -0.032496  -0.052751
    10  Cl  -0.000001   0.000002  -0.000084   0.000001   0.004955   0.000280
    11  N   -0.000307   0.001437  -0.066155   0.002292   0.422809  -0.064633
    12  H    0.383983  -0.031223  -0.006144   0.006228  -0.000330  -0.000002
    13  H    0.383893  -0.031231  -0.006176   0.006318  -0.000340  -0.000001
    14  H    0.392359  -0.032327   0.004176   0.000608   0.000049   0.000001
    15  H   -0.000014   0.000251  -0.004310   0.011038  -0.032091   0.361278
    16  H   -0.000000   0.000000  -0.000111   0.000001   0.003102  -0.062598
               7          8          9         10         11         12
     1  C    0.000001   0.000000   0.000014  -0.000001  -0.000307   0.383983
     2  O   -0.000047  -0.000003  -0.000044   0.000002   0.001437  -0.031223
     3  C    0.005683  -0.000134   0.006576  -0.000084  -0.066155  -0.006144
     4  O    0.000701  -0.000003  -0.000093   0.000001   0.002292   0.006228
     5  C   -0.026468  -0.039655  -0.032496   0.004955   0.422809  -0.000330
     6  C    0.438248  -0.027960  -0.052751   0.000280  -0.064633  -0.000002
     7  C    4.721513   0.476365  -0.062788   0.005328  -0.029843   0.000000
     8  N    0.476365   6.755035   0.414073  -0.090483  -0.058321  -0.000000
     9  C   -0.062788   0.414073   4.782901   0.300372   0.396284   0.000001
    10  Cl   0.005328  -0.090483   0.300372  16.817429  -0.092158  -0.000000
    11  N   -0.029843  -0.058321   0.396284  -0.092158   6.902987  -0.000004
    12  H    0.000000  -0.000000   0.000001  -0.000000  -0.000004   0.584011
    13  H    0.000000  -0.000000   0.000001  -0.000000  -0.000003  -0.037907
    14  H   -0.000000   0.000000  -0.000000  -0.000000  -0.000026  -0.032103
    15  H   -0.032074   0.004051   0.000204   0.000022   0.004744  -0.000002
    16  H    0.394376  -0.053241   0.006485  -0.000211  -0.000268  -0.000000
              13         14         15         16
     1  C    0.383893   0.392359  -0.000014  -0.000000
     2  O   -0.031231  -0.032327   0.000251   0.000000
     3  C   -0.006176   0.004176  -0.004310  -0.000111
     4  O    0.006318   0.000608   0.011038   0.000001
     5  C   -0.000340   0.000049  -0.032091   0.003102
     6  C   -0.000001   0.000001   0.361278  -0.062598
     7  C    0.000000  -0.000000  -0.032074   0.394376
     8  N   -0.000000   0.000000   0.004051  -0.053241
     9  C    0.000001  -0.000000   0.000204   0.006485
    10  Cl  -0.000000  -0.000000   0.000022  -0.000211
    11  N   -0.000003  -0.000026   0.004744  -0.000268
    12  H   -0.037907  -0.032103  -0.000002  -0.000000
    13  H    0.584033  -0.032073  -0.000002  -0.000000
    14  H   -0.032073   0.567252  -0.000000   0.000000
    15  H   -0.000002  -0.000000   0.552113  -0.001797
    16  H   -0.000000   0.000000  -0.001797   0.588124
 Mulliken charges:
               1
     1  C   -0.089398
     2  O   -0.432356
     3  C    0.613817
     4  O   -0.477127
     5  C    0.206806
     6  C   -0.089788
     7  C    0.109006
     8  N   -0.379724
     9  C    0.241261
    10  Cl   0.054549
    11  N   -0.418836
    12  H    0.133492
    13  H    0.133488
    14  H    0.132083
    15  H    0.136589
    16  H    0.126139
 Sum of Mulliken charges =  -0.00000
 Mulliken charges with hydrogens summed into heavy atoms:
               1
     1  C    0.309664
     2  O   -0.432356
     3  C    0.613817
     4  O   -0.477127
     5  C    0.206806
     6  C    0.046801
     7  C    0.235144
     8  N   -0.379724
     9  C    0.241261
    10  Cl   0.054549
    11  N   -0.418836
 Electronic spatial extent (au):  <R**2>=           2264.1899
 Charge=             -0.0000 electrons
 Dipole moment (field-independent basis, Debye):
    X=              1.8521    Y=              0.8191    Z=             -0.0134  Tot=              2.0252
 Quadrupole moment (field-independent basis, Debye-Ang):
   XX=            -69.7892   YY=            -63.3189   ZZ=            -66.9976
   XY=             -8.7730   XZ=             -0.0443   YZ=             -0.0258
 Traceless Quadrupole moment (field-independent basis, Debye-Ang):
   XX=             -3.0873   YY=              3.3830   ZZ=             -0.2957
   XY=             -8.7730   XZ=             -0.0443   YZ=             -0.0258
 Octapole moment (field-independent basis, Debye-Ang**2):
  XXX=             47.4573  YYY=              7.2714  ZZZ=              0.0345  XYY=             -2.1176
  XXY=            -38.2906  XXZ=             -0.1235  XZZ=              5.5797  YZZ=             -3.1415
  YYZ=             -0.0769  XYZ=             -0.0412
 Hexadecapole moment (field-independent basis, Debye-Ang**3):
 XXXX=          -2010.1948 YYYY=           -671.5185 ZZZZ=            -69.0871 XXXY=            -71.6985
 XXXZ=             -0.5443 YYYX=            -24.1379 YYYZ=             -0.0346 ZZZX=              0.0889
 ZZZY=              0.0308 XXYY=           -434.1258 XXZZ=           -342.9395 YYZZ=           -142.0169
 XXYZ=             -0.1326 YYXZ=             -0.0920 ZZXY=              4.3679
 N-N= 6.619857716590D+02 E-N=-3.564306283938D+03  KE= 9.463274148426D+02
 No NMR shielding tensors so no spin-rotation constants.
 Leave Link  601 at Tue Sep 17 09:50:22 2024, MaxMem=  1342177280 cpu:               0.9 elap:               0.2
 (Enter /groups/ReismanLab/Software/Gaussian16_RevC/Linux_Binary_AVX2-enabled-CPU/g16/l701.exe)
 ... and contract with generalized density number  0.
 Compute integral first derivatives.
 R6Disp: Adding Grimme-D3(BJ) dispersion energy 1st derivatives to the gradient.
 Leave Link  701 at Tue Sep 17 09:50:22 2024, MaxMem=  1342177280 cpu:               0.8 elap:               0.1
 (Enter /groups/ReismanLab/Software/Gaussian16_RevC/Linux_Binary_AVX2-enabled-CPU/g16/l702.exe)
 L702 exits ... SP integral derivatives will be done elsewhere.
 Leave Link  702 at Tue Sep 17 09:50:22 2024, MaxMem=  1342177280 cpu:               0.1 elap:               0.0
 (Enter /groups/ReismanLab/Software/Gaussian16_RevC/Linux_Binary_AVX2-enabled-CPU/g16/l703.exe)
 Integral derivatives from FoFJK, PRISM(SPDF).
 Compute integral first derivatives, UseDBF=F ICtDFT=           0.
 Calling FoFJK, ICntrl=      2127 FMM=F ISym2X=0 I1Cent= 0 IOpClX= 0 NMat=1 NMatS=1 NMatT=0.
 FoFJK:  IHMeth= 1 ICntrl=    2127 DoSepK=F KAlg= 0 I1Cent=           0 FoldK=F
 IRaf=         0 NMat=       1 IRICut=       1 DoRegI=T DoRafI=F ISym2E= 0 IDoP0=0 IntGTp=1.
 FoFCou: FMM=F IPFlag=           0 FMFlag=      100000 FMFlg1=         800
         NFxFlg=           0 DoJE=F BraDBF=F KetDBF=F FulRan=T
         wScrn=  0.000000 ICntrl=      2127 IOpCl=  0 I1Cent=           0 NGrid=           0
         NMat0=    1 NMatS0=      1 NMatT0=    0 NMatD0=    1 NMtDS0=    0 NMtDT0=    0
 Symmetry not used in FoFCou.
 Leave Link  703 at Tue Sep 17 09:50:24 2024, MaxMem=  1342177280 cpu:              16.0 elap:               2.1
 (Enter /groups/ReismanLab/Software/Gaussian16_RevC/Linux_Binary_AVX2-enabled-CPU/g16/l716.exe)
 Dipole        = 7.28691019D-01 3.22264504D-01-5.26055654D-03
 ***** Axes restored to original set *****
 -------------------------------------------------------------------
 Center     Atomic                   Forces (Hartrees/Bohr)
 Number     Number              X              Y              Z
 -------------------------------------------------------------------
      1        6           0.008408224    0.000769927    0.000003338
      2        8          -0.008160572   -0.011195534   -0.000065073
      3        6          -0.007995260    0.001190132   -0.000005535
      4        8           0.011192149    0.011868151    0.000062858
      5        6           0.001956014    0.006116476   -0.000020804
      6        6           0.004764970    0.000224326    0.000015547
      7        6           0.006747628    0.006111797   -0.000007939
      8        7          -0.018965077   -0.000323544   -0.000010317
      9        6           0.010407651    0.011372993   -0.000019140
     10       17          -0.016659422   -0.018034080    0.000027312
     11        7           0.003641082   -0.014048871    0.000012719
     12        1           0.000907296   -0.000120413    0.000482915
     13        1           0.000909068   -0.000123461   -0.000464382
     14        1          -0.000492163   -0.001481169   -0.000006428
     15        1           0.002637527    0.002954868   -0.000001196
     16        1           0.000700884    0.004718403   -0.000003876
 -------------------------------------------------------------------
 Cartesian Forces:  Max     0.018965077 RMS     0.006762971
 Leave Link  716 at Tue Sep 17 09:50:24 2024, MaxMem=  1342177280 cpu:               0.1 elap:               0.0
 (Enter /groups/ReismanLab/Software/Gaussian16_RevC/Linux_Binary_AVX2-enabled-CPU/g16/l103.exe)

 GradGradGradGradGradGradGradGradGradGradGradGradGradGradGradGradGradGrad
 Berny optimization.
 FormGI is forming the generalized inverse of G from B-inverse, IUseBI=4.
 Internal  Forces:  Max     0.024550497 RMS     0.005702194
 Search for a local minimum.
 Step number   1 out of a maximum of   75
 All quantities printed in internal units (Hartrees-Bohrs-Radians)
 RMS Force = .57022D-02 SwitMx=.10000D-02 MixMth= 1
 Mixed Optimization -- RFO/linear search
 Second derivative matrix not updated -- first step.
 ITU=  0
     Eigenvalues ---    0.00742   0.01415   0.01426   0.01778   0.02212
     Eigenvalues ---    0.02284   0.02390   0.02582   0.02723   0.02739
     Eigenvalues ---    0.02755   0.10302   0.10650   0.16000   0.16000
     Eigenvalues ---    0.16000   0.16000   0.16000   0.22428   0.24445
     Eigenvalues ---    0.25000   0.25000   0.25000   0.25000   0.25000
     Eigenvalues ---    0.25000   0.32190   0.34573   0.34575   0.35214
     Eigenvalues ---    0.35794   0.35944   0.36397   0.42318   0.44530
     Eigenvalues ---    0.46319   0.56767   0.58818   0.60951   0.61419
     Eigenvalues ---    0.61980   1.01801
 RFO step:  Lambda=-4.39413296D-03 EMin= 7.42275917D-03
 Linear search not attempted -- first point.
 Iteration  1 RMS(Cart)=  0.03760666 RMS(Int)=  0.00024032
 Iteration  2 RMS(Cart)=  0.00066108 RMS(Int)=  0.00001214
 Iteration  3 RMS(Cart)=  0.00000019 RMS(Int)=  0.00001214
 ITry= 1 IFail=0 DXMaxC= 1.66D-01 DCOld= 1.00D+10 DXMaxT= 3.00D-01 DXLimC= 3.00D+00 Rises=F
 Variable       Old X    -DE/DX   Delta X   Delta X   Delta X     New X
                                 (Linear)    (Quad)   (Total)
    R1        2.68520   0.00955   0.00000   0.02235   0.02235   2.70755
    R2        2.06371   0.00078   0.00000   0.00223   0.00223   2.06594
    R3        2.06374   0.00077   0.00000   0.00219   0.00219   2.06593
    R4        2.05329   0.00150   0.00000   0.00420   0.00420   2.05749
    R5        2.49835   0.01225   0.00000   0.01981   0.01981   2.51816
    R6        2.27926   0.01629   0.00000   0.01593   0.01593   2.29519
    R7        2.83797   0.00441   0.00000   0.01351   0.01351   2.85148
    R8        2.63239   0.00211   0.00000   0.00301   0.00299   2.63538
    R9        2.50725   0.01311   0.00000   0.02136   0.02135   2.52860
   R10        2.62377   0.00524   0.00000   0.00978   0.00977   2.63353
   R11        2.03465   0.00396   0.00000   0.01075   0.01075   2.04539
   R12        2.49723   0.01697   0.00000   0.02759   0.02760   2.52483
   R13        2.04405   0.00411   0.00000   0.01134   0.01134   2.05539
   R14        2.49743   0.01239   0.00000   0.02115   0.02117   2.51859
   R15        3.21169   0.02455   0.00000   0.06748   0.06748   3.27916
   R16        2.49003   0.01306   0.00000   0.02168   0.02170   2.51173
    A1        1.92555   0.00104   0.00000   0.00671   0.00670   1.93225
    A2        1.92553   0.00105   0.00000   0.00684   0.00682   1.93236
    A3        1.85284  -0.00114   0.00000  -0.00775  -0.00774   1.84509
    A4        1.89660  -0.00047   0.00000  -0.00136  -0.00139   1.89521
    A5        1.93168  -0.00023   0.00000  -0.00220  -0.00220   1.92948
    A6        1.93175  -0.00022   0.00000  -0.00216  -0.00215   1.92960
    A7        2.02885  -0.00316   0.00000  -0.01242  -0.01242   2.01643
    A8        2.18122  -0.00015   0.00000  -0.00060  -0.00060   2.18063
    A9        1.96051   0.00248   0.00000   0.00976   0.00976   1.97028
   A10        2.14145  -0.00233   0.00000  -0.00917  -0.00917   2.13228
   A11        2.09019  -0.00650   0.00000  -0.02375  -0.02373   2.06645
   A12        2.06385   0.00408   0.00000   0.01784   0.01785   2.08170
   A13        2.12915   0.00242   0.00000   0.00591   0.00588   2.13504
   A14        2.02495   0.00133   0.00000  -0.00023  -0.00026   2.02469
   A15        2.10592  -0.00054   0.00000   0.00089   0.00091   2.10682
   A16        2.15232  -0.00079   0.00000  -0.00066  -0.00064   2.15168
   A17        2.13010   0.00216   0.00000   0.00743   0.00743   2.13753
   A18        2.13481  -0.00356   0.00000  -0.01878  -0.01877   2.11604
   A19        2.01827   0.00139   0.00000   0.01134   0.01135   2.02962
   A20        2.03614  -0.00406   0.00000  -0.01173  -0.01170   2.02444
   A21        2.03508  -0.00031   0.00000  -0.00327  -0.00328   2.03180
   A22        2.21398   0.00009   0.00000   0.00450   0.00452   2.21851
   A23        2.03413   0.00021   0.00000  -0.00123  -0.00125   2.03288
   A24        2.03204  -0.00195   0.00000  -0.00588  -0.00587   2.02617
    D1        1.05014   0.00037   0.00000   0.00329   0.00332   1.05346
    D2       -1.04563  -0.00038   0.00000  -0.00372  -0.00375  -1.04939
    D3       -3.13938  -0.00001   0.00000  -0.00028  -0.00028  -3.13965
    D4        0.00026   0.00000   0.00000   0.00002   0.00002   0.00028
    D5        3.14146   0.00000   0.00000   0.00012   0.00012   3.14157
    D6       -3.13453  -0.00002   0.00000  -0.00182  -0.00182  -3.13635
    D7        0.00699  -0.00001   0.00000  -0.00138  -0.00138   0.00561
    D8        0.00668  -0.00002   0.00000  -0.00173  -0.00173   0.00495
    D9       -3.13498  -0.00001   0.00000  -0.00129  -0.00129  -3.13627
   D10        3.14099   0.00001   0.00000   0.00052   0.00052   3.14151
   D11       -0.00045   0.00001   0.00000   0.00031   0.00030  -0.00015
   D12       -0.00053   0.00000   0.00000   0.00007   0.00007  -0.00046
   D13        3.14121  -0.00000   0.00000  -0.00014  -0.00014   3.14107
   D14       -3.14141  -0.00001   0.00000  -0.00044  -0.00045   3.14133
   D15        0.00012  -0.00000   0.00000   0.00000   0.00000   0.00012
   D16        0.00044  -0.00000   0.00000  -0.00003  -0.00003   0.00041
   D17       -3.14102  -0.00001   0.00000  -0.00022  -0.00022  -3.14124
   D18       -3.14131   0.00001   0.00000   0.00019   0.00019  -3.14112
   D19        0.00042  -0.00000   0.00000   0.00000   0.00000   0.00042
   D20        0.00007  -0.00000   0.00000  -0.00008  -0.00008  -0.00002
   D21        3.14153   0.00000   0.00000   0.00009   0.00009  -3.14156
   D22        3.14119  -0.00000   0.00000  -0.00006  -0.00006   3.14112
   D23       -0.00056   0.00001   0.00000   0.00017   0.00017  -0.00039
   D24        0.00047  -0.00000   0.00000  -0.00013  -0.00013   0.00034
   D25       -3.14128   0.00000   0.00000   0.00010   0.00010  -3.14117
         Item               Value     Threshold  Converged?
 Maximum Force            0.024550     0.000450     NO 
 RMS     Force            0.005702     0.000300     NO 
 Maximum Displacement     0.165843     0.001800     NO 
 RMS     Displacement     0.038014     0.001200     NO 
 Predicted change in Energy=-2.220112D-03
 Lowest energy point so far.  Saving SCF results.
 GradGradGradGradGradGradGradGradGradGradGradGradGradGradGradGradGradGrad

 Leave Link  103 at Tue Sep 17 09:50:24 2024, MaxMem=  1342177280 cpu:               0.2 elap:               0.1
 (Enter /groups/ReismanLab/Software/Gaussian16_RevC/Linux_Binary_AVX2-enabled-CPU/g16/l202.exe)
                          Input orientation:                          
 ---------------------------------------------------------------------
 Center     Atomic      Atomic             Coordinates (Angstroms)
 Number     Number       Type             X           Y           Z
 ---------------------------------------------------------------------
      1          6           0        3.572173   -1.546427   -0.003322
      2          8           0        2.197059   -1.144059   -0.004180
      3          6           0        1.983472    0.171253    0.000933
      4          8           0        2.854735    1.017444    0.005807
      5          6           0        0.517252    0.527747   -0.000311
      6          6           0        0.162582    1.876475   -0.001751
      7          6           0       -1.204138    2.148894   -0.002958
      8          7           0       -2.127958    1.183663   -0.002301
      9          6           0       -1.666360   -0.066630   -0.000430
     10         17           0       -2.856935   -1.329028    0.001170
     11          7           0       -0.394259   -0.451847    0.000430
     12          1           0        4.083605   -1.173330    0.887987
     13          1           0        4.088001   -1.162480   -0.887453
     14          1           0        3.560899   -2.635123   -0.009933
     15          1           0        0.921964    2.647756   -0.001835
     16          1           0       -1.575557    3.171176   -0.004451
 ---------------------------------------------------------------------
                    Distance matrix (angstroms):
                    1          2          3          4          5
     1  C    0.000000
     2  O    1.432773   0.000000
     3  C    2.339746   1.332551   0.000000
     4  O    2.662373   2.259365   1.214562   0.000000
     5  C    3.692526   2.369958   1.508937   2.388235   0.000000
     6  C    4.831311   3.641803   2.494680   2.825894   1.394582
     7  C    6.038919   4.734098   3.751258   4.213633   2.364595
     8  N    6.320196   4.911626   4.234247   4.985471   2.725319
     9  C    5.443531   4.010845   3.657576   4.649253   2.263061
    10  Cl   6.432783   5.057380   5.067581   6.174878   3.851331
    11  N    4.114693   2.682184   2.458019   3.565782   1.338079
    12  H    1.093250   2.087073   2.646758   2.662302   4.049890
    13  H    1.093243   2.087144   2.645206   2.659121   4.048967
    14  H    1.088775   2.020734   3.219338   3.720236   4.389491
    15  H    4.961328   4.000467   2.694416   2.528553   2.158295
    16  H    6.982471   5.731831   4.654703   4.926069   3.371585
                    6          7          8          9         10
     6  C    0.000000
     7  C    1.393606   0.000000
     8  N    2.393024   1.336083   0.000000
     9  C    2.668461   2.263229   1.332782   0.000000
    10  Cl   4.403719   3.850675   2.616301   1.735258   0.000000
    11  N    2.393984   2.723926   2.383404   1.329148   2.614234
    12  H    5.046520   6.308025   6.703099   5.922513   6.998698
    13  H    5.042680   6.305098   6.702688   5.924556   7.003536
    14  H    5.648287   6.752218   6.851736   5.824215   6.549397
    15  H    1.082376   2.183844   3.383135   3.750643   5.485882
    16  H    2.167345   1.087664   2.062853   3.239082   4.679081
                   11         12         13         14         15
    11  N    0.000000
    12  H    4.621640   0.000000
    13  H    4.624282   1.775478   0.000000
    14  H    4.517751   1.793411   1.793476   0.000000
    15  H    3.367490   5.038696   5.032495   5.905324   0.000000
    16  H    3.810746   7.190083   7.185830   7.752182   2.551781
                   16
    16  H    0.000000
 Stoichiometry    C6H5ClN2O2
 Framework group  C1[X(C6H5ClN2O2)]
 Deg. of freedom    42
 Full point group                 C1      NOp   1
 RotChk:  IX=0 Diff= 5.74D-03
 Largest Abelian subgroup         C1      NOp   1
 Largest concise Abelian subgroup C1      NOp   1
                         Standard orientation:                         
 ---------------------------------------------------------------------
 Center     Atomic      Atomic             Coordinates (Angstroms)
 Number     Number       Type             X           Y           Z
 ---------------------------------------------------------------------
      1          6           0        3.573048   -1.407902   -0.002835
      2          8           0        2.182109   -1.064211   -0.003692
      3          6           0        1.912936    0.240861    0.001421
      4          8           0        2.747531    1.123238    0.006295
      5          6           0        0.432917    0.534857    0.000177
      6          6           0        0.021372    1.867332   -0.001264
      7          6           0       -1.355671    2.081549   -0.002470
      8          7           0       -2.237728    1.078009   -0.001814
      9          6           0       -1.723525   -0.151584    0.000058
     10         17           0       -2.859495   -1.463335    0.001657
     11          7           0       -0.436232   -0.482509    0.000918
     12          1           0        4.068199   -1.013453    0.888475
     13          1           0        4.072131   -1.002426   -0.886965
     14          1           0        3.607953   -2.496098   -0.009446
     15          1           0        0.747364    2.670122   -0.001347
     16          1           0       -1.770107    3.087160   -0.003963
 ---------------------------------------------------------------------
 Rotational constants (GHZ):           1.8024386           0.5846081           0.4426619
 Leave Link  202 at Tue Sep 17 09:50:24 2024, MaxMem=  1342177280 cpu:               0.0 elap:               0.0
 (Enter /groups/ReismanLab/Software/Gaussian16_RevC/Linux_Binary_AVX2-enabled-CPU/g16/l301.exe)
 Standard basis: 6-31G(d,p) (6D, 7F)
 Ernie: Thresh=  0.10000D-02 Tol=  0.10000D-05 Strict=F.
 There are   194 symmetry adapted cartesian basis functions of A   symmetry.
 There are   194 symmetry adapted basis functions of A   symmetry.
   194 basis functions,   367 primitive gaussians,   194 cartesian basis functions
    44 alpha electrons       44 beta electrons
       nuclear repulsion energy       656.2139966262 Hartrees.
 IExCor=  402 DFT=T Ex+Corr=B3LYP ExCW=0 ScaHFX=  0.200000
 ScaDFX=  0.800000  0.720000  1.000000  0.810000 ScalE2=  1.000000  1.000000
 IRadAn=      5 IRanWt=     -1 IRanGd=            0 ICorTp=0 IEmpDi=141
 NAtoms=   16 NActive=   16 NUniq=   16 SFac= 1.00D+00 NAtFMM=   60 NAOKFM=F Big=F
 Integral buffers will be    131072 words long.
 Raffenetti 2 integral format.
 Two-electron integral symmetry is turned on.
 R6Disp:  Grimme-D3(BJ) Dispersion energy=       -0.0297654298 Hartrees.
 Nuclear repulsion after empirical dispersion term =      656.1842311965 Hartrees.
 Leave Link  301 at Tue Sep 17 09:50:24 2024, MaxMem=  1342177280 cpu:               0.1 elap:               0.1
 (Enter /groups/ReismanLab/Software/Gaussian16_RevC/Linux_Binary_AVX2-enabled-CPU/g16/l302.exe)
 NPDir=0 NMtPBC=     1 NCelOv=     1 NCel=       1 NClECP=     1 NCelD=      1
         NCelK=      1 NCelE2=     1 NClLst=     1 CellRange=     0.0.
 One-electron integrals computed using PRISM.
 One-electron integral symmetry used in STVInt
 NBasis=   194 RedAO= T EigKep=  1.13D-03  NBF=   194
 NBsUse=   194 1.00D-06 EigRej= -1.00D+00 NBFU=   194
 Precomputing XC quadrature grid using
 IXCGrd= 4 IRadAn=           5 IRanWt=          -1 IRanGd=           0 AccXCQ= 0.00D+00.
 Generated NRdTot=       0 NPtTot=           0 NUsed=           0 NTot=          32
 NSgBfM=   193   193   193   193   193 MxSgAt=    16 MxSgA2=    16.
 Leave Link  302 at Tue Sep 17 09:50:25 2024, MaxMem=  1342177280 cpu:               1.0 elap:               0.2
 (Enter /groups/ReismanLab/Software/Gaussian16_RevC/Linux_Binary_AVX2-enabled-CPU/g16/l303.exe)
 DipDrv:  MaxL=1.
 Leave Link  303 at Tue Sep 17 09:50:25 2024, MaxMem=  1342177280 cpu:               0.1 elap:               0.0
 (Enter /groups/ReismanLab/Software/Gaussian16_RevC/Linux_Binary_AVX2-enabled-CPU/g16/l401.exe)
 Initial guess from the checkpoint file:  "smiles_00119_conf_0.chk"
 B after Tr=     0.000000   -0.000000    0.000000
         Rot=    0.999993   -0.000023   -0.000009    0.003737 Ang=  -0.43 deg.
 Guess basis will be translated and rotated to current coordinates.
 JPrj=2 DoOrth=T DoCkMO=T.
 Generating alternative initial guess.
 ExpMin= 1.43D-01 ExpMax= 2.52D+04 ExpMxC= 3.78D+03 IAcc=3 IRadAn=         5 AccDes= 0.00D+00
 Harris functional with IExCor=  402 and IRadAn=       5 diagonalized for initial guess.
 HarFok:  IExCor=  402 AccDes= 0.00D+00 IRadAn=         5 IDoV= 1 UseB2=F ITyADJ=14
 ICtDFT=  3500011 ScaDFX=  1.000000  1.000000  1.000000  1.000000
 FoFCou: FMM=F IPFlag=           0 FMFlag=      100000 FMFlg1=           0
         NFxFlg=           0 DoJE=T BraDBF=F KetDBF=T FulRan=T
         wScrn=  0.000000 ICntrl=       500 IOpCl=  0 I1Cent=   200000004 NGrid=           0
         NMat0=    1 NMatS0=      1 NMatT0=    0 NMatD0=    1 NMtDS0=    0 NMtDT0=    0
 Petite list used in FoFCou.
 Harris En= -951.734283683779    
 Leave Link  401 at Tue Sep 17 09:50:25 2024, MaxMem=  1342177280 cpu:               3.7 elap:               0.5
 (Enter /groups/ReismanLab/Software/Gaussian16_RevC/Linux_Binary_AVX2-enabled-CPU/g16/l502.exe)
 Integral symmetry usage will be decided dynamically.
 Closed shell SCF:
 Using DIIS extrapolation, IDIIS=  1040.
 NGot=  1342177280 LenX=  1342098008 LenY=  1342059931
 Requested convergence on RMS density matrix=1.00D-08 within  32 cycles.
 Requested convergence on MAX density matrix=1.00D-06.
 Requested convergence on             energy=1.00D-06.
 No special actions if energy rises.
 Fock matrices will be formed incrementally for  20 cycles.
 Integral accuracy reduced to 1.0D-05 until final iterations.

 Cycle   1  Pass 0  IDiag  1:
 FoFJK:  IHMeth= 1 ICntrl=       0 DoSepK=F KAlg= 0 I1Cent=           0 FoldK=F
 IRaf= 860000000 NMat=       1 IRICut=       1 DoRegI=T DoRafI=F ISym2E= 0 IDoP0=0 IntGTp=1.
 FoFCou: FMM=F IPFlag=           0 FMFlag=      100000 FMFlg1=           0
         NFxFlg=           0 DoJE=F BraDBF=F KetDBF=F FulRan=T
         wScrn=  0.000000 ICntrl=         0 IOpCl=  0 I1Cent=           0 NGrid=           0
         NMat0=    1 NMatS0=      1 NMatT0=    0 NMatD0=    1 NMtDS0=    0 NMtDT0=    0
 Symmetry not used in FoFCou.
 E= -951.827893656624    
 DIIS: error= 1.85D-03 at cycle   1 NSaved=   1.
 NSaved= 1 IEnMin= 1 EnMin= -951.827893656624     IErMin= 1 ErrMin= 1.85D-03
 ErrMax= 1.85D-03  0.00D+00 EMaxC= 1.00D-01 BMatC= 1.23D-03 BMatP= 1.23D-03
 IDIUse=3 WtCom= 9.81D-01 WtEn= 1.85D-02
 Coeff-Com:  0.100D+01
 Coeff-En:   0.100D+01
 Coeff:      0.100D+01
 Gap=     1.530 Goal=   None    Shift=    0.000
 GapD=    1.530 DampG=2.000 DampE=1.000 DampFc=2.0000 IDamp=-1.
 RMSDP=3.34D-04 MaxDP=6.71D-03              OVMax= 8.56D-03

 Cycle   2  Pass 0  IDiag  1:
 RMSU=  3.34D-04    CP:  1.00D+00
 E= -951.829581260219     Delta-E=       -0.001687603595 Rises=F Damp=F
 DIIS: error= 7.05D-04 at cycle   2 NSaved=   2.
 NSaved= 2 IEnMin= 2 EnMin= -951.829581260219     IErMin= 2 ErrMin= 7.05D-04
 ErrMax= 7.05D-04  0.00D+00 EMaxC= 1.00D-01 BMatC= 1.44D-04 BMatP= 1.23D-03
 IDIUse=3 WtCom= 9.93D-01 WtEn= 7.05D-03
 Coeff-Com:  0.129D+00 0.871D+00
 Coeff-En:   0.000D+00 0.100D+01
 Coeff:      0.128D+00 0.872D+00
 Gap=     0.185 Goal=   None    Shift=    0.000
 RMSDP=1.70D-04 MaxDP=5.20D-03 DE=-1.69D-03 OVMax= 5.79D-03

 Cycle   3  Pass 0  IDiag  1:
 RMSU=  1.69D-04    CP:  1.00D+00  1.01D+00
 E= -951.829493483301     Delta-E=        0.000087776917 Rises=F Damp=F
 DIIS: error= 1.01D-03 at cycle   3 NSaved=   3.
 NSaved= 3 IEnMin= 2 EnMin= -951.829581260219     IErMin= 2 ErrMin= 7.05D-04
 ErrMax= 1.01D-03  0.00D+00 EMaxC= 1.00D-01 BMatC= 2.35D-04 BMatP= 1.44D-04
 IDIUse=3 WtCom= 2.39D-01 WtEn= 7.61D-01
 Coeff-Com: -0.199D-01 0.570D+00 0.450D+00
 Coeff-En:   0.000D+00 0.600D+00 0.400D+00
 Coeff:     -0.476D-02 0.593D+00 0.412D+00
 Gap=     0.185 Goal=   None    Shift=    0.000
 RMSDP=9.26D-05 MaxDP=2.93D-03 DE= 8.78D-05 OVMax= 4.07D-03

 Cycle   4  Pass 0  IDiag  1:
 RMSU=  3.61D-05    CP:  1.00D+00  1.04D+00  5.01D-01
 E= -951.829719957236     Delta-E=       -0.000226473935 Rises=F Damp=F
 DIIS: error= 1.48D-04 at cycle   4 NSaved=   4.
 NSaved= 4 IEnMin= 4 EnMin= -951.829719957236     IErMin= 4 ErrMin= 1.48D-04
 ErrMax= 1.48D-04  0.00D+00 EMaxC= 1.00D-01 BMatC= 7.63D-06 BMatP= 1.44D-04
 IDIUse=3 WtCom= 9.99D-01 WtEn= 1.48D-03
 Coeff-Com: -0.183D-01 0.280D+00 0.230D+00 0.508D+00
 Coeff-En:   0.000D+00 0.000D+00 0.000D+00 0.100D+01
 Coeff:     -0.182D-01 0.279D+00 0.230D+00 0.509D+00
 Gap=     0.185 Goal=   None    Shift=    0.000
 RMSDP=2.07D-05 MaxDP=4.91D-04 DE=-2.26D-04 OVMax= 1.04D-03

 Cycle   5  Pass 0  IDiag  1:
 RMSU=  1.18D-05    CP:  1.00D+00  1.05D+00  4.63D-01  5.67D-01
 E= -951.829727049959     Delta-E=       -0.000007092723 Rises=F Damp=F
 DIIS: error= 4.89D-05 at cycle   5 NSaved=   5.
 NSaved= 5 IEnMin= 5 EnMin= -951.829727049959     IErMin= 5 ErrMin= 4.89D-05
 ErrMax= 4.89D-05  0.00D+00 EMaxC= 1.00D-01 BMatC= 9.75D-07 BMatP= 7.63D-06
 IDIUse=1 WtCom= 1.00D+00 WtEn= 0.00D+00
 Coeff-Com: -0.869D-02 0.104D+00 0.921D-01 0.291D+00 0.521D+00
 Coeff:     -0.869D-02 0.104D+00 0.921D-01 0.291D+00 0.521D+00
 Gap=     0.185 Goal=   None    Shift=    0.000
 RMSDP=5.53D-06 MaxDP=1.73D-04 DE=-7.09D-06 OVMax= 3.08D-04

 Initial convergence to 1.0D-05 achieved.  Increase integral accuracy.
 Cycle   6  Pass 1  IDiag  1:
 E= -951.829726703271     Delta-E=        0.000000346688 Rises=F Damp=F
 DIIS: error= 2.01D-05 at cycle   1 NSaved=   1.
 NSaved= 1 IEnMin= 1 EnMin= -951.829726703271     IErMin= 1 ErrMin= 2.01D-05
 ErrMax= 2.01D-05  0.00D+00 EMaxC= 1.00D-01 BMatC= 1.35D-07 BMatP= 1.35D-07
 IDIUse=1 WtCom= 1.00D+00 WtEn= 0.00D+00
 Coeff-Com:  0.100D+01
 Coeff:      0.100D+01
 Gap=     0.185 Goal=   None    Shift=    0.000
 RMSDP=5.53D-06 MaxDP=1.73D-04 DE= 3.47D-07 OVMax= 3.09D-04

 Cycle   7  Pass 1  IDiag  1:
 RMSU=  6.83D-06    CP:  1.00D+00
 E= -951.829726420359     Delta-E=        0.000000282912 Rises=F Damp=F
 DIIS: error= 4.60D-05 at cycle   2 NSaved=   2.
 NSaved= 2 IEnMin= 1 EnMin= -951.829726703271     IErMin= 1 ErrMin= 2.01D-05
 ErrMax= 4.60D-05  0.00D+00 EMaxC= 1.00D-01 BMatC= 4.95D-07 BMatP= 1.35D-07
 IDIUse=1 WtCom= 1.00D+00 WtEn= 0.00D+00
 Coeff-Com:  0.667D+00 0.333D+00
 Coeff:      0.667D+00 0.333D+00
 Gap=     0.185 Goal=   None    Shift=    0.000
 RMSDP=3.32D-06 MaxDP=1.40D-04 DE= 2.83D-07 OVMax= 2.48D-04

 Cycle   8  Pass 1  IDiag  1:
 RMSU=  2.62D-06    CP:  1.00D+00  7.02D-01
 E= -951.829726807607     Delta-E=       -0.000000387248 Rises=F Damp=F
 DIIS: error= 5.47D-06 at cycle   3 NSaved=   3.
 NSaved= 3 IEnMin= 3 EnMin= -951.829726807607     IErMin= 3 ErrMin= 5.47D-06
 ErrMax= 5.47D-06  0.00D+00 EMaxC= 1.00D-01 BMatC= 1.15D-08 BMatP= 1.35D-07
 IDIUse=1 WtCom= 1.00D+00 WtEn= 0.00D+00
 Coeff-Com:  0.233D+00 0.167D+00 0.600D+00
 Coeff:      0.233D+00 0.167D+00 0.600D+00
 Gap=     0.185 Goal=   None    Shift=    0.000
 RMSDP=7.17D-07 MaxDP=2.97D-05 DE=-3.87D-07 OVMax= 3.95D-05

 Cycle   9  Pass 1  IDiag  1:
 RMSU=  6.47D-07    CP:  1.00D+00  7.17D-01  8.89D-01
 E= -951.829726814728     Delta-E=       -0.000000007122 Rises=F Damp=F
 DIIS: error= 1.84D-06 at cycle   4 NSaved=   4.
 NSaved= 4 IEnMin= 4 EnMin= -951.829726814728     IErMin= 4 ErrMin= 1.84D-06
 ErrMax= 1.84D-06  0.00D+00 EMaxC= 1.00D-01 BMatC= 2.37D-09 BMatP= 1.15D-08
 IDIUse=1 WtCom= 1.00D+00 WtEn= 0.00D+00
 Coeff-Com:  0.194D-01 0.400D-01 0.351D+00 0.589D+00
 Coeff:      0.194D-01 0.400D-01 0.351D+00 0.589D+00
 Gap=     0.185 Goal=   None    Shift=    0.000
 RMSDP=2.77D-07 MaxDP=1.12D-05 DE=-7.12D-09 OVMax= 2.10D-05

 Cycle  10  Pass 1  IDiag  1:
 RMSU=  1.75D-07    CP:  1.00D+00  7.20D-01  9.12D-01  6.86D-01
 E= -951.829726816628     Delta-E=       -0.000000001899 Rises=F Damp=F
 DIIS: error= 7.87D-07 at cycle   5 NSaved=   5.
 NSaved= 5 IEnMin= 5 EnMin= -951.829726816628     IErMin= 5 ErrMin= 7.87D-07
 ErrMax= 7.87D-07  0.00D+00 EMaxC= 1.00D-01 BMatC= 2.27D-10 BMatP= 2.37D-09
 IDIUse=1 WtCom= 1.00D+00 WtEn= 0.00D+00
 Coeff-Com: -0.255D-02 0.138D-01 0.166D+00 0.350D+00 0.472D+00
 Coeff:     -0.255D-02 0.138D-01 0.166D+00 0.350D+00 0.472D+00
 Gap=     0.185 Goal=   None    Shift=    0.000
 RMSDP=1.01D-07 MaxDP=2.81D-06 DE=-1.90D-09 OVMax= 5.19D-06

 Cycle  11  Pass 1  IDiag  1:
 RMSU=  3.40D-08    CP:  1.00D+00  7.23D-01  9.11D-01  6.67D-01  4.75D-01
 E= -951.829726816851     Delta-E=       -0.000000000223 Rises=F Damp=F
 DIIS: error= 1.67D-07 at cycle   6 NSaved=   6.
 NSaved= 6 IEnMin= 6 EnMin= -951.829726816851     IErMin= 6 ErrMin= 1.67D-07
 ErrMax= 1.67D-07  0.00D+00 EMaxC= 1.00D-01 BMatC= 9.51D-12 BMatP= 2.27D-10
 IDIUse=1 WtCom= 1.00D+00 WtEn= 0.00D+00
 Coeff-Com: -0.224D-02 0.686D-02 0.865D-01 0.188D+00 0.276D+00 0.444D+00
 Coeff:     -0.224D-02 0.686D-02 0.865D-01 0.188D+00 0.276D+00 0.444D+00
 Gap=     0.185 Goal=   None    Shift=    0.000
 RMSDP=1.94D-08 MaxDP=7.46D-07 DE=-2.23D-10 OVMax= 1.18D-06

 Cycle  12  Pass 1  IDiag  1:
 RMSU=  1.09D-08    CP:  1.00D+00  7.22D-01  9.12D-01  6.71D-01  5.06D-01
                    CP:  5.68D-01
 E= -951.829726816867     Delta-E=       -0.000000000017 Rises=F Damp=F
 DIIS: error= 5.46D-08 at cycle   7 NSaved=   7.
 NSaved= 7 IEnMin= 7 EnMin= -951.829726816867     IErMin= 7 ErrMin= 5.46D-08
 ErrMax= 5.46D-08  0.00D+00 EMaxC= 1.00D-01 BMatC= 6.76D-13 BMatP= 9.51D-12
 IDIUse=1 WtCom= 1.00D+00 WtEn= 0.00D+00
 Coeff-Com: -0.917D-03 0.228D-02 0.286D-01 0.639D-01 0.960D-01 0.252D+00
 Coeff-Com:  0.559D+00
 Coeff:     -0.917D-03 0.228D-02 0.286D-01 0.639D-01 0.960D-01 0.252D+00
 Coeff:      0.559D+00
 Gap=     0.185 Goal=   None    Shift=    0.000
 RMSDP=5.35D-09 MaxDP=2.18D-07 DE=-1.68D-11 OVMax= 3.76D-07

 SCF Done:  E(RB3LYP) =  -951.829726817     A.U. after   12 cycles
            NFock= 12  Conv=0.54D-08     -V/T= 2.0062
 KE= 9.459855580439D+02 PE=-3.552427790051D+03 EE= 9.984282739935D+02
 Leave Link  502 at Tue Sep 17 09:50:31 2024, MaxMem=  1342177280 cpu:              47.7 elap:               6.3
 (Enter /groups/ReismanLab/Software/Gaussian16_RevC/Linux_Binary_AVX2-enabled-CPU/g16/l508.exe)
 QCSCF skips out because SCF is already converged.
 Leave Link  508 at Tue Sep 17 09:50:31 2024, MaxMem=  1342177280 cpu:               0.0 elap:               0.0
 (Enter /groups/ReismanLab/Software/Gaussian16_RevC/Linux_Binary_AVX2-enabled-CPU/g16/l701.exe)
 ... and contract with generalized density number  0.
 Compute integral first derivatives.
 R6Disp: Adding Grimme-D3(BJ) dispersion energy 1st derivatives to the gradient.
 Leave Link  701 at Tue Sep 17 09:50:32 2024, MaxMem=  1342177280 cpu:               0.8 elap:               0.1
 (Enter /groups/ReismanLab/Software/Gaussian16_RevC/Linux_Binary_AVX2-enabled-CPU/g16/l702.exe)
 L702 exits ... SP integral derivatives will be done elsewhere.
 Leave Link  702 at Tue Sep 17 09:50:32 2024, MaxMem=  1342177280 cpu:               0.1 elap:               0.0
 (Enter /groups/ReismanLab/Software/Gaussian16_RevC/Linux_Binary_AVX2-enabled-CPU/g16/l703.exe)
 Integral derivatives from FoFJK, PRISM(SPDF).
 Compute integral first derivatives, UseDBF=F ICtDFT=           0.
 Calling FoFJK, ICntrl=      2127 FMM=F ISym2X=0 I1Cent= 0 IOpClX= 0 NMat=1 NMatS=1 NMatT=0.
 FoFJK:  IHMeth= 1 ICntrl=    2127 DoSepK=F KAlg= 0 I1Cent=           0 FoldK=F
 IRaf=         0 NMat=       1 IRICut=       1 DoRegI=T DoRafI=F ISym2E= 0 IDoP0=0 IntGTp=1.
 FoFCou: FMM=F IPFlag=           0 FMFlag=      100000 FMFlg1=         800
         NFxFlg=           0 DoJE=F BraDBF=F KetDBF=F FulRan=T
         wScrn=  0.000000 ICntrl=      2127 IOpCl=  0 I1Cent=           0 NGrid=           0
         NMat0=    1 NMatS0=      1 NMatT0=    0 NMatD0=    1 NMtDS0=    0 NMtDT0=    0
 Symmetry not used in FoFCou.
 Leave Link  703 at Tue Sep 17 09:50:34 2024, MaxMem=  1342177280 cpu:              15.5 elap:               2.0
 (Enter /groups/ReismanLab/Software/Gaussian16_RevC/Linux_Binary_AVX2-enabled-CPU/g16/l716.exe)
 Dipole        = 8.17037787D-01 3.66061643D-01-3.95780851D-03
 ***** Axes restored to original set *****
 -------------------------------------------------------------------
 Center     Atomic                   Forces (Hartrees/Bohr)
 Number     Number              X              Y              Z
 -------------------------------------------------------------------
      1        6           0.004160481   -0.000311189    0.000009135
      2        8          -0.003003658   -0.001444696   -0.000005442
      3        6          -0.000955356    0.001374138    0.000005807
      4        8           0.000317019    0.000315070   -0.000010983
      5        6          -0.000593180    0.000979348    0.000015866
      6        6          -0.000453782   -0.000310601    0.000006019
      7        6           0.002471169    0.000042540    0.000004306
      8        7          -0.004168345   -0.002402271    0.000001788
      9        6           0.009105206    0.009036522   -0.000003582
     10       17          -0.002964344   -0.003196882   -0.000000754
     11        7          -0.001562066   -0.003756266   -0.000016906
     12        1          -0.000709418    0.000136161   -0.000059765
     13        1          -0.000714237    0.000132055    0.000057496
     14        1          -0.000470507    0.000012409    0.000001069
     15        1          -0.000330566   -0.000182775   -0.000004849
     16        1          -0.000128416   -0.000423563    0.000000797
 -------------------------------------------------------------------
 Cartesian Forces:  Max     0.009105206 RMS     0.002345749
 Leave Link  716 at Tue Sep 17 09:50:34 2024, MaxMem=  1342177280 cpu:               0.1 elap:               0.0
 (Enter /groups/ReismanLab/Software/Gaussian16_RevC/Linux_Binary_AVX2-enabled-CPU/g16/l103.exe)

 GradGradGradGradGradGradGradGradGradGradGradGradGradGradGradGradGradGrad
 Berny optimization.
 Using GEDIIS/GDIIS optimizer.
 FormGI is forming the generalized inverse of G from B-inverse, IUseBI=4.
 Internal  Forces:  Max     0.004482281 RMS     0.001181829
 Search for a local minimum.
 Step number   2 out of a maximum of   75
 All quantities printed in internal units (Hartrees-Bohrs-Radians)
 RMS Force = .11818D-02 SwitMx=.10000D-02 MixMth= 1
 Mixed Optimization -- RFO/linear search
 Update second derivatives using D2CorX and points    1    2
 DE= -2.32D-03 DEPred=-2.22D-03 R= 1.05D+00
 TightC=F SS=  1.41D+00  RLast= 1.03D-01 DXNew= 5.0454D-01 3.0864D-01
 Trust test= 1.05D+00 RLast= 1.03D-01 DXMaxT set to 3.09D-01
 ITU=  1  0
 Use linear search instead of GDIIS.
     Eigenvalues ---    0.00742   0.01415   0.01431   0.01782   0.02212
     Eigenvalues ---    0.02284   0.02394   0.02580   0.02723   0.02739
     Eigenvalues ---    0.02755   0.10236   0.10672   0.15885   0.16000
     Eigenvalues ---    0.16000   0.16000   0.16197   0.21782   0.22541
     Eigenvalues ---    0.24478   0.25000   0.25000   0.25000   0.25000
     Eigenvalues ---    0.25739   0.32202   0.33928   0.34574   0.34674
     Eigenvalues ---    0.35222   0.35919   0.36575   0.41897   0.44575
     Eigenvalues ---    0.46373   0.56777   0.59724   0.61215   0.61758
     Eigenvalues ---    0.65650   1.02139
 RFO step:  Lambda=-3.33865964D-04 EMin= 7.42256889D-03
 Quartic linear search produced a step of  0.08515.
 Iteration  1 RMS(Cart)=  0.00694884 RMS(Int)=  0.00003694
 Iteration  2 RMS(Cart)=  0.00005469 RMS(Int)=  0.00000833
 Iteration  3 RMS(Cart)=  0.00000000 RMS(Int)=  0.00000833
 ITry= 1 IFail=0 DXMaxC= 2.17D-02 DCOld= 1.00D+10 DXMaxT= 3.09D-01 DXLimC= 3.00D+00 Rises=F
 Variable       Old X    -DE/DX   Delta X   Delta X   Delta X     New X
                                 (Linear)    (Quad)   (Total)
[...]
   Eigenvalues:  -111.6130    42.0688    69.5649
      4  O    Isotropic =  -145.0830   Anisotropy =   715.5560
   XX=  -342.0689   YX=   -50.4647   ZX=    -0.0683
   XY=   -29.9818   YY=  -425.1343   ZY=    -0.2862
   XZ=    -0.0672   YZ=    -0.3794   ZZ=   331.9542
   Eigenvalues:  -441.4193  -325.7840   331.9543
      5  C    Isotropic =     2.6358   Anisotropy =   194.2115
   XX=  -125.7293   YX=    18.6100   ZX=    -0.0405
   XY=    -1.5668   YY=     1.5266   ZY=     0.0226
   XZ=    -0.0252   YZ=     0.0583   ZZ=   132.1102
   Eigenvalues:  -126.2974     2.0947   132.1102
      6  C    Isotropic =    44.3591   Anisotropy =   214.2626
   XX=   -21.9710   YX=   -65.2566   ZX=    -0.0225
   XY=   -54.9037   YY=   -32.1526   ZY=     0.0264
   XZ=    -0.0281   YZ=     0.0330   ZZ=   187.2008
   Eigenvalues:   -87.3572    33.2336   187.2008
      7  C    Isotropic =    -3.4498   Anisotropy =   224.8814
   XX=   -23.2388   YX=     4.3895   ZX=    -0.0256
   XY=    26.0419   YY=  -133.5817   ZY=     0.0638
   XZ=    -0.0267   YZ=     0.0535   ZZ=   146.4711
   Eigenvalues:  -135.6414   -21.1791   146.4711
      8  N    Isotropic =  -123.3302   Anisotropy =   554.6952
   XX=  -211.3466   YX=   -17.7877   ZX=    -0.0601
   XY=    -6.5470   YY=  -405.1104   ZY=     0.1441
   XZ=    -0.0662   YZ=     0.1217   ZZ=   246.4666
   Eigenvalues:  -405.8715  -210.5856   246.4666
      9  C    Isotropic =    -6.1381   Anisotropy =   103.7743
   XX=   -30.2678   YX=   -68.2874   ZX=     0.0042
   XY=   -69.1198   YY=   -51.1913   ZY=     0.0159
   XZ=     0.0046   YZ=     0.0179   ZZ=    63.0448
   Eigenvalues:  -110.2251    28.7660    63.0448
     10  Cl   Isotropic =   546.0543   Anisotropy =   695.7714
   XX=   609.6343   YX=   347.2363   ZX=    -0.0043
   XY=   342.3934   YY=   712.8575   ZY=    -0.0033
   XZ=    -0.0094   YZ=    -0.0187   ZZ=   315.6712
   Eigenvalues:   312.5899   315.6712  1009.9019
     11  N    Isotropic =  -105.9745   Anisotropy =   518.1118
   XX=  -379.1758   YX=   -21.3547   ZX=    -0.0463
   XY=   -36.2199   YY=  -178.1811   ZY=     0.0680
   XZ=    -0.0765   YZ=     0.0744   ZZ=   239.4334
   Eigenvalues:  -383.2176  -174.1393   239.4334
     12  H    Isotropic =    27.8660   Anisotropy =     8.0077
   XX=    30.6124   YX=     0.0682   ZX=     3.7485
   XY=    -1.6697   YY=    25.4636   ZY=    -0.2329
   XZ=     3.7886   YZ=     0.0922   ZZ=    27.5219
   Eigenvalues:    24.7607    25.6328    33.2044
     13  H    Isotropic =    27.8633   Anisotropy =     8.0023
   XX=    30.6136   YX=     0.0784   ZX=    -3.7442
   XY=    -1.6648   YY=    25.4662   ZY=     0.2258
   XZ=    -3.7893   YZ=    -0.0998   ZZ=    27.5102
   Eigenvalues:    24.7562    25.6356    33.1982
     14  H    Isotropic =    27.8416   Anisotropy =     7.2831
   XX=    28.8087   YX=    -3.6198   ZX=    -0.0037
   XY=    -1.8125   YY=    30.7996   ZY=     0.0081
   XZ=    -0.0024   YZ=     0.0110   ZZ=    23.9164
   Eigenvalues:    23.9164    26.9113    32.6970
     15  H    Isotropic =    22.8350   Anisotropy =     8.7074
   XX=    24.7965   YX=    -4.7634   ZX=     0.0012
   XY=    -4.0141   YY=    23.6284   ZY=    -0.0007
   XZ=     0.0026   YZ=    -0.0013   ZZ=    20.0800
   Eigenvalues:    19.7850    20.0800    28.6399
     16  H    Isotropic =    22.0909   Anisotropy =     7.4770
   XX=    26.8377   YX=     1.2289   ZX=     0.0007
   XY=     1.2617   YY=    20.5554   ZY=     0.0001
   XZ=     0.0008   YZ=    -0.0007   ZZ=    18.8797
   Eigenvalues:    18.8797    20.3175    27.0755
 End of Minotr F.D. properties file   721 does not exist.
 End of Minotr F.D. properties file   722 does not exist.
 End of Minotr F.D. properties file   788 does not exist.
 Leave Link 1002 at Tue Sep 17 10:38:11 2024, MaxMem=  1342177280 cpu:             649.6 elap:             651.8
 (Enter /groups/ReismanLab/Software/Gaussian16_RevC/Linux_Binary_AVX2-enabled-CPU/g16/l601.exe)
 Copying SCF densities to generalized density rwf, IOpCl= 0 IROHF=0.

 **********************************************************************

            Population analysis using the SCF Density.

 **********************************************************************

 Orbital symmetries:
       Occupied  (A) (A) (A) (A) (A) (A) (A) (A) (A) (A) (A) (A)
                 (A) (A) (A) (A) (A) (A) (A) (A) (A) (A) (A) (A)
                 (A) (A) (A) (A) (A) (A) (A) (A) (A) (A) (A) (A)
                 (A) (A) (A) (A) (A) (A) (A) (A)
       Virtual   (A) (A) (A) (A) (A) (A) (A) (A) (A) (A) (A) (A)
                 (A) (A) (A) (A) (A) (A) (A) (A) (A) (A) (A) (A)
                 (A) (A) (A) (A) (A) (A) (A) (A) (A) (A) (A) (A)
                 (A) (A) (A) (A) (A) (A) (A) (A) (A) (A) (A) (A)
                 (A) (A) (A) (A) (A) (A) (A) (A) (A) (A) (A) (A)
                 (A) (A) (A) (A) (A) (A) (A) (A) (A) (A) (A) (A)
                 (A) (A) (A) (A) (A) (A) (A) (A) (A) (A) (A) (A)
                 (A) (A) (A) (A) (A) (A) (A) (A) (A) (A) (A) (A)
                 (A) (A) (A) (A) (A) (A) (A) (A) (A) (A) (A) (A)
                 (A) (A) (A) (A) (A) (A) (A) (A) (A) (A) (A) (A)
                 (A) (A) (A) (A) (A) (A) (A) (A) (A) (A) (A) (A)
                 (A) (A) (A) (A) (A) (A) (A) (A) (A) (A) (A) (A)
                 (A) (A) (A) (A) (A) (A) (A) (A) (A) (A) (A) (A)
                 (A) (A) (A) (A) (A) (A) (A) (A) (A) (A) (A) (A)
                 (A) (A) (A) (A) (A) (A) (A) (A) (A) (A) (A) (A)
                 (A) (A) (A) (A) (A) (A) (A) (A) (A) (A) (A) (A)
                 (A) (A) (A) (A) (A) (A) (A) (A) (A) (A) (A) (A)
                 (A) (A) (A) (A) (A) (A) (A) (A) (A) (A) (A) (A)
                 (A) (A) (A) (A) (A) (A) (A) (A) (A) (A) (A) (A)
                 (A) (A) (A) (A) (A) (A) (A) (A) (A) (A) (A) (A)
                 (A) (A) (A) (A) (A) (A) (A) (A) (A) (A) (A) (A)
                 (A) (A) (A) (A) (A) (A) (A) (A) (A) (A) (A) (A)
                 (A) (A) (A) (A) (A) (A) (A) (A) (A) (A) (A) (A)
                 (A) (A) (A) (A) (A) (A) (A) (A) (A) (A) (A) (A)
                 (A) (A) (A) (A) (A) (A) (A) (A) (A) (A) (A) (A)
                 (A) (A) (A) (A) (A) (A) (A) (A) (A) (A) (A) (A)
                 (A) (A) (A) (A) (A) (A) (A) (A) (A) (A) (A) (A)
                 (A) (A) (A) (A) (A) (A) (A) (A) (A)
 The electronic state is 1-A.
 Alpha  occ. eigenvalues -- -102.65505 -19.68833 -19.63684 -14.78845 -14.78684
 Alpha  occ. eigenvalues --  -10.69504 -10.68544 -10.63020 -10.61799 -10.59538
 Alpha  occ. eigenvalues --  -10.57860  -9.81794  -7.53988  -7.53486  -7.53439
 Alpha  occ. eigenvalues --   -1.25137  -1.15804  -1.13829  -1.03026  -0.97333
 Alpha  occ. eigenvalues --   -0.89648  -0.84829  -0.78191  -0.74799  -0.67522
 Alpha  occ. eigenvalues --   -0.64300  -0.62123  -0.58378  -0.57235  -0.56376
 Alpha  occ. eigenvalues --   -0.54244  -0.54216  -0.50210  -0.49310  -0.48304
 Alpha  occ. eigenvalues --   -0.44434  -0.42090  -0.40939  -0.40235  -0.39795
 Alpha  occ. eigenvalues --   -0.39086  -0.38184  -0.34873  -0.34277
 Alpha virt. eigenvalues --   -0.05840  -0.01961   0.06745   0.07329   0.07944
 Alpha virt. eigenvalues --    0.09395   0.10789   0.11900   0.13370   0.14482
 Alpha virt. eigenvalues --    0.15348   0.17356   0.17961   0.18356   0.20613
 Alpha virt. eigenvalues --    0.20830   0.22715   0.23702   0.25184   0.26893
 Alpha virt. eigenvalues --    0.27432   0.27914   0.28122   0.29532   0.30150
 Alpha virt. eigenvalues --    0.31182   0.31726   0.32669   0.34732   0.34876
 Alpha virt. eigenvalues --    0.36625   0.36891   0.37992   0.38465   0.39450
 Alpha virt. eigenvalues --    0.40117   0.40769   0.41576   0.41702   0.42621
 Alpha virt. eigenvalues --    0.44631   0.45609   0.46491   0.46537   0.49265
 Alpha virt. eigenvalues --    0.49694   0.49724   0.51195   0.51891   0.52084
 Alpha virt. eigenvalues --    0.53002   0.54564   0.56304   0.56856   0.58526
 Alpha virt. eigenvalues --    0.59278   0.62036   0.63223   0.63673   0.63963
 Alpha virt. eigenvalues --    0.65424   0.66735   0.66948   0.68446   0.68685
 Alpha virt. eigenvalues --    0.69633   0.71132   0.71519   0.73475   0.73887
 Alpha virt. eigenvalues --    0.78487   0.80745   0.81539   0.82476   0.84515
 Alpha virt. eigenvalues --    0.86290   0.87084   0.89803   0.90513   0.92251
 Alpha virt. eigenvalues --    0.93014   0.94307   0.96651   0.99447   1.00696
 Alpha virt. eigenvalues --    1.03054   1.04388   1.08952   1.09788   1.10118
 Alpha virt. eigenvalues --    1.12989   1.16067   1.17945   1.21380   1.23049
 Alpha virt. eigenvalues --    1.24998   1.28501   1.29798   1.31769   1.35139
 Alpha virt. eigenvalues --    1.37021   1.37497   1.39591   1.40327   1.42202
 Alpha virt. eigenvalues --    1.46256   1.46701   1.48431   1.49921   1.51088
 Alpha virt. eigenvalues --    1.53001   1.54143   1.55515   1.55833   1.57323
 Alpha virt. eigenvalues --    1.57514   1.58175   1.61577   1.62260   1.63464
 Alpha virt. eigenvalues --    1.64684   1.66993   1.70353   1.72312   1.75076
 Alpha virt. eigenvalues --    1.76040   1.77549   1.78683   1.79018   1.82391
 Alpha virt. eigenvalues --    1.83265   1.83982   1.85525   1.86605   1.87253
 Alpha virt. eigenvalues --    1.87628   1.88467   1.91178   1.94679   1.96848
 Alpha virt. eigenvalues --    1.98914   1.99647   1.99663   2.03229   2.03964
 Alpha virt. eigenvalues --    2.06310   2.07176   2.07857   2.10302   2.11704
 Alpha virt. eigenvalues --    2.12168   2.13460   2.15079   2.15996   2.19365
 Alpha virt. eigenvalues --    2.19852   2.22424   2.24422   2.26161   2.27598
 Alpha virt. eigenvalues --    2.29016   2.29193   2.30268   2.31016   2.33215
 Alpha virt. eigenvalues --    2.34622   2.36905   2.37965   2.40318   2.41021
 Alpha virt. eigenvalues --    2.44295   2.44461   2.50245   2.50339   2.53176
 Alpha virt. eigenvalues --    2.54534   2.56074   2.57926   2.58652   2.60377
 Alpha virt. eigenvalues --    2.65411   2.65919   2.66864   2.70969   2.76733
 Alpha virt. eigenvalues --    2.76863   2.78871   2.81822   2.82356   2.83647
 Alpha virt. eigenvalues --    2.85509   2.87112   2.90003   2.91136   2.91518
 Alpha virt. eigenvalues --    2.94091   2.96216   2.97055   2.97573   3.00671
 Alpha virt. eigenvalues --    3.01851   3.02241   3.04520   3.06487   3.06836
 Alpha virt. eigenvalues --    3.09236   3.12308   3.12719   3.14801   3.15197
 Alpha virt. eigenvalues --    3.17086   3.18710   3.21082   3.21934   3.24081
 Alpha virt. eigenvalues --    3.24131   3.27112   3.28330   3.29283   3.30383
 Alpha virt. eigenvalues --    3.30858   3.31743   3.33568   3.36370   3.36989
 Alpha virt. eigenvalues --    3.38213   3.38260   3.40685   3.41431   3.44229
 Alpha virt. eigenvalues --    3.46768   3.47182   3.47557   3.51502   3.55760
 Alpha virt. eigenvalues --    3.56720   3.58049   3.59485   3.59640   3.63833
 Alpha virt. eigenvalues --    3.67901   3.70483   3.72997   3.74507   3.80274
 Alpha virt. eigenvalues --    3.82270   3.84827   3.89094   3.91036   3.94624
 Alpha virt. eigenvalues --    3.97314   4.02060   4.03457   4.09171   4.11399
 Alpha virt. eigenvalues --    4.14136   4.14779   4.17641   4.26021   4.27682
 Alpha virt. eigenvalues --    4.34583   4.37775   4.39835   4.41351   4.41713
 Alpha virt. eigenvalues --    4.46995   4.48770   4.59425   4.62547   4.67323
 Alpha virt. eigenvalues --    4.69536   4.72535   4.76793   4.78866   4.83379
 Alpha virt. eigenvalues --    4.86221   4.96072   4.98187   4.99094   5.03824
 Alpha virt. eigenvalues --    5.04246   5.07792   5.16700   5.16964   5.22601
 Alpha virt. eigenvalues --    5.26702   5.26833   5.29926   5.30346   5.35063
 Alpha virt. eigenvalues --    5.38704   5.39209   5.45058   5.47660   5.50105
 Alpha virt. eigenvalues --    5.57256   5.63347   5.64852   5.65240   5.73848
 Alpha virt. eigenvalues --    5.86817   5.92528   5.96093   6.05921   6.11635
 Alpha virt. eigenvalues --    6.14048   6.27296   6.33928   6.38621   6.52955
 Alpha virt. eigenvalues --    6.62972   6.66999   6.73506   6.85834   6.89800
 Alpha virt. eigenvalues --    7.01831   7.11004   7.27756   7.41019  10.80465
 Alpha virt. eigenvalues --   10.86942  11.38662  22.42051  22.58599  22.78949
 Alpha virt. eigenvalues --   22.92809  23.15509  23.44199  25.84444  32.42382
 Alpha virt. eigenvalues --   32.70060  44.03208  44.26952
          Condensed to atoms (all electrons):
               1          2          3          4          5          6
     1  C    4.880110   0.206116  -0.054292   0.000698   0.008479  -0.000953
     2  O    0.206116   7.891316   0.422771  -0.076884  -0.109892   0.010352
     3  C   -0.054292   0.422771   4.452597   0.661862   0.296330  -0.089793
     4  O    0.000698  -0.076884   0.661862   7.857227  -0.144595   0.028934
     5  C    0.008479  -0.109892   0.296330  -0.144595   5.107350   0.436751
     6  C   -0.000953   0.010352  -0.089793   0.028934   0.436751   5.118316
     7  C    0.000045  -0.000178   0.009555   0.002466  -0.045667   0.473018
     8  N   -0.000003   0.000007  -0.000322   0.000061  -0.023517  -0.050290
     9  C   -0.000024  -0.000485  -0.003232  -0.000216  -0.072325  -0.027867
    10  Cl  -0.000008  -0.000016  -0.001262   0.000004  -0.004000   0.006453
    11  N   -0.000300  -0.015052  -0.031062   0.003253   0.441515  -0.065070
    12  H    0.418380  -0.032171  -0.008496   0.003971  -0.001911  -0.000015
    13  H    0.418339  -0.032173  -0.008506   0.004003  -0.001927  -0.000014
    14  H    0.397814  -0.029482   0.004091   0.001462   0.002365  -0.000021
    15  H   -0.000175   0.000476  -0.014747   0.011463  -0.022959   0.401630
    16  H   -0.000000  -0.000002   0.000117  -0.000066   0.005603  -0.059612
               7          8          9         10         11         12
     1  C    0.000045  -0.000003  -0.000024  -0.000008  -0.000300   0.418380
     2  O   -0.000178   0.000007  -0.000485  -0.000016  -0.015052  -0.032171
     3  C    0.009555  -0.000322  -0.003232  -0.001262  -0.031062  -0.008496
     4  O    0.002466   0.000061  -0.000216   0.000004   0.003253   0.003971
     5  C   -0.045667  -0.023517  -0.072325  -0.004000   0.441515  -0.001911
     6  C    0.473018  -0.050290  -0.027867   0.006453  -0.065070  -0.000015
     7  C    4.768120   0.485511  -0.089137  -0.000278  -0.005551  -0.000001
     8  N    0.485511   6.503239   0.500810  -0.093635  -0.069488  -0.000000
     9  C   -0.089137   0.500810   4.580556   0.410519   0.517088   0.000003
    10  Cl  -0.000278  -0.093635   0.410519  16.824212  -0.093846   0.000000
    11  N   -0.005551  -0.069488   0.517088  -0.093846   6.532281  -0.000091
    12  H   -0.000001  -0.000000   0.000003   0.000000  -0.000091   0.519074
    13  H   -0.000001  -0.000000   0.000003   0.000000  -0.000091  -0.040361
    14  H   -0.000002   0.000000  -0.000002  -0.000001  -0.000065  -0.021970
    15  H   -0.028329   0.003662   0.001936   0.000118   0.004242  -0.000013
    16  H    0.433803  -0.029351   0.004109  -0.000307  -0.001315  -0.000000
              13         14         15         16
     1  C    0.418339   0.397814  -0.000175  -0.000000
     2  O   -0.032173  -0.029482   0.000476  -0.000002
     3  C   -0.008506   0.004091  -0.014747   0.000117
     4  O    0.004003   0.001462   0.011463  -0.000066
     5  C   -0.001927   0.002365  -0.022959   0.005603
     6  C   -0.000014  -0.000021   0.401630  -0.059612
     7  C   -0.000001  -0.000002  -0.028329   0.433803
     8  N   -0.000000   0.000000   0.003662  -0.029351
     9  C    0.000003  -0.000002   0.001936   0.004109
    10  Cl   0.000000  -0.000001   0.000118  -0.000307
    11  N   -0.000091  -0.000065   0.004242  -0.001315
    12  H   -0.040361  -0.021970  -0.000013  -0.000000
    13  H    0.519122  -0.021965  -0.000013  -0.000000
    14  H   -0.021965   0.503441   0.000002   0.000000
    15  H   -0.000013   0.000002   0.450847  -0.001359
    16  H   -0.000000   0.000000  -0.001359   0.465326
 Mulliken charges:
               1
     1  C   -0.274225
     2  O   -0.234703
     3  C    0.364388
     4  O   -0.353642
     5  C    0.128397
     6  C   -0.181818
     7  C   -0.003372
     8  N   -0.226685
     9  C    0.178266
    10  Cl  -0.047952
    11  N   -0.216449
    12  H    0.163603
    13  H    0.163585
    14  H    0.164334
    15  H    0.193218
    16  H    0.183054
 Sum of Mulliken charges =  -0.00000
 Mulliken charges with hydrogens summed into heavy atoms:
               1
     1  C    0.217297
     2  O   -0.234703
     3  C    0.364388
     4  O   -0.353642
     5  C    0.128397
     6  C    0.011399
     7  C    0.179683
     8  N   -0.226685
     9  C    0.178266
    10  Cl  -0.047952
    11  N   -0.216449
 Electronic spatial extent (au):  <R**2>=           2310.8938
 Charge=             -0.0000 electrons
 Dipole moment (field-independent basis, Debye):
    X=              2.2886    Y=              1.3583    Z=             -0.0012  Tot=              2.6614
 Quadrupole moment (field-independent basis, Debye-Ang):
   XX=            -71.2026   YY=            -62.9374   ZZ=            -68.5470
   XY=            -10.0355   XZ=             -0.0040   YZ=             -0.0019
 Traceless Quadrupole moment (field-independent basis, Debye-Ang):
   XX=             -3.6403   YY=              4.6249   ZZ=             -0.9847
   XY=            -10.0355   XZ=             -0.0040   YZ=             -0.0019
 Octapole moment (field-independent basis, Debye-Ang**2):
  XXX=             55.2005  YYY=             13.2240  ZZZ=              0.0046  XYY=             -2.5902
  XXY=            -41.7123  XXZ=             -0.0125  XZZ=              5.7663  YZZ=             -3.6840
  YYZ=             -0.0120  XYZ=             -0.0025
 Hexadecapole moment (field-independent basis, Debye-Ang**3):
 XXXX=          -2091.7290 YYYY=           -663.6893 ZZZZ=            -75.2374 XXXY=            -86.7090
 XXXZ=             -0.0600 YYYX=            -35.9072 YYYZ=              0.0036 ZZZX=              0.0117
 ZZZY=             -0.0014 XXYY=           -447.4632 XXZZ=           -359.1332 YYZZ=           -146.8255
 XXYZ=             -0.0118 YYXZ=             -0.0146 ZZXY=              3.9161
 N-N= 6.560733277195D+02 E-N=-3.554948612340D+03  KE= 9.489252231679D+02
 Calculating spin-rotation constants.
 Leave Link  601 at Tue Sep 17 10:38:13 2024, MaxMem=  1342177280 cpu:               2.7 elap:               2.7
 (Enter /groups/ReismanLab/Software/Gaussian16_RevC/Linux_Binary_AVX2-enabled-CPU/g16/l9999.exe)
 Unable to Open any file for archive entry.
 1\1\GINC-HPC-52-18\SP\RM062X\def2TZVP\C6H5Cl1N2O2\MANTIND\17-Sep-2024\
 0\\#p M062X/def2tzvp geom=check guess=read scf(xqc,tight) integral(gri
 d=ultrafine) scrf(SMD, solvent=1,4-Dioxane) nmr=giao\\spe\\0,1\C,0,3.5
 751630299,-1.5445415732,-0.0021594938\O,0,2.1914428706,-1.1501843483,-
 0.0020632658\C,0,1.9807756129,0.1676057301,-0.0007732386\O,0,2.8540037
 23,1.0121588495,0.0000787322\C,0,0.5173813871,0.5251725319,-0.00106043
 65\C,0,0.1632029177,1.8734087204,-0.000689929\C,0,-1.2012628606,2.1494
 861497,-0.0010055075\N,0,-2.1299334673,1.1853251107,-0.0015438037\C,0,
 -1.6582912131,-0.0583538626,-0.0017338989\Cl,0,-2.8597549851,-1.329779
 8263,-0.0025024232\N,0,-0.3933078819,-0.4568598583,-0.0016043266\H,0,4
 .0794951804,-1.1617190347,0.8879333035\H,0,4.0804329322,-1.1581770366,
 -0.8901761239\H,0,3.5659963433,-2.633078415,-0.0042908804\H,0,0.922978
 7605,2.6435869592,-0.0001808582\H,0,-1.5717883634,3.1714336913,-0.0008
 262251\\Version=ES64L-G16RevC.02\State=1-A\HF=-951.8046913\RMSD=2.063e
 -09\Dipole=0.9224614,0.4953968,-0.0000731\Quadrupole=-3.333057,4.06512
 34,-0.7320664,-7.1711457,-0.0070581,-0.0000277\PG=C01 [X(C6H5Cl1N2O2)]
 \\@
 The archive entry for this job was punched.


 BOOKS ARE LIGHTHOUSES ERECTED IN THE GREAT SEA OF TIME.
     -- E.P.WHIPPLE
 Job cpu time:       0 days  0 hours 11 minutes 59.3 seconds.
 Elapsed time:       0 days  0 hours 12 minutes  2.9 seconds.
 File lengths (MBytes):  RWF=    240 Int=      0 D2E=      0 Chk=     24 Scr=     16
 Normal termination of Gaussian 16 at Tue Sep 17 10:38:14 2024.
