 Entering Gaussian System, Link 0=g16
 Input=smiles_00069_conf_5.gjf
 Output=smiles_00069_conf_5.log
 Initial command:
 /groups/ReismanLab/Software/Gaussian16_RevC/Linux_Binary_AVX2-enabled-CPU/g16/l1.exe "/central/groups/ReismanLab/DM/dft_final/smiles_00069/Gau-102663.inp" -scrdir="/central/groups/ReismanLab/DM/dft_final/smiles_00069/"
 Entering Link 1 = /groups/ReismanLab/Software/Gaussian16_RevC/Linux_Binary_AVX2-enabled-CPU/g16/l1.exe PID=    102671.
  
 Copyright (c) 1988-2021, Gaussian, Inc.  All Rights Reserved.
  
 This is part of the Gaussian(R) 16 program.  It is based on
 the Gaussian(R) 09 system (copyright 2009, Gaussian, Inc.),
 the Gaussian(R) 03 system (copyright 2003, Gaussian, Inc.),
 the Gaussian(R) 98 system (copyright 1998, Gaussian, Inc.),
 the Gaussian(R) 94 system (copyright 1995, Gaussian, Inc.),
 the Gaussian 92(TM) system (copyright 1992, Gaussian, Inc.),
 the Gaussian 90(TM) system (copyright 1990, Gaussian, Inc.),
 the Gaussian 88(TM) system (copyright 1988, Gaussian, Inc.),
 the Gaussian 86(TM) system (copyright 1986, Carnegie Mellon
 University), and the Gaussian 82(TM) system (copyright 1983,
 Carnegie Mellon University). Gaussian is a federally registered
 trademark of Gaussian, Inc.
  
 This software contains proprietary and confidential information,
 including trade secrets, belonging to Gaussian, Inc.
  
 This software is provided under written license and may be
 used, copied, transmitted, or stored only in accord with that
 written license.
  
 The following legend is applicable only to US Government
 contracts under FAR:
  
                    RESTRICTED RIGHTS LEGEND
  
 Use, reproduction and disclosure by the US Government is
 subject to restrictions as set forth in subparagraphs (a)
 and (c) of the Commercial Computer Software - Restricted
 Rights clause in FAR 52.227-19.
  
 Gaussian, Inc.
 340 Quinnipiac St., Bldg. 40, Wallingford CT 06492
  
  
 ---------------------------------------------------------------
 Warning -- This program may not be used in any manner that
 competes with the business of Gaussian, Inc. or will provide
 assistance to any competitor of Gaussian, Inc.  The licensee
 of this program is prohibited from giving any competitor of
 Gaussian, Inc. access to this program.  By using this program,
 the user acknowledges that Gaussian, Inc. is engaged in the
 business of creating and licensing software in the field of
 computational chemistry and represents and warrants to the
 licensee that it is not a competitor of Gaussian, Inc. and that
 it will not use this program in any manner prohibited above.
 ---------------------------------------------------------------
  

 Cite this work as:
 Gaussian 16, Revision C.02,
 M. J. Frisch, G. W. Trucks, H. B. Schlegel, G. E. Scuseria, 
 M. A. Robb, J. R. Cheeseman, G. Scalmani, V. Barone, 
 G. A. Petersson, H. Nakatsuji, X. Li, M. Caricato, A. V. Marenich, 
 J. Bloino, B. G. Janesko, R. Gomperts, B. Mennucci, H. P. Hratchian, 
 J. V. Ortiz, A. F. Izmaylov, J. L. Sonnenberg, D. Williams-Young, 
 F. Ding, F. Lipparini, F. Egidi, J. Goings, B. Peng, A. Petrone, 
 T. Henderson, D. Ranasinghe, V. G. Zakrzewski, J. Gao, N. Rega, 
 G. Zheng, W. Liang, M. Hada, M. Ehara, K. Toyota, R. Fukuda, 
 J. Hasegawa, M. Ishida, T. Nakajima, Y. Honda, O. Kitao, H. Nakai, 
 T. Vreven, K. Throssell, J. A. Montgomery, Jr., J. E. Peralta, 
 F. Ogliaro, M. J. Bearpark, J. J. Heyd, E. N. Brothers, K. N. Kudin, 
 V. N. Staroverov, T. A. Keith, R. Kobayashi, J. Normand, 
 K. Raghavachari, A. P. Rendell, J. C. Burant, S. S. Iyengar, 
 J. Tomasi, M. Cossi, J. M. Millam, M. Klene, C. Adamo, R. Cammi, 
 J. W. Ochterski, R. L. Martin, K. Morokuma, O. Farkas, 
 J. B. Foresman, and D. J. Fox, Gaussian, Inc., Wallingford CT, 2019.
 
 ******************************************
 Gaussian 16:  ES64L-G16RevC.02  7-Dec-2021
                17-Sep-2024 
 ******************************************
 %nprocshared=8
 Will use up to    8 processors via shared memory.
 %Mem=10GB
 %Chk=smiles_00069_conf_5.chk
 ----------------------------------------------------------------------
 #p B3LYP/6-31G(d,p) EmpiricalDispersion=GD3BJ opt freq scf(xqc,tight) 
 integral(grid=ultrafine)
 ----------------------------------------------------------------------
 1/18=20,19=15,26=4,38=1/1,3;
 2/9=110,12=2,17=6,18=5,40=1/2;
 3/5=1,6=6,7=101,11=2,25=1,30=1,71=1,74=-5,75=-5,124=41/1,2,3;
 4//1;
 5/5=2,8=3,13=1,32=2,38=5/2,8;
 6/7=2,8=2,9=2,10=2,28=1/1;
 7//1,2,3,16;
 1/18=20,19=15,26=4/3(2);
 2/9=110/2;
 99//99;
 2/9=110/2;
 3/5=1,6=6,7=101,11=2,25=1,30=1,71=1,74=-5,75=-5,124=41/1,2,3;
 4/5=5,16=3,69=1/1;
 5/5=2,8=3,13=1,32=2,38=5/2,8;
 7//1,2,3,16;
 1/18=20,19=15,26=4/3(-5);
 2/9=110/2;
 6/7=2,8=2,9=2,10=2,19=2,28=1/1;
 99/9=1/99;
 Leave Link    1 at Tue Sep 17 09:53:17 2024, MaxMem=  1342177280 cpu:               0.1 elap:               0.8
 (Enter /groups/ReismanLab/Software/Gaussian16_RevC/Linux_Binary_AVX2-enabled-CPU/g16/l101.exe)
 ----------------------------------
 opt-freq conformers_unique/conf_af
 ----------------------------------
 Symbolic Z-matrix:
 Charge =  0 Multiplicity = 1
 C                     4.21655   2.40669  -0.61472 
 C                     3.7074    1.49896   0.49495 
 O                     2.79196   0.5243   -0.01171 
 C                     3.30932  -0.58741  -0.5306 
 O                     4.48351  -0.83809  -0.57778 
 C                     2.2255   -1.51593  -1.06407 
 C                     0.84828  -1.08692  -0.65914 
 C                     0.09546  -0.25293  -1.47677 
 C                    -1.16262   0.17222  -1.09151 
 C                    -1.6687   -0.2434    0.12738 
 Br                   -3.4027    0.33576   0.66778 
 C                    -0.93919  -1.07363   0.96021 
 C                     0.31719  -1.4898    0.56057 
 H                     4.86091   3.17207  -0.19219 
 H                     3.38187   2.88463  -1.1221 
 H                     4.78633   1.82687  -1.33682 
 H                     3.13727   2.06205   1.23644 
 H                     4.5437    0.98251   0.97711 
 H                     2.32825  -1.52445  -2.15198 
 H                     2.45471  -2.51997  -0.70152 
 H                     0.49474   0.07082  -2.42654 
 H                    -1.74441   0.81905  -1.7301 
 H                    -1.34777  -1.38928   1.90788 
 H                     0.89152  -2.13614   1.20781 
 
 ITRead=  0  0  0  0  0  0  0  0  0  0  0  0  0  0  0  0  0  0  0  0
 ITRead=  0  0  0  0
 MicOpt= -1 -1 -1 -1 -1 -1 -1 -1 -1 -1 -1 -1 -1 -1 -1 -1 -1 -1 -1 -1
 MicOpt= -1 -1 -1 -1
 NAtoms=     24 NQM=       24 NQMF=       0 NMMI=      0 NMMIF=      0
                NMic=       0 NMicF=      0.
                    Isotopes and Nuclear Properties:
 (Nuclear quadrupole moments (NQMom) in fm**2, nuclear magnetic moments (NMagM)
  in nuclear magnetons)

  Atom         1           2           3           4           5           6           7           8           9          10
 IAtWgt=          12          12          16          12          16          12          12          12          12          12
 AtmWgt=  12.0000000  12.0000000  15.9949146  12.0000000  15.9949146  12.0000000  12.0000000  12.0000000  12.0000000  12.0000000
 NucSpn=           0           0           0           0           0           0           0           0           0           0
 AtZEff=  -0.0000000  -0.0000000  -0.0000000  -0.0000000  -0.0000000  -0.0000000  -0.0000000  -0.0000000  -0.0000000  -0.0000000
 NQMom=    0.0000000   0.0000000   0.0000000   0.0000000   0.0000000   0.0000000   0.0000000   0.0000000   0.0000000   0.0000000
 NMagM=    0.0000000   0.0000000   0.0000000   0.0000000   0.0000000   0.0000000   0.0000000   0.0000000   0.0000000   0.0000000
 AtZNuc=   6.0000000   6.0000000   8.0000000   6.0000000   8.0000000   6.0000000   6.0000000   6.0000000   6.0000000   6.0000000

  Atom        11          12          13          14          15          16          17          18          19          20
 IAtWgt=          79          12          12           1           1           1           1           1           1           1
 AtmWgt=  78.9183361  12.0000000  12.0000000   1.0078250   1.0078250   1.0078250   1.0078250   1.0078250   1.0078250   1.0078250
 NucSpn=           3           0           0           1           1           1           1           1           1           1
 AtZEff=  -0.0000000  -0.0000000  -0.0000000  -0.0000000  -0.0000000  -0.0000000  -0.0000000  -0.0000000  -0.0000000  -0.0000000
 NQMom=   31.3000000   0.0000000   0.0000000   0.0000000   0.0000000   0.0000000   0.0000000   0.0000000   0.0000000   0.0000000
 NMagM=    2.1063990   0.0000000   0.0000000   2.7928460   2.7928460   2.7928460   2.7928460   2.7928460   2.7928460   2.7928460
 AtZNuc=  35.0000000   6.0000000   6.0000000   1.0000000   1.0000000   1.0000000   1.0000000   1.0000000   1.0000000   1.0000000

  Atom        21          22          23          24
 IAtWgt=           1           1           1           1
 AtmWgt=   1.0078250   1.0078250   1.0078250   1.0078250
 NucSpn=           1           1           1           1
 AtZEff=  -0.0000000  -0.0000000  -0.0000000  -0.0000000
 NQMom=    0.0000000   0.0000000   0.0000000   0.0000000
 NMagM=    2.7928460   2.7928460   2.7928460   2.7928460
 AtZNuc=   1.0000000   1.0000000   1.0000000   1.0000000
 Leave Link  101 at Tue Sep 17 09:53:17 2024, MaxMem=  1342177280 cpu:               0.3 elap:               0.4
 (Enter /groups/ReismanLab/Software/Gaussian16_RevC/Linux_Binary_AVX2-enabled-CPU/g16/l103.exe)

 GradGradGradGradGradGradGradGradGradGradGradGradGradGradGradGradGradGrad
 Berny optimization.
 Initialization pass.
                           ----------------------------
                           !    Initial Parameters    !
                           ! (Angstroms and Degrees)  !
 --------------------------                            --------------------------
 ! Name  Definition              Value          Derivative Info.                !
 --------------------------------------------------------------------------------
 ! R1    R(1,2)                  1.5214         estimate D2E/DX2                !
 ! R2    R(1,14)                 1.0861         estimate D2E/DX2                !
 ! R3    R(1,15)                 1.0875         estimate D2E/DX2                !
 ! R4    R(1,16)                 1.0873         estimate D2E/DX2                !
 ! R5    R(2,3)                  1.4299         estimate D2E/DX2                !
 ! R6    R(2,17)                 1.0918         estimate D2E/DX2                !
 ! R7    R(2,18)                 1.0948         estimate D2E/DX2                !
 ! R8    R(3,4)                  1.3315         estimate D2E/DX2                !
 ! R9    R(4,5)                  1.2016         estimate D2E/DX2                !
 ! R10   R(4,6)                  1.5236         estimate D2E/DX2                !
 ! R11   R(6,7)                  1.4983         estimate D2E/DX2                !
 ! R12   R(6,19)                 1.0928         estimate D2E/DX2                !
 ! R13   R(6,20)                 1.0918         estimate D2E/DX2                !
 ! R14   R(7,8)                  1.3895         estimate D2E/DX2                !
 ! R15   R(7,13)                 1.39           estimate D2E/DX2                !
 ! R16   R(8,9)                  1.3827         estimate D2E/DX2                !
 ! R17   R(8,21)                 1.08           estimate D2E/DX2                !
 ! R18   R(9,10)                 1.3837         estimate D2E/DX2                !
 ! R19   R(9,22)                 1.0792         estimate D2E/DX2                !
 ! R20   R(10,11)                1.9064         estimate D2E/DX2                !
 ! R21   R(10,12)                1.3839         estimate D2E/DX2                !
 ! R22   R(12,13)                1.3825         estimate D2E/DX2                !
 ! R23   R(12,23)                1.0792         estimate D2E/DX2                !
 ! R24   R(13,24)                1.0801         estimate D2E/DX2                !
 ! A1    A(2,1,14)             109.5891         estimate D2E/DX2                !
 ! A2    A(2,1,15)             110.223          estimate D2E/DX2                !
 ! A3    A(2,1,16)             109.9738         estimate D2E/DX2                !
 ! A4    A(14,1,15)            109.0976         estimate D2E/DX2                !
 ! A5    A(14,1,16)            108.8607         estimate D2E/DX2                !
 ! A6    A(15,1,16)            109.07           estimate D2E/DX2                !
 ! A7    A(1,2,3)              111.2539         estimate D2E/DX2                !
 ! A8    A(1,2,17)             111.2483         estimate D2E/DX2                !
 ! A9    A(1,2,18)             110.3067         estimate D2E/DX2                !
 ! A10   A(3,2,17)             104.9439         estimate D2E/DX2                !
 ! A11   A(3,2,18)             108.8782         estimate D2E/DX2                !
 ! A12   A(17,2,18)            110.0654         estimate D2E/DX2                !
 ! A13   A(2,3,4)              117.286          estimate D2E/DX2                !
 ! A14   A(3,4,5)              124.6948         estimate D2E/DX2                !
 ! A15   A(3,4,6)              111.6464         estimate D2E/DX2                !
 ! A16   A(5,4,6)              123.6588         estimate D2E/DX2                !
 ! A17   A(4,6,7)              112.6285         estimate D2E/DX2                !
 ! A18   A(4,6,19)             106.6448         estimate D2E/DX2                !
 ! A19   A(4,6,20)             107.1468         estimate D2E/DX2                !
 ! A20   A(7,6,19)             110.9603         estimate D2E/DX2                !
 ! A21   A(7,6,20)             111.5027         estimate D2E/DX2                !
 ! A22   A(19,6,20)            107.6785         estimate D2E/DX2                !
 ! A23   A(6,7,8)              120.7196         estimate D2E/DX2                !
 ! A24   A(6,7,13)             120.3568         estimate D2E/DX2                !
 ! A25   A(8,7,13)             118.9014         estimate D2E/DX2                !
 ! A26   A(7,8,9)              120.8993         estimate D2E/DX2                !
 ! A27   A(7,8,21)             119.8092         estimate D2E/DX2                !
 ! A28   A(9,8,21)             119.2914         estimate D2E/DX2                !
 ! A29   A(8,9,10)             119.0691         estimate D2E/DX2                !
 ! A30   A(8,9,22)             120.6585         estimate D2E/DX2                !
 ! A31   A(10,9,22)            120.2724         estimate D2E/DX2                !
 ! A32   A(9,10,11)            119.4157         estimate D2E/DX2                !
 ! A33   A(9,10,12)            121.1677         estimate D2E/DX2                !
 ! A34   A(11,10,12)           119.4165         estimate D2E/DX2                !
 ! A35   A(10,12,13)           119.057          estimate D2E/DX2                !
 ! A36   A(10,12,23)           120.289          estimate D2E/DX2                !
 ! A37   A(13,12,23)           120.654          estimate D2E/DX2                !
 ! A38   A(7,13,12)            120.9054         estimate D2E/DX2                !
 ! A39   A(7,13,24)            119.7442         estimate D2E/DX2                !
 ! A40   A(12,13,24)           119.3504         estimate D2E/DX2                !
 ! D1    D(14,1,2,3)           176.597          estimate D2E/DX2                !
 ! D2    D(14,1,2,17)           59.974          estimate D2E/DX2                !
 ! D3    D(14,1,2,18)          -62.4651         estimate D2E/DX2                !
 ! D4    D(15,1,2,3)            56.5182         estimate D2E/DX2                !
 ! D5    D(15,1,2,17)          -60.1048         estimate D2E/DX2                !
 ! D6    D(15,1,2,18)          177.4561         estimate D2E/DX2                !
 ! D7    D(16,1,2,3)           -63.7708         estimate D2E/DX2                !
 ! D8    D(16,1,2,17)          179.6062         estimate D2E/DX2                !
 ! D9    D(16,1,2,18)           57.1672         estimate D2E/DX2                !
 ! D10   D(1,2,3,4)             84.298          estimate D2E/DX2                !
 ! D11   D(17,2,3,4)          -155.2853         estimate D2E/DX2                !
 ! D12   D(18,2,3,4)           -37.4744         estimate D2E/DX2                !
 ! D13   D(2,3,4,5)              1.558          estimate D2E/DX2                !
 ! D14   D(2,3,4,6)           -178.4428         estimate D2E/DX2                !
 ! D15   D(3,4,6,7)            -10.5174         estimate D2E/DX2                !
 ! D16   D(3,4,6,19)           111.4291         estimate D2E/DX2                !
 ! D17   D(3,4,6,20)          -133.4873         estimate D2E/DX2                !
 ! D18   D(5,4,6,7)            169.4818         estimate D2E/DX2                !
 ! D19   D(5,4,6,19)           -68.5717         estimate D2E/DX2                !
 ! D20   D(5,4,6,20)            46.5119         estimate D2E/DX2                !
 ! D21   D(4,6,7,8)             92.1015         estimate D2E/DX2                !
 ! D22   D(4,6,7,13)           -86.1657         estimate D2E/DX2                !
 ! D23   D(19,6,7,8)           -27.3704         estimate D2E/DX2                !
 ! D24   D(19,6,7,13)          154.3623         estimate D2E/DX2                !
 ! D25   D(20,6,7,8)          -147.3993         estimate D2E/DX2                !
 ! D26   D(20,6,7,13)           34.3334         estimate D2E/DX2                !
 ! D27   D(6,7,8,9)           -178.3737         estimate D2E/DX2                !
 ! D28   D(6,7,8,21)             1.5724         estimate D2E/DX2                !
 ! D29   D(13,7,8,9)            -0.0816         estimate D2E/DX2                !
 ! D30   D(13,7,8,21)          179.8645         estimate D2E/DX2                !
 ! D31   D(6,7,13,12)          178.3872         estimate D2E/DX2                !
 ! D32   D(6,7,13,24)           -1.5618         estimate D2E/DX2                !
 ! D33   D(8,7,13,12)            0.0886         estimate D2E/DX2                !
 ! D34   D(8,7,13,24)         -179.8603         estimate D2E/DX2                !
 ! D35   D(7,8,9,10)             0.0629         estimate D2E/DX2                !
 ! D36   D(7,8,9,22)          -179.9308         estimate D2E/DX2                !
 ! D37   D(21,8,9,10)         -179.8834         estimate D2E/DX2                !
 ! D38   D(21,8,9,22)            0.1228         estimate D2E/DX2                !
 ! D39   D(8,9,10,11)         -179.9545         estimate D2E/DX2                !
 ! D40   D(8,9,10,12)           -0.0507         estimate D2E/DX2                !
 ! D41   D(22,9,10,11)           0.0392         estimate D2E/DX2                !
 ! D42   D(22,9,10,12)         179.943          estimate D2E/DX2                !
 ! D43   D(9,10,12,13)           0.0576         estimate D2E/DX2                !
 ! D44   D(9,10,12,23)        -179.9904         estimate D2E/DX2                !
 ! D45   D(11,10,12,13)        179.9614         estimate D2E/DX2                !
 ! D46   D(11,10,12,23)         -0.0866         estimate D2E/DX2                !
 ! D47   D(10,12,13,7)          -0.0768         estimate D2E/DX2                !
 ! D48   D(10,12,13,24)        179.8723         estimate D2E/DX2                !
 ! D49   D(23,12,13,7)         179.9714         estimate D2E/DX2                !
 ! D50   D(23,12,13,24)         -0.0795         estimate D2E/DX2                !
 --------------------------------------------------------------------------------
 Trust Radius=3.00D-01 FncErr=1.00D-07 GrdErr=1.00D-06 EigMax=2.50D+02 EigMin=1.00D-04
 Number of steps in this run=    124 maximum allowed number of steps=    144.
 GradGradGradGradGradGradGradGradGradGradGradGradGradGradGradGradGradGrad

 Leave Link  103 at Tue Sep 17 09:53:17 2024, MaxMem=  1342177280 cpu:               0.0 elap:               0.0
 (Enter /groups/ReismanLab/Software/Gaussian16_RevC/Linux_Binary_AVX2-enabled-CPU/g16/l202.exe)
                          Input orientation:                          
 ---------------------------------------------------------------------
 Center     Atomic      Atomic             Coordinates (Angstroms)
 Number     Number       Type             X           Y           Z
 ---------------------------------------------------------------------
      1          6           0        4.216551    2.406694   -0.614718
      2          6           0        3.707404    1.498955    0.494947
      3          8           0        2.791958    0.524303   -0.011712
      4          6           0        3.309324   -0.587409   -0.530604
      5          8           0        4.483513   -0.838091   -0.577779
      6          6           0        2.225502   -1.515931   -1.064069
      7          6           0        0.848276   -1.086922   -0.659136
      8          6           0        0.095460   -0.252927   -1.476772
      9          6           0       -1.162616    0.172221   -1.091514
     10          6           0       -1.668695   -0.243395    0.127380
     11         35           0       -3.402698    0.335757    0.667781
     12          6           0       -0.939187   -1.073631    0.960213
     13          6           0        0.317193   -1.489798    0.560572
     14          1           0        4.860905    3.172074   -0.192192
     15          1           0        3.381868    2.884630   -1.122104
     16          1           0        4.786334    1.826875   -1.336817
     17          1           0        3.137267    2.062047    1.236442
     18          1           0        4.543699    0.982512    0.977111
     19          1           0        2.328247   -1.524449   -2.151984
     20          1           0        2.454711   -2.519967   -0.701517
     21          1           0        0.494737    0.070816   -2.426542
     22          1           0       -1.744410    0.819055   -1.730102
     23          1           0       -1.347773   -1.389276    1.907875
     24          1           0        0.891522   -2.136143    1.207809
 ---------------------------------------------------------------------
                    Distance matrix (angstroms):
                    1          2          3          4          5
     1  C    0.000000
     2  C    1.521374   0.000000
     3  O    2.436489   1.429927   0.000000
     4  C    3.129663   2.358630   1.331473   0.000000
     5  O    3.255958   2.686051   2.244529   1.201577   0.000000
     6  C    4.421898   3.703526   2.364505   1.523617   2.407189
     7  C    4.853102   4.024087   2.606358   2.514517   3.644652
     8  C    4.979972   4.472461   3.165689   3.366903   4.517258
     9  C    5.844283   5.290952   4.114436   4.570548   5.758770
    10  C    6.496908   5.663332   4.528370   5.033087   6.220979
    11  Br   7.999159   7.206695   6.234663   6.880378   8.069800
    12  C    6.416752   5.331555   4.173664   4.528664   5.641505
    13  C    5.636396   4.520010   3.241694   3.310260   4.367928
    14  H    1.086061   2.145239   3.365086   4.081132   4.046298
    15  H    1.087455   2.154280   2.674343   3.522810   3.920276
    16  H    1.087321   2.151041   2.725826   2.942839   2.787450
    17  H    2.170353   1.091761   2.010419   3.189306   3.676218
    18  H    2.160843   1.094800   2.063086   2.502307   2.394974
    19  H    4.624150   4.248445   2.998863   2.114103   2.755790
    20  H    5.232935   4.376357   3.139610   2.119990   2.638193
    21  H    4.752992   4.571204   3.363670   3.456840   4.489362
    22  H    6.268791   5.927511   4.859874   5.381187   6.546832
    23  H    7.192675   5.991082   4.948128   5.317681   6.362875
    24  H    5.917330   4.653096   3.489536   3.356549   4.216120
                    6          7          8          9         10
     6  C    0.000000
     7  C    1.498256   0.000000
     8  C    2.510495   1.389535   0.000000
     9  C    3.785493   2.411654   1.382725   0.000000
    10  C    4.266576   2.768626   2.384457   1.383675   0.000000
    11  Br   6.172900   4.674987   4.145210   2.853039   1.906362
    12  C    3.782672   2.411948   2.771812   2.410737   1.383866
    13  C    2.506349   1.389980   2.393696   2.771557   2.384308
    14  H    5.448203   5.870117   6.007516   6.789013   7.375855
    15  H    4.550329   4.733567   4.557471   5.292488   6.070745
    16  H    4.219787   4.945479   5.133173   6.179648   6.935221
    17  H    4.350356   4.329977   4.687561   5.242120   5.444480
    18  H    3.972741   4.540486   5.228259   6.123546   6.388954
    19  H    1.092789   2.147170   2.656693   4.023607   4.776207
    20  H    1.091819   2.153148   3.362522   4.526039   4.782502
    21  H    2.714709   2.142212   1.079952   2.130587   3.361798
    22  H    4.653597   3.391421   2.144398   1.079200   2.141209
    23  H    4.649386   3.391695   3.850980   3.386576   2.141541
    24  H    2.706584   2.142012   3.374490   3.851611   3.362221
                   11         12         13         14         15
    11  Br   0.000000
    12  C    2.853205   0.000000
    13  C    4.145085   1.382533   0.000000
    14  H    8.779031   7.279774   6.553246   0.000000
    15  H    7.465305   6.218954   5.599934   1.770568   0.000000
    16  H    8.561664   6.816954   5.879934   1.767849   1.771291
    17  H    6.787828   5.150365   4.585327   2.498816   2.509823
    18  H    7.978672   5.855771   4.914182   2.502413   3.061798
    19  H    6.652456   4.534880   3.376907   5.684406   4.648736
    20  H    6.658782   4.046205   2.687582   6.200687   5.499654
    21  H    4.983476   3.851754   3.374891   5.802892   4.237292
    22  H    2.955222   3.386509   3.850740   7.178584   5.560126
    23  H    2.955721   1.079184   2.144165   7.985229   7.058085
    24  H    4.984199   2.131133   1.080061   6.774450   6.069471
                   16         17         18         19         20
    16  H    0.000000
    17  H    3.065353   0.000000
    18  H    2.475092   1.791842   0.000000
    19  H    4.235334   4.999890   4.580865   0.000000
    20  H    4.973440   5.021596   4.410105   1.763776   0.000000
    21  H    4.763302   4.936135   5.367508   2.445815   3.678229
    22  H    6.619742   5.846041   6.848069   4.717683   5.462570
    23  H    7.648458   5.698951   6.418812   5.478490   4.748292
    24  H    6.111480   4.761196   4.808080   3.704937   2.497279
                   21         22         23         24
    21  H    0.000000
    22  H    2.461437   0.000000
    23  H    4.930911   4.274217   0.000000
    24  H    4.270434   4.930786   2.462183   0.000000
 Stoichiometry    C10H11BrO2
 Framework group  C1[X(C10H11BrO2)]
 Deg. of freedom    66
 Full point group                 C1      NOp   1
 Largest Abelian subgroup         C1      NOp   1
 Largest concise Abelian subgroup C1      NOp   1
                         Standard orientation:                         
 ---------------------------------------------------------------------
 Center     Atomic      Atomic             Coordinates (Angstroms)
 Number     Number       Type             X           Y           Z
 ---------------------------------------------------------------------
      1          6           0       -4.110653    2.219744    0.363828
      2          6           0       -3.416729    1.512987   -0.790962
      3          8           0       -2.545419    0.481960   -0.319271
      4          6           0       -3.088220   -0.706953   -0.064958
      5          8           0       -4.247078   -0.978898   -0.228911
      6          6           0       -2.055834   -1.694426    0.464651
      7          6           0       -0.652562   -1.185177    0.337118
      8          6           0       -0.054133   -0.485227    1.377676
      9          6           0        1.228638    0.015278    1.251489
     10          6           0        1.916295   -0.188219    0.068158
     11         35           0        3.685913    0.496426   -0.116036
     12          6           0        1.342919   -0.881641   -0.983266
     13          6           0        0.059467   -1.375613   -0.841353
     14          1           0       -4.717677    3.034500   -0.019869
     15          1           0       -3.374192    2.620341    1.056436
     16          1           0       -4.753946    1.521555    0.893898
     17          1           0       -2.769729    2.197850   -1.342593
     18          1           0       -4.156876    1.070261   -1.465323
     19          1           0       -2.310031   -1.882092    1.510765
     20          1           0       -2.193752   -2.628923   -0.082856
     21          1           0       -0.594840   -0.326839    2.299004
     22          1           0        1.690089    0.557393    2.062567
     23          1           0        1.892234   -1.032251   -1.899894
     24          1           0       -0.393403   -1.915724   -1.659718
 ---------------------------------------------------------------------
 Rotational constants (GHZ):           1.4062250           0.2244285           0.2100328
 Leave Link  202 at Tue Sep 17 09:53:17 2024, MaxMem=  1342177280 cpu:               0.1 elap:               0.0
 (Enter /groups/ReismanLab/Software/Gaussian16_RevC/Linux_Binary_AVX2-enabled-CPU/g16/l301.exe)
 Standard basis: 6-31G(d,p) (6D, 7F)
 Ernie: Thresh=  0.10000D-02 Tol=  0.10000D-05 Strict=F.
 There are   265 symmetry adapted cartesian basis functions of A   symmetry.
 There are   265 symmetry adapted basis functions of A   symmetry.
   265 basis functions,   496 primitive gaussians,   265 cartesian basis functions
    61 alpha electrons       61 beta electrons
       nuclear repulsion energy      1023.0607028759 Hartrees.
 IExCor=  402 DFT=T Ex+Corr=B3LYP ExCW=0 ScaHFX=  0.200000
 ScaDFX=  0.800000  0.720000  1.000000  0.810000 ScalE2=  1.000000  1.000000
 IRadAn=      5 IRanWt=     -1 IRanGd=            0 ICorTp=0 IEmpDi=141
 NAtoms=   24 NActive=   24 NUniq=   24 SFac= 1.00D+00 NAtFMM=   60 NAOKFM=F Big=F
 Integral buffers will be    131072 words long.
 Raffenetti 2 integral format.
 Two-electron integral symmetry is turned on.
 R6Disp:  Grimme-D3(BJ) Dispersion energy=       -0.0464223418 Hartrees.
 Nuclear repulsion after empirical dispersion term =     1023.0142805341 Hartrees.
 Leave Link  301 at Tue Sep 17 09:53:17 2024, MaxMem=  1342177280 cpu:               0.1 elap:               0.1
 (Enter /groups/ReismanLab/Software/Gaussian16_RevC/Linux_Binary_AVX2-enabled-CPU/g16/l302.exe)
 NPDir=0 NMtPBC=     1 NCelOv=     1 NCel=       1 NClECP=     1 NCelD=      1
         NCelK=      1 NCelE2=     1 NClLst=     1 CellRange=     0.0.
 One-electron integrals computed using PRISM.
 One-electron integral symmetry used in STVInt
 NBasis=   265 RedAO= T EigKep=  4.09D-04  NBF=   265
 NBsUse=   265 1.00D-06 EigRej= -1.00D+00 NBFU=   265
 Precomputing XC quadrature grid using
 IXCGrd= 4 IRadAn=           5 IRanWt=          -1 IRanGd=           0 AccXCQ= 0.00D+00.
 Generated NRdTot=       0 NPtTot=           0 NUsed=           0 NTot=          32
 NSgBfM=   262   262   262   262   262 MxSgAt=    24 MxSgA2=    24.
 Leave Link  302 at Tue Sep 17 09:53:18 2024, MaxMem=  1342177280 cpu:               1.3 elap:               0.2
 (Enter /groups/ReismanLab/Software/Gaussian16_RevC/Linux_Binary_AVX2-enabled-CPU/g16/l303.exe)
 DipDrv:  MaxL=1.
 Leave Link  303 at Tue Sep 17 09:53:18 2024, MaxMem=  1342177280 cpu:               0.1 elap:               0.1
 (Enter /groups/ReismanLab/Software/Gaussian16_RevC/Linux_Binary_AVX2-enabled-CPU/g16/l401.exe)
 ExpMin= 1.43D-01 ExpMax= 5.74D+05 ExpMxC= 5.74D+03 IAcc=3 IRadAn=         5 AccDes= 0.00D+00
 Harris functional with IExCor=  402 and IRadAn=       5 diagonalized for initial guess.
 HarFok:  IExCor=  402 AccDes= 0.00D+00 IRadAn=         5 IDoV= 1 UseB2=F ITyADJ=14
 ICtDFT=  3500011 ScaDFX=  1.000000  1.000000  1.000000  1.000000
 FoFCou: FMM=F IPFlag=           0 FMFlag=      100000 FMFlg1=           0
         NFxFlg=           0 DoJE=T BraDBF=F KetDBF=T FulRan=T
         wScrn=  0.000000 ICntrl=       500 IOpCl=  0 I1Cent=   200000004 NGrid=           0
         NMat0=    1 NMatS0=      1 NMatT0=    0 NMatD0=    1 NMtDS0=    0 NMtDT0=    0
 Petite list used in FoFCou.
 Harris En= -3110.06713716710    
 JPrj=0 DoOrth=F DoCkMO=F.
 Leave Link  401 at Tue Sep 17 09:53:19 2024, MaxMem=  1342177280 cpu:               6.4 elap:               0.9
 (Enter /groups/ReismanLab/Software/Gaussian16_RevC/Linux_Binary_AVX2-enabled-CPU/g16/l502.exe)
 Integral symmetry usage will be decided dynamically.
 Closed shell SCF:
 Using DIIS extrapolation, IDIIS=  1040.
 NGot=  1342177280 LenX=  1342031300 LenY=  1341960634
 Requested convergence on RMS density matrix=1.00D-08 within  32 cycles.
 Requested convergence on MAX density matrix=1.00D-06.
 Requested convergence on             energy=1.00D-06.
 No special actions if energy rises.
 Fock matrices will be formed incrementally for  20 cycles.
 Integral accuracy reduced to 1.0D-05 until final iterations.

 Cycle   1  Pass 0  IDiag  1:
 FoFJK:  IHMeth= 1 ICntrl=       0 DoSepK=F KAlg= 0 I1Cent=           0 FoldK=F
 IRaf= 830000000 NMat=       1 IRICut=       1 DoRegI=T DoRafI=F ISym2E= 0 IDoP0=0 IntGTp=1.
 FoFCou: FMM=F IPFlag=           0 FMFlag=      100000 FMFlg1=           0
         NFxFlg=           0 DoJE=F BraDBF=F KetDBF=F FulRan=T
         wScrn=  0.000000 ICntrl=         0 IOpCl=  0 I1Cent=           0 NGrid=           0
         NMat0=    1 NMatS0=      1 NMatT0=    0 NMatD0=    1 NMtDS0=    0 NMtDT0=    0
 Symmetry not used in FoFCou.
 E= -3109.59063105598    
 DIIS: error= 1.88D-01 at cycle   1 NSaved=   1.
 NSaved= 1 IEnMin= 1 EnMin= -3109.59063105598     IErMin= 1 ErrMin= 1.88D-01
 ErrMax= 1.88D-01  0.00D+00 EMaxC= 1.00D-01 BMatC= 6.90D-01 BMatP= 6.90D-01
 IDIUse=3 WtCom= 0.00D+00 WtEn= 1.00D+00
 Coeff-Com:  0.100D+01
 Coeff-En:   0.100D+01
 Coeff:      0.100D+01
 Gap=     0.287 Goal=   None    Shift=    0.000
 GapD=    0.287 DampG=1.000 DampE=0.250 DampFc=0.2500 IDamp=-1.
 Damping current iteration by 2.50D-01
 RMSDP=4.92D-03 MaxDP=1.97D-01              OVMax= 2.13D-01

 Cycle   2  Pass 0  IDiag  1:
 RMSU=  1.20D-03    CP:  9.92D-01
 E= -3109.70790287710     Delta-E=       -0.117271821113 Rises=F Damp=T
 DIIS: error= 1.39D-01 at cycle   2 NSaved=   2.
 NSaved= 2 IEnMin= 2 EnMin= -3109.70790287710     IErMin= 2 ErrMin= 1.39D-01
 ErrMax= 1.39D-01  0.00D+00 EMaxC= 1.00D-01 BMatC= 2.70D-01 BMatP= 6.90D-01
 IDIUse=3 WtCom= 0.00D+00 WtEn= 1.00D+00
 Coeff-Com: -0.110D+01 0.210D+01
 Coeff-En:   0.000D+00 0.100D+01
 Coeff:      0.000D+00 0.100D+01
 Gap=     0.237 Goal=   None    Shift=    0.000
 RMSDP=2.38D-03 MaxDP=1.11D-01 DE=-1.17D-01 OVMax= 1.09D-01

 Cycle   3  Pass 0  IDiag  1:
 RMSU=  9.84D-04    CP:  9.70D-01  2.68D+00
 E= -3109.84716100928     Delta-E=       -0.139258132186 Rises=F Damp=F
 DIIS: error= 1.12D-02 at cycle   3 NSaved=   3.
 NSaved= 3 IEnMin= 3 EnMin= -3109.84716100928     IErMin= 3 ErrMin= 1.12D-02
 ErrMax= 1.12D-02  0.00D+00 EMaxC= 1.00D-01 BMatC= 7.45D-02 BMatP= 2.70D-01
 IDIUse=3 WtCom= 8.88D-01 WtEn= 1.12D-01
 Coeff-Com:  0.827D+00-0.919D+00 0.109D+01
 Coeff-En:   0.130D+00 0.000D+00 0.870D+00
 Coeff:      0.749D+00-0.817D+00 0.107D+01
 Gap=     0.245 Goal=   None    Shift=    0.000
 RMSDP=1.50D-03 MaxDP=4.47D-02 DE=-1.39D-01 OVMax= 6.42D-02

 Cycle   4  Pass 0  IDiag  1:
 RMSU=  1.05D-03    CP:  9.71D-01  1.79D+00  8.76D-01
 E= -3109.88989346422     Delta-E=       -0.042732454943 Rises=F Damp=F
 DIIS: error= 1.01D-02 at cycle   4 NSaved=   4.
 NSaved= 4 IEnMin= 4 EnMin= -3109.88989346422     IErMin= 4 ErrMin= 1.01D-02
 ErrMax= 1.01D-02  0.00D+00 EMaxC= 1.00D-01 BMatC= 3.19D-02 BMatP= 7.45D-02
 IDIUse=3 WtCom= 8.99D-01 WtEn= 1.01D-01
 Coeff-Com:  0.705D+00-0.914D+00 0.749D+00 0.459D+00
 Coeff-En:   0.000D+00 0.000D+00 0.234D+00 0.766D+00
 Coeff:      0.634D+00-0.822D+00 0.698D+00 0.490D+00
 Gap=     0.227 Goal=   None    Shift=    0.000
 RMSDP=7.62D-04 MaxDP=2.96D-02 DE=-4.27D-02 OVMax= 5.96D-02

 Cycle   5  Pass 0  IDiag  1:
 RMSU=  1.90D-04    CP:  9.71D-01  1.92D+00  1.10D+00  3.43D-01
 E= -3109.91730143356     Delta-E=       -0.027407969337 Rises=F Damp=F
 DIIS: error= 2.61D-03 at cycle   5 NSaved=   5.
 NSaved= 5 IEnMin= 5 EnMin= -3109.91730143356     IErMin= 5 ErrMin= 2.61D-03
 ErrMax= 2.61D-03  0.00D+00 EMaxC= 1.00D-01 BMatC= 1.52D-03 BMatP= 3.19D-02
 IDIUse=3 WtCom= 9.74D-01 WtEn= 2.61D-02
 Coeff-Com:  0.281D+00-0.366D+00 0.314D+00 0.269D+00 0.502D+00
 Coeff-En:   0.000D+00 0.000D+00 0.000D+00 0.000D+00 0.100D+01
 Coeff:      0.274D+00-0.357D+00 0.306D+00 0.262D+00 0.515D+00
 Gap=     0.221 Goal=   None    Shift=    0.000
 RMSDP=1.57D-04 MaxDP=7.57D-03 DE=-2.74D-02 OVMax= 1.29D-02

 Cycle   6  Pass 0  IDiag  1:
 RMSU=  5.19D-05    CP:  9.71D-01  1.94D+00  1.08D+00  4.45D-01  4.82D-01
 E= -3109.91846513949     Delta-E=       -0.001163705932 Rises=F Damp=F
 DIIS: error= 6.00D-04 at cycle   6 NSaved=   6.
 NSaved= 6 IEnMin= 6 EnMin= -3109.91846513949     IErMin= 6 ErrMin= 6.00D-04
 ErrMax= 6.00D-04  0.00D+00 EMaxC= 1.00D-01 BMatC= 1.02D-04 BMatP= 1.52D-03
 IDIUse=3 WtCom= 9.94D-01 WtEn= 6.00D-03
 Coeff-Com:  0.666D-01-0.874D-01 0.744D-01 0.741D-01 0.272D+00 0.600D+00
 Coeff-En:   0.000D+00 0.000D+00 0.000D+00 0.000D+00 0.205D-01 0.979D+00
 Coeff:      0.662D-01-0.869D-01 0.739D-01 0.737D-01 0.271D+00 0.602D+00
 Gap=     0.221 Goal=   None    Shift=    0.000
 RMSDP=3.48D-05 MaxDP=1.88D-03 DE=-1.16D-03 OVMax= 2.25D-03

 Cycle   7  Pass 0  IDiag  1:
 RMSU=  2.00D-05    CP:  9.71D-01  1.93D+00  1.09D+00  4.38D-01  5.43D-01
                    CP:  5.66D-01
 E= -3109.91854310092     Delta-E=       -0.000077961427 Rises=F Damp=F
 DIIS: error= 1.01D-04 at cycle   7 NSaved=   7.
 NSaved= 7 IEnMin= 7 EnMin= -3109.91854310092     IErMin= 7 ErrMin= 1.01D-04
 ErrMax= 1.01D-04  0.00D+00 EMaxC= 1.00D-01 BMatC= 6.05D-06 BMatP= 1.02D-04
 IDIUse=3 WtCom= 9.99D-01 WtEn= 1.01D-03
 Coeff-Com:  0.192D-01-0.254D-01 0.207D-01 0.221D-01 0.111D+00 0.312D+00
 Coeff-Com:  0.541D+00
 Coeff-En:   0.000D+00 0.000D+00 0.000D+00 0.000D+00 0.000D+00 0.000D+00
 Coeff-En:   0.100D+01
 Coeff:      0.191D-01-0.254D-01 0.207D-01 0.221D-01 0.111D+00 0.311D+00
 Coeff:      0.541D+00
 Gap=     0.221 Goal=   None    Shift=    0.000
 RMSDP=1.28D-05 MaxDP=5.36D-04 DE=-7.80D-05 OVMax= 8.08D-04

 Cycle   8  Pass 0  IDiag  1:
 RMSU=  7.43D-06    CP:  9.71D-01  1.93D+00  1.09D+00  4.36D-01  5.50D-01
                    CP:  6.27D-01  5.30D-01
 E= -3109.91854761910     Delta-E=       -0.000004518181 Rises=F Damp=F
 DIIS: error= 6.47D-05 at cycle   8 NSaved=   8.
 NSaved= 8 IEnMin= 8 EnMin= -3109.91854761910     IErMin= 8 ErrMin= 6.47D-05
 ErrMax= 6.47D-05  0.00D+00 EMaxC= 1.00D-01 BMatC= 8.23D-07 BMatP= 6.05D-06
 IDIUse=1 WtCom= 1.00D+00 WtEn= 0.00D+00
 Coeff-Com:  0.537D-02-0.717D-02 0.541D-02 0.572D-02 0.379D-01 0.122D+00
 Coeff-Com:  0.320D+00 0.511D+00
 Coeff:      0.537D-02-0.717D-02 0.541D-02 0.572D-02 0.379D-01 0.122D+00
 Coeff:      0.320D+00 0.511D+00
 Gap=     0.221 Goal=   None    Shift=    0.000
 RMSDP=4.59D-06 MaxDP=2.17D-04 DE=-4.52D-06 OVMax= 4.04D-04

 Initial convergence to 1.0D-05 achieved.  Increase integral accuracy.
 Cycle   9  Pass 1  IDiag  1:
 E= -3109.91855904451     Delta-E=       -0.000011425414 Rises=F Damp=F
 DIIS: error= 3.83D-05 at cycle   1 NSaved=   1.
 NSaved= 1 IEnMin= 1 EnMin= -3109.91855904451     IErMin= 1 ErrMin= 3.83D-05
 ErrMax= 3.83D-05  0.00D+00 EMaxC= 1.00D-01 BMatC= 3.02D-07 BMatP= 3.02D-07
 IDIUse=1 WtCom= 1.00D+00 WtEn= 0.00D+00
 Coeff-Com:  0.100D+01
 Coeff:      0.100D+01
 Gap=     0.221 Goal=   None    Shift=    0.000
 RMSDP=4.59D-06 MaxDP=2.17D-04 DE=-1.14D-05 OVMax= 3.40D-04

 Cycle  10  Pass 1  IDiag  1:
 RMSU=  2.08D-05    CP:  1.00D+00
 E= -3109.91855892025     Delta-E=        0.000000124261 Rises=F Damp=F
 DIIS: error= 4.26D-05 at cycle   2 NSaved=   2.
 NSaved= 2 IEnMin= 1 EnMin= -3109.91855904451     IErMin= 1 ErrMin= 3.83D-05
 ErrMax= 4.26D-05  0.00D+00 EMaxC= 1.00D-01 BMatC= 3.50D-07 BMatP= 3.02D-07
 IDIUse=1 WtCom= 1.00D+00 WtEn= 0.00D+00
 Coeff-Com:  0.524D+00 0.476D+00
 Coeff:      0.524D+00 0.476D+00
 Gap=     0.221 Goal=   None    Shift=    0.000
 RMSDP=3.24D-06 MaxDP=1.43D-04 DE= 1.24D-07 OVMax= 3.16D-04

 Cycle  11  Pass 1  IDiag  1:
 RMSU=  3.18D-06    CP:  1.00D+00  9.71D-01
 E= -3109.91855920947     Delta-E=       -0.000000289212 Rises=F Damp=F
 DIIS: error= 2.10D-05 at cycle   3 NSaved=   3.
 NSaved= 3 IEnMin= 3 EnMin= -3109.91855920947     IErMin= 3 ErrMin= 2.10D-05
 ErrMax= 2.10D-05  0.00D+00 EMaxC= 1.00D-01 BMatC= 7.17D-08 BMatP= 3.02D-07
 IDIUse=1 WtCom= 1.00D+00 WtEn= 0.00D+00
 Coeff-Com:  0.326D-01 0.309D+00 0.658D+00
 Coeff:      0.326D-01 0.309D+00 0.658D+00
 Gap=     0.221 Goal=   None    Shift=    0.000
 RMSDP=1.20D-06 MaxDP=4.75D-05 DE=-2.89D-07 OVMax= 1.08D-04

 Cycle  12  Pass 1  IDiag  1:
 RMSU=  5.51D-07    CP:  1.00D+00  9.88D-01  6.85D-01
 E= -3109.91855928256     Delta-E=       -0.000000073098 Rises=F Damp=F
 DIIS: error= 3.43D-06 at cycle   4 NSaved=   4.
 NSaved= 4 IEnMin= 4 EnMin= -3109.91855928256     IErMin= 4 ErrMin= 3.43D-06
 ErrMax= 3.43D-06  0.00D+00 EMaxC= 1.00D-01 BMatC= 4.87D-09 BMatP= 7.17D-08
 IDIUse=1 WtCom= 1.00D+00 WtEn= 0.00D+00
 Coeff-Com: -0.183D-02 0.164D+00 0.389D+00 0.449D+00
 Coeff:     -0.183D-02 0.164D+00 0.389D+00 0.449D+00
 Gap=     0.221 Goal=   None    Shift=    0.000
 RMSDP=3.01D-07 MaxDP=1.05D-05 DE=-7.31D-08 OVMax= 1.83D-05

 Cycle  13  Pass 1  IDiag  1:
 RMSU=  8.95D-08    CP:  1.00D+00  9.88D-01  7.05D-01  4.92D-01
 E= -3109.91855928724     Delta-E=       -0.000000004674 Rises=F Damp=F
 DIIS: error= 8.92D-07 at cycle   5 NSaved=   5.
 NSaved= 5 IEnMin= 5 EnMin= -3109.91855928724     IErMin= 5 ErrMin= 8.92D-07
 ErrMax= 8.92D-07  0.00D+00 EMaxC= 1.00D-01 BMatC= 1.74D-10 BMatP= 4.87D-09
 IDIUse=1 WtCom= 1.00D+00 WtEn= 0.00D+00
 Coeff-Com: -0.193D-02 0.933D-01 0.224D+00 0.278D+00 0.406D+00
 Coeff:     -0.193D-02 0.933D-01 0.224D+00 0.278D+00 0.406D+00
 Gap=     0.221 Goal=   None    Shift=    0.000
 RMSDP=4.87D-08 MaxDP=2.54D-06 DE=-4.67D-09 OVMax= 4.78D-06

 Cycle  14  Pass 1  IDiag  1:
 RMSU=  3.48D-08    CP:  1.00D+00  9.89D-01  7.02D-01  4.85D-01  6.41D-01
 E= -3109.91855928731     Delta-E=       -0.000000000074 Rises=F Damp=F
 DIIS: error= 1.62D-07 at cycle   6 NSaved=   6.
 NSaved= 6 IEnMin= 6 EnMin= -3109.91855928731     IErMin= 6 ErrMin= 1.62D-07
 ErrMax= 1.62D-07  0.00D+00 EMaxC= 1.00D-01 BMatC= 1.10D-11 BMatP= 1.74D-10
 IDIUse=1 WtCom= 1.00D+00 WtEn= 0.00D+00
 Coeff-Com: -0.992D-03 0.413D-01 0.993D-01 0.128D+00 0.248D+00 0.485D+00
 Coeff:     -0.992D-03 0.413D-01 0.993D-01 0.128D+00 0.248D+00 0.485D+00
 Gap=     0.221 Goal=   None    Shift=    0.000
 RMSDP=1.33D-08 MaxDP=7.43D-07 DE=-7.37D-11 OVMax= 1.04D-06

 Cycle  15  Pass 1  IDiag  1:
 RMSU=  9.69D-09    CP:  1.00D+00  9.89D-01  7.02D-01  4.87D-01  6.61D-01
                    CP:  7.47D-01
 E= -3109.91855928735     Delta-E=       -0.000000000039 Rises=F Damp=F
 DIIS: error= 5.55D-08 at cycle   7 NSaved=   7.
 NSaved= 7 IEnMin= 7 EnMin= -3109.91855928735     IErMin= 7 ErrMin= 5.55D-08
 ErrMax= 5.55D-08  0.00D+00 EMaxC= 1.00D-01 BMatC= 6.68D-13 BMatP= 1.10D-11
 IDIUse=1 WtCom= 1.00D+00 WtEn= 0.00D+00
 Coeff-Com: -0.252D-03 0.911D-02 0.220D-01 0.298D-01 0.741D-01 0.243D+00
 Coeff-Com:  0.622D+00
 Coeff:     -0.252D-03 0.911D-02 0.220D-01 0.298D-01 0.741D-01 0.243D+00
 Coeff:      0.622D+00
 Gap=     0.221 Goal=   None    Shift=    0.000
 RMSDP=3.30D-09 MaxDP=1.87D-07 DE=-3.91D-11 OVMax= 1.80D-07

 SCF Done:  E(RB3LYP) =  -3109.91855929     A.U. after   15 cycles
            NFock= 15  Conv=0.33D-08     -V/T= 2.0066
 KE= 3.089523377822D+03 PE=-9.431938441299D+03 EE= 2.209482223656D+03
 Leave Link  502 at Tue Sep 17 09:53:34 2024, MaxMem=  1342177280 cpu:             114.4 elap:              15.3
 (Enter /groups/ReismanLab/Software/Gaussian16_RevC/Linux_Binary_AVX2-enabled-CPU/g16/l508.exe)
 QCSCF skips out because SCF is already converged.
 Leave Link  508 at Tue Sep 17 09:53:34 2024, MaxMem=  1342177280 cpu:               0.0 elap:               0.0
 (Enter /groups/ReismanLab/Software/Gaussian16_RevC/Linux_Binary_AVX2-enabled-CPU/g16/l601.exe)
 Copying SCF densities to generalized density rwf, IOpCl= 0 IROHF=0.

 **********************************************************************

            Population analysis using the SCF Density.

 **********************************************************************

 Orbital symmetries:
       Occupied  (A) (A) (A) (A) (A) (A) (A) (A) (A) (A) (A) (A)
                 (A) (A) (A) (A) (A) (A) (A) (A) (A) (A) (A) (A)
                 (A) (A) (A) (A) (A) (A) (A) (A) (A) (A) (A) (A)
                 (A) (A) (A) (A) (A) (A) (A) (A) (A) (A) (A) (A)
                 (A) (A) (A) (A) (A) (A) (A) (A) (A) (A) (A) (A)
                 (A)
       Virtual   (A) (A) (A) (A) (A) (A) (A) (A) (A) (A) (A) (A)
                 (A) (A) (A) (A) (A) (A) (A) (A) (A) (A) (A) (A)
                 (A) (A) (A) (A) (A) (A) (A) (A) (A) (A) (A) (A)
                 (A) (A) (A) (A) (A) (A) (A) (A) (A) (A) (A) (A)
                 (A) (A) (A) (A) (A) (A) (A) (A) (A) (A) (A) (A)
                 (A) (A) (A) (A) (A) (A) (A) (A) (A) (A) (A) (A)
                 (A) (A) (A) (A) (A) (A) (A) (A) (A) (A) (A) (A)
                 (A) (A) (A) (A) (A) (A) (A) (A) (A) (A) (A) (A)
                 (A) (A) (A) (A) (A) (A) (A) (A) (A) (A) (A) (A)
                 (A) (A) (A) (A) (A) (A) (A) (A) (A) (A) (A) (A)
                 (A) (A) (A) (A) (A) (A) (A) (A) (A) (A) (A) (A)
                 (A) (A) (A) (A) (A) (A) (A) (A) (A) (A) (A) (A)
                 (A) (A) (A) (A) (A) (A) (A) (A) (A) (A) (A) (A)
                 (A) (A) (A) (A) (A) (A) (A) (A) (A) (A) (A) (A)
                 (A) (A) (A) (A) (A) (A) (A) (A) (A) (A) (A) (A)
                 (A) (A) (A) (A) (A) (A) (A) (A) (A) (A) (A) (A)
                 (A) (A) (A) (A) (A) (A) (A) (A) (A) (A) (A) (A)
 The electronic state is 1-A.
 Alpha  occ. eigenvalues -- -482.90868 -61.87044 -56.39176 -56.38769 -56.38758
 Alpha  occ. eigenvalues --  -19.19542 -19.13511 -10.31750 -10.24570 -10.24423
 Alpha  occ. eigenvalues --  -10.20831 -10.20558 -10.20188 -10.20178 -10.19867
 Alpha  occ. eigenvalues --  -10.19862 -10.18410  -8.58190  -6.53579  -6.52315
 Alpha  occ. eigenvalues --   -6.52290  -2.65154  -2.64792  -2.64774  -2.63765
 Alpha  occ. eigenvalues --   -2.63764  -1.11334  -1.02185  -0.88248  -0.82185
 Alpha  occ. eigenvalues --   -0.78430  -0.76278  -0.75739  -0.70061  -0.65717
 Alpha  occ. eigenvalues --   -0.62563  -0.59482  -0.55928  -0.52384  -0.50429
 Alpha  occ. eigenvalues --   -0.49366  -0.47385  -0.46453  -0.45967  -0.44066
 Alpha  occ. eigenvalues --   -0.43677  -0.42196  -0.41110  -0.40080  -0.38691
 Alpha  occ. eigenvalues --   -0.37737  -0.36991  -0.35672  -0.35474  -0.34201
 Alpha  occ. eigenvalues --   -0.31215  -0.30276  -0.28506  -0.27606  -0.26502
 Alpha  occ. eigenvalues --   -0.23502
 Alpha virt. eigenvalues --   -0.01398  -0.01278   0.00931   0.01541   0.09572
 Alpha virt. eigenvalues --    0.10758   0.12405   0.12529   0.13214   0.14094
 Alpha virt. eigenvalues --    0.15160   0.15789   0.16856   0.17401   0.18098
 Alpha virt. eigenvalues --    0.18668   0.18838   0.21763   0.22570   0.25166
 Alpha virt. eigenvalues --    0.26814   0.28331   0.30214   0.32048   0.32674
 Alpha virt. eigenvalues --    0.32908   0.39974   0.41578   0.44813   0.46490
 Alpha virt. eigenvalues --    0.46539   0.46616   0.47920   0.48564   0.48952
 Alpha virt. eigenvalues --    0.49436   0.51916   0.52184   0.52973   0.53519
 Alpha virt. eigenvalues --    0.55015   0.55675   0.56982   0.58294   0.58490
 Alpha virt. eigenvalues --    0.60191   0.60682   0.60930   0.62428   0.64640
 Alpha virt. eigenvalues --    0.65214   0.67208   0.68351   0.69961   0.72455
 Alpha virt. eigenvalues --    0.73158   0.73642   0.76111   0.78607   0.79589
 Alpha virt. eigenvalues --    0.80498   0.81564   0.82477   0.82565   0.83877
 Alpha virt. eigenvalues --    0.85029   0.86812   0.87138   0.87454   0.88013
 Alpha virt. eigenvalues --    0.90019   0.90268   0.92141   0.94021   0.95144
 Alpha virt. eigenvalues --    0.98898   1.00058   1.02028   1.02761   1.05063
 Alpha virt. eigenvalues --    1.08503   1.10794   1.12473   1.14651   1.15258
 Alpha virt. eigenvalues --    1.17076   1.21335   1.24377   1.25135   1.31448
 Alpha virt. eigenvalues --    1.32502   1.37258   1.39006   1.39422   1.41073
 Alpha virt. eigenvalues --    1.41790   1.43977   1.44715   1.47014   1.54189
 Alpha virt. eigenvalues --    1.54309   1.57172   1.58208   1.61986   1.63324
 Alpha virt. eigenvalues --    1.65345   1.70720   1.75265   1.77030   1.78299
 Alpha virt. eigenvalues --    1.79168   1.79733   1.82099   1.84729   1.85683
 Alpha virt. eigenvalues --    1.87493   1.88966   1.90853   1.92216   1.94582
 Alpha virt. eigenvalues --    1.96641   1.97590   1.99684   2.00314   2.02294
 Alpha virt. eigenvalues --    2.03421   2.05330   2.06124   2.07121   2.08011
 Alpha virt. eigenvalues --    2.09213   2.11789   2.13089   2.13338   2.17432
 Alpha virt. eigenvalues --    2.18380   2.23270   2.23695   2.25996   2.29207
 Alpha virt. eigenvalues --    2.29454   2.30936   2.31266   2.36669   2.39785
 Alpha virt. eigenvalues --    2.40345   2.40470   2.42965   2.44065   2.45248
 Alpha virt. eigenvalues --    2.47960   2.48687   2.52425   2.56298   2.58347
 Alpha virt. eigenvalues --    2.59642   2.60246   2.63589   2.64996   2.66422
 Alpha virt. eigenvalues --    2.69906   2.71066   2.71796   2.73848   2.76570
 Alpha virt. eigenvalues --    2.77428   2.78772   2.80605   2.85832   2.88074
 Alpha virt. eigenvalues --    2.90184   2.94126   2.94960   2.97109   3.06747
 Alpha virt. eigenvalues --    3.07666   3.19965   3.21296   3.22054   3.24880
 Alpha virt. eigenvalues --    3.29248   3.30184   3.30604   3.36478   3.39280
 Alpha virt. eigenvalues --    3.47223   3.47911   3.52107   3.52682   3.81608
 Alpha virt. eigenvalues --    4.02022   4.11149   4.14803   4.17767   4.25032
 Alpha virt. eigenvalues --    4.28949   4.37131   4.43279   4.44497   4.60360
 Alpha virt. eigenvalues --    4.68112   4.82197   8.60904  72.81716
          Condensed to atoms (all electrons):
               1          2          3          4          5          6
     1  C    4.959212   0.370056  -0.038864  -0.005316  -0.004117  -0.000863
     2  C    0.370056   4.724842   0.203784  -0.017596  -0.000628   0.008554
     3  O   -0.038864   0.203784   8.234556   0.292834  -0.078537  -0.110724
     4  C   -0.005316  -0.017596   0.292834   4.337449   0.539389   0.340673
     5  O   -0.004117  -0.000628  -0.078537   0.539389   8.060889  -0.068310
     6  C   -0.000863   0.008554  -0.110724   0.340673  -0.068310   5.285703
     7  C    0.000088  -0.000389   0.001413  -0.046923   0.003126   0.289101
     8  C   -0.000014  -0.000166   0.004301  -0.004068   0.000004  -0.051205
     9  C   -0.000001   0.000013  -0.000314  -0.000044   0.000001   0.006817
    10  C    0.000000  -0.000001   0.000131   0.000023  -0.000000   0.000330
    11  Br  -0.000000  -0.000000  -0.000000   0.000000   0.000000   0.000003
    12  C   -0.000000   0.000003  -0.000312  -0.000013   0.000000   0.006888
    13  C    0.000006  -0.000134   0.002055  -0.002487   0.000057  -0.059987
    14  H    0.370563  -0.026826   0.003127   0.000030   0.000002   0.000011
    15  H    0.384839  -0.035064   0.000475   0.000252   0.000095  -0.000008
    16  H    0.388586  -0.030508  -0.004530   0.003999   0.005592   0.000008
    17  H   -0.044186   0.393137  -0.036295   0.004463   0.000481  -0.000109
    18  H   -0.042120   0.377839  -0.033461  -0.008067   0.016370   0.000298
    19  H    0.000067  -0.000162   0.000674  -0.027487  -0.000657   0.365323
    20  H   -0.000003  -0.000197   0.001947  -0.028264   0.000181   0.367421
    21  H    0.000009  -0.000024   0.000246   0.000140  -0.000015  -0.009698
    22  H   -0.000000   0.000000  -0.000003  -0.000001  -0.000000  -0.000168
    23  H   -0.000000  -0.000000  -0.000002  -0.000000  -0.000000  -0.000177
    24  H    0.000000  -0.000002   0.000247   0.000102  -0.000048  -0.008834
               7          8          9         10         11         12
     1  C    0.000088  -0.000014  -0.000001   0.000000  -0.000000  -0.000000
     2  C   -0.000389  -0.000166   0.000013  -0.000001  -0.000000   0.000003
     3  O    0.001413   0.004301  -0.000314   0.000131  -0.000000  -0.000312
     4  C   -0.046923  -0.004068  -0.000044   0.000023   0.000000  -0.000013
     5  O    0.003126   0.000004   0.000001  -0.000000   0.000000   0.000000
     6  C    0.289101  -0.051205   0.006817   0.000330   0.000003   0.006888
     7  C    4.730367   0.545161  -0.025604  -0.033163   0.000328  -0.025436
     8  C    0.545161   4.888007   0.494660  -0.030196   0.005723  -0.051196
     9  C   -0.025604   0.494660   4.889313   0.531665  -0.060689  -0.032997
    10  C   -0.033163  -0.030196   0.531665   4.797722   0.256401   0.531395
    11  Br   0.000328   0.005723  -0.060689   0.256401  34.997337  -0.060654
    12  C   -0.025436  -0.051196  -0.032997   0.531395  -0.060654   4.886337
    13  C    0.549949  -0.027543  -0.051468  -0.030286   0.005749   0.496829
    14  H   -0.000001   0.000000  -0.000000  -0.000000   0.000000   0.000000
    15  H   -0.000015   0.000048   0.000000   0.000000  -0.000000  -0.000000
    16  H   -0.000020  -0.000002  -0.000000   0.000000  -0.000000   0.000000
    17  H   -0.000056   0.000009   0.000000  -0.000003   0.000000   0.000007
    18  H   -0.000080   0.000003  -0.000000   0.000000  -0.000000  -0.000000
    19  H   -0.026477  -0.004853   0.000087   0.000016  -0.000000  -0.000202
    20  H   -0.027786   0.003357  -0.000196   0.000016  -0.000000   0.000057
    21  H   -0.043874   0.365847  -0.039553   0.004635  -0.000164   0.000613
    22  H    0.004169  -0.036055   0.369105  -0.043366  -0.003541   0.005323
    23  H    0.004097   0.000611   0.005302  -0.043185  -0.003531   0.369180
    24  H   -0.043951   0.005729   0.000616   0.004583  -0.000163  -0.038879
              13         14         15         16         17         18
     1  C    0.000006   0.370563   0.384839   0.388586  -0.044186  -0.042120
     2  C   -0.000134  -0.026826  -0.035064  -0.030508   0.393137   0.377839
     3  O    0.002055   0.003127   0.000475  -0.004530  -0.036295  -0.033461
     4  C   -0.002487   0.000030   0.000252   0.003999   0.004463  -0.008067
     5  O    0.000057   0.000002   0.000095   0.005592   0.000481   0.016370
     6  C   -0.059987   0.000011  -0.000008   0.000008  -0.000109   0.000298
     7  C    0.549949  -0.000001  -0.000015  -0.000020  -0.000056  -0.000080
     8  C   -0.027543   0.000000   0.000048  -0.000002   0.000009   0.000003
     9  C   -0.051468  -0.000000   0.000000  -0.000000   0.000000  -0.000000
    10  C   -0.030286  -0.000000   0.000000   0.000000  -0.000003   0.000000
    11  Br   0.005749   0.000000  -0.000000  -0.000000   0.000000  -0.000000
    12  C    0.496829   0.000000  -0.000000   0.000000   0.000007  -0.000000
    13  C    4.890697  -0.000000  -0.000001  -0.000000   0.000026  -0.000022
    14  H   -0.000000   0.593789  -0.027221  -0.026218  -0.000725   0.000295
    15  H   -0.000001  -0.027221   0.590038  -0.031531  -0.005797   0.005418
    16  H   -0.000000  -0.026218  -0.031531   0.561108   0.004938  -0.006389
    17  H    0.000026  -0.000725  -0.005797   0.004938   0.606136  -0.036525
    18  H   -0.000022   0.000295   0.005418  -0.006389  -0.036525   0.597539
    19  H    0.003734  -0.000001  -0.000008  -0.000006   0.000002  -0.000019
    20  H   -0.004483   0.000000   0.000001   0.000003   0.000010   0.000019
    21  H    0.005818  -0.000000   0.000026   0.000000  -0.000000   0.000001
    22  H    0.000582   0.000000  -0.000000   0.000000   0.000000  -0.000000
    23  H   -0.036126   0.000000  -0.000000   0.000000   0.000000   0.000000
    24  H    0.366046  -0.000000   0.000000   0.000000  -0.000001   0.000001
              19         20         21         22         23         24
     1  C    0.000067  -0.000003   0.000009  -0.000000  -0.000000   0.000000
     2  C   -0.000162  -0.000197  -0.000024   0.000000  -0.000000  -0.000002
     3  O    0.000674   0.001947   0.000246  -0.000003  -0.000002   0.000247
     4  C   -0.027487  -0.028264   0.000140  -0.000001  -0.000000   0.000102
     5  O   -0.000657   0.000181  -0.000015  -0.000000  -0.000000  -0.000048
     6  C    0.365323   0.367421  -0.009698  -0.000168  -0.000177  -0.008834
     7  C   -0.026477  -0.027786  -0.043874   0.004169   0.004097  -0.043951
     8  C   -0.004853   0.003357   0.365847  -0.036055   0.000611   0.005729
     9  C    0.000087  -0.000196  -0.039553   0.369105   0.005302   0.000616
    10  C    0.000016   0.000016   0.004635  -0.043366  -0.043185   0.004583
    11  Br  -0.000000  -0.000000  -0.000164  -0.003541  -0.003531  -0.000163
    12  C   -0.000202   0.000057   0.000613   0.005323   0.369180  -0.038879
    13  C    0.003734  -0.004483   0.005818   0.000582  -0.036126   0.366046
    14  H   -0.000001   0.000000  -0.000000   0.000000   0.000000  -0.000000
    15  H   -0.000008   0.000001   0.000026  -0.000000  -0.000000   0.000000
    16  H   -0.000006   0.000003   0.000000   0.000000   0.000000   0.000000
    17  H    0.000002   0.000010  -0.000000   0.000000   0.000000  -0.000001
    18  H   -0.000019   0.000019   0.000001  -0.000000   0.000000   0.000001
    19  H    0.563524  -0.022873   0.005271  -0.000007   0.000003   0.000051
    20  H   -0.022873   0.561582   0.000066   0.000003  -0.000005   0.004511
    21  H    0.005271   0.000066   0.629935  -0.006447   0.000019  -0.000212
    22  H   -0.000007   0.000003  -0.006447   0.603962  -0.000176   0.000019
    23  H    0.000003  -0.000005   0.000019  -0.000176   0.603168  -0.006353
    24  H    0.000051   0.004511  -0.000212   0.000019  -0.006353   0.626696
 Mulliken charges:
               1
     1  C   -0.337941
     2  C    0.033466
     3  O   -0.442746
     4  C    0.620914
     5  O   -0.473875
     6  C   -0.361046
     7  C    0.145975
     8  C   -0.108164
     9  C   -0.086712
    10  C    0.053281
    11  Br  -0.136798
    12  C   -0.086942
    13  C   -0.109012
    14  H    0.113174
    15  H    0.118452
    16  H    0.134969
    17  H    0.114488
    18  H    0.128901
    19  H    0.144002
    20  H    0.144635
    21  H    0.087360
    22  H    0.106601
    23  H    0.107175
    24  H    0.089841
 Sum of Mulliken charges =  -0.00000
 Mulliken charges with hydrogens summed into heavy atoms:
               1
     1  C    0.028653
     2  C    0.276855
     3  O   -0.442746
     4  C    0.620914
     5  O   -0.473875
     6  C   -0.072409
     7  C    0.145975
     8  C   -0.020804
     9  C    0.019889
    10  C    0.053281
    11  Br  -0.136798
    12  C    0.020233
    13  C   -0.019170
 Electronic spatial extent (au):  <R**2>=           4767.6433
 Charge=             -0.0000 electrons
 Dipole moment (field-independent basis, Debye):
    X=             -0.5550    Y=              0.6555    Z=              0.2615  Tot=              0.8978
 Quadrupole moment (field-independent basis, Debye-Ang):
   XX=           -101.2822   YY=            -84.5868   ZZ=            -81.8487
   XY=             -6.8652   XZ=             -1.0665   YZ=              0.6209
 Traceless Quadrupole moment (field-independent basis, Debye-Ang):
   XX=            -12.0429   YY=              4.6524   ZZ=              7.3905
   XY=             -6.8652   XZ=             -1.0665   YZ=              0.6209
 Octapole moment (field-independent basis, Debye-Ang**2):
  XXX=            135.6613  YYY=             20.1532  ZZZ=             -3.9503  XYY=             16.4451
  XXY=             47.6589  XXZ=             -1.4796  XZZ=             24.3664  YZZ=              3.5409
  YYZ=             -7.3085  XYZ=              8.9951
 Hexadecapole moment (field-independent basis, Debye-Ang**3):
 XXXX=          -4608.4080 YYYY=           -763.1696 ZZZZ=           -363.8166 XXXY=           -104.4427
 XXXZ=            -24.4453 YYYX=             51.7013 YYYZ=             -2.4583 ZZZX=             -8.2000
 ZZZY=              5.4364 XXYY=           -825.3598 XXZZ=           -755.8207 YYZZ=           -186.9578
 XXYZ=            -22.2170 YYXZ=              4.1508 ZZXY=             22.9089
 N-N= 1.023014280534D+03 E-N=-9.431938446938D+03  KE= 3.089523377822D+03
 No NMR shielding tensors so no spin-rotation constants.
 Leave Link  601 at Tue Sep 17 09:53:34 2024, MaxMem=  1342177280 cpu:               0.6 elap:               0.1
 (Enter /groups/ReismanLab/Software/Gaussian16_RevC/Linux_Binary_AVX2-enabled-CPU/g16/l701.exe)
 ... and contract with generalized density number  0.
 Compute integral first derivatives.
 R6Disp: Adding Grimme-D3(BJ) dispersion energy 1st derivatives to the gradient.
 Leave Link  701 at Tue Sep 17 09:53:34 2024, MaxMem=  1342177280 cpu:               0.6 elap:               0.1
 (Enter /groups/ReismanLab/Software/Gaussian16_RevC/Linux_Binary_AVX2-enabled-CPU/g16/l702.exe)
 L702 exits ... SP integral derivatives will be done elsewhere.
 Leave Link  702 at Tue Sep 17 09:53:34 2024, MaxMem=  1342177280 cpu:               0.1 elap:               0.0
 (Enter /groups/ReismanLab/Software/Gaussian16_RevC/Linux_Binary_AVX2-enabled-CPU/g16/l703.exe)
 Integral derivatives from FoFJK, PRISM(SPDF).
 Compute integral first derivatives, UseDBF=F ICtDFT=           0.
 Calling FoFJK, ICntrl=      2127 FMM=F ISym2X=0 I1Cent= 0 IOpClX= 0 NMat=1 NMatS=1 NMatT=0.
 FoFJK:  IHMeth= 1 ICntrl=    2127 DoSepK=F KAlg= 0 I1Cent=           0 FoldK=F
 IRaf=         0 NMat=       1 IRICut=       1 DoRegI=T DoRafI=F ISym2E= 0 IDoP0=0 IntGTp=1.
 FoFCou: FMM=F IPFlag=           0 FMFlag=      100000 FMFlg1=         800
         NFxFlg=           0 DoJE=F BraDBF=F KetDBF=F FulRan=T
         wScrn=  0.000000 ICntrl=      2127 IOpCl=  0 I1Cent=           0 NGrid=           0
         NMat0=    1 NMatS0=      1 NMatT0=    0 NMatD0=    1 NMtDS0=    0 NMtDT0=    0
 Symmetry not used in FoFCou.
 Leave Link  703 at Tue Sep 17 09:53:38 2024, MaxMem=  1342177280 cpu:              28.6 elap:               3.6
 (Enter /groups/ReismanLab/Software/Gaussian16_RevC/Linux_Binary_AVX2-enabled-CPU/g16/l716.exe)
 Dipole        =-2.18339804D-01 2.57899297D-01 1.02870533D-01
 ***** Axes restored to original set *****
 -------------------------------------------------------------------
 Center     Atomic                   Forces (Hartrees/Bohr)
 Number     Number              X              Y              Z
 -------------------------------------------------------------------
      1        6          -0.003495036   -0.005374737    0.002324543
      2        6           0.008782258    0.004863665    0.002677702
      3        8          -0.009652735    0.007330599    0.001983665
      4        6          -0.008451053   -0.007681973   -0.003041736
      5        8           0.019208120   -0.003749618   -0.001357488
      6        6          -0.000167859    0.004142129    0.002477662
      7        6           0.001203529   -0.005366082   -0.003690350
      8        6           0.001691102   -0.000519176   -0.002577372
      9        6          -0.004449689    0.004376444   -0.003396776
     10        6          -0.005988759    0.002126581    0.001971008
     11       35          -0.002314575    0.000749121    0.000712025
     12        6          -0.003405265   -0.001256612    0.006161068
     13        6           0.002248669   -0.002419624    0.000327203
     14        1           0.003133149    0.004188540    0.001197972
     15        1          -0.002511504    0.002733371   -0.002228977
     16        1           0.002376605   -0.001182736   -0.002402398
     17        1          -0.000004709   -0.000723874    0.000673592
     18        1          -0.001578210    0.000703583    0.000858350
     19        1           0.001018136   -0.001521800   -0.001460141
     20        1           0.001675440   -0.000988265   -0.001028975
     21        1           0.001917459    0.001245334   -0.003849450
     22        1          -0.002094396    0.001909974   -0.001729205
     23        1          -0.001631934   -0.000852880    0.002769691
     24        1           0.002491257   -0.002731962    0.002628384
 -------------------------------------------------------------------
 Cartesian Forces:  Max     0.019208120 RMS     0.004096486
 Leave Link  716 at Tue Sep 17 09:53:38 2024, MaxMem=  1342177280 cpu:               0.1 elap:               0.0
 (Enter /groups/ReismanLab/Software/Gaussian16_RevC/Linux_Binary_AVX2-enabled-CPU/g16/l103.exe)

 GradGradGradGradGradGradGradGradGradGradGradGradGradGradGradGradGradGrad
 Berny optimization.
 FormGI is forming the generalized inverse of G from B-inverse, IUseBI=4.
 Internal  Forces:  Max     0.019605933 RMS     0.003968528
 Search for a local minimum.
 Step number   1 out of a maximum of  124
 All quantities printed in internal units (Hartrees-Bohrs-Radians)
 RMS Force = .39685D-02 SwitMx=.10000D-02 MixMth= 1
 Mixed Optimization -- RFO/linear search
 Second derivative matrix not updated -- first step.
 ITU=  0
     Eigenvalues ---    0.00454   0.00483   0.00789   0.01000   0.01296
     Eigenvalues ---    0.01647   0.02235   0.02266   0.02274   0.02296
     Eigenvalues ---    0.02303   0.02307   0.02311   0.02312   0.02598
     Eigenvalues ---    0.04929   0.05074   0.05682   0.05762   0.05831
     Eigenvalues ---    0.06416   0.09969   0.11652   0.13255   0.13848
     Eigenvalues ---    0.16000   0.16000   0.16000   0.16000   0.16000
     Eigenvalues ---    0.16000   0.16000   0.17944   0.22000   0.22012
     Eigenvalues ---    0.22098   0.22979   0.23997   0.24988   0.25000
     Eigenvalues ---    0.25000   0.25000   0.25000   0.30021   0.30235
     Eigenvalues ---    0.32561   0.34264   0.34492   0.34603   0.34610
     Eigenvalues ---    0.35108   0.35124   0.35272   0.35987   0.36000
     Eigenvalues ---    0.36091   0.36093   0.41000   0.43557   0.43605
     Eigenvalues ---    0.47613   0.47938   0.48462   0.48625   0.59159
     Eigenvalues ---    1.04035
 RFO step:  Lambda=-4.71872408D-03 EMin= 4.53538422D-03
 Linear search not attempted -- first point.
 Iteration  1 RMS(Cart)=  0.12226024 RMS(Int)=  0.00125083
 Iteration  2 RMS(Cart)=  0.00341329 RMS(Int)=  0.00013573
 Iteration  3 RMS(Cart)=  0.00000845 RMS(Int)=  0.00013571
 Iteration  4 RMS(Cart)=  0.00000000 RMS(Int)=  0.00013571
 ITry= 1 IFail=0 DXMaxC= 4.02D-01 DCOld= 1.00D+10 DXMaxT= 3.00D-01 DXLimC= 3.00D+00 Rises=F
 Variable       Old X    -DE/DX   Delta X   Delta X   Delta X     New X
                                 (Linear)    (Quad)   (Total)
    R1        2.87498   0.00086   0.00000   0.00280   0.00280   2.87778
    R2        2.05236   0.00528   0.00000   0.01476   0.01476   2.06712
    R3        2.05499   0.00417   0.00000   0.01172   0.01172   2.06671
    R4        2.05474   0.00347   0.00000   0.00975   0.00975   2.06449
    R5        2.70217   0.00894   0.00000   0.02155   0.02155   2.72373
    R6        2.06313   0.00009   0.00000   0.00025   0.00025   2.06338
    R7        2.06887  -0.00116   0.00000  -0.00334  -0.00334   2.06553
    R8        2.51612   0.01360   0.00000   0.02281   0.02281   2.53893
    R9        2.27065   0.01961   0.00000   0.01876   0.01876   2.28941
   R10        2.87922   0.00647   0.00000   0.02121   0.02121   2.90043
   R11        2.83129   0.00853   0.00000   0.02582   0.02582   2.85712
   R12        2.06507   0.00156   0.00000   0.00446   0.00446   2.06954
   R13        2.06324   0.00092   0.00000   0.00262   0.00262   2.06586
   R14        2.62584   0.00864   0.00000   0.01798   0.01798   2.64382
   R15        2.62668   0.00872   0.00000   0.01817   0.01817   2.64485
   R16        2.61297   0.01101   0.00000   0.02242   0.02242   2.63540
   R17        2.04081   0.00447   0.00000   0.01225   0.01225   2.05306
   R18        2.61477   0.00862   0.00000   0.01769   0.01769   2.63246
   R19        2.03939   0.00330   0.00000   0.00902   0.00902   2.04841
   R20        3.60250   0.00253   0.00000   0.01376   0.01376   3.61627
   R21        2.61513   0.00859   0.00000   0.01766   0.01765   2.63278
   R22        2.61261   0.01107   0.00000   0.02255   0.02255   2.63515
   R23        2.03936   0.00330   0.00000   0.00902   0.00902   2.04839
   R24        2.04102   0.00453   0.00000   0.01244   0.01244   2.05346
    A1        1.91269   0.00087   0.00000   0.00390   0.00389   1.91658
    A2        1.92375   0.00120   0.00000   0.00800   0.00798   1.93173
    A3        1.91940   0.00065   0.00000   0.00465   0.00463   1.92403
    A4        1.90411  -0.00123   0.00000  -0.00880  -0.00881   1.89530
    A5        1.89998  -0.00094   0.00000  -0.00708  -0.00708   1.89290
    A6        1.90363  -0.00061   0.00000  -0.00100  -0.00104   1.90259
    A7        1.94175  -0.00090   0.00000  -0.00299  -0.00299   1.93875
    A8        1.94165   0.00087   0.00000   0.00429   0.00428   1.94593
    A9        1.92521   0.00116   0.00000   0.01004   0.01003   1.93525
   A10        1.83162  -0.00034   0.00000  -0.00615  -0.00615   1.82547
   A11        1.90028   0.00020   0.00000   0.00338   0.00337   1.90365
   A12        1.92100  -0.00109   0.00000  -0.00955  -0.00957   1.91144
   A13        2.04703  -0.00187   0.00000  -0.00735  -0.00735   2.03968
   A14        2.17633  -0.00273   0.00000  -0.01074  -0.01127   2.16506
   A15        1.94860   0.00537   0.00000   0.02108   0.02054   1.96914
   A16        2.15825  -0.00263   0.00000  -0.01034  -0.01087   2.14738
   A17        1.96574   0.01402   0.00000   0.06957   0.06923   2.03496
   A18        1.86130  -0.00421   0.00000  -0.01335  -0.01397   1.84733
   A19        1.87006  -0.00516   0.00000  -0.02315  -0.02350   1.84657
   A20        1.93662  -0.00282   0.00000  -0.00490  -0.00527   1.93135
   A21        1.94609  -0.00271   0.00000  -0.00706  -0.00706   1.93903
   A22        1.87934   0.00028   0.00000  -0.02562  -0.02607   1.85328
   A23        2.10695   0.00104   0.00000   0.00442   0.00440   2.11136
   A24        2.10062   0.00090   0.00000   0.00389   0.00387   2.10449
   A25        2.07522  -0.00193   0.00000  -0.00799  -0.00801   2.06721
   A26        2.11009   0.00134   0.00000   0.00552   0.00551   2.11560
   A27        2.09107  -0.00096   0.00000  -0.00453  -0.00453   2.08653
   A28        2.08203  -0.00038   0.00000  -0.00099  -0.00100   2.08103
   A29        2.07815  -0.00008   0.00000  -0.00045  -0.00046   2.07769
   A30        2.10589   0.00043   0.00000   0.00260   0.00260   2.10848
   A31        2.09915  -0.00035   0.00000  -0.00215  -0.00214   2.09701
   A32        2.08420   0.00028   0.00000   0.00105   0.00105   2.08525
   A33        2.11478  -0.00054   0.00000  -0.00205  -0.00206   2.11272
   A34        2.08421   0.00026   0.00000   0.00099   0.00099   2.08520
   A35        2.07794  -0.00006   0.00000  -0.00034  -0.00034   2.07759
   A36        2.09944  -0.00038   0.00000  -0.00231  -0.00231   2.09713
   A37        2.10581   0.00044   0.00000   0.00265   0.00265   2.10846
   A38        2.11020   0.00128   0.00000   0.00532   0.00531   2.11551
   A39        2.08993  -0.00076   0.00000  -0.00340  -0.00340   2.08653
   A40        2.08306  -0.00052   0.00000  -0.00192  -0.00192   2.08113
    D1        3.08220  -0.00033   0.00000  -0.00904  -0.00905   3.07315
    D2        1.04674   0.00012   0.00000  -0.00221  -0.00220   1.04454
    D3       -1.09022   0.00011   0.00000   0.00003   0.00003  -1.09019
    D4        0.98643  -0.00012   0.00000  -0.00563  -0.00563   0.98080
    D5       -1.04903   0.00033   0.00000   0.00120   0.00122  -1.04781
    D6        3.09719   0.00032   0.00000   0.00343   0.00344   3.10064
    D7       -1.11301  -0.00054   0.00000  -0.01246  -0.01248  -1.12549
    D8        3.13472  -0.00010   0.00000  -0.00562  -0.00563   3.12909
    D9        0.99776  -0.00011   0.00000  -0.00339  -0.00340   0.99435
   D10        1.47128   0.00004   0.00000  -0.00554  -0.00555   1.46573
   D11       -2.71024   0.00039   0.00000  -0.00574  -0.00573  -2.71597
   D12       -0.65405  -0.00096   0.00000  -0.01845  -0.01845  -0.67250
   D13        0.02719  -0.00062   0.00000  -0.03576  -0.03574  -0.00854
   D14       -3.11441   0.00025   0.00000   0.02357   0.02355  -3.09086
   D15       -0.18356  -0.00074   0.00000  -0.05508  -0.05520  -0.23876
   D16        1.94480   0.00148   0.00000  -0.02762  -0.02776   1.91705
   D17       -2.32979  -0.00268   0.00000  -0.07446  -0.07420  -2.40399
   D18        2.95802   0.00012   0.00000   0.00352   0.00340   2.96141
   D19       -1.19680   0.00234   0.00000   0.03098   0.03084  -1.16596
   D20        0.81179  -0.00181   0.00000  -0.01586  -0.01560   0.79618
   D21        1.60747   0.00038   0.00000   0.00772   0.00777   1.61525
   D22       -1.50388   0.00014   0.00000  -0.00501  -0.00500  -1.50887
   D23       -0.47770  -0.00175   0.00000  -0.01883  -0.01894  -0.49664
   D24        2.69413  -0.00200   0.00000  -0.03156  -0.03171   2.66242
   D25       -2.57260   0.00163   0.00000   0.02166   0.02179  -2.55082
   D26        0.59923   0.00138   0.00000   0.00894   0.00902   0.60825
   D27       -3.11321  -0.00000   0.00000  -0.00125  -0.00124  -3.11444
   D28        0.02744  -0.00014   0.00000  -0.00654  -0.00652   0.02092
   D29       -0.00142   0.00029   0.00000   0.01149   0.01147   0.01004
   D30        3.13923   0.00015   0.00000   0.00621   0.00618  -3.13778
   D31        3.11344  -0.00001   0.00000   0.00062   0.00060   3.11405
   D32       -0.02726   0.00010   0.00000   0.00493   0.00492  -0.02234
   D33        0.00155  -0.00030   0.00000  -0.01208  -0.01206  -0.01051
   D34       -3.13915  -0.00019   0.00000  -0.00777  -0.00774   3.13629
   D35        0.00110  -0.00010   0.00000  -0.00425  -0.00427  -0.00317
   D36       -3.14038  -0.00005   0.00000  -0.00231  -0.00232   3.14048
   D37       -3.13956   0.00004   0.00000   0.00101   0.00100  -3.13855
   D38        0.00214   0.00009   0.00000   0.00295   0.00295   0.00509
   D39       -3.14080   0.00005   0.00000   0.00178   0.00178  -3.13902
   D40       -0.00089  -0.00007   0.00000  -0.00265  -0.00265  -0.00354
   D41        0.00068  -0.00000   0.00000  -0.00015  -0.00015   0.00053
   D42        3.14060  -0.00012   0.00000  -0.00457  -0.00458   3.13601
   D43        0.00101   0.00005   0.00000   0.00207   0.00208   0.00309
   D44       -3.14143   0.00015   0.00000   0.00570   0.00571  -3.13572
   D45        3.14092  -0.00006   0.00000  -0.00235  -0.00235   3.13857
   D46       -0.00151   0.00003   0.00000   0.00127   0.00127  -0.00024
   D47       -0.00134   0.00014   0.00000   0.00541   0.00543   0.00409
   D48        3.13936   0.00002   0.00000   0.00111   0.00113   3.14049
   D49        3.14109   0.00004   0.00000   0.00177   0.00178  -3.14031
   D50       -0.00139  -0.00007   0.00000  -0.00252  -0.00252  -0.00391
         Item               Value     Threshold  Converged?
 Maximum Force            0.019606     0.000450     NO 
 RMS     Force            0.003969     0.000300     NO 
 Maximum Displacement     0.402004     0.001800     NO 
 RMS     Displacement     0.124368     0.001200     NO 
 Predicted change in Energy=-2.429419D-03
 Lowest energy point so far.  Saving SCF results.
 GradGradGradGradGradGradGradGradGradGradGradGradGradGradGradGradGradGrad

 Leave Link  103 at Tue Sep 17 09:53:38 2024, MaxMem=  1342177280 cpu:               0.1 elap:               0.0
 (Enter /groups/ReismanLab/Software/Gaussian16_RevC/Linux_Binary_AVX2-enabled-CPU/g16/l202.exe)
                          Input orientation:                          
 ---------------------------------------------------------------------
 Center     Atomic      Atomic             Coordinates (Angstroms)
 Number     Number       Type             X           Y           Z
 ---------------------------------------------------------------------
      1          6           0        4.383964    2.412958   -0.652575
      2          6           0        3.840802    1.567570    0.491711
      3          8           0        2.859127    0.624147    0.018732
      4          6           0        3.321658   -0.533458   -0.482385
      5          8           0        4.496958   -0.815975   -0.563604
      6          6           0        2.204641   -1.436926   -1.022532
      7          6           0        0.790057   -1.068999   -0.635895
      8          6           0        0.011055   -0.244678   -1.455034
      9          6           0       -1.282859    0.123991   -1.087946
     10          6           0       -1.803530   -0.344285    0.116283
     11         35           0       -3.579259    0.150448    0.630154
     12          6           0       -1.054678   -1.172957    0.949083
     13          6           0        0.236926   -1.530718    0.563993
     14          1           0        5.073637    3.166724   -0.261747
     15          1           0        3.570313    2.922833   -1.176106
     16          1           0        4.925410    1.784092   -1.363126
     17          1           0        3.305834    2.178565    1.221590
     18          1           0        4.646866    1.024018    0.991243
     19          1           0        2.320048   -1.436468   -2.111585
     20          1           0        2.452998   -2.448352   -0.690214
     21          1           0        0.421268    0.121073   -2.392206
     22          1           0       -1.880263    0.763860   -1.727220
     23          1           0       -1.476180   -1.533401    1.880417
     24          1           0        0.824300   -2.176062    1.211538
 ---------------------------------------------------------------------
                    Distance matrix (angstroms):
                    1          2          3          4          5
     1  C    0.000000
     2  C    1.522858   0.000000
     3  O    2.444510   1.441333   0.000000
     4  C    3.136691   2.373330   1.343541   0.000000
     5  O    3.232135   2.688033   2.257334   1.211504   0.000000
     6  C    4.439361   3.741250   2.400126   1.534842   2.418866
     7  C    5.004047   4.186890   2.752515   2.592176   3.716230
     8  C    5.179701   4.662727   3.322403   3.462591   4.609160
     9  C    6.127137   5.552580   4.316358   4.690472   5.879180
    10  C    6.817523   5.971149   4.763166   5.163501   6.354596
    11  Br   8.377188   7.555442   6.484678   7.023398   8.220968
    12  C    6.708422   5.628979   4.406020   4.648696   5.765095
    13  C    5.850688   4.753161   3.437542   3.406612   4.464326
    14  H    1.093873   2.155196   3.383403   4.099934   4.035538
    15  H    1.093656   2.165990   2.686518   3.533982   3.900322
    16  H    1.092482   2.159554   2.743087   2.952756   2.753753
    17  H    2.174811   1.091892   2.015596   3.202944   3.684150
    18  H    2.168043   1.093033   2.074050   2.520613   2.413628
    19  H    4.605056   4.256065   3.012473   2.114933   2.742297
    20  H    5.230907   4.410281   3.179276   2.112956   2.618866
    21  H    4.897144   4.701335   3.465382   3.533850   4.564329
    22  H    6.566196   6.188715   5.052692   5.503874   6.672243
    23  H    7.505404   6.309899   5.188041   5.440769   6.493560
    24  H    6.099609   4.861298   3.661213   3.435741   4.299928
                    6          7          8          9         10
     6  C    0.000000
     7  C    1.511921   0.000000
     8  C    2.533838   1.399049   0.000000
     9  C    3.821439   2.434041   1.394591   0.000000
    10  C    4.307690   2.796010   2.402432   1.393036   0.000000
    11  Br   6.221304   4.709655   4.170670   2.868104   1.913645
    12  C    3.818390   2.434339   2.788775   2.425619   1.393208
    13  C    2.529379   1.399596   2.404451   2.788675   2.402400
    14  H    5.477547   6.035760   6.220235   7.095482   7.730816
    15  H    4.571230   4.894526   4.772761   5.603086   6.420477
    16  H    4.230077   5.076431   5.317447   6.432284   7.210914
    17  H    4.395507   4.508443   4.887943   5.532751   5.804488
    18  H    4.009489   4.680094   5.393015   6.347812   6.651723
    19  H    1.095151   2.157213   2.680088   4.057562   4.812500
[...]
 Alpha  occ. eigenvalues --  -10.56660 -10.55791 -10.55740 -10.55688 -10.55476
 Alpha  occ. eigenvalues --  -10.55205 -10.52835  -9.02601  -6.85004  -6.84135
 Alpha  occ. eigenvalues --   -6.84116  -2.88380  -2.88065  -2.88042  -2.87233
 Alpha  occ. eigenvalues --   -2.87232  -1.23260  -1.14171  -0.98453  -0.91821
 Alpha  occ. eigenvalues --   -0.87873  -0.85649  -0.84970  -0.79170  -0.73606
 Alpha  occ. eigenvalues --   -0.70738  -0.67209  -0.64159  -0.59690  -0.58157
 Alpha  occ. eigenvalues --   -0.57418  -0.54577  -0.54032  -0.53057  -0.50853
 Alpha  occ. eigenvalues --   -0.50018  -0.49203  -0.47091  -0.46532  -0.45795
 Alpha  occ. eigenvalues --   -0.44435  -0.43469  -0.41772  -0.41147  -0.40430
 Alpha  occ. eigenvalues --   -0.37808  -0.37539  -0.35614  -0.35121  -0.32117
 Alpha  occ. eigenvalues --   -0.29439
 Alpha virt. eigenvalues --    0.00341   0.00748   0.03620   0.04949   0.07856
 Alpha virt. eigenvalues --    0.09482   0.10451   0.10879   0.11451   0.12574
 Alpha virt. eigenvalues --    0.13172   0.14016   0.14854   0.15035   0.16149
 Alpha virt. eigenvalues --    0.16580   0.16632   0.17247   0.17954   0.19242
 Alpha virt. eigenvalues --    0.20651   0.21548   0.22131   0.23178   0.23954
 Alpha virt. eigenvalues --    0.24261   0.25256   0.25531   0.26411   0.26644
 Alpha virt. eigenvalues --    0.27016   0.27402   0.28211   0.29302   0.30755
 Alpha virt. eigenvalues --    0.30998   0.32260   0.32561   0.33092   0.33580
 Alpha virt. eigenvalues --    0.34565   0.35123   0.35250   0.36481   0.37315
 Alpha virt. eigenvalues --    0.38189   0.39630   0.39811   0.40363   0.41331
 Alpha virt. eigenvalues --    0.41473   0.42127   0.43308   0.43909   0.44483
 Alpha virt. eigenvalues --    0.44829   0.45740   0.46292   0.46968   0.47316
 Alpha virt. eigenvalues --    0.47374   0.48198   0.48866   0.49269   0.50177
 Alpha virt. eigenvalues --    0.51215   0.51480   0.52928   0.54111   0.54383
 Alpha virt. eigenvalues --    0.55466   0.56067   0.56882   0.57641   0.58348
 Alpha virt. eigenvalues --    0.59827   0.60638   0.62298   0.63003   0.64375
 Alpha virt. eigenvalues --    0.64459   0.66290   0.68070   0.68985   0.69674
 Alpha virt. eigenvalues --    0.70192   0.72107   0.72845   0.73872   0.74850
 Alpha virt. eigenvalues --    0.76245   0.77099   0.78188   0.79224   0.80542
 Alpha virt. eigenvalues --    0.81474   0.84281   0.84525   0.85451   0.87165
 Alpha virt. eigenvalues --    0.88407   0.89279   0.89951   0.91271   0.91818
 Alpha virt. eigenvalues --    0.94623   0.95679   0.96600   0.97776   0.98303
 Alpha virt. eigenvalues --    0.99539   1.00644   1.02237   1.03571   1.05884
 Alpha virt. eigenvalues --    1.07196   1.08181   1.08933   1.09354   1.11039
 Alpha virt. eigenvalues --    1.11783   1.13801   1.15113   1.15961   1.17477
 Alpha virt. eigenvalues --    1.20098   1.20493   1.21654   1.23059   1.23636
 Alpha virt. eigenvalues --    1.24212   1.25370   1.26183   1.27279   1.27987
 Alpha virt. eigenvalues --    1.30029   1.31817   1.33736   1.36451   1.38752
 Alpha virt. eigenvalues --    1.39277   1.40212   1.42296   1.42866   1.45414
 Alpha virt. eigenvalues --    1.46131   1.47660   1.48788   1.49551   1.50692
 Alpha virt. eigenvalues --    1.52286   1.52951   1.54012   1.54497   1.54967
 Alpha virt. eigenvalues --    1.56473   1.57409   1.58029   1.59507   1.59857
 Alpha virt. eigenvalues --    1.60196   1.60589   1.60902   1.62080   1.62930
 Alpha virt. eigenvalues --    1.63864   1.65580   1.66448   1.66759   1.67197
 Alpha virt. eigenvalues --    1.67707   1.69000   1.71950   1.73499   1.74179
 Alpha virt. eigenvalues --    1.74760   1.74982   1.75793   1.77637   1.78181
 Alpha virt. eigenvalues --    1.79605   1.81971   1.83432   1.84091   1.85566
 Alpha virt. eigenvalues --    1.86397   1.87146   1.89038   1.89714   1.91335
 Alpha virt. eigenvalues --    1.93009   1.93129   1.94083   1.94593   1.94783
 Alpha virt. eigenvalues --    1.96566   1.99000   2.01414   2.02362   2.04539
 Alpha virt. eigenvalues --    2.07583   2.08820   2.10669   2.12115   2.13170
 Alpha virt. eigenvalues --    2.15847   2.17233   2.18391   2.19647   2.20882
 Alpha virt. eigenvalues --    2.22104   2.25175   2.26656   2.29159   2.29516
 Alpha virt. eigenvalues --    2.31032   2.33315   2.34864   2.35544   2.37069
 Alpha virt. eigenvalues --    2.37429   2.38879   2.41212   2.44042   2.44307
 Alpha virt. eigenvalues --    2.46115   2.46695   2.48009   2.49063   2.51671
 Alpha virt. eigenvalues --    2.52879   2.55446   2.57336   2.57652   2.59744
 Alpha virt. eigenvalues --    2.60539   2.60959   2.61912   2.62480   2.63260
 Alpha virt. eigenvalues --    2.63977   2.64635   2.66286   2.68226   2.69124
 Alpha virt. eigenvalues --    2.70443   2.71217   2.72171   2.73084   2.75656
 Alpha virt. eigenvalues --    2.77083   2.77521   2.78380   2.80637   2.82460
 Alpha virt. eigenvalues --    2.82755   2.83578   2.83773   2.84719   2.86045
 Alpha virt. eigenvalues --    2.88152   2.89407   2.91940   2.93782   2.96273
 Alpha virt. eigenvalues --    2.96636   2.97395   2.99464   3.00673   3.02772
 Alpha virt. eigenvalues --    3.03391   3.04390   3.04838   3.06293   3.07485
 Alpha virt. eigenvalues --    3.08136   3.09780   3.10670   3.12378   3.13275
 Alpha virt. eigenvalues --    3.13970   3.14696   3.15707   3.15893   3.18575
 Alpha virt. eigenvalues --    3.18656   3.20480   3.21477   3.22548   3.23989
 Alpha virt. eigenvalues --    3.25660   3.25743   3.26896   3.28220   3.29355
 Alpha virt. eigenvalues --    3.29901   3.31830   3.32853   3.33296   3.35402
 Alpha virt. eigenvalues --    3.36422   3.37772   3.38230   3.39191   3.41021
 Alpha virt. eigenvalues --    3.41721   3.42654   3.43669   3.44488   3.45385
 Alpha virt. eigenvalues --    3.45933   3.46971   3.48103   3.48765   3.50654
 Alpha virt. eigenvalues --    3.52439   3.52879   3.54957   3.55662   3.56721
 Alpha virt. eigenvalues --    3.57911   3.61581   3.62421   3.63510   3.67177
 Alpha virt. eigenvalues --    3.72119   3.74841   3.75264   3.76213   3.76891
 Alpha virt. eigenvalues --    3.79413   3.82033   3.83509   3.86806   3.87404
 Alpha virt. eigenvalues --    3.88203   3.91862   3.93080   3.95759   3.98525
 Alpha virt. eigenvalues --    3.99861   4.02577   4.04451   4.05981   4.07388
 Alpha virt. eigenvalues --    4.09389   4.11978   4.13981   4.15628   4.16730
 Alpha virt. eigenvalues --    4.17866   4.19458   4.21725   4.22776   4.23042
 Alpha virt. eigenvalues --    4.24940   4.27147   4.27669   4.32750   4.34496
 Alpha virt. eigenvalues --    4.36770   4.37721   4.39522   4.42298   4.43477
 Alpha virt. eigenvalues --    4.46474   4.50331   4.50919   4.51323   4.54860
 Alpha virt. eigenvalues --    4.57729   4.60577   4.62138   4.64739   4.72250
 Alpha virt. eigenvalues --    4.74562   4.80564   4.82025   4.83133   4.86448
 Alpha virt. eigenvalues --    4.91670   4.93064   5.10021   5.13276   5.19188
 Alpha virt. eigenvalues --    5.22902   5.28674   5.31974   5.33677   5.41514
 Alpha virt. eigenvalues --    5.42152   5.49583   5.53250   5.61851   5.69498
 Alpha virt. eigenvalues --    5.82255   5.97936   6.03110   6.11074   6.17826
 Alpha virt. eigenvalues --    6.36631   6.38244   6.50749   6.64257   6.65860
 Alpha virt. eigenvalues --    6.79260   6.80652   6.91625   6.99408   7.10547
 Alpha virt. eigenvalues --    7.23205   7.36756   7.85187  22.09696  22.42406
 Alpha virt. eigenvalues --   22.53122  22.61359  22.72935  22.76501  22.81043
 Alpha virt. eigenvalues --   22.88374  23.27322  23.40016  44.05187  44.32556
          Condensed to atoms (all electrons):
               1          2          3          4          5          6
     1  C    5.094403   0.276066  -0.027763  -0.000340  -0.016457  -0.000419
     2  C    0.276066   4.959543   0.181161  -0.054189   0.008980   0.005904
     3  O   -0.027763   0.181161   7.989441   0.351313  -0.083462  -0.088426
     4  C   -0.000340  -0.054189   0.351313   4.503508   0.613983   0.282403
     5  O   -0.016457   0.008980  -0.083462   0.613983   7.903696  -0.075784
     6  C   -0.000419   0.005904  -0.088426   0.282403  -0.075784   5.256028
     7  C   -0.000055   0.000471   0.002869  -0.004902  -0.029362   0.272456
     8  C    0.000009  -0.000050   0.003242   0.001351   0.000784  -0.067324
     9  C    0.000001  -0.000008  -0.000364  -0.001146  -0.000096   0.015752
    10  C   -0.000001   0.000008   0.000067   0.000154   0.000189  -0.004180
    11  Br   0.000000  -0.000000  -0.000000   0.000011   0.000000  -0.000078
    12  C    0.000004  -0.000019   0.000070   0.002307   0.000378   0.007439
    13  C    0.000052  -0.000369  -0.000252  -0.002671   0.012260  -0.077772
    14  H    0.405767  -0.040053   0.004535   0.000514   0.000200  -0.000009
    15  H    0.397722  -0.033718   0.002006  -0.002421   0.000513  -0.000571
    16  H    0.412909  -0.038191  -0.004110   0.005209   0.005096   0.001889
    17  H   -0.036602   0.404105  -0.032141   0.006037   0.001390   0.001041
    18  H   -0.062195   0.436954  -0.035729  -0.011274   0.009651  -0.000545
    19  H    0.000253  -0.000742   0.006263  -0.034198   0.004563   0.425101
    20  H    0.000221  -0.000390   0.003405  -0.046622   0.001236   0.421669
    21  H    0.000000  -0.000009   0.000013  -0.000704   0.000011  -0.004091
    22  H    0.000000  -0.000000  -0.000006  -0.000010  -0.000000   0.000096
    23  H    0.000000   0.000000  -0.000001  -0.000002  -0.000047   0.000035
    24  H    0.000009  -0.000078   0.000591  -0.003995   0.015129   0.000851
               7          8          9         10         11         12
     1  C   -0.000055   0.000009   0.000001  -0.000001   0.000000   0.000004
     2  C    0.000471  -0.000050  -0.000008   0.000008  -0.000000  -0.000019
     3  O    0.002869   0.003242  -0.000364   0.000067  -0.000000   0.000070
     4  C   -0.004902   0.001351  -0.001146   0.000154   0.000011   0.002307
     5  O   -0.029362   0.000784  -0.000096   0.000189   0.000000   0.000378
     6  C    0.272456  -0.067324   0.015752  -0.004180  -0.000078   0.007439
     7  C    5.059613   0.456772  -0.010779  -0.072117  -0.005994  -0.014770
     8  C    0.456772   5.088095   0.381433   0.030716   0.022641  -0.100434
     9  C   -0.010779   0.381433   5.135969   0.399358  -0.101063   0.031987
    10  C   -0.072117   0.030716   0.399358   4.913648   0.366308   0.392463
    11  Br  -0.005994   0.022641  -0.101063   0.366308  34.931657  -0.103731
    12  C   -0.014770  -0.100434   0.031987   0.392463  -0.103731   5.134616
    13  C    0.401614   0.003913  -0.100775   0.030421   0.023643   0.393051
    14  H   -0.000001  -0.000001   0.000000  -0.000000   0.000000  -0.000000
    15  H    0.000013   0.000006  -0.000000   0.000000  -0.000000  -0.000000
    16  H    0.000066  -0.000003  -0.000000   0.000000   0.000000  -0.000001
    17  H    0.000304  -0.000021  -0.000003  -0.000001   0.000000  -0.000003
    18  H   -0.000687   0.000150  -0.000027   0.000017  -0.000000  -0.000070
    19  H   -0.054413  -0.008853   0.001384   0.000067   0.000001  -0.000436
    20  H   -0.035568   0.006462  -0.001196   0.000467  -0.000002  -0.000664
    21  H   -0.031577   0.402369  -0.026119   0.002119  -0.000293  -0.000634
    22  H    0.007029  -0.035585   0.420391  -0.046403  -0.007341   0.012655
    23  H    0.007734  -0.003234   0.011806  -0.047954  -0.007988   0.419924
    24  H   -0.033198   0.006203  -0.000778   0.002481  -0.000220  -0.018757
              13         14         15         16         17         18
     1  C    0.000052   0.405767   0.397722   0.412909  -0.036602  -0.062195
     2  C   -0.000369  -0.040053  -0.033718  -0.038191   0.404105   0.436954
     3  O   -0.000252   0.004535   0.002006  -0.004110  -0.032141  -0.035729
     4  C   -0.002671   0.000514  -0.002421   0.005209   0.006037  -0.011274
     5  O    0.012260   0.000200   0.000513   0.005096   0.001390   0.009651
     6  C   -0.077772  -0.000009  -0.000571   0.001889   0.001041  -0.000545
     7  C    0.401614  -0.000001   0.000013   0.000066   0.000304  -0.000687
     8  C    0.003913  -0.000001   0.000006  -0.000003  -0.000021   0.000150
     9  C   -0.100775   0.000000  -0.000000  -0.000000  -0.000003  -0.000027
    10  C    0.030421  -0.000000   0.000000   0.000000  -0.000001   0.000017
    11  Br   0.023643   0.000000  -0.000000   0.000000   0.000000  -0.000000
    12  C    0.393051  -0.000000  -0.000000  -0.000001  -0.000003  -0.000070
    13  C    5.138644   0.000002  -0.000001  -0.000020  -0.000018   0.000343
    14  H    0.000002   0.520051  -0.019032  -0.022362  -0.002902   0.001637
    15  H   -0.000001  -0.019032   0.529915  -0.025913  -0.005513   0.007409
    16  H   -0.000020  -0.022362  -0.025913   0.499948   0.005305  -0.005052
    17  H   -0.000018  -0.002902  -0.005513   0.005305   0.533810  -0.025349
    18  H    0.000343   0.001637   0.007409  -0.005052  -0.025349   0.527786
    19  H    0.012690   0.000001   0.000038  -0.000129  -0.000240   0.000088
    20  H   -0.011488  -0.000006   0.000013  -0.000035  -0.000009  -0.000035
    21  H    0.007984  -0.000000   0.000000  -0.000000   0.000001   0.000005
    22  H   -0.003852   0.000000  -0.000000  -0.000000   0.000000   0.000000
    23  H   -0.033348  -0.000000  -0.000000  -0.000000  -0.000000  -0.000000
    24  H    0.393802   0.000000  -0.000000  -0.000002  -0.000000   0.000022
              19         20         21         22         23         24
     1  C    0.000253   0.000221   0.000000   0.000000   0.000000   0.000009
     2  C   -0.000742  -0.000390  -0.000009  -0.000000   0.000000  -0.000078
     3  O    0.006263   0.003405   0.000013  -0.000006  -0.000001   0.000591
     4  C   -0.034198  -0.046622  -0.000704  -0.000010  -0.000002  -0.003995
     5  O    0.004563   0.001236   0.000011  -0.000000  -0.000047   0.015129
     6  C    0.425101   0.421669  -0.004091   0.000096   0.000035   0.000851
     7  C   -0.054413  -0.035568  -0.031577   0.007029   0.007734  -0.033198
     8  C   -0.008853   0.006462   0.402369  -0.035585  -0.003234   0.006203
     9  C    0.001384  -0.001196  -0.026119   0.420391   0.011806  -0.000778
    10  C    0.000067   0.000467   0.002119  -0.046403  -0.047954   0.002481
    11  Br   0.000001  -0.000002  -0.000293  -0.007341  -0.007988  -0.000220
    12  C   -0.000436  -0.000664  -0.000634   0.012655   0.419924  -0.018757
    13  C    0.012690  -0.011488   0.007984  -0.003852  -0.033348   0.393802
    14  H    0.000001  -0.000006  -0.000000   0.000000  -0.000000   0.000000
    15  H    0.000038   0.000013   0.000000  -0.000000  -0.000000  -0.000000
    16  H   -0.000129  -0.000035  -0.000000  -0.000000  -0.000000  -0.000002
    17  H   -0.000240  -0.000009   0.000001   0.000000  -0.000000  -0.000000
    18  H    0.000088  -0.000035   0.000005   0.000000  -0.000000   0.000022
    19  H    0.491291  -0.016755   0.000705  -0.000051   0.000001   0.000343
    20  H   -0.016755   0.486615   0.000318  -0.000001  -0.000021   0.000661
    21  H    0.000705   0.000318   0.484017  -0.002696   0.000056  -0.000164
    22  H   -0.000051  -0.000001  -0.002696   0.475690   0.000051   0.000037
    23  H    0.000001  -0.000021   0.000056   0.000051   0.474063  -0.002815
    24  H    0.000343   0.000661  -0.000164   0.000037  -0.002815   0.450544
 Mulliken charges:
               1
     1  C   -0.443584
     2  C   -0.105375
     3  O   -0.272721
     4  C    0.395682
     5  O   -0.372852
     6  C   -0.371465
     7  C    0.084482
     8  C   -0.188640
     9  C   -0.155727
    10  C    0.032173
    11  Br  -0.117551
    12  C   -0.155375
    13  C   -0.187853
    14  H    0.151656
    15  H    0.149536
    16  H    0.165396
    17  H    0.150808
    18  H    0.156902
    19  H    0.173027
    20  H    0.191722
    21  H    0.168690
    22  H    0.179997
    23  H    0.181739
    24  H    0.189333
 Sum of Mulliken charges =  -0.00000
 Mulliken charges with hydrogens summed into heavy atoms:
               1
     1  C    0.023004
     2  C    0.202335
     3  O   -0.272721
     4  C    0.395682
     5  O   -0.372852
     6  C   -0.006716
     7  C    0.084482
     8  C   -0.019951
     9  C    0.024270
    10  C    0.032173
    11  Br  -0.117551
    12  C    0.026365
    13  C    0.001480
 Electronic spatial extent (au):  <R**2>=           5419.6549
 Charge=             -0.0000 electrons
 Dipole moment (field-independent basis, Debye):
    X=             -2.5014    Y=              1.8617    Z=             -0.7079  Tot=              3.1976
 Quadrupole moment (field-independent basis, Debye-Ang):
   XX=            -87.8239   YY=            -86.3717   ZZ=            -88.1196
   XY=             -3.4575   XZ=              5.5570   YZ=              1.2591
 Traceless Quadrupole moment (field-independent basis, Debye-Ang):
   XX=             -0.3855   YY=              1.0667   ZZ=             -0.6812
   XY=             -3.4575   XZ=              5.5570   YZ=              1.2591
 Octapole moment (field-independent basis, Debye-Ang**2):
  XXX=             22.7839  YYY=             -1.6182  ZZZ=            -17.7826  XYY=             40.4459
  XXY=              2.2041  XXZ=            -38.4434  XZZ=             17.1597  YZZ=             -4.4467
  YYZ=             -7.5524  XYZ=            -18.0097
 Hexadecapole moment (field-independent basis, Debye-Ang**3):
 XXXX=          -5151.1425 YYYY=           -450.7716 ZZZZ=           -440.4969 XXXY=            -34.8346
 XXXZ=             86.5818 YYYX=            -46.5437 YYYZ=            -10.0427 ZZZX=            -33.9009
 ZZZY=              1.7878 XXYY=           -994.1144 XXZZ=           -940.7584 YYZZ=           -155.2783
 XXYZ=             42.0404 YYXZ=             -9.2598 ZZXY=            -15.2123
 N-N= 1.000197893473D+03 E-N=-9.407016223171D+03  KE= 3.106165356795D+03
 Calculating spin-rotation constants.
 Leave Link  601 at Tue Sep 17 11:06:44 2024, MaxMem=  1342177280 cpu:               5.6 elap:               5.6
 (Enter /groups/ReismanLab/Software/Gaussian16_RevC/Linux_Binary_AVX2-enabled-CPU/g16/l9999.exe)
 Unable to Open any file for archive entry.
 1\1\GINC-HPC-52-41\SP\RM062X\def2TZVP\C10H11Br1O2\MANTIND\17-Sep-2024\
 0\\#p M062X/def2tzvp geom=check guess=read scf(xqc,tight) integral(gri
 d=ultrafine) scrf(SMD, solvent=1,4-Dioxane) nmr=giao\\spe\\0,1\C,0,5.3
 848789153,1.8316712573,-0.3920149627\C,0,3.9245592888,2.0110048879,-0.
 0135619605\O,0,3.0634426124,1.1977012691,-0.8495934489\C,0,2.917155793
 5,-0.0885871245,-0.4771394775\O,0,3.4593315081,-0.5902766911,0.4855733
 295\C,0,1.939757677,-0.8157837528,-1.383035387\C,0,0.5577943204,-0.837
 5967132,-0.7564700531\C,0,-0.5268672067,-0.2291702832,-1.3926850383\C,
 0,-1.7979223998,-0.2459302668,-0.8182396109\C,0,-1.9743120084,-0.87594
 10721,0.409620859\Br,0,-3.7108044931,-0.9069437635,1.2075564161\C,0,-0
 .9076995278,-1.4837763426,1.0691562198\C,0,0.3543080126,-1.4601761097,
 0.4814184554\H,0,6.0079594394,2.5113265712,0.1979823316\H,0,5.54100588
 59,2.0537789716,-1.4514713222\H,0,5.7073951968,0.8077628663,-0.1912195
 971\H,0,3.5835022408,3.0329978221,-0.1906077843\H,0,3.7507090465,1.743
 3458615,1.0310269111\H,0,1.9069131984,-0.3286058883,-2.3589902736\H,0,
 2.3150164192,-1.8357182516,-1.5083608088\H,0,-0.3823362275,0.264171638
 2,-2.3493509908\H,0,-2.6376294589,0.2246332448,-1.315810325\H,0,-1.063
 743688,-1.966303604,2.0267623261\H,0,1.1966781868,-1.9155851321,0.9920
 245035\\Version=ES64L-G16RevC.02\State=1-A\HF=-3112.3367393\RMSD=5.078
 e-09\Dipole=0.7153687,0.6209856,-0.8277856\Quadrupole=-3.0658501,1.401
 6756,1.6641745,4.0237822,-1.2097544,-0.5620139\PG=C01 [X(C10H11Br1O2)]
 \\@
 The archive entry for this job was punched.


 Sorry, no quote for you today!
 Job cpu time:       0 days  0 hours 17 minutes 41.8 seconds.
 Elapsed time:       0 days  0 hours 17 minutes 45.3 seconds.
 File lengths (MBytes):  RWF=    320 Int=      0 D2E=      0 Chk=     32 Scr=     16
 Normal termination of Gaussian 16 at Tue Sep 17 11:06:44 2024.
