 Entering Gaussian System, Link 0=g16
 Input=smiles_00069_conf_6.gjf
 Output=smiles_00069_conf_6.log
 Initial command:
 /groups/ReismanLab/Software/Gaussian16_RevC/Linux_Binary_AVX2-enabled-CPU/g16/l1.exe "/central/groups/ReismanLab/DM/dft_final/smiles_00069/Gau-97091.inp" -scrdir="/central/groups/ReismanLab/DM/dft_final/smiles_00069/"
 Entering Link 1 = /groups/ReismanLab/Software/Gaussian16_RevC/Linux_Binary_AVX2-enabled-CPU/g16/l1.exe PID=     97096.
  
 Copyright (c) 1988-2021, Gaussian, Inc.  All Rights Reserved.
  
 This is part of the Gaussian(R) 16 program.  It is based on
 the Gaussian(R) 09 system (copyright 2009, Gaussian, Inc.),
 the Gaussian(R) 03 system (copyright 2003, Gaussian, Inc.),
 the Gaussian(R) 98 system (copyright 1998, Gaussian, Inc.),
 the Gaussian(R) 94 system (copyright 1995, Gaussian, Inc.),
 the Gaussian 92(TM) system (copyright 1992, Gaussian, Inc.),
 the Gaussian 90(TM) system (copyright 1990, Gaussian, Inc.),
 the Gaussian 88(TM) system (copyright 1988, Gaussian, Inc.),
 the Gaussian 86(TM) system (copyright 1986, Carnegie Mellon
 University), and the Gaussian 82(TM) system (copyright 1983,
 Carnegie Mellon University). Gaussian is a federally registered
 trademark of Gaussian, Inc.
  
 This software contains proprietary and confidential information,
 including trade secrets, belonging to Gaussian, Inc.
  
 This software is provided under written license and may be
 used, copied, transmitted, or stored only in accord with that
 written license.
  
 The following legend is applicable only to US Government
 contracts under FAR:
  
                    RESTRICTED RIGHTS LEGEND
  
 Use, reproduction and disclosure by the US Government is
 subject to restrictions as set forth in subparagraphs (a)
 and (c) of the Commercial Computer Software - Restricted
 Rights clause in FAR 52.227-19.
  
 Gaussian, Inc.
 340 Quinnipiac St., Bldg. 40, Wallingford CT 06492
  
  
 ---------------------------------------------------------------
 Warning -- This program may not be used in any manner that
 competes with the business of Gaussian, Inc. or will provide
 assistance to any competitor of Gaussian, Inc.  The licensee
 of this program is prohibited from giving any competitor of
 Gaussian, Inc. access to this program.  By using this program,
 the user acknowledges that Gaussian, Inc. is engaged in the
 business of creating and licensing software in the field of
 computational chemistry and represents and warrants to the
 licensee that it is not a competitor of Gaussian, Inc. and that
 it will not use this program in any manner prohibited above.
 ---------------------------------------------------------------
  

 Cite this work as:
 Gaussian 16, Revision C.02,
 M. J. Frisch, G. W. Trucks, H. B. Schlegel, G. E. Scuseria, 
 M. A. Robb, J. R. Cheeseman, G. Scalmani, V. Barone, 
 G. A. Petersson, H. Nakatsuji, X. Li, M. Caricato, A. V. Marenich, 
 J. Bloino, B. G. Janesko, R. Gomperts, B. Mennucci, H. P. Hratchian, 
 J. V. Ortiz, A. F. Izmaylov, J. L. Sonnenberg, D. Williams-Young, 
 F. Ding, F. Lipparini, F. Egidi, J. Goings, B. Peng, A. Petrone, 
 T. Henderson, D. Ranasinghe, V. G. Zakrzewski, J. Gao, N. Rega, 
 G. Zheng, W. Liang, M. Hada, M. Ehara, K. Toyota, R. Fukuda, 
 J. Hasegawa, M. Ishida, T. Nakajima, Y. Honda, O. Kitao, H. Nakai, 
 T. Vreven, K. Throssell, J. A. Montgomery, Jr., J. E. Peralta, 
 F. Ogliaro, M. J. Bearpark, J. J. Heyd, E. N. Brothers, K. N. Kudin, 
 V. N. Staroverov, T. A. Keith, R. Kobayashi, J. Normand, 
 K. Raghavachari, A. P. Rendell, J. C. Burant, S. S. Iyengar, 
 J. Tomasi, M. Cossi, J. M. Millam, M. Klene, C. Adamo, R. Cammi, 
 J. W. Ochterski, R. L. Martin, K. Morokuma, O. Farkas, 
 J. B. Foresman, and D. J. Fox, Gaussian, Inc., Wallingford CT, 2019.
 
 ******************************************
 Gaussian 16:  ES64L-G16RevC.02  7-Dec-2021
                17-Sep-2024 
 ******************************************
 %nprocshared=8
 Will use up to    8 processors via shared memory.
 %Mem=10GB
 %Chk=smiles_00069_conf_6.chk
 ----------------------------------------------------------------------
 #p B3LYP/6-31G(d,p) EmpiricalDispersion=GD3BJ opt freq scf(xqc,tight) 
 integral(grid=ultrafine)
 ----------------------------------------------------------------------
 1/18=20,19=15,26=4,38=1/1,3;
 2/9=110,12=2,17=6,18=5,40=1/2;
 3/5=1,6=6,7=101,11=2,25=1,30=1,71=1,74=-5,75=-5,124=41/1,2,3;
 4//1;
 5/5=2,8=3,13=1,32=2,38=5/2,8;
 6/7=2,8=2,9=2,10=2,28=1/1;
 7//1,2,3,16;
 1/18=20,19=15,26=4/3(2);
 2/9=110/2;
 99//99;
 2/9=110/2;
 3/5=1,6=6,7=101,11=2,25=1,30=1,71=1,74=-5,75=-5,124=41/1,2,3;
 4/5=5,16=3,69=1/1;
 5/5=2,8=3,13=1,32=2,38=5/2,8;
 7//1,2,3,16;
 1/18=20,19=15,26=4/3(-5);
 2/9=110/2;
 6/7=2,8=2,9=2,10=2,19=2,28=1/1;
 99/9=1/99;
 Leave Link    1 at Tue Sep 17 09:53:49 2024, MaxMem=  1342177280 cpu:               0.1 elap:              32.3
 (Enter /groups/ReismanLab/Software/Gaussian16_RevC/Linux_Binary_AVX2-enabled-CPU/g16/l101.exe)
 ----------------------------------
 opt-freq conformers_unique/conf_ag
 ----------------------------------
 Symbolic Z-matrix:
 Charge =  0 Multiplicity = 1
 C                     5.52308   1.57008  -0.96556 
 C                     4.01265   1.68608  -1.10655 
 O                     3.3757    0.41306  -0.96582 
 C                     3.13024  -0.01304   0.2729 
 O                     3.40285   0.59334   1.27306 
 C                     2.39797  -1.34505   0.2424 
 C                     0.92803  -1.02579   0.20118 
 C                     0.23408  -0.77055   1.37817 
 C                    -1.1075   -0.43714   1.34879 
 C                    -1.75414  -0.355     0.12762 
 Br                   -3.60452   0.09897   0.07606 
 C                    -1.08096  -0.59511  -1.05762 
 C                     0.26111  -0.92605  -1.01367 
 H                     5.97961   2.54057  -1.13665 
 H                     5.916     0.8596   -1.68892 
 H                     5.77748   1.23336   0.03641 
 H                     3.73391   2.03239  -2.10375 
 H                     3.61175   2.36649  -0.3484 
 H                     2.69895  -1.90025  -0.64445 
 H                     2.64621  -1.89922   1.14692 
 H                     0.74911  -0.82712   2.32502 
 H                    -1.6451   -0.24154   2.26374 
 H                    -1.59857  -0.52294  -2.00179 
 H                     0.79449  -1.10787  -1.93466 
 
 ITRead=  0  0  0  0  0  0  0  0  0  0  0  0  0  0  0  0  0  0  0  0
 ITRead=  0  0  0  0
 MicOpt= -1 -1 -1 -1 -1 -1 -1 -1 -1 -1 -1 -1 -1 -1 -1 -1 -1 -1 -1 -1
 MicOpt= -1 -1 -1 -1
 NAtoms=     24 NQM=       24 NQMF=       0 NMMI=      0 NMMIF=      0
                NMic=       0 NMicF=      0.
                    Isotopes and Nuclear Properties:
 (Nuclear quadrupole moments (NQMom) in fm**2, nuclear magnetic moments (NMagM)
  in nuclear magnetons)

  Atom         1           2           3           4           5           6           7           8           9          10
 IAtWgt=          12          12          16          12          16          12          12          12          12          12
 AtmWgt=  12.0000000  12.0000000  15.9949146  12.0000000  15.9949146  12.0000000  12.0000000  12.0000000  12.0000000  12.0000000
 NucSpn=           0           0           0           0           0           0           0           0           0           0
 AtZEff=  -0.0000000  -0.0000000  -0.0000000  -0.0000000  -0.0000000  -0.0000000  -0.0000000  -0.0000000  -0.0000000  -0.0000000
 NQMom=    0.0000000   0.0000000   0.0000000   0.0000000   0.0000000   0.0000000   0.0000000   0.0000000   0.0000000   0.0000000
 NMagM=    0.0000000   0.0000000   0.0000000   0.0000000   0.0000000   0.0000000   0.0000000   0.0000000   0.0000000   0.0000000
 AtZNuc=   6.0000000   6.0000000   8.0000000   6.0000000   8.0000000   6.0000000   6.0000000   6.0000000   6.0000000   6.0000000

  Atom        11          12          13          14          15          16          17          18          19          20
 IAtWgt=          79          12          12           1           1           1           1           1           1           1
 AtmWgt=  78.9183361  12.0000000  12.0000000   1.0078250   1.0078250   1.0078250   1.0078250   1.0078250   1.0078250   1.0078250
 NucSpn=           3           0           0           1           1           1           1           1           1           1
 AtZEff=  -0.0000000  -0.0000000  -0.0000000  -0.0000000  -0.0000000  -0.0000000  -0.0000000  -0.0000000  -0.0000000  -0.0000000
 NQMom=   31.3000000   0.0000000   0.0000000   0.0000000   0.0000000   0.0000000   0.0000000   0.0000000   0.0000000   0.0000000
 NMagM=    2.1063990   0.0000000   0.0000000   2.7928460   2.7928460   2.7928460   2.7928460   2.7928460   2.7928460   2.7928460
 AtZNuc=  35.0000000   6.0000000   6.0000000   1.0000000   1.0000000   1.0000000   1.0000000   1.0000000   1.0000000   1.0000000

  Atom        21          22          23          24
 IAtWgt=           1           1           1           1
 AtmWgt=   1.0078250   1.0078250   1.0078250   1.0078250
 NucSpn=           1           1           1           1
 AtZEff=  -0.0000000  -0.0000000  -0.0000000  -0.0000000
 NQMom=    0.0000000   0.0000000   0.0000000   0.0000000
 NMagM=    2.7928460   2.7928460   2.7928460   2.7928460
 AtZNuc=   1.0000000   1.0000000   1.0000000   1.0000000
 Leave Link  101 at Tue Sep 17 09:53:50 2024, MaxMem=  1342177280 cpu:               0.4 elap:               0.4
 (Enter /groups/ReismanLab/Software/Gaussian16_RevC/Linux_Binary_AVX2-enabled-CPU/g16/l103.exe)

 GradGradGradGradGradGradGradGradGradGradGradGradGradGradGradGradGradGrad
 Berny optimization.
 Initialization pass.
                           ----------------------------
                           !    Initial Parameters    !
                           ! (Angstroms and Degrees)  !
 --------------------------                            --------------------------
 ! Name  Definition              Value          Derivative Info.                !
 --------------------------------------------------------------------------------
 ! R1    R(1,2)                  1.5214         estimate D2E/DX2                !
 ! R2    R(1,14)                 1.0861         estimate D2E/DX2                !
 ! R3    R(1,15)                 1.0874         estimate D2E/DX2                !
 ! R4    R(1,16)                 1.0872         estimate D2E/DX2                !
 ! R5    R(2,3)                  1.4304         estimate D2E/DX2                !
 ! R6    R(2,17)                 1.0918         estimate D2E/DX2                !
 ! R7    R(2,18)                 1.0947         estimate D2E/DX2                !
 ! R8    R(3,4)                  1.3327         estimate D2E/DX2                !
 ! R9    R(4,5)                  1.201          estimate D2E/DX2                !
 ! R10   R(4,6)                  1.5203         estimate D2E/DX2                !
 ! R11   R(6,7)                  1.5048         estimate D2E/DX2                !
 ! R12   R(6,19)                 1.0887         estimate D2E/DX2                !
 ! R13   R(6,20)                 1.0894         estimate D2E/DX2                !
 ! R14   R(7,8)                  1.39           estimate D2E/DX2                !
 ! R15   R(7,13)                 1.3895         estimate D2E/DX2                !
 ! R16   R(8,9)                  1.3827         estimate D2E/DX2                !
 ! R17   R(8,21)                 1.0793         estimate D2E/DX2                !
 ! R18   R(9,10)                 1.3842         estimate D2E/DX2                !
 ! R19   R(9,22)                 1.0791         estimate D2E/DX2                !
 ! R20   R(10,11)                1.906          estimate D2E/DX2                !
 ! R21   R(10,12)                1.3841         estimate D2E/DX2                !
 ! R22   R(12,13)                1.383          estimate D2E/DX2                !
 ! R23   R(12,23)                1.0792         estimate D2E/DX2                !
 ! R24   R(13,24)                1.0797         estimate D2E/DX2                !
 ! A1    A(2,1,14)             109.5477         estimate D2E/DX2                !
 ! A2    A(2,1,15)             110.2981         estimate D2E/DX2                !
 ! A3    A(2,1,16)             109.9569         estimate D2E/DX2                !
 ! A4    A(14,1,15)            109.097          estimate D2E/DX2                !
 ! A5    A(14,1,16)            108.8787         estimate D2E/DX2                !
 ! A6    A(15,1,16)            109.0355         estimate D2E/DX2                !
 ! A7    A(1,2,3)              111.4138         estimate D2E/DX2                !
 ! A8    A(1,2,17)             111.24           estimate D2E/DX2                !
 ! A9    A(1,2,18)             110.2894         estimate D2E/DX2                !
 ! A10   A(3,2,17)             104.9795         estimate D2E/DX2                !
 ! A11   A(3,2,18)             108.7802         estimate D2E/DX2                !
 ! A12   A(17,2,18)            109.9921         estimate D2E/DX2                !
 ! A13   A(2,3,4)              117.2573         estimate D2E/DX2                !
 ! A14   A(3,4,5)              124.8065         estimate D2E/DX2                !
 ! A15   A(3,4,6)              110.4981         estimate D2E/DX2                !
 ! A16   A(5,4,6)              124.6384         estimate D2E/DX2                !
 ! A17   A(4,6,7)              106.5688         estimate D2E/DX2                !
 ! A18   A(4,6,19)             109.2664         estimate D2E/DX2                !
 ! A19   A(4,6,20)             108.6181         estimate D2E/DX2                !
 ! A20   A(7,6,19)             110.8504         estimate D2E/DX2                !
 ! A21   A(7,6,20)             110.6869         estimate D2E/DX2                !
 ! A22   A(19,6,20)            110.7271         estimate D2E/DX2                !
 ! A23   A(6,7,8)              120.229          estimate D2E/DX2                !
 ! A24   A(6,7,13)             120.5348         estimate D2E/DX2                !
 ! A25   A(8,7,13)             119.1792         estimate D2E/DX2                !
 ! A26   A(7,8,9)              120.71           estimate D2E/DX2                !
 ! A27   A(7,8,21)             119.6682         estimate D2E/DX2                !
 ! A28   A(9,8,21)             119.6207         estimate D2E/DX2                !
 ! A29   A(8,9,10)             119.0977         estimate D2E/DX2                !
 ! A30   A(8,9,22)             120.6023         estimate D2E/DX2                !
 ! A31   A(10,9,22)            120.2998         estimate D2E/DX2                !
 ! A32   A(9,10,11)            119.4405         estimate D2E/DX2                !
 ! A33   A(9,10,12)            121.1958         estimate D2E/DX2                !
 ! A34   A(11,10,12)           119.3636         estimate D2E/DX2                !
 ! A35   A(10,12,13)           119.0974         estimate D2E/DX2                !
 ! A36   A(10,12,23)           120.2879         estimate D2E/DX2                !
 ! A37   A(13,12,23)           120.6146         estimate D2E/DX2                !
 ! A38   A(7,13,12)            120.7142         estimate D2E/DX2                !
 ! A39   A(7,13,24)            119.7751         estimate D2E/DX2                !
 ! A40   A(12,13,24)           119.5107         estimate D2E/DX2                !
 ! D1    D(14,1,2,3)           176.6093         estimate D2E/DX2                !
 ! D2    D(14,1,2,17)           59.8461         estimate D2E/DX2                !
 ! D3    D(14,1,2,18)          -62.4819         estimate D2E/DX2                !
 ! D4    D(15,1,2,3)            56.5106         estimate D2E/DX2                !
 ! D5    D(15,1,2,17)          -60.2525         estimate D2E/DX2                !
 ! D6    D(15,1,2,18)          177.4194         estimate D2E/DX2                !
 ! D7    D(16,1,2,3)           -63.7724         estimate D2E/DX2                !
 ! D8    D(16,1,2,17)          179.4645         estimate D2E/DX2                !
 ! D9    D(16,1,2,18)           57.1364         estimate D2E/DX2                !
 ! D10   D(1,2,3,4)             83.4173         estimate D2E/DX2                !
 ! D11   D(17,2,3,4)          -156.068          estimate D2E/DX2                !
 ! D12   D(18,2,3,4)           -38.3705         estimate D2E/DX2                !
 ! D13   D(2,3,4,5)              0.098          estimate D2E/DX2                !
 ! D14   D(2,3,4,6)            177.4558         estimate D2E/DX2                !
 ! D15   D(3,4,6,7)            -89.1548         estimate D2E/DX2                !
 ! D16   D(3,4,6,19)            30.6716         estimate D2E/DX2                !
 ! D17   D(3,4,6,20)           151.5605         estimate D2E/DX2                !
 ! D18   D(5,4,6,7)             88.2083         estimate D2E/DX2                !
 ! D19   D(5,4,6,19)          -151.9652         estimate D2E/DX2                !
 ! D20   D(5,4,6,20)           -31.0764         estimate D2E/DX2                !
 ! D21   D(4,6,7,8)            -84.3888         estimate D2E/DX2                !
 ! D22   D(4,6,7,13)            92.8431         estimate D2E/DX2                !
 ! D23   D(19,6,7,8)           156.8149         estimate D2E/DX2                !
 ! D24   D(19,6,7,13)          -25.9532         estimate D2E/DX2                !
 ! D25   D(20,6,7,8)            33.5412         estimate D2E/DX2                !
 ! D26   D(20,6,7,13)         -149.227          estimate D2E/DX2                !
 ! D27   D(6,7,8,9)            178.0623         estimate D2E/DX2                !
 ! D28   D(6,7,8,21)            -1.5562         estimate D2E/DX2                !
 ! D29   D(13,7,8,9)             0.793          estimate D2E/DX2                !
 ! D30   D(13,7,8,21)         -178.8254         estimate D2E/DX2                !
 ! D31   D(6,7,13,12)         -178.1325         estimate D2E/DX2                !
 ! D32   D(6,7,13,24)            1.8313         estimate D2E/DX2                !
 ! D33   D(8,7,13,12)           -0.8718         estimate D2E/DX2                !
 ! D34   D(8,7,13,24)          179.0919         estimate D2E/DX2                !
 ! D35   D(7,8,9,10)            -0.241          estimate D2E/DX2                !
 ! D36   D(7,8,9,22)           179.8595         estimate D2E/DX2                !
 ! D37   D(21,8,9,10)          179.3776         estimate D2E/DX2                !
 ! D38   D(21,8,9,22)           -0.5219         estimate D2E/DX2                !
 ! D39   D(8,9,10,11)          179.8271         estimate D2E/DX2                !
 ! D40   D(8,9,10,12)           -0.2474         estimate D2E/DX2                !
 ! D41   D(22,9,10,11)          -0.2731         estimate D2E/DX2                !
 ! D42   D(22,9,10,12)         179.6523         estimate D2E/DX2                !
 ! D43   D(9,10,12,13)           0.1704         estimate D2E/DX2                !
 ! D44   D(9,10,12,23)        -179.7423         estimate D2E/DX2                !
 ! D45   D(11,10,12,13)       -179.9041         estimate D2E/DX2                !
 ! D46   D(11,10,12,23)          0.1832         estimate D2E/DX2                !
 ! D47   D(10,12,13,7)           0.3965         estimate D2E/DX2                !
 ! D48   D(10,12,13,24)       -179.5673         estimate D2E/DX2                !
 ! D49   D(23,12,13,7)        -179.6911         estimate D2E/DX2                !
 ! D50   D(23,12,13,24)          0.3451         estimate D2E/DX2                !
 --------------------------------------------------------------------------------
 Trust Radius=3.00D-01 FncErr=1.00D-07 GrdErr=1.00D-06 EigMax=2.50D+02 EigMin=1.00D-04
 Number of steps in this run=    124 maximum allowed number of steps=    144.
 GradGradGradGradGradGradGradGradGradGradGradGradGradGradGradGradGradGrad

 Leave Link  103 at Tue Sep 17 09:53:50 2024, MaxMem=  1342177280 cpu:               0.1 elap:               0.0
 (Enter /groups/ReismanLab/Software/Gaussian16_RevC/Linux_Binary_AVX2-enabled-CPU/g16/l202.exe)
                          Input orientation:                          
 ---------------------------------------------------------------------
 Center     Atomic      Atomic             Coordinates (Angstroms)
 Number     Number       Type             X           Y           Z
 ---------------------------------------------------------------------
      1          6           0        5.523080    1.570081   -0.965562
      2          6           0        4.012647    1.686077   -1.106550
      3          8           0        3.375702    0.413059   -0.965818
      4          6           0        3.130242   -0.013036    0.272897
      5          8           0        3.402855    0.593337    1.273060
      6          6           0        2.397968   -1.345053    0.242404
      7          6           0        0.928031   -1.025793    0.201178
      8          6           0        0.234080   -0.770546    1.378170
      9          6           0       -1.107503   -0.437138    1.348790
     10          6           0       -1.754138   -0.354996    0.127624
     11         35           0       -3.604522    0.098968    0.076059
     12          6           0       -1.080963   -0.595113   -1.057617
     13          6           0        0.261105   -0.926050   -1.013671
     14          1           0        5.979611    2.540568   -1.136645
     15          1           0        5.916005    0.859597   -1.688921
     16          1           0        5.777478    1.233358    0.036413
     17          1           0        3.733913    2.032392   -2.103748
     18          1           0        3.611752    2.366493   -0.348399
     19          1           0        2.698952   -1.900245   -0.644449
     20          1           0        2.646214   -1.899218    1.146916
     21          1           0        0.749109   -0.827121    2.325023
     22          1           0       -1.645097   -0.241537    2.263735
     23          1           0       -1.598570   -0.522940   -2.001785
     24          1           0        0.794488   -1.107867   -1.934660
 ---------------------------------------------------------------------
                    Distance matrix (angstroms):
                    1          2          3          4          5
     1  C    0.000000
     2  C    1.521427   0.000000
     3  O    2.439248   1.430412   0.000000
     4  C    3.125014   2.359766   1.332749   0.000000
     5  O    3.234318   2.688582   2.246289   1.200971   0.000000
     6  C    4.441116   3.689799   2.346640   1.520337   2.414416
     7  C    5.405027   4.310365   3.069734   2.424986   3.145674
     8  C    6.240603   5.146494   4.094507   3.191114   3.451428
     9  C    7.304093   6.062398   5.116578   4.392709   4.627196
    10  C    7.606502   6.240590   5.301016   4.898490   5.367116
    11  Br   9.303884   7.870117   7.064537   6.738571   7.126047
    12  C    6.950534   5.581316   4.570197   4.454586   5.191252
    13  C    5.824204   4.572296   3.390606   3.274263   4.172321
    14  H    1.086064   2.144764   3.366872   4.077573   4.029648
    15  H    1.087394   2.155225   2.678696   3.517199   3.893604
    16  H    1.087223   2.150802   2.728715   2.935520   2.752773
    17  H    2.170327   1.091802   2.011328   3.193217   3.685555
    18  H    2.160633   1.094749   2.062239   2.505996   2.411815
    19  H    4.485752   3.847211   2.431592   2.142217   3.223394
    20  H    4.977445   4.449673   3.215963   2.134450   2.607920
    21  H    6.274179   5.361206   4.389381   3.247114   3.188525
    22  H    8.068028   6.861820   6.005575   5.178756   5.211551
    23  H    7.494824   6.096470   5.166498   5.272176   6.081524
    24  H    5.519976   4.341478   3.148735   3.395249   4.470698
                    6          7          8          9         10
     6  C    0.000000
     7  C    1.504773   0.000000
     8  C    2.510464   1.389974   0.000000
     9  C    3.786387   2.409756   1.382704   0.000000
    10  C    4.270054   2.765756   2.385280   1.384243   0.000000
    11  Br   6.175981   4.671699   4.145650   2.853481   1.905955
    12  C    3.788855   2.409587   2.773658   2.411733   1.384058
    13  C    2.513855   1.389459   2.397043   2.773688   2.385343
    14  H    5.461502   6.326703   7.092172   8.079066   8.354253
    15  H    4.578983   5.657478   6.659480   7.761370   7.975346
    16  H    4.255787   5.352387   6.045263   7.205266   7.697819
    17  H    4.323924   4.747437   5.677063   6.438781   6.387279
    18  H    3.949416   4.360274   4.922471   5.745621   6.035384
    19  H    1.088733   2.148468   3.382721   4.539029   4.776390
    20  H    1.089434   2.146962   2.673156   4.033463   4.773539
    21  H    2.706342   2.140607   1.079344   2.133571   3.364180
    22  H    4.652945   3.389717   2.143685   1.079070   2.141900
    23  H    4.656669   3.389634   3.852793   3.387456   2.141679
    24  H    2.714224   2.141583   3.376787   3.853374   3.363826
                   11         12         13         14         15
    11  Br   0.000000
    12  C    2.852248   0.000000
    13  C    4.145027   1.382967   0.000000
    14  H    9.964320   7.725960   6.688338   0.000000
    15  H    9.712576   7.174419   5.968449   1.770514   0.000000
    16  H    9.450414   7.181812   6.016318   1.767971   1.770780
    17  H    7.895715   5.584013   4.690526   2.497338   2.511784
    18  H    7.576044   5.594254   4.744497   2.501678   3.062240
    19  H    6.652050   4.020179   2.651128   5.543086   4.365441
    20  H    6.649149   4.522445   3.362133   6.003157   5.132695
    21  H    4.986941   3.852953   3.375620   7.119173   6.756742
    22  H    2.956555   3.387425   3.852734   8.799936   8.602688
    23  H    2.954328   1.079156   2.144122   8.219633   7.647099
    24  H    4.985051   2.132941   1.079711   6.390102   5.491924
                   16         17         18         19         20
    16  H    0.000000
    17  H    3.065111   0.000000
    18  H    2.474357   1.791032   0.000000
    19  H    4.445263   4.320455   4.373317   0.000000
    20  H    4.566297   5.216078   4.622177   1.792142   0.000000
    21  H    5.896423   6.058042   5.053818   3.710963   2.477162
    22  H    7.888656   7.292421   6.423357   5.484488   4.733977
    23  H    7.851427   5.914007   6.183037   4.712540   5.461378
    24  H    5.847790   4.304652   4.745985   2.433001   3.681201
                   21         22         23         24
    21  H    0.000000
    22  H    2.465539   0.000000
    23  H    4.932077   4.275046   0.000000
    24  H    4.269166   4.932406   2.464421   0.000000
 Stoichiometry    C10H11BrO2
 Framework group  C1[X(C10H11BrO2)]
 Deg. of freedom    66
 Full point group                 C1      NOp   1
 Largest Abelian subgroup         C1      NOp   1
 Largest concise Abelian subgroup C1      NOp   1
                         Standard orientation:                         
 ---------------------------------------------------------------------
 Center     Atomic      Atomic             Coordinates (Angstroms)
 Number     Number       Type             X           Y           Z
 ---------------------------------------------------------------------
      1          6           0        5.455962   -1.029358   -0.434147
      2          6           0        3.981735   -1.397668   -0.509926
      3          8           0        3.199034   -0.607059    0.389182
      4          6           0        2.819692    0.599513   -0.030945
      5          8           0        3.085537    1.066291   -1.105085
      6          6           0        1.948218    1.277498    1.014184
      7          6           0        0.529538    0.872393    0.718247
      8          6           0       -0.214342    1.568709   -0.227170
      9          6           0       -1.505072    1.180503   -0.535689
     10          6           0       -2.049430    0.081993    0.107022
     11         35           0       -3.829537   -0.458699   -0.307147
     12          6           0       -1.323874   -0.632456    1.044439
     13          6           0       -0.033433   -0.234099    1.342216
     14          1           0        6.028436   -1.686325   -1.082378
     15          1           0        5.818438   -1.131872    0.585916
     16          1           0        5.598977   -0.001933   -0.759721
     17          1           0        3.815318   -2.430030   -0.195976
     18          1           0        3.605529   -1.250621   -1.527434
     19          1           0        2.248505    0.941340    2.005227
     20          1           0        2.067992    2.356244    0.920222
     21          1           0        0.222055    2.417915   -0.730550
     22          1           0       -2.081807    1.723698   -1.268292
     23          1           0       -1.761288   -1.489137    1.533667
     24          1           0        0.541091   -0.790820    2.067308
 ---------------------------------------------------------------------
 Rotational constants (GHZ):           1.6781403           0.2015217           0.1952464
 Leave Link  202 at Tue Sep 17 09:53:50 2024, MaxMem=  1342177280 cpu:               0.1 elap:               0.0
 (Enter /groups/ReismanLab/Software/Gaussian16_RevC/Linux_Binary_AVX2-enabled-CPU/g16/l301.exe)
 Standard basis: 6-31G(d,p) (6D, 7F)
 Ernie: Thresh=  0.10000D-02 Tol=  0.10000D-05 Strict=F.
 There are   265 symmetry adapted cartesian basis functions of A   symmetry.
 There are   265 symmetry adapted basis functions of A   symmetry.
   265 basis functions,   496 primitive gaussians,   265 cartesian basis functions
    61 alpha electrons       61 beta electrons
       nuclear repulsion energy      1012.4686104401 Hartrees.
 IExCor=  402 DFT=T Ex+Corr=B3LYP ExCW=0 ScaHFX=  0.200000
 ScaDFX=  0.800000  0.720000  1.000000  0.810000 ScalE2=  1.000000  1.000000
 IRadAn=      5 IRanWt=     -1 IRanGd=            0 ICorTp=0 IEmpDi=141
 NAtoms=   24 NActive=   24 NUniq=   24 SFac= 1.00D+00 NAtFMM=   60 NAOKFM=F Big=F
 Integral buffers will be    131072 words long.
 Raffenetti 2 integral format.
 Two-electron integral symmetry is turned on.
 R6Disp:  Grimme-D3(BJ) Dispersion energy=       -0.0461972505 Hartrees.
 Nuclear repulsion after empirical dispersion term =     1012.4224131896 Hartrees.
 Leave Link  301 at Tue Sep 17 09:53:50 2024, MaxMem=  1342177280 cpu:               0.1 elap:               0.1
 (Enter /groups/ReismanLab/Software/Gaussian16_RevC/Linux_Binary_AVX2-enabled-CPU/g16/l302.exe)
 NPDir=0 NMtPBC=     1 NCelOv=     1 NCel=       1 NClECP=     1 NCelD=      1
         NCelK=      1 NCelE2=     1 NClLst=     1 CellRange=     0.0.
 One-electron integrals computed using PRISM.
 One-electron integral symmetry used in STVInt
 NBasis=   265 RedAO= T EigKep=  4.12D-04  NBF=   265
 NBsUse=   265 1.00D-06 EigRej= -1.00D+00 NBFU=   265
 Precomputing XC quadrature grid using
 IXCGrd= 4 IRadAn=           5 IRanWt=          -1 IRanGd=           0 AccXCQ= 0.00D+00.
 Generated NRdTot=       0 NPtTot=           0 NUsed=           0 NTot=          32
 NSgBfM=   262   262   262   262   262 MxSgAt=    24 MxSgA2=    24.
 Leave Link  302 at Tue Sep 17 09:53:50 2024, MaxMem=  1342177280 cpu:               1.4 elap:               0.3
 (Enter /groups/ReismanLab/Software/Gaussian16_RevC/Linux_Binary_AVX2-enabled-CPU/g16/l303.exe)
 DipDrv:  MaxL=1.
 Leave Link  303 at Tue Sep 17 09:53:51 2024, MaxMem=  1342177280 cpu:               0.1 elap:               0.1
 (Enter /groups/ReismanLab/Software/Gaussian16_RevC/Linux_Binary_AVX2-enabled-CPU/g16/l401.exe)
 ExpMin= 1.43D-01 ExpMax= 5.74D+05 ExpMxC= 5.74D+03 IAcc=3 IRadAn=         5 AccDes= 0.00D+00
 Harris functional with IExCor=  402 and IRadAn=       5 diagonalized for initial guess.
 HarFok:  IExCor=  402 AccDes= 0.00D+00 IRadAn=         5 IDoV= 1 UseB2=F ITyADJ=14
 ICtDFT=  3500011 ScaDFX=  1.000000  1.000000  1.000000  1.000000
 FoFCou: FMM=F IPFlag=           0 FMFlag=      100000 FMFlg1=           0
         NFxFlg=           0 DoJE=T BraDBF=F KetDBF=T FulRan=T
         wScrn=  0.000000 ICntrl=       500 IOpCl=  0 I1Cent=   200000004 NGrid=           0
         NMat0=    1 NMatS0=      1 NMatT0=    0 NMatD0=    1 NMtDS0=    0 NMtDT0=    0
 Petite list used in FoFCou.
 Harris En= -3110.06627699951    
 JPrj=0 DoOrth=F DoCkMO=F.
 Leave Link  401 at Tue Sep 17 09:53:52 2024, MaxMem=  1342177280 cpu:               7.3 elap:               1.0
 (Enter /groups/ReismanLab/Software/Gaussian16_RevC/Linux_Binary_AVX2-enabled-CPU/g16/l502.exe)
 Integral symmetry usage will be decided dynamically.
 Closed shell SCF:
 Using DIIS extrapolation, IDIIS=  1040.
 NGot=  1342177280 LenX=  1342031300 LenY=  1341960634
 Requested convergence on RMS density matrix=1.00D-08 within  32 cycles.
 Requested convergence on MAX density matrix=1.00D-06.
 Requested convergence on             energy=1.00D-06.
 No special actions if energy rises.
 Fock matrices will be formed incrementally for  20 cycles.
 Integral accuracy reduced to 1.0D-05 until final iterations.

 Cycle   1  Pass 0  IDiag  1:
 FoFJK:  IHMeth= 1 ICntrl=       0 DoSepK=F KAlg= 0 I1Cent=           0 FoldK=F
 IRaf= 810000000 NMat=       1 IRICut=       1 DoRegI=T DoRafI=F ISym2E= 0 IDoP0=0 IntGTp=1.
 FoFCou: FMM=F IPFlag=           0 FMFlag=      100000 FMFlg1=           0
         NFxFlg=           0 DoJE=F BraDBF=F KetDBF=F FulRan=T
         wScrn=  0.000000 ICntrl=         0 IOpCl=  0 I1Cent=           0 NGrid=           0
         NMat0=    1 NMatS0=      1 NMatT0=    0 NMatD0=    1 NMtDS0=    0 NMtDT0=    0
 Symmetry not used in FoFCou.
 E= -3109.59575066155    
 DIIS: error= 1.57D-01 at cycle   1 NSaved=   1.
 NSaved= 1 IEnMin= 1 EnMin= -3109.59575066155     IErMin= 1 ErrMin= 1.57D-01
 ErrMax= 1.57D-01  0.00D+00 EMaxC= 1.00D-01 BMatC= 6.87D-01 BMatP= 6.87D-01
 IDIUse=3 WtCom= 0.00D+00 WtEn= 1.00D+00
 Coeff-Com:  0.100D+01
 Coeff-En:   0.100D+01
 Coeff:      0.100D+01
 Gap=     0.292 Goal=   None    Shift=    0.000
 GapD=    0.292 DampG=1.000 DampE=0.250 DampFc=0.2500 IDamp=-1.
 Damping current iteration by 2.50D-01
 RMSDP=4.86D-03 MaxDP=1.85D-01              OVMax= 2.15D-01

 Cycle   2  Pass 0  IDiag  1:
 RMSU=  1.18D-03    CP:  9.92D-01
 E= -3109.71147762044     Delta-E=       -0.115726958894 Rises=F Damp=T
 DIIS: error= 1.16D-01 at cycle   2 NSaved=   2.
 NSaved= 2 IEnMin= 2 EnMin= -3109.71147762044     IErMin= 2 ErrMin= 1.16D-01
 ErrMax= 1.16D-01  0.00D+00 EMaxC= 1.00D-01 BMatC= 2.69D-01 BMatP= 6.87D-01
 IDIUse=3 WtCom= 0.00D+00 WtEn= 1.00D+00
 Coeff-Com: -0.110D+01 0.210D+01
 Coeff-En:   0.000D+00 0.100D+01
 Coeff:      0.000D+00 0.100D+01
 Gap=     0.244 Goal=   None    Shift=    0.000
 RMSDP=2.35D-03 MaxDP=1.11D-01 DE=-1.16D-01 OVMax= 1.11D-01

 Cycle   3  Pass 0  IDiag  1:
 RMSU=  1.02D-03    CP:  9.69D-01  2.65D+00
 E= -3109.85095570118     Delta-E=       -0.139478080735 Rises=F Damp=F
 DIIS: error= 1.27D-02 at cycle   3 NSaved=   3.
 NSaved= 3 IEnMin= 3 EnMin= -3109.85095570118     IErMin= 3 ErrMin= 1.27D-02
 ErrMax= 1.27D-02  0.00D+00 EMaxC= 1.00D-01 BMatC= 7.24D-02 BMatP= 2.69D-01
 IDIUse=3 WtCom= 8.73D-01 WtEn= 1.27D-01
 Coeff-Com:  0.769D+00-0.837D+00 0.107D+01
 Coeff-En:   0.125D+00 0.000D+00 0.875D+00
 Coeff:      0.688D+00-0.731D+00 0.104D+01
 Gap=     0.221 Goal=   None    Shift=    0.000
 RMSDP=1.45D-03 MaxDP=4.74D-02 DE=-1.39D-01 OVMax= 5.87D-02

 Cycle   4  Pass 0  IDiag  1:
 RMSU=  9.99D-04    CP:  9.71D-01  1.78D+00  8.55D-01
 E= -3109.89364366121     Delta-E=       -0.042687960031 Rises=F Damp=F
 DIIS: error= 7.91D-03 at cycle   4 NSaved=   4.
 NSaved= 4 IEnMin= 4 EnMin= -3109.89364366121     IErMin= 4 ErrMin= 7.91D-03
 ErrMax= 7.91D-03  0.00D+00 EMaxC= 1.00D-01 BMatC= 2.97D-02 BMatP= 7.24D-02
 IDIUse=3 WtCom= 9.21D-01 WtEn= 7.91D-02
 Coeff-Com:  0.649D+00-0.840D+00 0.716D+00 0.475D+00
 Coeff-En:   0.000D+00 0.000D+00 0.226D+00 0.774D+00
 Coeff:      0.597D+00-0.773D+00 0.677D+00 0.498D+00
 Gap=     0.222 Goal=   None    Shift=    0.000
 RMSDP=6.92D-04 MaxDP=2.47D-02 DE=-4.27D-02 OVMax= 5.41D-02

 Cycle   5  Pass 0  IDiag  1:
 RMSU=  1.77D-04    CP:  9.71D-01  1.91D+00  1.06D+00  3.83D-01
 E= -3109.91961018442     Delta-E=       -0.025966523208 Rises=F Damp=F
 DIIS: error= 1.71D-03 at cycle   5 NSaved=   5.
 NSaved= 5 IEnMin= 5 EnMin= -3109.91961018442     IErMin= 5 ErrMin= 1.71D-03
 ErrMax= 1.71D-03  0.00D+00 EMaxC= 1.00D-01 BMatC= 9.36D-04 BMatP= 2.97D-02
 IDIUse=3 WtCom= 9.83D-01 WtEn= 1.71D-02
 Coeff-Com:  0.263D+00-0.343D+00 0.299D+00 0.257D+00 0.524D+00
 Coeff-En:   0.000D+00 0.000D+00 0.000D+00 0.000D+00 0.100D+01
 Coeff:      0.259D+00-0.337D+00 0.294D+00 0.253D+00 0.532D+00
 Gap=     0.217 Goal=   None    Shift=    0.000
 RMSDP=1.27D-04 MaxDP=5.49D-03 DE=-2.60D-02 OVMax= 9.57D-03

 Cycle   6  Pass 0  IDiag  1:
 RMSU=  4.93D-05    CP:  9.71D-01  1.92D+00  1.05D+00  4.61D-01  5.15D-01
 E= -3109.92033357466     Delta-E=       -0.000723390241 Rises=F Damp=F
 DIIS: error= 4.80D-04 at cycle   6 NSaved=   6.
 NSaved= 6 IEnMin= 6 EnMin= -3109.92033357466     IErMin= 6 ErrMin= 4.80D-04
 ErrMax= 4.80D-04  0.00D+00 EMaxC= 1.00D-01 BMatC= 7.71D-05 BMatP= 9.36D-04
 IDIUse=3 WtCom= 9.95D-01 WtEn= 4.80D-03
 Coeff-Com:  0.674D-01-0.885D-01 0.739D-01 0.696D-01 0.275D+00 0.603D+00
 Coeff-En:   0.000D+00 0.000D+00 0.000D+00 0.000D+00 0.292D-01 0.971D+00
 Coeff:      0.671D-01-0.881D-01 0.736D-01 0.693D-01 0.274D+00 0.604D+00
 Gap=     0.217 Goal=   None    Shift=    0.000
 RMSDP=3.24D-05 MaxDP=1.54D-03 DE=-7.23D-04 OVMax= 2.02D-03

 Cycle   7  Pass 0  IDiag  1:
 RMSU=  1.97D-05    CP:  9.71D-01  1.92D+00  1.06D+00  4.57D-01  5.66D-01
                    CP:  5.72D-01
 E= -3109.92039437687     Delta-E=       -0.000060802217 Rises=F Damp=F
 DIIS: error= 9.58D-05 at cycle   7 NSaved=   7.
 NSaved= 7 IEnMin= 7 EnMin= -3109.92039437687     IErMin= 7 ErrMin= 9.58D-05
 ErrMax= 9.58D-05  0.00D+00 EMaxC= 1.00D-01 BMatC= 5.10D-06 BMatP= 7.71D-05
 IDIUse=1 WtCom= 1.00D+00 WtEn= 0.00D+00
 Coeff-Com:  0.206D-01-0.274D-01 0.212D-01 0.201D-01 0.107D+00 0.309D+00
 Coeff-Com:  0.549D+00
 Coeff:      0.206D-01-0.274D-01 0.212D-01 0.201D-01 0.107D+00 0.309D+00
 Coeff:      0.549D+00
 Gap=     0.217 Goal=   None    Shift=    0.000
 RMSDP=1.19D-05 MaxDP=3.64D-04 DE=-6.08D-05 OVMax= 8.93D-04

 Cycle   8  Pass 0  IDiag  1:
 RMSU=  6.47D-06    CP:  9.71D-01  1.92D+00  1.06D+00  4.54D-01  5.75D-01
                    CP:  6.36D-01  5.54D-01
 E= -3109.92039857073     Delta-E=       -0.000004193853 Rises=F Damp=F
 DIIS: error= 4.38D-05 at cycle   8 NSaved=   8.
 NSaved= 8 IEnMin= 8 EnMin= -3109.92039857073     IErMin= 8 ErrMin= 4.38D-05
 ErrMax= 4.38D-05  0.00D+00 EMaxC= 1.00D-01 BMatC= 5.55D-07 BMatP= 5.10D-06
 IDIUse=1 WtCom= 1.00D+00 WtEn= 0.00D+00
 Coeff-Com:  0.472D-02-0.632D-02 0.419D-02 0.351D-02 0.293D-01 0.106D+00
 Coeff-Com:  0.300D+00 0.558D+00
 Coeff:      0.472D-02-0.632D-02 0.419D-02 0.351D-02 0.293D-01 0.106D+00
 Coeff:      0.300D+00 0.558D+00
 Gap=     0.217 Goal=   None    Shift=    0.000
 RMSDP=3.73D-06 MaxDP=1.02D-04 DE=-4.19D-06 OVMax= 3.40D-04

 Initial convergence to 1.0D-05 achieved.  Increase integral accuracy.
 Cycle   9  Pass 1  IDiag  1:
 E= -3109.92040677124     Delta-E=       -0.000008200514 Rises=F Damp=F
 DIIS: error= 3.33D-05 at cycle   1 NSaved=   1.
 NSaved= 1 IEnMin= 1 EnMin= -3109.92040677124     IErMin= 1 ErrMin= 3.33D-05
 ErrMax= 3.33D-05  0.00D+00 EMaxC= 1.00D-01 BMatC= 2.03D-07 BMatP= 2.03D-07
 IDIUse=1 WtCom= 1.00D+00 WtEn= 0.00D+00
 Coeff-Com:  0.100D+01
 Coeff:      0.100D+01
 Gap=     0.217 Goal=   None    Shift=    0.000
 RMSDP=3.73D-06 MaxDP=1.02D-04 DE=-8.20D-06 OVMax= 2.55D-04

 Cycle  10  Pass 1  IDiag  1:
 RMSU=  1.67D-05    CP:  1.00D+00
 E= -3109.92040675380     Delta-E=        0.000000017444 Rises=F Damp=F
 DIIS: error= 2.74D-05 at cycle   2 NSaved=   2.
 NSaved= 2 IEnMin= 1 EnMin= -3109.92040677124     IErMin= 2 ErrMin= 2.74D-05
 ErrMax= 2.74D-05  0.00D+00 EMaxC= 1.00D-01 BMatC= 1.68D-07 BMatP= 2.03D-07
 IDIUse=1 WtCom= 1.00D+00 WtEn= 0.00D+00
 Coeff-Com:  0.469D+00 0.531D+00
 Coeff:      0.469D+00 0.531D+00
 Gap=     0.217 Goal=   None    Shift=    0.000
 RMSDP=2.53D-06 MaxDP=8.65D-05 DE= 1.74D-08 OVMax= 2.57D-04

 Cycle  11  Pass 1  IDiag  1:
 RMSU=  2.51D-06    CP:  1.00D+00  9.82D-01
 E= -3109.92040688614     Delta-E=       -0.000000132345 Rises=F Damp=F
 DIIS: error= 1.55D-05 at cycle   3 NSaved=   3.
 NSaved= 3 IEnMin= 3 EnMin= -3109.92040688614     IErMin= 3 ErrMin= 1.55D-05
 ErrMax= 1.55D-05  0.00D+00 EMaxC= 1.00D-01 BMatC= 4.69D-08 BMatP= 1.68D-07
 IDIUse=1 WtCom= 1.00D+00 WtEn= 0.00D+00
 Coeff-Com:  0.190D-01 0.344D+00 0.638D+00
 Coeff:      0.190D-01 0.344D+00 0.638D+00
 Gap=     0.217 Goal=   None    Shift=    0.000
 RMSDP=9.79D-07 MaxDP=2.70D-05 DE=-1.32D-07 OVMax= 1.01D-04

 Cycle  12  Pass 1  IDiag  1:
 RMSU=  3.59D-07    CP:  1.00D+00  9.97D-01  6.51D-01
 E= -3109.92040693737     Delta-E=       -0.000000051224 Rises=F Damp=F
 DIIS: error= 1.67D-06 at cycle   4 NSaved=   4.
 NSaved= 4 IEnMin= 4 EnMin= -3109.92040693737     IErMin= 4 ErrMin= 1.67D-06
 ErrMax= 1.67D-06  0.00D+00 EMaxC= 1.00D-01 BMatC= 1.81D-09 BMatP= 4.69D-08
 IDIUse=1 WtCom= 1.00D+00 WtEn= 0.00D+00
 Coeff-Com: -0.230D-02 0.179D+00 0.359D+00 0.465D+00
 Coeff:     -0.230D-02 0.179D+00 0.359D+00 0.465D+00
 Gap=     0.217 Goal=   None    Shift=    0.000
 RMSDP=1.85D-07 MaxDP=6.12D-06 DE=-5.12D-08 OVMax= 1.17D-05

 Cycle  13  Pass 1  IDiag  1:
 RMSU=  5.79D-08    CP:  1.00D+00  9.97D-01  6.66D-01  5.24D-01
 E= -3109.92040693915     Delta-E=       -0.000000001783 Rises=F Damp=F
 DIIS: error= 4.09D-07 at cycle   5 NSaved=   5.
 NSaved= 5 IEnMin= 5 EnMin= -3109.92040693915     IErMin= 5 ErrMin= 4.09D-07
 ErrMax= 4.09D-07  0.00D+00 EMaxC= 1.00D-01 BMatC= 3.56D-11 BMatP= 1.81D-09
 IDIUse=1 WtCom= 1.00D+00 WtEn= 0.00D+00
 Coeff-Com: -0.166D-02 0.855D-01 0.173D+00 0.245D+00 0.498D+00
 Coeff:     -0.166D-02 0.855D-01 0.173D+00 0.245D+00 0.498D+00
 Gap=     0.217 Goal=   None    Shift=    0.000
 RMSDP=2.40D-08 MaxDP=7.40D-07 DE=-1.78D-09 OVMax= 1.96D-06

 Cycle  14  Pass 1  IDiag  1:
 RMSU=  1.85D-08    CP:  1.00D+00  9.97D-01  6.65D-01  5.19D-01  7.53D-01
 E= -3109.92040693920     Delta-E=       -0.000000000053 Rises=F Damp=F
 DIIS: error= 1.12D-07 at cycle   6 NSaved=   6.
 NSaved= 6 IEnMin= 6 EnMin= -3109.92040693920     IErMin= 6 ErrMin= 1.12D-07
 ErrMax= 1.12D-07  0.00D+00 EMaxC= 1.00D-01 BMatC= 1.89D-12 BMatP= 3.56D-11
 IDIUse=1 WtCom= 1.00D+00 WtEn= 0.00D+00
 Coeff-Com: -0.731D-03 0.343D-01 0.697D-01 0.102D+00 0.260D+00 0.535D+00
 Coeff:     -0.731D-03 0.343D-01 0.697D-01 0.102D+00 0.260D+00 0.535D+00
 Gap=     0.217 Goal=   None    Shift=    0.000
 RMSDP=7.11D-09 MaxDP=1.86D-07 DE=-5.28D-11 OVMax= 5.21D-07

 SCF Done:  E(RB3LYP) =  -3109.92040694     A.U. after   14 cycles
            NFock= 14  Conv=0.71D-08     -V/T= 2.0066
 KE= 3.089527025439D+03 PE=-9.410748456554D+03 EE= 2.198878610986D+03
 Leave Link  502 at Tue Sep 17 09:54:07 2024, MaxMem=  1342177280 cpu:             117.1 elap:              15.6
 (Enter /groups/ReismanLab/Software/Gaussian16_RevC/Linux_Binary_AVX2-enabled-CPU/g16/l508.exe)
 QCSCF skips out because SCF is already converged.
 Leave Link  508 at Tue Sep 17 09:54:07 2024, MaxMem=  1342177280 cpu:               0.0 elap:               0.0
 (Enter /groups/ReismanLab/Software/Gaussian16_RevC/Linux_Binary_AVX2-enabled-CPU/g16/l601.exe)
 Copying SCF densities to generalized density rwf, IOpCl= 0 IROHF=0.

 **********************************************************************

            Population analysis using the SCF Density.

 **********************************************************************

 Orbital symmetries:
       Occupied  (A) (A) (A) (A) (A) (A) (A) (A) (A) (A) (A) (A)
                 (A) (A) (A) (A) (A) (A) (A) (A) (A) (A) (A) (A)
                 (A) (A) (A) (A) (A) (A) (A) (A) (A) (A) (A) (A)
                 (A) (A) (A) (A) (A) (A) (A) (A) (A) (A) (A) (A)
                 (A) (A) (A) (A) (A) (A) (A) (A) (A) (A) (A) (A)
                 (A)
       Virtual   (A) (A) (A) (A) (A) (A) (A) (A) (A) (A) (A) (A)
                 (A) (A) (A) (A) (A) (A) (A) (A) (A) (A) (A) (A)
                 (A) (A) (A) (A) (A) (A) (A) (A) (A) (A) (A) (A)
                 (A) (A) (A) (A) (A) (A) (A) (A) (A) (A) (A) (A)
                 (A) (A) (A) (A) (A) (A) (A) (A) (A) (A) (A) (A)
                 (A) (A) (A) (A) (A) (A) (A) (A) (A) (A) (A) (A)
                 (A) (A) (A) (A) (A) (A) (A) (A) (A) (A) (A) (A)
                 (A) (A) (A) (A) (A) (A) (A) (A) (A) (A) (A) (A)
                 (A) (A) (A) (A) (A) (A) (A) (A) (A) (A) (A) (A)
                 (A) (A) (A) (A) (A) (A) (A) (A) (A) (A) (A) (A)
                 (A) (A) (A) (A) (A) (A) (A) (A) (A) (A) (A) (A)
                 (A) (A) (A) (A) (A) (A) (A) (A) (A) (A) (A) (A)
                 (A) (A) (A) (A) (A) (A) (A) (A) (A) (A) (A) (A)
                 (A) (A) (A) (A) (A) (A) (A) (A) (A) (A) (A) (A)
                 (A) (A) (A) (A) (A) (A) (A) (A) (A) (A) (A) (A)
                 (A) (A) (A) (A) (A) (A) (A) (A) (A) (A) (A) (A)
                 (A) (A) (A) (A) (A) (A) (A) (A) (A) (A) (A) (A)
 The electronic state is 1-A.
 Alpha  occ. eigenvalues -- -482.90874 -61.87050 -56.39182 -56.38774 -56.38763
 Alpha  occ. eigenvalues --  -19.19523 -19.13632 -10.31693 -10.24593 -10.24497
 Alpha  occ. eigenvalues --  -10.20904 -10.20589 -10.20242 -10.20199 -10.19968
 Alpha  occ. eigenvalues --  -10.19854 -10.18370  -8.58196  -6.53586  -6.52321
 Alpha  occ. eigenvalues --   -6.52294  -2.65160  -2.64799  -2.64779  -2.63769
 Alpha  occ. eigenvalues --   -2.63769  -1.11281  -1.02244  -0.88332  -0.82210
 Alpha  occ. eigenvalues --   -0.78524  -0.76312  -0.75761  -0.70089  -0.65540
 Alpha  occ. eigenvalues --   -0.62543  -0.59314  -0.55967  -0.52006  -0.50605
 Alpha  occ. eigenvalues --   -0.49247  -0.47207  -0.46898  -0.45974  -0.44143
 Alpha  occ. eigenvalues --   -0.43679  -0.42288  -0.40528  -0.40041  -0.38890
 Alpha  occ. eigenvalues --   -0.38136  -0.37085  -0.35721  -0.35361  -0.34118
 Alpha  occ. eigenvalues --   -0.31137  -0.30313  -0.28499  -0.27628  -0.26523
 Alpha  occ. eigenvalues --   -0.23694
 Alpha virt. eigenvalues --   -0.02036  -0.01307   0.00968   0.02512   0.10573
 Alpha virt. eigenvalues --    0.11183   0.12100   0.12691   0.13151   0.14320
 Alpha virt. eigenvalues --    0.15319   0.15542   0.16543   0.17413   0.18350
 Alpha virt. eigenvalues --    0.18750   0.19261   0.21335   0.22504   0.23835
 Alpha virt. eigenvalues --    0.25959   0.28350   0.30147   0.31912   0.32970
 Alpha virt. eigenvalues --    0.34460   0.35865   0.42230   0.44893   0.46537
 Alpha virt. eigenvalues --    0.46576   0.46622   0.47506   0.47653   0.48968
 Alpha virt. eigenvalues --    0.49906   0.51262   0.52446   0.52715   0.53425
 Alpha virt. eigenvalues --    0.55100   0.56694   0.57133   0.58197   0.58257
 Alpha virt. eigenvalues --    0.60028   0.60844   0.61528   0.62402   0.64550
 Alpha virt. eigenvalues --    0.65099   0.66876   0.67894   0.70314   0.72081
 Alpha virt. eigenvalues --    0.73217   0.75456   0.76945   0.78545   0.79255
 Alpha virt. eigenvalues --    0.80525   0.81567   0.82191   0.83205   0.83425
 Alpha virt. eigenvalues --    0.84165   0.87103   0.87266   0.88366   0.89764
 Alpha virt. eigenvalues --    0.90187   0.90578   0.93603   0.96334   0.96676
 Alpha virt. eigenvalues --    0.99848   1.00930   1.01825   1.02878   1.06598
 Alpha virt. eigenvalues --    1.08439   1.08928   1.12621   1.14912   1.17842
 Alpha virt. eigenvalues --    1.20080   1.21718   1.23935   1.26157   1.28512
 Alpha virt. eigenvalues --    1.29961   1.31755   1.35420   1.38750   1.40366
 Alpha virt. eigenvalues --    1.41874   1.43032   1.44968   1.46085   1.53308
 Alpha virt. eigenvalues --    1.54165   1.56204   1.58004   1.61305   1.63375
 Alpha virt. eigenvalues --    1.66849   1.71170   1.73106   1.77489   1.78326
 Alpha virt. eigenvalues --    1.81138   1.82255   1.83716   1.84243   1.87295
 Alpha virt. eigenvalues --    1.89715   1.90983   1.91372   1.92625   1.95686
 Alpha virt. eigenvalues --    1.96497   1.97146   1.99382   1.99938   2.00461
 Alpha virt. eigenvalues --    2.04077   2.05261   2.06417   2.07094   2.08358
 Alpha virt. eigenvalues --    2.09332   2.10959   2.13274   2.15589   2.16816
 Alpha virt. eigenvalues --    2.18977   2.20119   2.24058   2.26252   2.29010
 Alpha virt. eigenvalues --    2.30663   2.31263   2.34059   2.35447   2.39295
 Alpha virt. eigenvalues --    2.40815   2.40917   2.42878   2.43930   2.44994
 Alpha virt. eigenvalues --    2.48064   2.48978   2.50909   2.54230   2.55987
 Alpha virt. eigenvalues --    2.59790   2.60152   2.62735   2.65427   2.68114
 Alpha virt. eigenvalues --    2.68696   2.70713   2.72566   2.74436   2.76466
 Alpha virt. eigenvalues --    2.77651   2.78803   2.82526   2.87049   2.88683
 Alpha virt. eigenvalues --    2.89057   2.92631   2.94455   2.98779   3.07071
 Alpha virt. eigenvalues --    3.07943   3.15995   3.20678   3.21506   3.25073
 Alpha virt. eigenvalues --    3.29162   3.30774   3.32217   3.36497   3.39418
 Alpha virt. eigenvalues --    3.47207   3.49005   3.52305   3.52854   3.81672
 Alpha virt. eigenvalues --    4.07718   4.11061   4.14730   4.16760   4.22949
 Alpha virt. eigenvalues --    4.30002   4.36165   4.43768   4.45822   4.60842
 Alpha virt. eigenvalues --    4.66762   4.83324   8.60902  72.81752
          Condensed to atoms (all electrons):
               1          2          3          4          5          6
     1  C    4.961214   0.370413  -0.038903  -0.005641  -0.004674  -0.000631
     2  C    0.370413   4.725605   0.203532  -0.019047   0.000084   0.007434
     3  O   -0.038903   0.203532   8.258848   0.266743  -0.081723  -0.097306
     4  C   -0.005641  -0.019047   0.266743   4.350472   0.557356   0.342418
     5  O   -0.004674   0.000084  -0.081723   0.557356   8.045045  -0.069477
     6  C   -0.000631   0.007434  -0.097306   0.342418  -0.069477   5.168745
     7  C   -0.000001  -0.000212  -0.002173  -0.036315  -0.005901   0.363305
     8  C    0.000001  -0.000028   0.000290  -0.003661   0.002721  -0.062986
     9  C   -0.000000  -0.000001   0.000003   0.000125   0.000029   0.006530
    10  C   -0.000000   0.000000   0.000000   0.000022   0.000002   0.000463
    11  Br   0.000000  -0.000000  -0.000000   0.000000  -0.000000   0.000004
    12  C    0.000000  -0.000002   0.000023   0.000059   0.000004   0.006815
    13  C    0.000004  -0.000142   0.002650  -0.004731  -0.000012  -0.059142
    14  H    0.370125  -0.026918   0.003126   0.000046   0.000018   0.000007
    15  H    0.384113  -0.034958   0.000475   0.000352   0.000107  -0.000007
    16  H    0.388826  -0.030405  -0.004412   0.003843   0.006039   0.000069
    17  H   -0.044894   0.391836  -0.036296   0.004826   0.000502  -0.000225
    18  H   -0.042776   0.378905  -0.034282  -0.007016   0.015743   0.000555
    19  H    0.000058  -0.000314   0.004606  -0.028794   0.002869   0.354235
    20  H    0.000027  -0.000184   0.002978  -0.030334   0.000112   0.366855
    21  H    0.000000  -0.000001   0.000026   0.000306   0.001862  -0.010212
    22  H    0.000000   0.000000   0.000000  -0.000002  -0.000000  -0.000183
    23  H    0.000000   0.000000  -0.000000  -0.000002   0.000000  -0.000179
    24  H    0.000002   0.000017   0.001531  -0.000082   0.000005  -0.010371
               7          8          9         10         11         12
     1  C   -0.000001   0.000001  -0.000000  -0.000000   0.000000   0.000000
     2  C   -0.000212  -0.000028  -0.000001   0.000000  -0.000000  -0.000002
     3  O   -0.002173   0.000290   0.000003   0.000000  -0.000000   0.000023
     4  C   -0.036315  -0.003661   0.000125   0.000022   0.000000   0.000059
     5  O   -0.005901   0.002721   0.000029   0.000002  -0.000000   0.000004
     6  C    0.363305  -0.062986   0.006530   0.000463   0.000004   0.006815
     7  C    4.706743   0.546482  -0.029029  -0.032375   0.000343  -0.028317
     8  C    0.546482   4.897144   0.492034  -0.030922   0.005623  -0.049668
     9  C   -0.029029   0.492034   4.893561   0.530237  -0.060590  -0.033633
    10  C   -0.032375  -0.030922   0.530237   4.797575   0.257749   0.531428
    11  Br   0.000343   0.005623  -0.060590   0.257749  34.993753  -0.060807
    12  C   -0.028317  -0.049668  -0.033633   0.531428  -0.060807   4.896741
    13  C    0.549904  -0.034636  -0.049859  -0.030979   0.005665   0.489130
    14  H    0.000000   0.000000  -0.000000  -0.000000   0.000000  -0.000000
    15  H    0.000001  -0.000000  -0.000000   0.000000   0.000000   0.000000
    16  H    0.000004  -0.000000   0.000000   0.000000   0.000000  -0.000000
    17  H    0.000017  -0.000001   0.000000  -0.000000   0.000000  -0.000000
    18  H   -0.000058  -0.000014  -0.000000   0.000000  -0.000000  -0.000000
    19  H   -0.026523   0.005014  -0.000172   0.000010  -0.000000   0.000207
    20  H   -0.024399  -0.006688   0.000171   0.000016  -0.000000  -0.000190
    21  H   -0.041363   0.369253  -0.038597   0.004513  -0.000154   0.000559
    22  H    0.004031  -0.035539   0.369753  -0.043234  -0.003536   0.005253
    23  H    0.004050   0.000584   0.005303  -0.043004  -0.003538   0.369371
    24  H   -0.041592   0.005719   0.000552   0.004580  -0.000158  -0.040253
              13         14         15         16         17         18
     1  C    0.000004   0.370125   0.384113   0.388826  -0.044894  -0.042776
     2  C   -0.000142  -0.026918  -0.034958  -0.030405   0.391836   0.378905
     3  O    0.002650   0.003126   0.000475  -0.004412  -0.036296  -0.034282
     4  C   -0.004731   0.000046   0.000352   0.003843   0.004826  -0.007016
     5  O   -0.000012   0.000018   0.000107   0.006039   0.000502   0.015743
     6  C   -0.059142   0.000007  -0.000007   0.000069  -0.000225   0.000555
     7  C    0.549904   0.000000   0.000001   0.000004   0.000017  -0.000058
     8  C   -0.034636   0.000000  -0.000000  -0.000000  -0.000001  -0.000014
     9  C   -0.049859  -0.000000  -0.000000   0.000000   0.000000  -0.000000
    10  C   -0.030979  -0.000000   0.000000   0.000000  -0.000000   0.000000
    11  Br   0.005665   0.000000   0.000000   0.000000   0.000000  -0.000000
    12  C    0.489130  -0.000000   0.000000  -0.000000  -0.000000  -0.000000
    13  C    4.900930  -0.000000   0.000000  -0.000000   0.000012   0.000026
    14  H   -0.000000   0.594727  -0.027383  -0.025909  -0.000723   0.000297
    15  H    0.000000  -0.027383   0.592201  -0.031348  -0.005738   0.005441
    16  H   -0.000000  -0.025909  -0.031348   0.557511   0.004953  -0.006386
    17  H    0.000012  -0.000723  -0.005738   0.004953   0.610637  -0.036144
    18  H    0.000026   0.000297   0.005441  -0.006386  -0.036144   0.595526
    19  H   -0.007167  -0.000000   0.000011  -0.000037  -0.000047   0.000005
    20  H    0.004154  -0.000000  -0.000000   0.000003   0.000002  -0.000001
    21  H    0.005605  -0.000000  -0.000000  -0.000000  -0.000000  -0.000000
    22  H    0.000623  -0.000000  -0.000000  -0.000000  -0.000000  -0.000000
    23  H   -0.036022  -0.000000  -0.000000  -0.000000  -0.000000  -0.000000
    24  H    0.368543  -0.000000   0.000000  -0.000000  -0.000013   0.000007
              19         20         21         22         23         24
     1  C    0.000058   0.000027   0.000000   0.000000   0.000000   0.000002
     2  C   -0.000314  -0.000184  -0.000001   0.000000   0.000000   0.000017
     3  O    0.004606   0.002978   0.000026   0.000000  -0.000000   0.001531
     4  C   -0.028794  -0.030334   0.000306  -0.000002  -0.000002  -0.000082
     5  O    0.002869   0.000112   0.001862  -0.000000   0.000000   0.000005
     6  C    0.354235   0.366855  -0.010212  -0.000183  -0.000179  -0.010371
     7  C   -0.026523  -0.024399  -0.041363   0.004031   0.004050  -0.041592
     8  C    0.005014  -0.006688   0.369253  -0.035539   0.000584   0.005719
     9  C   -0.000172   0.000171  -0.038597   0.369753   0.005303   0.000552
    10  C    0.000010   0.000016   0.004513  -0.043234  -0.043004   0.004580
    11  Br  -0.000000  -0.000000  -0.000154  -0.003536  -0.003538  -0.000158
    12  C    0.000207  -0.000190   0.000559   0.005253   0.369371  -0.040253
    13  C   -0.007167   0.004154   0.005605   0.000623  -0.036022   0.368543
    14  H   -0.000000  -0.000000  -0.000000  -0.000000  -0.000000  -0.000000
    15  H    0.000011  -0.000000  -0.000000  -0.000000  -0.000000   0.000000
    16  H   -0.000037   0.000003  -0.000000  -0.000000  -0.000000  -0.000000
    17  H   -0.000047   0.000002  -0.000000  -0.000000  -0.000000  -0.000013
    18  H    0.000005  -0.000001  -0.000000  -0.000000  -0.000000   0.000007
    19  H    0.592453  -0.028520   0.000107   0.000002  -0.000008   0.004641
    20  H   -0.028520   0.577790   0.004359  -0.000007   0.000003   0.000069
    21  H    0.000107   0.004359   0.606024  -0.006129   0.000018  -0.000201
    22  H    0.000002  -0.000007  -0.006129   0.599415  -0.000173   0.000018
    23  H   -0.000008   0.000003   0.000018  -0.000173   0.602069  -0.006259
    24  H    0.004641   0.000069  -0.000201   0.000018  -0.006259   0.617497
 Mulliken charges:
               1
     1  C   -0.337262
     2  C    0.034385
     3  O   -0.449735
     4  C    0.609055
     5  O   -0.470709
     6  C   -0.306715
     7  C    0.093380
     8  C   -0.100718
     9  C   -0.086417
    10  C    0.053917
    11  Br  -0.134353
    12  C   -0.086720
    13  C   -0.104557
    14  H    0.112587
    15  H    0.116731
    16  H    0.137247
    17  H    0.111296
    18  H    0.130171
    19  H    0.127362
    20  H    0.133784
    21  H    0.104025
    22  H    0.109708
    23  H    0.107789
    24  H    0.095749
 Sum of Mulliken charges =  -0.00000
 Mulliken charges with hydrogens summed into heavy atoms:
               1
     1  C    0.029304
     2  C    0.275852
     3  O   -0.449735
     4  C    0.609055
     5  O   -0.470709
     6  C   -0.045569
     7  C    0.093380
     8  C    0.003306
     9  C    0.023291
    10  C    0.053917
    11  Br  -0.134353
    12  C    0.021069
    13  C   -0.008809
 Electronic spatial extent (au):  <R**2>=           5143.4480
 Charge=              0.0000 electrons
 Dipole moment (field-independent basis, Debye):
    X=              1.8977    Y=             -0.7710    Z=              1.4653  Tot=              2.5185
 Quadrupole moment (field-independent basis, Debye-Ang):
   XX=            -87.1998   YY=            -83.6553   ZZ=            -88.0728
   XY=             -5.8701   XZ=              3.8874   YZ=              0.7982
 Traceless Quadrupole moment (field-independent basis, Debye-Ang):
   XX=             -0.8905   YY=              2.6540   ZZ=             -1.7635
   XY=             -5.8701   XZ=              3.8874   YZ=              0.7982
 Octapole moment (field-independent basis, Debye-Ang**2):
  XXX=            -46.0130  YYY=            -14.0519  ZZZ=             -8.1984  XYY=            -24.3184
  XXY=            -32.1081  XXZ=             -1.3911  XZZ=            -33.3070  YZZ=             -9.9205
  YYZ=             -4.2690  XYZ=             17.4318
 Hexadecapole moment (field-independent basis, Debye-Ang**3):
 XXXX=          -4750.5929 YYYY=           -565.9988 ZZZZ=           -377.6789 XXXY=            -40.2859
 XXXZ=             46.4625 YYYX=             41.4333 YYYZ=             -6.4739 ZZZX=             42.8836
 ZZZY=             -4.0774 XXYY=           -891.1420 XXZZ=           -897.5755 YYZZ=           -157.9233
 XXYZ=             40.2203 YYXZ=             16.1948 ZZXY=              7.1958
 N-N= 1.012422413190D+03 E-N=-9.410748448495D+03  KE= 3.089527025439D+03
 No NMR shielding tensors so no spin-rotation constants.
 Leave Link  601 at Tue Sep 17 09:54:07 2024, MaxMem=  1342177280 cpu:               0.7 elap:               0.1
 (Enter /groups/ReismanLab/Software/Gaussian16_RevC/Linux_Binary_AVX2-enabled-CPU/g16/l701.exe)
 ... and contract with generalized density number  0.
 Compute integral first derivatives.
 R6Disp: Adding Grimme-D3(BJ) dispersion energy 1st derivatives to the gradient.
 Leave Link  701 at Tue Sep 17 09:54:07 2024, MaxMem=  1342177280 cpu:               0.6 elap:               0.1
 (Enter /groups/ReismanLab/Software/Gaussian16_RevC/Linux_Binary_AVX2-enabled-CPU/g16/l702.exe)
 L702 exits ... SP integral derivatives will be done elsewhere.
 Leave Link  702 at Tue Sep 17 09:54:08 2024, MaxMem=  1342177280 cpu:               0.1 elap:               0.0
 (Enter /groups/ReismanLab/Software/Gaussian16_RevC/Linux_Binary_AVX2-enabled-CPU/g16/l703.exe)
 Integral derivatives from FoFJK, PRISM(SPDF).
 Compute integral first derivatives, UseDBF=F ICtDFT=           0.
 Calling FoFJK, ICntrl=      2127 FMM=F ISym2X=0 I1Cent= 0 IOpClX= 0 NMat=1 NMatS=1 NMatT=0.
 FoFJK:  IHMeth= 1 ICntrl=    2127 DoSepK=F KAlg= 0 I1Cent=           0 FoldK=F
 IRaf=         0 NMat=       1 IRICut=       1 DoRegI=T DoRafI=F ISym2E= 0 IDoP0=0 IntGTp=1.
 FoFCou: FMM=F IPFlag=           0 FMFlag=      100000 FMFlg1=         800
         NFxFlg=           0 DoJE=F BraDBF=F KetDBF=F FulRan=T
         wScrn=  0.000000 ICntrl=      2127 IOpCl=  0 I1Cent=           0 NGrid=           0
         NMat0=    1 NMatS0=      1 NMatT0=    0 NMatD0=    1 NMtDS0=    0 NMtDT0=    0
 Symmetry not used in FoFCou.
 Leave Link  703 at Tue Sep 17 09:54:12 2024, MaxMem=  1342177280 cpu:              35.9 elap:               4.6
 (Enter /groups/ReismanLab/Software/Gaussian16_RevC/Linux_Binary_AVX2-enabled-CPU/g16/l716.exe)
 Dipole        = 7.46625131D-01-3.03345998D-01 5.76473779D-01
 ***** Axes restored to original set *****
 -------------------------------------------------------------------
 Center     Atomic                   Forces (Hartrees/Bohr)
 Number     Number              X              Y              Z
 -------------------------------------------------------------------
      1        6          -0.006317870   -0.002499362    0.000359117
      2        6           0.004163916    0.009512455    0.002275145
      3        8          -0.001076013   -0.004225226   -0.014434119
      4        6          -0.001778790   -0.014804976   -0.001718428
      5        8           0.004485373    0.010172334    0.016753023
      6        6           0.001453290    0.005100817   -0.000322892
      7        6           0.002685300   -0.004941788   -0.000372178
      8        6           0.002540909   -0.000567112    0.002745673
      9        6          -0.004395973    0.001641788    0.005120693
     10        6          -0.006281062    0.001689175   -0.000257757
     11       35          -0.002452973    0.000564479   -0.000017886
     12        6          -0.004305070    0.001024864   -0.005498282
     13        6           0.002321247   -0.001060755   -0.002630029
     14        1           0.003118592    0.004329073   -0.000882360
     15        1           0.002548105   -0.002185098   -0.002852879
     16        1           0.001503582   -0.000531110    0.003117079
     17        1          -0.000965354    0.000328998    0.000253041
     18        1          -0.000569014   -0.000051577   -0.001840300
     19        1           0.000786719   -0.002580101   -0.000326327
     20        1           0.001887006   -0.000741668    0.000308554
     21        1           0.002282466   -0.000205326    0.003788161
     22        1          -0.001993446    0.000571277    0.002628758
     23        1          -0.001943362    0.000226067   -0.002694198
     24        1           0.002302421   -0.000767228   -0.003501612
 -------------------------------------------------------------------
 Cartesian Forces:  Max     0.016753023 RMS     0.004390793
 Leave Link  716 at Tue Sep 17 09:54:12 2024, MaxMem=  1342177280 cpu:               0.1 elap:               0.0
 (Enter /groups/ReismanLab/Software/Gaussian16_RevC/Linux_Binary_AVX2-enabled-CPU/g16/l103.exe)

 GradGradGradGradGradGradGradGradGradGradGradGradGradGradGradGradGradGrad
 Berny optimization.
 FormGI is forming the generalized inverse of G from B-inverse, IUseBI=4.
 Internal  Forces:  Max     0.020105822 RMS     0.003745443
 Search for a local minimum.
 Step number   1 out of a maximum of  124
 All quantities printed in internal units (Hartrees-Bohrs-Radians)
 RMS Force = .37454D-02 SwitMx=.10000D-02 MixMth= 1
 Mixed Optimization -- RFO/linear search
 Second derivative matrix not updated -- first step.
 ITU=  0
     Eigenvalues ---    0.00483   0.00497   0.00703   0.01027   0.01289
     Eigenvalues ---    0.01617   0.02235   0.02265   0.02273   0.02293
     Eigenvalues ---    0.02298   0.02303   0.02307   0.02309   0.02581
     Eigenvalues ---    0.05054   0.05680   0.05731   0.05756   0.05834
     Eigenvalues ---    0.06705   0.08926   0.11667   0.12593   0.13859
     Eigenvalues ---    0.16000   0.16000   0.16000   0.16000   0.16000
     Eigenvalues ---    0.16000   0.16000   0.17963   0.21999   0.22007
     Eigenvalues ---    0.22098   0.22979   0.23993   0.24970   0.24982
     Eigenvalues ---    0.25000   0.25000   0.25000   0.30230   0.30334
     Eigenvalues ---    0.31882   0.34270   0.34605   0.34878   0.34959
     Eigenvalues ---    0.35116   0.35136   0.35271   0.36029   0.36074
     Eigenvalues ---    0.36096   0.36107   0.40930   0.43527   0.43594
     Eigenvalues ---    0.47605   0.47902   0.48401   0.48588   0.58861
     Eigenvalues ---    1.04337
 RFO step:  Lambda=-3.55043034D-03 EMin= 4.82510120D-03
 Linear search not attempted -- first point.
 Iteration  1 RMS(Cart)=  0.03505041 RMS(Int)=  0.00024183
 Iteration  2 RMS(Cart)=  0.00062351 RMS(Int)=  0.00007548
 Iteration  3 RMS(Cart)=  0.00000026 RMS(Int)=  0.00007548
 ITry= 1 IFail=0 DXMaxC= 1.10D-01 DCOld= 1.00D+10 DXMaxT= 3.00D-01 DXLimC= 3.00D+00 Rises=F
 Variable       Old X    -DE/DX   Delta X   Delta X   Delta X     New X
                                 (Linear)    (Quad)   (Total)
    R1        2.87508   0.00089   0.00000   0.00291   0.00291   2.87799
    R2        2.05236   0.00532   0.00000   0.01493   0.01493   2.06729
    R3        2.05488   0.00425   0.00000   0.01197   0.01197   2.06685
    R4        2.05455   0.00339   0.00000   0.00955   0.00955   2.06410
    R5        2.70309   0.00943   0.00000   0.02285   0.02285   2.72594
    R6        2.06321   0.00012   0.00000   0.00034   0.00034   2.06355
    R7        2.06878  -0.00110   0.00000  -0.00317  -0.00317   2.06561
    R8        2.51853   0.01496   0.00000   0.02526   0.02526   2.54379
    R9        2.26951   0.02011   0.00000   0.01920   0.01920   2.28871
   R10        2.87302   0.00252   0.00000   0.00822   0.00822   2.88124
   R11        2.84361   0.00866   0.00000   0.02685   0.02685   2.87046
   R12        2.05741   0.00180   0.00000   0.00510   0.00510   2.06250
   R13        2.05873   0.00106   0.00000   0.00302   0.00302   2.06175
   R14        2.62667   0.00915   0.00000   0.01920   0.01920   2.64587
   R15        2.62570   0.00929   0.00000   0.01947   0.01947   2.64517
   R16        2.61293   0.01105   0.00000   0.02255   0.02255   2.63549
   R17        2.03967   0.00442   0.00000   0.01214   0.01214   2.05181
   R18        2.61584   0.00856   0.00000   0.01756   0.01756   2.63340
   R19        2.03915   0.00333   0.00000   0.00912   0.00912   2.04827
   R20        3.60173   0.00252   0.00000   0.01374   0.01374   3.61547
   R21        2.61549   0.00852   0.00000   0.01749   0.01749   2.63298
   R22        2.61343   0.01109   0.00000   0.02268   0.02268   2.63611
   R23        2.03931   0.00330   0.00000   0.00907   0.00907   2.04838
   R24        2.04036   0.00425   0.00000   0.01169   0.01169   2.05205
    A1        1.91197   0.00087   0.00000   0.00382   0.00382   1.91579
    A2        1.92506   0.00117   0.00000   0.00781   0.00778   1.93285
    A3        1.91911   0.00068   0.00000   0.00499   0.00496   1.92407
    A4        1.90410  -0.00123   0.00000  -0.00916  -0.00917   1.89493
    A5        1.90029  -0.00093   0.00000  -0.00700  -0.00700   1.89329
    A6        1.90303  -0.00060   0.00000  -0.00079  -0.00083   1.90220
    A7        1.94454  -0.00082   0.00000  -0.00236  -0.00237   1.94217
    A8        1.94150   0.00081   0.00000   0.00376   0.00375   1.94526
    A9        1.92491   0.00115   0.00000   0.01009   0.01008   1.93499
   A10        1.83224  -0.00032   0.00000  -0.00583  -0.00582   1.82642
   A11        1.89857   0.00021   0.00000   0.00401   0.00399   1.90256
   A12        1.91972  -0.00114   0.00000  -0.01065  -0.01065   1.90907
   A13        2.04653  -0.00213   0.00000  -0.00840  -0.00840   2.03812
   A14        2.17828  -0.00044   0.00000  -0.00237  -0.00266   2.17562
   A15        1.92856   0.00095   0.00000   0.00315   0.00287   1.93142
   A16        2.17535  -0.00053   0.00000  -0.00263  -0.00291   2.17244
   A17        1.85998   0.00712   0.00000   0.03747   0.03729   1.89727
   A18        1.90706  -0.00080   0.00000   0.00518   0.00489   1.91195
   A19        1.89574  -0.00328   0.00000  -0.01971  -0.01981   1.87593
   A20        1.93471  -0.00190   0.00000  -0.00249  -0.00283   1.93188
   A21        1.93185  -0.00061   0.00000   0.00155   0.00167   1.93352
   A22        1.93255  -0.00031   0.00000  -0.02016  -0.02025   1.91231
   A23        2.09839   0.00061   0.00000   0.00239   0.00239   2.10078
   A24        2.10373   0.00120   0.00000   0.00474   0.00474   2.10847
   A25        2.08007  -0.00182   0.00000  -0.00737  -0.00737   2.07270
   A26        2.10679   0.00102   0.00000   0.00439   0.00440   2.11118
   A27        2.08860  -0.00070   0.00000  -0.00335  -0.00335   2.08525
   A28        2.08778  -0.00033   0.00000  -0.00107  -0.00107   2.08670
   A29        2.07865   0.00008   0.00000   0.00015   0.00015   2.07880
   A30        2.10491   0.00034   0.00000   0.00226   0.00226   2.10717
   A31        2.09963  -0.00042   0.00000  -0.00241  -0.00241   2.09722
   A32        2.08463   0.00009   0.00000   0.00045   0.00045   2.08508
   A33        2.11527  -0.00035   0.00000  -0.00159  -0.00159   2.11367
   A34        2.08329   0.00026   0.00000   0.00114   0.00114   2.08443
   A35        2.07864  -0.00004   0.00000  -0.00036  -0.00036   2.07828
   A36        2.09942  -0.00039   0.00000  -0.00230  -0.00230   2.09712
   A37        2.10512   0.00043   0.00000   0.00267   0.00267   2.10779
   A38        2.10686   0.00111   0.00000   0.00481   0.00482   2.11168
   A39        2.09047  -0.00080   0.00000  -0.00392  -0.00392   2.08655
   A40        2.08586  -0.00031   0.00000  -0.00089  -0.00090   2.08496
    D1        3.08241  -0.00035   0.00000  -0.00958  -0.00959   3.07282
    D2        1.04451   0.00005   0.00000  -0.00321  -0.00321   1.04130
    D3       -1.09052   0.00015   0.00000   0.00076   0.00076  -1.08976
    D4        0.98630  -0.00010   0.00000  -0.00556  -0.00556   0.98074
    D5       -1.05160   0.00030   0.00000   0.00081   0.00082  -1.05078
    D6        3.09655   0.00039   0.00000   0.00478   0.00479   3.10134
    D7       -1.11304  -0.00054   0.00000  -0.01275  -0.01277  -1.12580
    D8        3.13225  -0.00014   0.00000  -0.00638  -0.00639   3.12586
    D9        0.99722  -0.00004   0.00000  -0.00241  -0.00242   0.99480
   D10        1.45591   0.00016   0.00000  -0.00013  -0.00014   1.45577
   D11       -2.72390   0.00050   0.00000  -0.00045  -0.00045  -2.72435
   D12       -0.66969  -0.00089   0.00000  -0.01394  -0.01394  -0.68363
   D13        0.00171  -0.00050   0.00000  -0.00585  -0.00585  -0.00414
   D14        3.09719  -0.00110   0.00000  -0.04874  -0.04873   3.04845
   D15       -1.55605   0.00041   0.00000   0.02832   0.02812  -1.52793
   D16        0.53532   0.00180   0.00000   0.04966   0.04973   0.58505
   D17        2.64523  -0.00106   0.00000   0.01622   0.01633   2.66156
   D18        1.53953  -0.00018   0.00000  -0.01447  -0.01466   1.52486
   D19       -2.65229   0.00120   0.00000   0.00686   0.00695  -2.64535
   D20       -0.54239  -0.00166   0.00000  -0.02658  -0.02645  -0.56884
   D21       -1.47286   0.00096   0.00000   0.02233   0.02232  -1.45055
   D22        1.62042   0.00081   0.00000   0.01648   0.01645   1.63687
   D23        2.73694  -0.00129   0.00000  -0.00495  -0.00499   2.73195
   D24       -0.45297  -0.00144   0.00000  -0.01080  -0.01086  -0.46382
   D25        0.58540   0.00088   0.00000   0.02151   0.02159   0.60699
   D26       -2.60450   0.00072   0.00000   0.01566   0.01572  -2.58878
   D27        3.10777  -0.00017   0.00000  -0.00797  -0.00796   3.09981
   D28       -0.02716  -0.00007   0.00000  -0.00425  -0.00424  -0.03140
   D29        0.01384  -0.00010   0.00000  -0.00254  -0.00254   0.01130
   D30       -3.12109  -0.00000   0.00000   0.00119   0.00118  -3.11991
   D31       -3.10900   0.00020   0.00000   0.00877   0.00876  -3.10024
   D32        0.03196   0.00011   0.00000   0.00555   0.00554   0.03750
   D33       -0.01522   0.00012   0.00000   0.00325   0.00325  -0.01197
   D34        3.12574   0.00003   0.00000   0.00003   0.00003   3.12577
   D35       -0.00421   0.00002   0.00000   0.00043   0.00044  -0.00377
   D36        3.13914  -0.00001   0.00000  -0.00068  -0.00067   3.13847
   D37        3.13073  -0.00008   0.00000  -0.00330  -0.00330   3.12743
   D38       -0.00911  -0.00011   0.00000  -0.00441  -0.00441  -0.01352
   D39        3.13858  -0.00004   0.00000  -0.00163  -0.00163   3.13695
   D40       -0.00432   0.00003   0.00000   0.00094   0.00094  -0.00338
   D41       -0.00477  -0.00001   0.00000  -0.00052  -0.00052  -0.00528
   D42        3.13552   0.00006   0.00000   0.00205   0.00205   3.13758
   D43        0.00297  -0.00001   0.00000  -0.00024  -0.00024   0.00273
   D44       -3.13709  -0.00007   0.00000  -0.00240  -0.00240  -3.13950
   D45       -3.13992   0.00006   0.00000   0.00233   0.00233  -3.13759
   D46        0.00320   0.00000   0.00000   0.00016   0.00016   0.00336
   D47        0.00692  -0.00005   0.00000  -0.00183  -0.00184   0.00508
   D48       -3.13404   0.00004   0.00000   0.00138   0.00138  -3.13267
   D49       -3.13620   0.00001   0.00000   0.00033   0.00033  -3.13587
   D50        0.00602   0.00009   0.00000   0.00354   0.00355   0.00957
         Item               Value     Threshold  Converged?
 Maximum Force            0.020106     0.000450     NO 
 RMS     Force            0.003745     0.000300     NO 
 Maximum Displacement     0.109889     0.001800     NO 
 RMS     Displacement     0.035092     0.001200     NO 
 Predicted change in Energy=-1.808567D-03
 Lowest energy point so far.  Saving SCF results.
 GradGradGradGradGradGradGradGradGradGradGradGradGradGradGradGradGradGrad

 Leave Link  103 at Tue Sep 17 09:54:12 2024, MaxMem=  1342177280 cpu:               0.1 elap:               0.0
 (Enter /groups/ReismanLab/Software/Gaussian16_RevC/Linux_Binary_AVX2-enabled-CPU/g16/l202.exe)
                          Input orientation:                          
 ---------------------------------------------------------------------
 Center     Atomic      Atomic             Coordinates (Angstroms)
 Number     Number       Type             X           Y           Z
 ---------------------------------------------------------------------
      1          6           0        5.548577    1.597256   -0.965615
      2          6           0        4.034822    1.700060   -1.097531
      3          8           0        3.409798    0.405542   -0.977605
      4          6           0        3.178491   -0.042916    0.270355
      5          8           0        3.461006    0.559820    1.282155
      6          6           0        2.400297   -1.353593    0.235439
      7          6           0        0.915081   -1.037426    0.196956
      8          6           0        0.219522   -0.760345    1.380090
      9          6           0       -1.132730   -0.420086    1.354517
     10          6           0       -1.791779   -0.353038    0.128508
     11         35           0       -3.648716    0.105279    0.082038
     12          6           0       -1.121404   -0.615684   -1.064360
     13          6           0        0.231274   -0.953865   -1.021554
     14          1           0        6.001794    2.579294   -1.129787
     15          1           0        5.955065    0.898460   -1.702294
     16          1           0        5.818229    1.254596    0.035853
     17          1           0        3.743479    2.056666   -2.087671
     18          1           0        3.622008    2.366655   -0.335927
     19          1           0        2.694763   -1.929803   -0.643475
     20          1           0        2.654402   -1.909822    1.138982
     21          1           0        0.743539   -0.801835    2.330132
     22          1           0       -1.668274   -0.209125    2.272950
     23          1           0       -1.648700   -0.557167   -2.009606
     24          1           0        0.761894   -1.151645   -1.948106
 ---------------------------------------------------------------------
                    Distance matrix (angstroms):
                    1          2          3          4          5
     1  C    0.000000
     2  C    1.522966   0.000000
     3  O    2.448408   1.442503   0.000000
     4  C    3.136096   2.375371   1.346114   0.000000
     5  O    3.238318   2.700430   2.265600   1.211134   0.000000
     6  C    4.479030   3.711237   2.363287   1.524689   2.425256
     7  C    5.455494   4.347679   3.112132   2.473350   3.195401
     8  C    6.281675   5.171916   4.134716   3.240634   3.501377
     9  C    7.354764   6.100095   5.172525   4.461422   4.697644
    10  C    7.673434   6.298228   5.371716   4.981956   5.454903
    11  Br   9.376234   7.935456   7.143922   6.831411   7.224613
    12  C    7.028194   5.652472   4.645667   4.538571   5.280760
    13  C    5.897886   4.638542   3.457301   3.344390   4.246114
    14  H    1.093964   2.154778   3.386267   4.099686   4.043680
    15  H    1.093729   2.166941   2.691937   3.533681   3.904093
    16  H    1.092276   2.159523   2.747460   2.950720   2.755447
    17  H    2.174499   1.091983   2.017375   3.207452   3.698117
    18  H    2.167983   1.093071   2.074307   2.523950   2.430796
    19  H    4.548425   3.895873   2.465107   2.151608   3.239352
    20  H    5.010506   4.465288   3.226682   2.124739   2.601969
    21  H    6.301268   5.370373   4.416766   3.278357   3.215118
    22  H    8.113831   6.894232   6.060589   5.246822   5.280385
    23  H    7.585002   6.182991   5.251689   5.363250   6.180004
    24  H    5.606610   4.423546   3.221505   3.462772   4.544107
                    6          7          8          9         10
     6  C    0.000000
     7  C    1.518983   0.000000
     8  C    2.533367   1.400137   0.000000
     9  C    3.821787   2.431992   1.394639   0.000000
    10  C    4.311154   2.792878   2.403683   1.393535   0.000000
    11  Br   6.224339   4.706084   4.171032   2.867995   1.913224
    12  C    3.825751   2.432294   2.791835   2.426798   1.393312
    13  C    2.538597   1.399765   2.409457   2.791262   2.403411
    14  H    5.504745   6.380875   7.133536   8.128313   8.421500
    15  H    4.632810   5.723307   6.719314   7.830676   8.058020
    16  H    4.304038   5.414812   6.100204   7.270438   7.778516
    17  H    4.339453   4.774177   5.690272   6.462227   6.430957
    18  H    3.957181   4.381688   4.929478   5.764639   6.076309
    19  H    1.091429   2.161001   3.404301   4.573939   4.817801
    20  H    1.091031   2.161880   2.703345   4.075309   4.818004
    21  H    2.727090   2.152991   1.085770   2.148941   3.387685
    22  H    4.691965   3.416074   2.159819   1.083897   2.152811
    23  H    4.697755   3.416509   3.875767   3.406220   2.152596
    24  H    2.737338   2.153556   3.394727   3.877125   3.386938
                   11         12         13         14         15
    11  Br   0.000000
    12  C    2.867285   0.000000
    13  C    4.170615   1.394969   0.000000
    14  H   10.036015   7.807184   6.767113   0.000000
    15  H    9.800285   7.264710   6.054444   1.776275   0.000000
    16  H    9.536567   7.270965   6.099957   1.774046   1.779526
    17  H    7.947333   5.644086   4.747156   2.508120   2.526078
    18  H    7.625742   5.650214   4.795103   2.517699   3.076639
    19  H    6.701317   4.057978   2.676597   5.612923   4.444067
[...]
 Alpha  occ. eigenvalues --  -10.55205 -10.52835  -9.02600  -6.85004  -6.84135
 Alpha  occ. eigenvalues --   -6.84116  -2.88380  -2.88065  -2.88042  -2.87232
 Alpha  occ. eigenvalues --   -2.87232  -1.23260  -1.14171  -0.98453  -0.91821
 Alpha  occ. eigenvalues --   -0.87873  -0.85649  -0.84970  -0.79170  -0.73607
 Alpha  occ. eigenvalues --   -0.70738  -0.67209  -0.64157  -0.59690  -0.58157
 Alpha  occ. eigenvalues --   -0.57418  -0.54578  -0.54032  -0.53057  -0.50852
 Alpha  occ. eigenvalues --   -0.50018  -0.49204  -0.47092  -0.46531  -0.45794
 Alpha  occ. eigenvalues --   -0.44435  -0.43469  -0.41772  -0.41147  -0.40430
 Alpha  occ. eigenvalues --   -0.37807  -0.37539  -0.35613  -0.35121  -0.32117
 Alpha  occ. eigenvalues --   -0.29439
 Alpha virt. eigenvalues --    0.00341   0.00748   0.03620   0.04949   0.07856
 Alpha virt. eigenvalues --    0.09483   0.10452   0.10879   0.11451   0.12574
 Alpha virt. eigenvalues --    0.13172   0.14016   0.14855   0.15035   0.16149
 Alpha virt. eigenvalues --    0.16581   0.16633   0.17249   0.17954   0.19243
 Alpha virt. eigenvalues --    0.20651   0.21549   0.22132   0.23178   0.23954
 Alpha virt. eigenvalues --    0.24261   0.25256   0.25531   0.26411   0.26644
 Alpha virt. eigenvalues --    0.27017   0.27402   0.28211   0.29302   0.30755
 Alpha virt. eigenvalues --    0.30999   0.32260   0.32561   0.33092   0.33581
 Alpha virt. eigenvalues --    0.34566   0.35123   0.35251   0.36480   0.37316
 Alpha virt. eigenvalues --    0.38189   0.39632   0.39811   0.40363   0.41331
 Alpha virt. eigenvalues --    0.41473   0.42127   0.43308   0.43909   0.44484
 Alpha virt. eigenvalues --    0.44830   0.45738   0.46293   0.46969   0.47315
 Alpha virt. eigenvalues --    0.47375   0.48198   0.48865   0.49269   0.50178
 Alpha virt. eigenvalues --    0.51215   0.51480   0.52927   0.54109   0.54382
 Alpha virt. eigenvalues --    0.55466   0.56067   0.56882   0.57641   0.58348
 Alpha virt. eigenvalues --    0.59827   0.60639   0.62299   0.63003   0.64376
 Alpha virt. eigenvalues --    0.64460   0.66291   0.68073   0.68985   0.69674
 Alpha virt. eigenvalues --    0.70190   0.72107   0.72848   0.73875   0.74853
 Alpha virt. eigenvalues --    0.76248   0.77101   0.78188   0.79224   0.80542
 Alpha virt. eigenvalues --    0.81472   0.84281   0.84526   0.85451   0.87167
 Alpha virt. eigenvalues --    0.88405   0.89280   0.89950   0.91271   0.91819
 Alpha virt. eigenvalues --    0.94623   0.95680   0.96600   0.97778   0.98305
 Alpha virt. eigenvalues --    0.99540   1.00646   1.02236   1.03571   1.05885
 Alpha virt. eigenvalues --    1.07198   1.08178   1.08932   1.09356   1.11040
 Alpha virt. eigenvalues --    1.11785   1.13802   1.15112   1.15961   1.17479
 Alpha virt. eigenvalues --    1.20097   1.20492   1.21654   1.23056   1.23637
 Alpha virt. eigenvalues --    1.24213   1.25370   1.26184   1.27278   1.27987
 Alpha virt. eigenvalues --    1.30028   1.31819   1.33737   1.36453   1.38754
 Alpha virt. eigenvalues --    1.39278   1.40212   1.42296   1.42867   1.45416
 Alpha virt. eigenvalues --    1.46132   1.47660   1.48789   1.49551   1.50692
 Alpha virt. eigenvalues --    1.52287   1.52951   1.54012   1.54496   1.54967
 Alpha virt. eigenvalues --    1.56473   1.57409   1.58029   1.59508   1.59857
 Alpha virt. eigenvalues --    1.60197   1.60589   1.60903   1.62081   1.62933
 Alpha virt. eigenvalues --    1.63864   1.65581   1.66448   1.66759   1.67197
 Alpha virt. eigenvalues --    1.67706   1.69000   1.71952   1.73497   1.74180
 Alpha virt. eigenvalues --    1.74762   1.74982   1.75794   1.77637   1.78182
 Alpha virt. eigenvalues --    1.79603   1.81975   1.83434   1.84090   1.85568
 Alpha virt. eigenvalues --    1.86395   1.87144   1.89039   1.89714   1.91338
 Alpha virt. eigenvalues --    1.93011   1.93129   1.94084   1.94595   1.94785
 Alpha virt. eigenvalues --    1.96567   1.99006   2.01415   2.02367   2.04539
 Alpha virt. eigenvalues --    2.07584   2.08817   2.10671   2.12115   2.13172
 Alpha virt. eigenvalues --    2.15848   2.17231   2.18391   2.19648   2.20880
 Alpha virt. eigenvalues --    2.22104   2.25175   2.26658   2.29157   2.29516
 Alpha virt. eigenvalues --    2.31032   2.33315   2.34868   2.35546   2.37071
 Alpha virt. eigenvalues --    2.37429   2.38878   2.41214   2.44043   2.44309
 Alpha virt. eigenvalues --    2.46113   2.46698   2.48010   2.49067   2.51671
 Alpha virt. eigenvalues --    2.52881   2.55447   2.57337   2.57652   2.59744
 Alpha virt. eigenvalues --    2.60539   2.60960   2.61913   2.62478   2.63258
 Alpha virt. eigenvalues --    2.63981   2.64636   2.66289   2.68226   2.69128
 Alpha virt. eigenvalues --    2.70443   2.71217   2.72172   2.73083   2.75656
 Alpha virt. eigenvalues --    2.77084   2.77522   2.78379   2.80637   2.82461
 Alpha virt. eigenvalues --    2.82755   2.83579   2.83775   2.84720   2.86046
 Alpha virt. eigenvalues --    2.88152   2.89408   2.91940   2.93784   2.96273
 Alpha virt. eigenvalues --    2.96637   2.97395   2.99461   3.00672   3.02773
 Alpha virt. eigenvalues --    3.03392   3.04392   3.04839   3.06293   3.07479
 Alpha virt. eigenvalues --    3.08137   3.09780   3.10670   3.12378   3.13277
 Alpha virt. eigenvalues --    3.13969   3.14693   3.15705   3.15895   3.18576
 Alpha virt. eigenvalues --    3.18657   3.20482   3.21475   3.22548   3.23990
 Alpha virt. eigenvalues --    3.25659   3.25742   3.26893   3.28221   3.29356
 Alpha virt. eigenvalues --    3.29900   3.31828   3.32854   3.33296   3.35404
 Alpha virt. eigenvalues --    3.36424   3.37772   3.38232   3.39192   3.41020
 Alpha virt. eigenvalues --    3.41722   3.42659   3.43673   3.44492   3.45386
 Alpha virt. eigenvalues --    3.45933   3.46968   3.48102   3.48765   3.50656
 Alpha virt. eigenvalues --    3.52443   3.52875   3.54954   3.55660   3.56724
 Alpha virt. eigenvalues --    3.57910   3.61579   3.62420   3.63511   3.67177
 Alpha virt. eigenvalues --    3.72118   3.74843   3.75264   3.76213   3.76892
 Alpha virt. eigenvalues --    3.79416   3.82033   3.83511   3.86805   3.87405
 Alpha virt. eigenvalues --    3.88203   3.91862   3.93081   3.95759   3.98526
 Alpha virt. eigenvalues --    3.99860   4.02579   4.04449   4.05983   4.07389
 Alpha virt. eigenvalues --    4.09392   4.11980   4.13981   4.15626   4.16731
 Alpha virt. eigenvalues --    4.17867   4.19459   4.21728   4.22776   4.23040
 Alpha virt. eigenvalues --    4.24940   4.27148   4.27669   4.32751   4.34500
 Alpha virt. eigenvalues --    4.36777   4.37723   4.39523   4.42296   4.43476
 Alpha virt. eigenvalues --    4.46480   4.50328   4.50917   4.51324   4.54863
 Alpha virt. eigenvalues --    4.57727   4.60579   4.62137   4.64742   4.72253
 Alpha virt. eigenvalues --    4.74562   4.80565   4.82025   4.83133   4.86449
 Alpha virt. eigenvalues --    4.91672   4.93064   5.10023   5.13277   5.19186
 Alpha virt. eigenvalues --    5.22904   5.28675   5.31972   5.33676   5.41514
 Alpha virt. eigenvalues --    5.42153   5.49585   5.53252   5.61851   5.69503
 Alpha virt. eigenvalues --    5.82255   5.97933   6.03113   6.11075   6.17829
 Alpha virt. eigenvalues --    6.36630   6.38241   6.50752   6.64261   6.65861
 Alpha virt. eigenvalues --    6.79261   6.80649   6.91623   6.99411   7.10547
 Alpha virt. eigenvalues --    7.23207   7.36755   7.85188  22.09698  22.42408
 Alpha virt. eigenvalues --   22.53128  22.61363  22.72936  22.76501  22.81046
 Alpha virt. eigenvalues --   22.88376  23.27322  23.40016  44.05185  44.32556
          Condensed to atoms (all electrons):
               1          2          3          4          5          6
     1  C    5.094513   0.276057  -0.027777  -0.000345  -0.016468  -0.000421
     2  C    0.276057   4.959451   0.181204  -0.054198   0.009016   0.005908
     3  O   -0.027777   0.181204   7.989446   0.351280  -0.083470  -0.088437
     4  C   -0.000345  -0.054198   0.351280   4.503563   0.613982   0.282414
     5  O   -0.016468   0.009016  -0.083470   0.613982   7.903682  -0.075776
     6  C   -0.000421   0.005908  -0.088437   0.282414  -0.075776   5.256055
     7  C   -0.000055   0.000471   0.002879  -0.004907  -0.029353   0.272438
     8  C    0.000052  -0.000369  -0.000250  -0.002668   0.012248  -0.077776
     9  C    0.000004  -0.000019   0.000069   0.002312   0.000379   0.007437
    10  C   -0.000001   0.000008   0.000067   0.000153   0.000188  -0.004180
    11  Br   0.000000  -0.000000  -0.000000   0.000011   0.000000  -0.000078
    12  C    0.000001  -0.000008  -0.000364  -0.001145  -0.000095   0.015750
    13  C    0.000009  -0.000049   0.003240   0.001345   0.000783  -0.067318
    14  H    0.405749  -0.040037   0.004533   0.000515   0.000200  -0.000009
    15  H    0.397703  -0.033718   0.002010  -0.002420   0.000513  -0.000571
    16  H    0.412930  -0.038207  -0.004103   0.005202   0.005099   0.001889
    17  H   -0.036605   0.404108  -0.032144   0.006038   0.001390   0.001041
    18  H   -0.062216   0.436975  -0.035732  -0.011262   0.009635  -0.000544
    19  H    0.000253  -0.000742   0.006262  -0.034190   0.004563   0.425090
    20  H    0.000221  -0.000391   0.003407  -0.046637   0.001237   0.421665
    21  H    0.000009  -0.000078   0.000592  -0.003995   0.015129   0.000849
    22  H    0.000000   0.000000  -0.000001  -0.000002  -0.000047   0.000035
    23  H    0.000000  -0.000000  -0.000006  -0.000010  -0.000000   0.000096
    24  H    0.000000  -0.000009   0.000013  -0.000704   0.000011  -0.004091
               7          8          9         10         11         12
     1  C   -0.000055   0.000052   0.000004  -0.000001   0.000000   0.000001
     2  C    0.000471  -0.000369  -0.000019   0.000008  -0.000000  -0.000008
     3  O    0.002879  -0.000250   0.000069   0.000067  -0.000000  -0.000364
     4  C   -0.004907  -0.002668   0.002312   0.000153   0.000011  -0.001145
     5  O   -0.029353   0.012248   0.000379   0.000188   0.000000  -0.000095
     6  C    0.272438  -0.077776   0.007437  -0.004180  -0.000078   0.015750
     7  C    5.059569   0.401631  -0.014787  -0.072108  -0.005995  -0.010795
     8  C    0.401631   5.138636   0.393083   0.030405   0.023644  -0.100757
     9  C   -0.014787   0.393083   5.134617   0.392451  -0.103729   0.031975
    10  C   -0.072108   0.030405   0.392451   4.913639   0.366306   0.399384
    11  Br  -0.005995   0.023644  -0.103729   0.366306  34.931659  -0.101067
    12  C   -0.010795  -0.100757   0.031975   0.399384  -0.101067   5.135979
    13  C    0.456803   0.003884  -0.100429   0.030726   0.022641   0.381394
    14  H   -0.000001   0.000002  -0.000000  -0.000000   0.000000   0.000000
    15  H    0.000013  -0.000001  -0.000000   0.000000  -0.000000  -0.000000
    16  H    0.000066  -0.000020  -0.000001   0.000000   0.000000  -0.000000
    17  H    0.000303  -0.000018  -0.000003  -0.000001   0.000000  -0.000003
    18  H   -0.000688   0.000343  -0.000070   0.000017  -0.000000  -0.000027
    19  H   -0.054409   0.012692  -0.000436   0.000067   0.000001   0.001384
    20  H   -0.035556  -0.011483  -0.000667   0.000468  -0.000002  -0.001197
    21  H   -0.033201   0.393797  -0.018750   0.002481  -0.000220  -0.000778
    22  H    0.007732  -0.033342   0.419919  -0.047953  -0.007987   0.011806
    23  H    0.007030  -0.003853   0.012656  -0.046399  -0.007342   0.420399
    24  H   -0.031569   0.007985  -0.000635   0.002118  -0.000293  -0.026125
              13         14         15         16         17         18
     1  C    0.000009   0.405749   0.397703   0.412930  -0.036605  -0.062216
     2  C   -0.000049  -0.040037  -0.033718  -0.038207   0.404108   0.436975
     3  O    0.003240   0.004533   0.002010  -0.004103  -0.032144  -0.035732
     4  C    0.001345   0.000515  -0.002420   0.005202   0.006038  -0.011262
     5  O    0.000783   0.000200   0.000513   0.005099   0.001390   0.009635
     6  C   -0.067318  -0.000009  -0.000571   0.001889   0.001041  -0.000544
     7  C    0.456803  -0.000001   0.000013   0.000066   0.000303  -0.000688
     8  C    0.003884   0.000002  -0.000001  -0.000020  -0.000018   0.000343
     9  C   -0.100429  -0.000000  -0.000000  -0.000001  -0.000003  -0.000070
    10  C    0.030726  -0.000000   0.000000   0.000000  -0.000001   0.000017
    11  Br   0.022641   0.000000  -0.000000   0.000000   0.000000  -0.000000
    12  C    0.381394   0.000000  -0.000000  -0.000000  -0.000003  -0.000027
    13  C    5.088133  -0.000001   0.000006  -0.000003  -0.000021   0.000150
    14  H   -0.000001   0.520051  -0.019028  -0.022361  -0.002906   0.001636
    15  H    0.000006  -0.019028   0.529925  -0.025913  -0.005511   0.007411
    16  H   -0.000003  -0.022361  -0.025913   0.499919   0.005305  -0.005050
    17  H   -0.000021  -0.002906  -0.005511   0.005305   0.533818  -0.025352
    18  H    0.000150   0.001636   0.007411  -0.005050  -0.025352   0.527801
    19  H   -0.008855   0.000001   0.000038  -0.000129  -0.000240   0.000088
    20  H    0.006465  -0.000006   0.000013  -0.000035  -0.000009  -0.000035
    21  H    0.006201   0.000000  -0.000000  -0.000002  -0.000000   0.000022
    22  H   -0.003234  -0.000000  -0.000000  -0.000000  -0.000000  -0.000000
    23  H   -0.035598   0.000000  -0.000000  -0.000000   0.000000   0.000000
    24  H    0.402370  -0.000000   0.000000  -0.000000   0.000001   0.000005
              19         20         21         22         23         24
     1  C    0.000253   0.000221   0.000009   0.000000   0.000000   0.000000
     2  C   -0.000742  -0.000391  -0.000078   0.000000  -0.000000  -0.000009
     3  O    0.006262   0.003407   0.000592  -0.000001  -0.000006   0.000013
     4  C   -0.034190  -0.046637  -0.003995  -0.000002  -0.000010  -0.000704
     5  O    0.004563   0.001237   0.015129  -0.000047  -0.000000   0.000011
     6  C    0.425090   0.421665   0.000849   0.000035   0.000096  -0.004091
     7  C   -0.054409  -0.035556  -0.033201   0.007732   0.007030  -0.031569
     8  C    0.012692  -0.011483   0.393797  -0.033342  -0.003853   0.007985
     9  C   -0.000436  -0.000667  -0.018750   0.419919   0.012656  -0.000635
    10  C    0.000067   0.000468   0.002481  -0.047953  -0.046399   0.002118
    11  Br   0.000001  -0.000002  -0.000220  -0.007987  -0.007342  -0.000293
    12  C    0.001384  -0.001197  -0.000778   0.011806   0.420399  -0.026125
    13  C   -0.008855   0.006465   0.006201  -0.003234  -0.035598   0.402370
    14  H    0.000001  -0.000006   0.000000  -0.000000   0.000000  -0.000000
    15  H    0.000038   0.000013  -0.000000  -0.000000  -0.000000   0.000000
    16  H   -0.000129  -0.000035  -0.000002  -0.000000  -0.000000  -0.000000
    17  H   -0.000240  -0.000009  -0.000000  -0.000000   0.000000   0.000001
    18  H    0.000088  -0.000035   0.000022  -0.000000   0.000000   0.000005
    19  H    0.491279  -0.016757   0.000343   0.000001  -0.000051   0.000705
    20  H   -0.016757   0.486618   0.000663  -0.000021  -0.000001   0.000319
    21  H    0.000343   0.000663   0.450541  -0.002815   0.000037  -0.000164
    22  H    0.000001  -0.000021  -0.002815   0.474059   0.000051   0.000056
    23  H   -0.000051  -0.000001   0.000037   0.000051   0.475686  -0.002696
    24  H    0.000705   0.000319  -0.000164   0.000056  -0.002696   0.484013
 Mulliken charges:
               1
     1  C   -0.443614
     2  C   -0.105373
     3  O   -0.272718
     4  C    0.395667
     5  O   -0.372846
     6  C   -0.371465
     7  C    0.084487
     8  C   -0.187863
     9  C   -0.155378
    10  C    0.032160
    11  Br  -0.117551
    12  C   -0.155710
    13  C   -0.188641
    14  H    0.151661
    15  H    0.149531
    16  H    0.165414
    17  H    0.150809
    18  H    0.156896
    19  H    0.173044
    20  H    0.191719
    21  H    0.189339
    22  H    0.181742
    23  H    0.180000
    24  H    0.168691
 Sum of Mulliken charges =  -0.00000
 Mulliken charges with hydrogens summed into heavy atoms:
               1
     1  C    0.022992
     2  C    0.202332
     3  O   -0.272718
     4  C    0.395667
     5  O   -0.372846
     6  C   -0.006702
     7  C    0.084487
     8  C    0.001475
     9  C    0.026363
    10  C    0.032160
    11  Br  -0.117551
    12  C    0.024290
    13  C   -0.019951
 Electronic spatial extent (au):  <R**2>=           5419.4050
 Charge=             -0.0000 electrons
 Dipole moment (field-independent basis, Debye):
    X=              2.5009    Y=             -1.8603    Z=             -0.7121  Tot=              3.1972
 Quadrupole moment (field-independent basis, Debye-Ang):
   XX=            -87.8264   YY=            -86.3635   ZZ=            -88.1268
   XY=             -3.4452   XZ=             -5.5653   YZ=             -1.2568
 Traceless Quadrupole moment (field-independent basis, Debye-Ang):
   XX=             -0.3875   YY=              1.0754   ZZ=             -0.6879
   XY=             -3.4452   XZ=             -5.5653   YZ=             -1.2568
 Octapole moment (field-independent basis, Debye-Ang**2):
  XXX=            -22.8029  YYY=              1.6685  ZZZ=            -17.7573  XYY=            -40.3630
  XXY=             -2.1282  XXZ=            -38.4539  XZZ=            -17.2398  YZZ=              4.4532
  YYZ=             -7.5661  XYZ=            -18.0619
 Hexadecapole moment (field-independent basis, Debye-Ang**3):
 XXXX=          -5150.8904 YYYY=           -450.8881 ZZZZ=           -440.5380 XXXY=            -34.6877
 XXXZ=            -86.6778 YYYX=            -46.6086 YYYZ=             10.1003 ZZZX=             33.7860
 ZZZY=             -1.8176 XXYY=           -993.8619 XXZZ=           -940.8954 YYZZ=           -155.2403
 XXYZ=            -42.1565 YYXZ=              9.2306 ZZXY=            -15.2517
 N-N= 1.000206993851D+03 E-N=-9.407034427278D+03  KE= 3.106165425322D+03
 Calculating spin-rotation constants.
 Leave Link  601 at Tue Sep 17 11:08:50 2024, MaxMem=  1342177280 cpu:               6.3 elap:               6.3
 (Enter /groups/ReismanLab/Software/Gaussian16_RevC/Linux_Binary_AVX2-enabled-CPU/g16/l9999.exe)
 Unable to Open any file for archive entry.
 1\1\GINC-HPC-53-04\SP\RM062X\def2TZVP\C10H11Br1O2\MANTIND\17-Sep-2024\
 0\\#p M062X/def2tzvp geom=check guess=read scf(xqc,tight) integral(gri
 d=ultrafine) scrf(SMD, solvent=1,4-Dioxane) nmr=giao\\spe\\0,1\C,0,5.6
 736932683,1.59446647,-0.7469681987\C,0,4.1869233826,1.8065285703,-0.97
 59503854\O,0,3.4809995744,0.5417478656,-1.038010704\C,0,3.1382186204,-
 0.0055198894,0.1442263265\O,0,3.3900358698,0.4837433134,1.2257409867\C
 ,0,2.344136322,-1.2845726631,-0.0513527458\C,0,0.8564626578,-0.9997228
 366,0.0407080061\C,0,0.3106916594,-0.4734488086,1.2182581649\C,0,-1.05
 18492808,-0.2036588854,1.3145832348\C,0,-1.8734706774,-0.4627975764,0.
 2191673377\Br,0,-3.745644871,-0.098927048,0.3441423071\C,0,-1.35567225
 41,-0.9803094564,-0.9639159143\C,0,0.0119021723,-1.243105718,-1.045040
 6441\H,0,6.1959217632,2.5558992967,-0.7814394162\H,0,6.0962668263,0.94
 5333441,-1.5191196252\H,0,5.847784218,1.1434611668,0.232313461\H,0,3.9
 89257942,2.2722441639,-1.9435151416\H,0,3.7467407724,2.4132519037,-0.1
 814844911\H,0,2.5873332964,-1.7269523855,-1.0188693724\H,0,2.647266003
 2,-1.9757031831,0.7406349928\H,0,0.9642176058,-0.2610688197,2.05819777
 12\H,0,-1.4728323383,0.203038715,2.226482983\H,0,-2.0083674718,-1.1728
 494336,-1.8071384708\H,0,0.4224240928,-1.6438006557,-1.9672069488\\Ver
 sion=ES64L-G16RevC.02\State=1-A\HF=-3112.3367405\RMSD=5.175e-09\Dipole
 =0.9431809,-0.1470759,-0.8191911\Quadrupole=-1.5012029,1.3599534,0.141
 2495,1.0839928,-4.6699933,-0.0337013\PG=C01 [X(C10H11Br1O2)]\\@
 The archive entry for this job was punched.


 THE ONLY DIFFERENCE BETWEEN ECCENTRICS AND JOGGERS
 IS THAT JOGGERS WEAR SWEATBANDS WHEN THEY RUN IN THE RAIN.
 Job cpu time:       0 days  0 hours 18 minutes 56.8 seconds.
 Elapsed time:       0 days  0 hours 19 minutes  1.9 seconds.
 File lengths (MBytes):  RWF=    320 Int=      0 D2E=      0 Chk=     32 Scr=     16
 Normal termination of Gaussian 16 at Tue Sep 17 11:08:50 2024.
