 Entering Gaussian System, Link 0=g16
 Input=smiles_00114_conf_0.gjf
 Output=smiles_00114_conf_0.log
 Initial command:
 /groups/ReismanLab/Software/Gaussian16_RevC/Linux_Binary_AVX2-enabled-CPU/g16/l1.exe "/central/groups/ReismanLab/DM/dft_final/smiles_00114/Gau-198182.inp" -scrdir="/central/groups/ReismanLab/DM/dft_final/smiles_00114/"
 Entering Link 1 = /groups/ReismanLab/Software/Gaussian16_RevC/Linux_Binary_AVX2-enabled-CPU/g16/l1.exe PID=    198189.
  
 Copyright (c) 1988-2021, Gaussian, Inc.  All Rights Reserved.
  
 This is part of the Gaussian(R) 16 program.  It is based on
 the Gaussian(R) 09 system (copyright 2009, Gaussian, Inc.),
 the Gaussian(R) 03 system (copyright 2003, Gaussian, Inc.),
 the Gaussian(R) 98 system (copyright 1998, Gaussian, Inc.),
 the Gaussian(R) 94 system (copyright 1995, Gaussian, Inc.),
 the Gaussian 92(TM) system (copyright 1992, Gaussian, Inc.),
 the Gaussian 90(TM) system (copyright 1990, Gaussian, Inc.),
 the Gaussian 88(TM) system (copyright 1988, Gaussian, Inc.),
 the Gaussian 86(TM) system (copyright 1986, Carnegie Mellon
 University), and the Gaussian 82(TM) system (copyright 1983,
 Carnegie Mellon University). Gaussian is a federally registered
 trademark of Gaussian, Inc.
  
 This software contains proprietary and confidential information,
 including trade secrets, belonging to Gaussian, Inc.
  
 This software is provided under written license and may be
 used, copied, transmitted, or stored only in accord with that
 written license.
  
 The following legend is applicable only to US Government
 contracts under FAR:
  
                    RESTRICTED RIGHTS LEGEND
  
 Use, reproduction and disclosure by the US Government is
 subject to restrictions as set forth in subparagraphs (a)
 and (c) of the Commercial Computer Software - Restricted
 Rights clause in FAR 52.227-19.
  
 Gaussian, Inc.
 340 Quinnipiac St., Bldg. 40, Wallingford CT 06492
  
  
 ---------------------------------------------------------------
 Warning -- This program may not be used in any manner that
 competes with the business of Gaussian, Inc. or will provide
 assistance to any competitor of Gaussian, Inc.  The licensee
 of this program is prohibited from giving any competitor of
 Gaussian, Inc. access to this program.  By using this program,
 the user acknowledges that Gaussian, Inc. is engaged in the
 business of creating and licensing software in the field of
 computational chemistry and represents and warrants to the
 licensee that it is not a competitor of Gaussian, Inc. and that
 it will not use this program in any manner prohibited above.
 ---------------------------------------------------------------
  

 Cite this work as:
 Gaussian 16, Revision C.02,
 M. J. Frisch, G. W. Trucks, H. B. Schlegel, G. E. Scuseria, 
 M. A. Robb, J. R. Cheeseman, G. Scalmani, V. Barone, 
 G. A. Petersson, H. Nakatsuji, X. Li, M. Caricato, A. V. Marenich, 
 J. Bloino, B. G. Janesko, R. Gomperts, B. Mennucci, H. P. Hratchian, 
 J. V. Ortiz, A. F. Izmaylov, J. L. Sonnenberg, D. Williams-Young, 
 F. Ding, F. Lipparini, F. Egidi, J. Goings, B. Peng, A. Petrone, 
 T. Henderson, D. Ranasinghe, V. G. Zakrzewski, J. Gao, N. Rega, 
 G. Zheng, W. Liang, M. Hada, M. Ehara, K. Toyota, R. Fukuda, 
 J. Hasegawa, M. Ishida, T. Nakajima, Y. Honda, O. Kitao, H. Nakai, 
 T. Vreven, K. Throssell, J. A. Montgomery, Jr., J. E. Peralta, 
 F. Ogliaro, M. J. Bearpark, J. J. Heyd, E. N. Brothers, K. N. Kudin, 
 V. N. Staroverov, T. A. Keith, R. Kobayashi, J. Normand, 
 K. Raghavachari, A. P. Rendell, J. C. Burant, S. S. Iyengar, 
 J. Tomasi, M. Cossi, J. M. Millam, M. Klene, C. Adamo, R. Cammi, 
 J. W. Ochterski, R. L. Martin, K. Morokuma, O. Farkas, 
 J. B. Foresman, and D. J. Fox, Gaussian, Inc., Wallingford CT, 2019.
 
 ******************************************
 Gaussian 16:  ES64L-G16RevC.02  7-Dec-2021
                17-Sep-2024 
 ******************************************
 %nprocshared=8
 Will use up to    8 processors via shared memory.
 %Mem=10GB
 %Chk=smiles_00114_conf_0.chk
 ----------------------------------------------------------------------
 #p B3LYP/6-31G(d,p) EmpiricalDispersion=GD3BJ opt freq scf(xqc,tight) 
 integral(grid=ultrafine)
 ----------------------------------------------------------------------
 1/18=20,19=15,26=4,38=1/1,3;
 2/9=110,12=2,17=6,18=5,40=1/2;
 3/5=1,6=6,7=101,11=2,25=1,30=1,71=1,74=-5,75=-5,124=41/1,2,3;
 4//1;
 5/5=2,8=3,13=1,32=2,38=5/2,8;
 6/7=2,8=2,9=2,10=2,28=1/1;
 7//1,2,3,16;
 1/18=20,19=15,26=4/3(2);
 2/9=110/2;
 99//99;
 2/9=110/2;
 3/5=1,6=6,7=101,11=2,25=1,30=1,71=1,74=-5,75=-5,124=41/1,2,3;
 4/5=5,16=3,69=1/1;
 5/5=2,8=3,13=1,32=2,38=5/2,8;
 7//1,2,3,16;
 1/18=20,19=15,26=4/3(-5);
 2/9=110/2;
 6/7=2,8=2,9=2,10=2,19=2,28=1/1;
 99/9=1/99;
 Leave Link    1 at Tue Sep 17 09:51:24 2024, MaxMem=  1342177280 cpu:               0.1 elap:               0.7
 (Enter /groups/ReismanLab/Software/Gaussian16_RevC/Linux_Binary_AVX2-enabled-CPU/g16/l101.exe)
 ----------------------------------
 opt-freq conformers_unique/conf_aa
 ----------------------------------
 Symbolic Z-matrix:
 Charge =  0 Multiplicity = 1
 Br                    2.54718   0.19501  -0.00005 
 C                     0.69155   0.07531   0.00007 
 N                    -0.07196   1.09367   0.0001 
 C                    -1.38754   0.73006   0.00009 
 C                    -2.47121   1.60312   0.00006 
 C                    -3.74479   1.076     0.00002 
 C                    -3.95507  -0.30179  -0.00017 
 C                    -2.89452  -1.18682  -0.00013 
 C                    -1.61199  -0.66582  -0.00001 
 S                    -0.0888   -1.50824   0.00012 
 H                    -2.29175   2.66579  -0.00003 
 H                    -4.59559   1.74004  -0.00007 
 H                    -4.96364  -0.6859   -0.00012 
 H                    -3.05431  -2.25342  -0.00013 
 
 ITRead=  0  0  0  0  0  0  0  0  0  0  0  0  0  0
 MicOpt= -1 -1 -1 -1 -1 -1 -1 -1 -1 -1 -1 -1 -1 -1
 NAtoms=     14 NQM=       14 NQMF=       0 NMMI=      0 NMMIF=      0
                NMic=       0 NMicF=      0.
                    Isotopes and Nuclear Properties:
 (Nuclear quadrupole moments (NQMom) in fm**2, nuclear magnetic moments (NMagM)
  in nuclear magnetons)

  Atom         1           2           3           4           5           6           7           8           9          10
 IAtWgt=          79          12          14          12          12          12          12          12          12          32
 AtmWgt=  78.9183361  12.0000000  14.0030740  12.0000000  12.0000000  12.0000000  12.0000000  12.0000000  12.0000000  31.9720718
 NucSpn=           3           0           2           0           0           0           0           0           0           0
 AtZEff=  -0.0000000  -0.0000000  -0.0000000  -0.0000000  -0.0000000  -0.0000000  -0.0000000  -0.0000000  -0.0000000  -0.0000000
 NQMom=   31.3000000   0.0000000   2.0440000   0.0000000   0.0000000   0.0000000   0.0000000   0.0000000   0.0000000   0.0000000
 NMagM=    2.1063990   0.0000000   0.4037610   0.0000000   0.0000000   0.0000000   0.0000000   0.0000000   0.0000000   0.0000000
 AtZNuc=  35.0000000   6.0000000   7.0000000   6.0000000   6.0000000   6.0000000   6.0000000   6.0000000   6.0000000  16.0000000

  Atom        11          12          13          14
 IAtWgt=           1           1           1           1
 AtmWgt=   1.0078250   1.0078250   1.0078250   1.0078250
 NucSpn=           1           1           1           1
 AtZEff=  -0.0000000  -0.0000000  -0.0000000  -0.0000000
 NQMom=    0.0000000   0.0000000   0.0000000   0.0000000
 NMagM=    2.7928460   2.7928460   2.7928460   2.7928460
 AtZNuc=   1.0000000   1.0000000   1.0000000   1.0000000
 Leave Link  101 at Tue Sep 17 09:51:24 2024, MaxMem=  1342177280 cpu:               0.4 elap:               0.4
 (Enter /groups/ReismanLab/Software/Gaussian16_RevC/Linux_Binary_AVX2-enabled-CPU/g16/l103.exe)

 GradGradGradGradGradGradGradGradGradGradGradGradGradGradGradGradGradGrad
 Berny optimization.
 Initialization pass.
                           ----------------------------
                           !    Initial Parameters    !
                           ! (Angstroms and Degrees)  !
 --------------------------                            --------------------------
 ! Name  Definition              Value          Derivative Info.                !
 --------------------------------------------------------------------------------
 ! R1    R(1,2)                  1.8595         estimate D2E/DX2                !
 ! R2    R(2,3)                  1.2728         estimate D2E/DX2                !
 ! R3    R(2,10)                 1.7654         estimate D2E/DX2                !
 ! R4    R(3,4)                  1.3649         estimate D2E/DX2                !
 ! R5    R(4,5)                  1.3916         estimate D2E/DX2                !
 ! R6    R(4,9)                  1.4138         estimate D2E/DX2                !
 ! R7    R(5,6)                  1.3784         estimate D2E/DX2                !
 ! R8    R(5,11)                 1.0777         estimate D2E/DX2                !
 ! R9    R(6,7)                  1.3937         estimate D2E/DX2                !
 ! R10   R(6,12)                 1.0793         estimate D2E/DX2                !
 ! R11   R(7,8)                  1.3813         estimate D2E/DX2                !
 ! R12   R(7,13)                 1.0792         estimate D2E/DX2                !
 ! R13   R(8,9)                  1.3843         estimate D2E/DX2                !
 ! R14   R(8,14)                 1.0785         estimate D2E/DX2                !
 ! R15   R(9,10)                 1.7406         estimate D2E/DX2                !
 ! A1    A(1,2,3)              123.1695         estimate D2E/DX2                !
 ! A2    A(1,2,10)             119.9243         estimate D2E/DX2                !
 ! A3    A(3,2,10)             116.9061         estimate D2E/DX2                !
 ! A4    A(2,3,4)              111.4101         estimate D2E/DX2                !
 ! A5    A(3,4,5)              125.693          estimate D2E/DX2                !
 ! A6    A(3,4,9)              114.5851         estimate D2E/DX2                !
 ! A7    A(5,4,9)              119.722          estimate D2E/DX2                !
 ! A8    A(4,5,6)              118.6591         estimate D2E/DX2                !
 ! A9    A(4,5,11)             119.2712         estimate D2E/DX2                !
 ! A10   A(6,5,11)             122.0697         estimate D2E/DX2                !
 ! A11   A(5,6,7)              121.1619         estimate D2E/DX2                !
 ! A12   A(5,6,12)             119.5442         estimate D2E/DX2                !
 ! A13   A(7,6,12)             119.2939         estimate D2E/DX2                !
 ! A14   A(6,7,8)              121.1671         estimate D2E/DX2                !
 ! A15   A(6,7,13)             119.5272         estimate D2E/DX2                !
 ! A16   A(8,7,13)             119.3057         estimate D2E/DX2                !
 ! A17   A(7,8,9)              118.047          estimate D2E/DX2                !
 ! A18   A(7,8,14)             121.3244         estimate D2E/DX2                !
 ! A19   A(9,8,14)             120.6286         estimate D2E/DX2                !
 ! A20   A(4,9,8)              121.243          estimate D2E/DX2                !
 ! A21   A(4,9,10)             109.8105         estimate D2E/DX2                !
 ! A22   A(8,9,10)             128.9466         estimate D2E/DX2                !
 ! A23   A(2,10,9)              87.2882         estimate D2E/DX2                !
 ! D1    D(1,2,3,4)            179.9956         estimate D2E/DX2                !
 ! D2    D(10,2,3,4)            -0.0036         estimate D2E/DX2                !
 ! D3    D(1,2,10,9)          -179.9929         estimate D2E/DX2                !
 ! D4    D(3,2,10,9)             0.0064         estimate D2E/DX2                !
 ! D5    D(2,3,4,5)           -179.9971         estimate D2E/DX2                !
 ! D6    D(2,3,4,9)             -0.0022         estimate D2E/DX2                !
 ! D7    D(3,4,5,6)            179.9988         estimate D2E/DX2                !
 ! D8    D(3,4,5,11)             0.0047         estimate D2E/DX2                !
 ! D9    D(9,4,5,6)              0.0041         estimate D2E/DX2                !
 ! D10   D(9,4,5,11)          -179.99           estimate D2E/DX2                !
 ! D11   D(3,4,9,8)           -179.9953         estimate D2E/DX2                !
 ! D12   D(3,4,9,10)             0.0068         estimate D2E/DX2                !
 ! D13   D(5,4,9,8)              0.0            estimate D2E/DX2                !
 ! D14   D(5,4,9,10)          -179.9979         estimate D2E/DX2                !
 ! D15   D(4,5,6,7)             -0.0094         estimate D2E/DX2                !
 ! D16   D(4,5,6,12)          -179.9958         estimate D2E/DX2                !
 ! D17   D(11,5,6,7)           179.9846         estimate D2E/DX2                !
 ! D18   D(11,5,6,12)           -0.0018         estimate D2E/DX2                !
 ! D19   D(5,6,7,8)              0.0107         estimate D2E/DX2                !
 ! D20   D(5,6,7,13)           179.9954         estimate D2E/DX2                !
 ! D21   D(12,6,7,8)           179.9971         estimate D2E/DX2                !
 ! D22   D(12,6,7,13)           -0.0182         estimate D2E/DX2                !
 ! D23   D(6,7,8,9)             -0.0063         estimate D2E/DX2                !
 ! D24   D(6,7,8,14)           179.9907         estimate D2E/DX2                !
 ! D25   D(13,7,8,9)          -179.991          estimate D2E/DX2                !
 ! D26   D(13,7,8,14)            0.006          estimate D2E/DX2                !
 ! D27   D(7,8,9,4)              0.0011         estimate D2E/DX2                !
 ! D28   D(7,8,9,10)           179.9986         estimate D2E/DX2                !
 ! D29   D(14,8,9,4)          -179.9959         estimate D2E/DX2                !
 ! D30   D(14,8,9,10)            0.0016         estimate D2E/DX2                !
 ! D31   D(4,9,10,2)            -0.0069         estimate D2E/DX2                !
 ! D32   D(8,9,10,2)           179.9954         estimate D2E/DX2                !
 --------------------------------------------------------------------------------
 Trust Radius=3.00D-01 FncErr=1.00D-07 GrdErr=1.00D-06 EigMax=2.50D+02 EigMin=1.00D-04
 Number of steps in this run=     80 maximum allowed number of steps=    100.
 GradGradGradGradGradGradGradGradGradGradGradGradGradGradGradGradGradGrad

 Leave Link  103 at Tue Sep 17 09:51:24 2024, MaxMem=  1342177280 cpu:               0.1 elap:               0.0
 (Enter /groups/ReismanLab/Software/Gaussian16_RevC/Linux_Binary_AVX2-enabled-CPU/g16/l202.exe)
                          Input orientation:                          
 ---------------------------------------------------------------------
 Center     Atomic      Atomic             Coordinates (Angstroms)
 Number     Number       Type             X           Y           Z
 ---------------------------------------------------------------------
      1         35           0        2.547177    0.195010   -0.000049
      2          6           0        0.691553    0.075308    0.000066
      3          7           0       -0.071955    1.093672    0.000098
      4          6           0       -1.387539    0.730057    0.000087
      5          6           0       -2.471210    1.603119    0.000058
      6          6           0       -3.744788    1.075998    0.000025
      7          6           0       -3.955072   -0.301789   -0.000175
      8          6           0       -2.894519   -1.186816   -0.000125
      9          6           0       -1.611991   -0.665822   -0.000005
     10         16           0       -0.088798   -1.508240    0.000116
     11          1           0       -2.291748    2.665789   -0.000035
     12          1           0       -4.595589    1.740040   -0.000068
     13          1           0       -4.963636   -0.685903   -0.000120
     14          1           0       -3.054313   -2.253423   -0.000129
 ---------------------------------------------------------------------
                    Distance matrix (angstroms):
                    1          2          3          4          5
     1  Br   0.000000
     2  C    1.859481   0.000000
     3  N    2.769016   1.272796   0.000000
     4  C    3.970928   2.179752   1.364909   0.000000
     5  C    5.212195   3.512446   2.452745   1.391610   0.000000
     6  C    6.353343   4.547802   3.672875   2.382498   1.378353
     7  C    6.521201   4.661902   4.126246   2.767117   2.414648
     8  C    5.614401   3.801693   3.628704   2.438317   2.821866
     9  C    4.247319   2.419833   2.338275   1.413809   2.426180
    10  S    3.138380   1.765382   2.601967   2.587799   3.918729
    11  H    5.433226   3.951034   2.720116   2.136504   1.077717
    12  H    7.307956   5.543032   4.569579   3.363280   2.128787
    13  H    7.562296   5.706191   5.205327   3.846221   3.384052
    14  H    6.113225   4.410726   4.483024   3.417498   3.900375
                    6          7          8          9         10
     6  C    0.000000
     7  C    1.393743   0.000000
     8  C    2.417289   1.381320   0.000000
     9  C    2.753681   2.371191   1.384309   0.000000
    10  S    4.477114   4.050136   2.824072   1.740628   0.000000
    11  H    2.153778   3.401936   3.899474   3.400250   4.719693
    12  H    1.079265   2.139936   3.385280   3.832757   5.555401
    13  H    2.142402   1.079233   2.128887   3.351705   4.943712
    14  H    3.400265   2.149475   1.078511   2.144941   3.057708
                   11         12         13         14
    11  H    0.000000
    12  H    2.482880   0.000000
    13  H    4.286353   2.453702   0.000000
    14  H    4.977967   4.280570   2.470351   0.000000
 Stoichiometry    C7H4BrNS
 Framework group  C1[X(C7H4BrNS)]
 Deg. of freedom    36
 Full point group                 C1      NOp   1
 Largest Abelian subgroup         C1      NOp   1
 Largest concise Abelian subgroup C1      NOp   1
                         Standard orientation:                         
 ---------------------------------------------------------------------
 Center     Atomic      Atomic             Coordinates (Angstroms)
 Number     Number       Type             X           Y           Z
 ---------------------------------------------------------------------
      1         35           0        2.736803   -0.221963    0.000050
      2          6           0        0.882349   -0.085328   -0.000066
      3          7           0        0.109576   -1.096679   -0.000098
      4          6           0       -1.202633   -0.721070   -0.000087
      5          6           0       -2.294228   -1.584203   -0.000057
      6          6           0       -3.562942   -1.045480   -0.000024
      7          6           0       -3.760641    0.334170    0.000175
      8          6           0       -2.692053    1.209479    0.000126
      9          6           0       -1.414334    0.676799    0.000006
     10         16           0        0.116485    1.505278   -0.000116
     11          1           0       -2.124475   -2.648467    0.000035
     12          1           0       -4.419769   -1.701727    0.000068
     13          1           0       -4.765656    0.727474    0.000121
     14          1           0       -2.842104    2.277501    0.000130
 ---------------------------------------------------------------------
 Rotational constants (GHZ):           2.7646954           0.4345557           0.3755298
 Leave Link  202 at Tue Sep 17 09:51:24 2024, MaxMem=  1342177280 cpu:               0.1 elap:               0.0
 (Enter /groups/ReismanLab/Software/Gaussian16_RevC/Linux_Binary_AVX2-enabled-CPU/g16/l301.exe)
 Standard basis: 6-31G(d,p) (6D, 7F)
 Ernie: Thresh=  0.10000D-02 Tol=  0.10000D-05 Strict=F.
 There are   189 symmetry adapted cartesian basis functions of A   symmetry.
 There are   189 symmetry adapted basis functions of A   symmetry.
   189 basis functions,   387 primitive gaussians,   189 cartesian basis functions
    52 alpha electrons       52 beta electrons
       nuclear repulsion energy       802.4392863633 Hartrees.
 IExCor=  402 DFT=T Ex+Corr=B3LYP ExCW=0 ScaHFX=  0.200000
 ScaDFX=  0.800000  0.720000  1.000000  0.810000 ScalE2=  1.000000  1.000000
 IRadAn=      5 IRanWt=     -1 IRanGd=            0 ICorTp=0 IEmpDi=141
 NAtoms=   14 NActive=   14 NUniq=   14 SFac= 1.00D+00 NAtFMM=   60 NAOKFM=F Big=F
 Integral buffers will be    131072 words long.
 Raffenetti 2 integral format.
 Two-electron integral symmetry is turned on.
 R6Disp:  Grimme-D3(BJ) Dispersion energy=       -0.0352296710 Hartrees.
 Nuclear repulsion after empirical dispersion term =      802.4040566923 Hartrees.
 Leave Link  301 at Tue Sep 17 09:51:24 2024, MaxMem=  1342177280 cpu:               0.1 elap:               0.1
 (Enter /groups/ReismanLab/Software/Gaussian16_RevC/Linux_Binary_AVX2-enabled-CPU/g16/l302.exe)
 NPDir=0 NMtPBC=     1 NCelOv=     1 NCel=       1 NClECP=     1 NCelD=      1
         NCelK=      1 NCelE2=     1 NClLst=     1 CellRange=     0.0.
 One-electron integrals computed using PRISM.
 One-electron integral symmetry used in STVInt
 NBasis=   189 RedAO= T EigKep=  4.35D-04  NBF=   189
 NBsUse=   189 1.00D-06 EigRej= -1.00D+00 NBFU=   189
 Precomputing XC quadrature grid using
 IXCGrd= 4 IRadAn=           5 IRanWt=          -1 IRanGd=           0 AccXCQ= 0.00D+00.
 Generated NRdTot=       0 NPtTot=           0 NUsed=           0 NTot=          32
 NSgBfM=   188   188   188   188   188 MxSgAt=    14 MxSgA2=    14.
 Leave Link  302 at Tue Sep 17 09:51:25 2024, MaxMem=  1342177280 cpu:               0.9 elap:               0.3
 (Enter /groups/ReismanLab/Software/Gaussian16_RevC/Linux_Binary_AVX2-enabled-CPU/g16/l303.exe)
 DipDrv:  MaxL=1.
 Leave Link  303 at Tue Sep 17 09:51:25 2024, MaxMem=  1342177280 cpu:               0.1 elap:               0.1
 (Enter /groups/ReismanLab/Software/Gaussian16_RevC/Linux_Binary_AVX2-enabled-CPU/g16/l401.exe)
 ExpMin= 1.17D-01 ExpMax= 5.74D+05 ExpMxC= 5.74D+03 IAcc=3 IRadAn=         5 AccDes= 0.00D+00
 Harris functional with IExCor=  402 and IRadAn=       5 diagonalized for initial guess.
 HarFok:  IExCor=  402 AccDes= 0.00D+00 IRadAn=         5 IDoV= 1 UseB2=F ITyADJ=14
 ICtDFT=  3500011 ScaDFX=  1.000000  1.000000  1.000000  1.000000
 FoFCou: FMM=F IPFlag=           0 FMFlag=      100000 FMFlg1=           0
         NFxFlg=           0 DoJE=T BraDBF=F KetDBF=T FulRan=T
         wScrn=  0.000000 ICntrl=       500 IOpCl=  0 I1Cent=   200000004 NGrid=           0
         NMat0=    1 NMatS0=      1 NMatT0=    0 NMatD0=    1 NMtDS0=    0 NMtDT0=    0
 Petite list used in FoFCou.
 Harris En= -3293.90345119648    
 JPrj=0 DoOrth=F DoCkMO=F.
 Leave Link  401 at Tue Sep 17 09:51:25 2024, MaxMem=  1342177280 cpu:               3.7 elap:               0.6
 (Enter /groups/ReismanLab/Software/Gaussian16_RevC/Linux_Binary_AVX2-enabled-CPU/g16/l502.exe)
 Integral symmetry usage will be decided dynamically.
 Closed shell SCF:
 Using DIIS extrapolation, IDIIS=  1040.
 NGot=  1342177280 LenX=  1342102048 LenY=  1342065886
 Requested convergence on RMS density matrix=1.00D-08 within  32 cycles.
 Requested convergence on MAX density matrix=1.00D-06.
 Requested convergence on             energy=1.00D-06.
 No special actions if energy rises.
 Fock matrices will be formed incrementally for  20 cycles.
 Integral accuracy reduced to 1.0D-05 until final iterations.

 Cycle   1  Pass 0  IDiag  1:
 FoFJK:  IHMeth= 1 ICntrl=       0 DoSepK=F KAlg= 0 I1Cent=           0 FoldK=F
 IRaf= 870000000 NMat=       1 IRICut=       1 DoRegI=T DoRafI=F ISym2E= 0 IDoP0=0 IntGTp=1.
 FoFCou: FMM=F IPFlag=           0 FMFlag=      100000 FMFlg1=           0
         NFxFlg=           0 DoJE=F BraDBF=F KetDBF=F FulRan=T
         wScrn=  0.000000 ICntrl=         0 IOpCl=  0 I1Cent=           0 NGrid=           0
         NMat0=    1 NMatS0=      1 NMatT0=    0 NMatD0=    1 NMtDS0=    0 NMtDT0=    0
 Symmetry not used in FoFCou.
 E= -3293.56953000343    
 DIIS: error= 2.12D-01 at cycle   1 NSaved=   1.
 NSaved= 1 IEnMin= 1 EnMin= -3293.56953000343     IErMin= 1 ErrMin= 2.12D-01
 ErrMax= 2.12D-01  0.00D+00 EMaxC= 1.00D-01 BMatC= 5.97D-01 BMatP= 5.97D-01
 IDIUse=3 WtCom= 0.00D+00 WtEn= 1.00D+00
 Coeff-Com:  0.100D+01
 Coeff-En:   0.100D+01
 Coeff:      0.100D+01
 Gap=     0.375 Goal=   None    Shift=    0.000
 GapD=    0.375 DampG=1.000 DampE=0.250 DampFc=0.2500 IDamp=-1.
 Damping current iteration by 2.50D-01
 RMSDP=8.85D-03 MaxDP=2.57D-01              OVMax= 3.42D-01

 Cycle   2  Pass 0  IDiag  1:
 RMSU=  2.18D-03    CP:  9.93D-01
 E= -3293.65954332766     Delta-E=       -0.090013324231 Rises=F Damp=T
 DIIS: error= 1.57D-01 at cycle   2 NSaved=   2.
 NSaved= 2 IEnMin= 2 EnMin= -3293.65954332766     IErMin= 2 ErrMin= 1.57D-01
 ErrMax= 1.57D-01  0.00D+00 EMaxC= 1.00D-01 BMatC= 2.38D-01 BMatP= 5.97D-01
 IDIUse=3 WtCom= 0.00D+00 WtEn= 1.00D+00
 Coeff-Com: -0.931D+00 0.193D+01
 Coeff-En:   0.000D+00 0.100D+01
 Coeff:      0.000D+00 0.100D+01
 Gap=     0.182 Goal=   None    Shift=    0.000
 RMSDP=3.13D-03 MaxDP=1.10D-01 DE=-9.00D-02 OVMax= 2.68D-01

 Cycle   3  Pass 0  IDiag  1:
 RMSU=  2.39D-03    CP:  9.71D-01  1.79D+00
 E= -3293.79326670340     Delta-E=       -0.133723375735 Rises=F Damp=F
 DIIS: error= 1.53D-02 at cycle   3 NSaved=   3.
 NSaved= 3 IEnMin= 3 EnMin= -3293.79326670340     IErMin= 3 ErrMin= 1.53D-02
 ErrMax= 1.53D-02  0.00D+00 EMaxC= 1.00D-01 BMatC= 4.23D-02 BMatP= 2.38D-01
 IDIUse=3 WtCom= 8.47D-01 WtEn= 1.53D-01
 Coeff-Com:  0.360D+00-0.300D+00 0.940D+00
 Coeff-En:   0.108D+00 0.000D+00 0.892D+00
 Coeff:      0.322D+00-0.254D+00 0.933D+00
 Gap=     0.210 Goal=   None    Shift=    0.000
 RMSDP=2.05D-03 MaxDP=6.21D-02 DE=-1.34D-01 OVMax= 9.08D-02

 Cycle   4  Pass 0  IDiag  1:
 RMSU=  1.44D-03    CP:  9.72D-01  1.17D+00  7.61D-01
 E= -3293.80873985556     Delta-E=       -0.015473152158 Rises=F Damp=F
 DIIS: error= 8.51D-03 at cycle   4 NSaved=   4.
 NSaved= 4 IEnMin= 4 EnMin= -3293.80873985556     IErMin= 4 ErrMin= 8.51D-03
 ErrMax= 8.51D-03  0.00D+00 EMaxC= 1.00D-01 BMatC= 3.15D-02 BMatP= 4.23D-02
 IDIUse=3 WtCom= 9.15D-01 WtEn= 8.51D-02
 Coeff-Com:  0.305D+00-0.380D+00 0.616D+00 0.458D+00
 Coeff-En:   0.000D+00 0.000D+00 0.400D+00 0.600D+00
 Coeff:      0.279D+00-0.348D+00 0.598D+00 0.470D+00
 Gap=     0.202 Goal=   None    Shift=    0.000
 RMSDP=1.02D-03 MaxDP=2.91D-02 DE=-1.55D-02 OVMax= 5.04D-02

 Cycle   5  Pass 0  IDiag  1:
 RMSU=  2.80D-04    CP:  9.72D-01  1.31D+00  9.06D-01  3.98D-01
 E= -3293.83943480552     Delta-E=       -0.030694949963 Rises=F Damp=F
 DIIS: error= 1.93D-03 at cycle   5 NSaved=   5.
 NSaved= 5 IEnMin= 5 EnMin= -3293.83943480552     IErMin= 5 ErrMin= 1.93D-03
 ErrMax= 1.93D-03  0.00D+00 EMaxC= 1.00D-01 BMatC= 5.11D-04 BMatP= 3.15D-02
 IDIUse=3 WtCom= 9.81D-01 WtEn= 1.93D-02
 Coeff-Com:  0.113D+00-0.144D+00 0.230D+00 0.212D+00 0.590D+00
 Coeff-En:   0.000D+00 0.000D+00 0.000D+00 0.000D+00 0.100D+01
 Coeff:      0.111D+00-0.142D+00 0.225D+00 0.208D+00 0.598D+00
 Gap=     0.198 Goal=   None    Shift=    0.000
 RMSDP=1.88D-04 MaxDP=6.18D-03 DE=-3.07D-02 OVMax= 1.19D-02

 Cycle   6  Pass 0  IDiag  1:
 RMSU=  1.19D-04    CP:  9.72D-01  1.30D+00  9.06D-01  4.45D-01  5.42D-01
 E= -3293.83986814523     Delta-E=       -0.000433339714 Rises=F Damp=F
 DIIS: error= 1.14D-03 at cycle   6 NSaved=   6.
 NSaved= 6 IEnMin= 6 EnMin= -3293.83986814523     IErMin= 6 ErrMin= 1.14D-03
 ErrMax= 1.14D-03  0.00D+00 EMaxC= 1.00D-01 BMatC= 1.15D-04 BMatP= 5.11D-04
 IDIUse=3 WtCom= 9.89D-01 WtEn= 1.14D-02
 Coeff-Com:  0.374D-01-0.490D-01 0.663D-01 0.684D-01 0.360D+00 0.517D+00
 Coeff-En:   0.000D+00 0.000D+00 0.000D+00 0.000D+00 0.183D+00 0.817D+00
 Coeff:      0.370D-01-0.485D-01 0.656D-01 0.677D-01 0.358D+00 0.521D+00
 Gap=     0.198 Goal=   None    Shift=    0.000
 RMSDP=7.47D-05 MaxDP=2.35D-03 DE=-4.33D-04 OVMax= 4.40D-03

 Cycle   7  Pass 0  IDiag  1:
 RMSU=  4.46D-05    CP:  9.72D-01  1.29D+00  9.10D-01  4.43D-01  6.44D-01
                    CP:  5.93D-01
 E= -3293.83999002171     Delta-E=       -0.000121876481 Rises=F Damp=F
 DIIS: error= 2.27D-04 at cycle   7 NSaved=   7.
 NSaved= 7 IEnMin= 7 EnMin= -3293.83999002171     IErMin= 7 ErrMin= 2.27D-04
 ErrMax= 2.27D-04  0.00D+00 EMaxC= 1.00D-01 BMatC= 6.72D-06 BMatP= 1.15D-04
 IDIUse=3 WtCom= 9.98D-01 WtEn= 2.27D-03
 Coeff-Com:  0.105D-01-0.140D-01 0.148D-01 0.162D-01 0.131D+00 0.268D+00
 Coeff-Com:  0.574D+00
 Coeff-En:   0.000D+00 0.000D+00 0.000D+00 0.000D+00 0.000D+00 0.000D+00
 Coeff-En:   0.100D+01
 Coeff:      0.105D-01-0.140D-01 0.148D-01 0.161D-01 0.131D+00 0.267D+00
 Coeff:      0.575D+00
 Gap=     0.198 Goal=   None    Shift=    0.000
 RMSDP=2.07D-05 MaxDP=7.34D-04 DE=-1.22D-04 OVMax= 1.05D-03

 Cycle   8  Pass 0  IDiag  1:
 RMSU=  1.34D-05    CP:  9.72D-01  1.29D+00  9.08D-01  4.43D-01  6.52D-01
                    CP:  6.30D-01  6.89D-01
 E= -3293.83999591353     Delta-E=       -0.000005891818 Rises=F Damp=F
 DIIS: error= 7.29D-05 at cycle   8 NSaved=   8.
 NSaved= 8 IEnMin= 8 EnMin= -3293.83999591353     IErMin= 8 ErrMin= 7.29D-05
 ErrMax= 7.29D-05  0.00D+00 EMaxC= 1.00D-01 BMatC= 1.03D-06 BMatP= 6.72D-06
 IDIUse=1 WtCom= 1.00D+00 WtEn= 0.00D+00
 Coeff-Com:  0.294D-02-0.401D-02 0.268D-02 0.276D-02 0.389D-01 0.998D-01
 Coeff-Com:  0.333D+00 0.524D+00
 Coeff:      0.294D-02-0.401D-02 0.268D-02 0.276D-02 0.389D-01 0.998D-01
 Coeff:      0.333D+00 0.524D+00
 Gap=     0.198 Goal=   None    Shift=    0.000
 RMSDP=7.56D-06 MaxDP=1.92D-04 DE=-5.89D-06 OVMax= 4.66D-04

 Initial convergence to 1.0D-05 achieved.  Increase integral accuracy.
 Cycle   9  Pass 1  IDiag  1:
 E= -3293.83998678158     Delta-E=        0.000009131953 Rises=F Damp=F
 DIIS: error= 3.65D-05 at cycle   1 NSaved=   1.
 NSaved= 1 IEnMin= 1 EnMin= -3293.83998678158     IErMin= 1 ErrMin= 3.65D-05
 ErrMax= 3.65D-05  0.00D+00 EMaxC= 1.00D-01 BMatC= 1.81D-07 BMatP= 1.81D-07
 IDIUse=1 WtCom= 1.00D+00 WtEn= 0.00D+00
 Coeff-Com:  0.100D+01
 Coeff:      0.100D+01
 Gap=     0.198 Goal=   None    Shift=    0.000
 RMSDP=7.56D-06 MaxDP=1.92D-04 DE= 9.13D-06 OVMax= 3.57D-04

 Cycle  10  Pass 1  IDiag  1:
 RMSU=  1.62D-05    CP:  1.00D+00
 E= -3293.83998650400     Delta-E=        0.000000277580 Rises=F Damp=F
 DIIS: error= 5.27D-05 at cycle   2 NSaved=   2.
 NSaved= 2 IEnMin= 1 EnMin= -3293.83998678158     IErMin= 1 ErrMin= 3.65D-05
 ErrMax= 5.27D-05  0.00D+00 EMaxC= 1.00D-01 BMatC= 4.00D-07 BMatP= 1.81D-07
 IDIUse=1 WtCom= 1.00D+00 WtEn= 0.00D+00
 Coeff-Com:  0.611D+00 0.389D+00
 Coeff:      0.611D+00 0.389D+00
 Gap=     0.198 Goal=   None    Shift=    0.000
 RMSDP=4.57D-06 MaxDP=1.39D-04 DE= 2.78D-07 OVMax= 2.80D-04

 Cycle  11  Pass 1  IDiag  1:
 RMSU=  4.34D-06    CP:  1.00D+00  9.13D-01
 E= -3293.83998693646     Delta-E=       -0.000000432458 Rises=F Damp=F
 DIIS: error= 1.07D-05 at cycle   3 NSaved=   3.
 NSaved= 3 IEnMin= 3 EnMin= -3293.83998693646     IErMin= 3 ErrMin= 1.07D-05
 ErrMax= 1.07D-05  0.00D+00 EMaxC= 1.00D-01 BMatC= 1.55D-08 BMatP= 1.81D-07
 IDIUse=1 WtCom= 1.00D+00 WtEn= 0.00D+00
 Coeff-Com:  0.815D-01 0.173D+00 0.746D+00
 Coeff:      0.815D-01 0.173D+00 0.746D+00
 Gap=     0.198 Goal=   None    Shift=    0.000
 RMSDP=9.63D-07 MaxDP=3.28D-05 DE=-4.32D-07 OVMax= 6.30D-05

 Cycle  12  Pass 1  IDiag  1:
 RMSU=  7.51D-07    CP:  1.00D+00  9.27D-01  8.72D-01
 E= -3293.83998694983     Delta-E=       -0.000000013374 Rises=F Damp=F
 DIIS: error= 4.38D-06 at cycle   4 NSaved=   4.
 NSaved= 4 IEnMin= 4 EnMin= -3293.83998694983     IErMin= 4 ErrMin= 4.38D-06
 ErrMax= 4.38D-06  0.00D+00 EMaxC= 1.00D-01 BMatC= 3.63D-09 BMatP= 1.55D-08
 IDIUse=1 WtCom= 1.00D+00 WtEn= 0.00D+00
 Coeff-Com:  0.235D-02 0.749D-01 0.449D+00 0.474D+00
 Coeff:      0.235D-02 0.749D-01 0.449D+00 0.474D+00
 Gap=     0.198 Goal=   None    Shift=    0.000
 RMSDP=4.02D-07 MaxDP=1.52D-05 DE=-1.34D-08 OVMax= 2.37D-05

 Cycle  13  Pass 1  IDiag  1:
 RMSU=  1.53D-07    CP:  1.00D+00  9.29D-01  8.77D-01  5.08D-01
 E= -3293.83998695354     Delta-E=       -0.000000003703 Rises=F Damp=F
 DIIS: error= 9.16D-07 at cycle   5 NSaved=   5.
 NSaved= 5 IEnMin= 5 EnMin= -3293.83998695354     IErMin= 5 ErrMin= 9.16D-07
 ErrMax= 9.16D-07  0.00D+00 EMaxC= 1.00D-01 BMatC= 1.41D-10 BMatP= 3.63D-09
 IDIUse=1 WtCom= 1.00D+00 WtEn= 0.00D+00
 Coeff-Com: -0.189D-02 0.364D-01 0.229D+00 0.271D+00 0.465D+00
 Coeff:     -0.189D-02 0.364D-01 0.229D+00 0.271D+00 0.465D+00
 Gap=     0.198 Goal=   None    Shift=    0.000
 RMSDP=8.27D-08 MaxDP=2.66D-06 DE=-3.70D-09 OVMax= 5.43D-06

 Cycle  14  Pass 1  IDiag  1:
 RMSU=  4.59D-08    CP:  1.00D+00  9.30D-01  8.74D-01  5.16D-01  5.64D-01
 E= -3293.83998695373     Delta-E=       -0.000000000199 Rises=F Damp=F
 DIIS: error= 1.70D-07 at cycle   6 NSaved=   6.
 NSaved= 6 IEnMin= 6 EnMin= -3293.83998695373     IErMin= 6 ErrMin= 1.70D-07
 ErrMax= 1.70D-07  0.00D+00 EMaxC= 1.00D-01 BMatC= 6.58D-12 BMatP= 1.41D-10
 IDIUse=1 WtCom= 1.00D+00 WtEn= 0.00D+00
 Coeff-Com: -0.117D-02 0.157D-01 0.101D+00 0.121D+00 0.254D+00 0.509D+00
 Coeff:     -0.117D-02 0.157D-01 0.101D+00 0.121D+00 0.254D+00 0.509D+00
 Gap=     0.198 Goal=   None    Shift=    0.000
 RMSDP=1.91D-08 MaxDP=5.76D-07 DE=-1.99D-10 OVMax= 1.15D-06

 Cycle  15  Pass 1  IDiag  1:
 RMSU=  1.57D-08    CP:  1.00D+00  9.30D-01  8.74D-01  5.16D-01  5.97D-01
                    CP:  8.01D-01
 E= -3293.83998695374     Delta-E=       -0.000000000005 Rises=F Damp=F
 DIIS: error= 5.78D-08 at cycle   7 NSaved=   7.
 NSaved= 7 IEnMin= 7 EnMin= -3293.83998695374     IErMin= 7 ErrMin= 5.78D-08
 ErrMax= 5.78D-08  0.00D+00 EMaxC= 1.00D-01 BMatC= 7.88D-13 BMatP= 6.58D-12
 IDIUse=1 WtCom= 1.00D+00 WtEn= 0.00D+00
 Coeff-Com: -0.345D-03 0.308D-02 0.206D-01 0.234D-01 0.675D-01 0.282D+00
 Coeff-Com:  0.604D+00
 Coeff:     -0.345D-03 0.308D-02 0.206D-01 0.234D-01 0.675D-01 0.282D+00
 Coeff:      0.604D+00
 Gap=     0.198 Goal=   None    Shift=    0.000
 RMSDP=7.89D-09 MaxDP=2.20D-07 DE=-5.46D-12 OVMax= 3.68D-07

 SCF Done:  E(RB3LYP) =  -3293.83998695     A.U. after   15 cycles
            NFock= 15  Conv=0.79D-08     -V/T= 2.0060
 KE= 3.274094034311D+03 PE=-9.435109089816D+03 EE= 2.064771011859D+03
 Leave Link  502 at Tue Sep 17 09:51:35 2024, MaxMem=  1342177280 cpu:              66.0 elap:               9.4
 (Enter /groups/ReismanLab/Software/Gaussian16_RevC/Linux_Binary_AVX2-enabled-CPU/g16/l508.exe)
 QCSCF skips out because SCF is already converged.
 Leave Link  508 at Tue Sep 17 09:51:35 2024, MaxMem=  1342177280 cpu:               0.0 elap:               0.0
 (Enter /groups/ReismanLab/Software/Gaussian16_RevC/Linux_Binary_AVX2-enabled-CPU/g16/l601.exe)
 Copying SCF densities to generalized density rwf, IOpCl= 0 IROHF=0.

 **********************************************************************

            Population analysis using the SCF Density.

 **********************************************************************

 Orbital symmetries:
       Occupied  (A) (A) (A) (A) (A) (A) (A) (A) (A) (A) (A) (A)
                 (A) (A) (A) (A) (A) (A) (A) (A) (A) (A) (A) (A)
                 (A) (A) (A) (A) (A) (A) (A) (A) (A) (A) (A) (A)
                 (A) (A) (A) (A) (A) (A) (A) (A) (A) (A) (A) (A)
                 (A) (A) (A) (A)
       Virtual   (A) (A) (A) (A) (A) (A) (A) (A) (A) (A) (A) (A)
                 (A) (A) (A) (A) (A) (A) (A) (A) (A) (A) (A) (A)
                 (A) (A) (A) (A) (A) (A) (A) (A) (A) (A) (A) (A)
                 (A) (A) (A) (A) (A) (A) (A) (A) (A) (A) (A) (A)
                 (A) (A) (A) (A) (A) (A) (A) (A) (A) (A) (A) (A)
                 (A) (A) (A) (A) (A) (A) (A) (A) (A) (A) (A) (A)
                 (A) (A) (A) (A) (A) (A) (A) (A) (A) (A) (A) (A)
                 (A) (A) (A) (A) (A) (A) (A) (A) (A) (A) (A) (A)
                 (A) (A) (A) (A) (A) (A) (A) (A) (A) (A) (A) (A)
                 (A) (A) (A) (A) (A) (A) (A) (A) (A) (A) (A) (A)
                 (A) (A) (A) (A) (A) (A) (A) (A) (A) (A) (A) (A)
                 (A) (A) (A) (A) (A)
 The electronic state is 1-A.
 Alpha  occ. eigenvalues -- -482.93148 -88.92653 -61.89373 -56.41496 -56.41075
 Alpha  occ. eigenvalues --  -56.41064 -14.34949 -10.30561 -10.23404 -10.23354
 Alpha  occ. eigenvalues --  -10.20795 -10.20158 -10.20047 -10.19882  -8.60582
 Alpha  occ. eigenvalues --   -7.98812  -6.56027  -6.54693  -6.54629  -5.95233
 Alpha  occ. eigenvalues --   -5.94888  -5.94434  -2.67601  -2.67220  -2.67170
 Alpha  occ. eigenvalues --   -2.66105  -2.66105  -0.99459  -0.86913  -0.82743
 Alpha  occ. eigenvalues --   -0.80823  -0.75453  -0.73035  -0.62796  -0.61144
 Alpha  occ. eigenvalues --   -0.57896  -0.50270  -0.49994  -0.48387  -0.45115
 Alpha  occ. eigenvalues --   -0.44527  -0.41880  -0.40769  -0.38004  -0.37001
 Alpha  occ. eigenvalues --   -0.35275  -0.31663  -0.31154  -0.30407  -0.29073
 Alpha  occ. eigenvalues --   -0.24609  -0.24224
 Alpha virt. eigenvalues --   -0.04443  -0.01675  -0.01259   0.01688   0.02786
 Alpha virt. eigenvalues --    0.10010   0.10848   0.13886   0.15528   0.17149
 Alpha virt. eigenvalues --    0.17833   0.20606   0.20824   0.25213   0.26229
 Alpha virt. eigenvalues --    0.30265   0.31412   0.33038   0.34205   0.35347
 Alpha virt. eigenvalues --    0.37422   0.38274   0.44288   0.44657   0.45175
 Alpha virt. eigenvalues --    0.45762   0.47428   0.50035   0.51218   0.51383
 Alpha virt. eigenvalues --    0.52474   0.54206   0.55296   0.56378   0.58273
 Alpha virt. eigenvalues --    0.58822   0.59628   0.60384   0.60506   0.64148
 Alpha virt. eigenvalues --    0.64905   0.67116   0.68406   0.71762   0.73546
 Alpha virt. eigenvalues --    0.77944   0.78048   0.79280   0.80871   0.82478
 Alpha virt. eigenvalues --    0.83682   0.84386   0.87099   0.88253   0.89085
 Alpha virt. eigenvalues --    0.92945   0.93261   0.93930   0.97778   0.99914
 Alpha virt. eigenvalues --    1.02724   1.04164   1.05978   1.07683   1.14186
 Alpha virt. eigenvalues --    1.16412   1.23448   1.23464   1.30067   1.30301
 Alpha virt. eigenvalues --    1.35008   1.39353   1.39630   1.39926   1.41422
 Alpha virt. eigenvalues --    1.46123   1.49860   1.54513   1.55021   1.61735
 Alpha virt. eigenvalues --    1.73898   1.73938   1.78565   1.80822   1.82792
 Alpha virt. eigenvalues --    1.86911   1.91914   1.92479   1.92598   1.98214
 Alpha virt. eigenvalues --    2.00234   2.00472   2.04438   2.06423   2.14373
 Alpha virt. eigenvalues --    2.16096   2.23342   2.25697   2.27508   2.34610
 Alpha virt. eigenvalues --    2.35699   2.38178   2.38265   2.40353   2.44856
 Alpha virt. eigenvalues --    2.45544   2.47098   2.50565   2.55386   2.56839
 Alpha virt. eigenvalues --    2.59034   2.61071   2.66414   2.72523   2.73776
 Alpha virt. eigenvalues --    2.75468   2.82916   2.96643   2.99745   3.11017
 Alpha virt. eigenvalues --    3.20697   3.24545   3.32788   3.36155   3.48308
 Alpha virt. eigenvalues --    3.84318   3.94327   4.04736   4.11848   4.13527
 Alpha virt. eigenvalues --    4.18923   4.24295   4.40983   4.43801   4.79977
 Alpha virt. eigenvalues --    8.58652  72.86327
          Condensed to atoms (all electrons):
               1          2          3          4          5          6
     1  Br  34.876537   0.276338  -0.059455   0.004286  -0.000277   0.000002
     2  C    0.276338   5.023640   0.474592  -0.070706   0.006501  -0.000109
     3  N   -0.059455   0.474592   6.867331   0.374698  -0.062529   0.005082
     4  C    0.004286  -0.070706   0.374698   4.599602   0.510986  -0.008494
     5  C   -0.000277   0.006501  -0.062529   0.510986   4.905420   0.530753
     6  C    0.000002  -0.000109   0.005082  -0.008494   0.530753   4.822887
     7  C    0.000002  -0.000085   0.000031  -0.039704  -0.037916   0.536343
     8  C   -0.000036   0.003561   0.010107   0.008657  -0.043778  -0.027717
     9  C    0.002650  -0.041795  -0.088639   0.458973  -0.072918  -0.044629
    10  S   -0.058324   0.260270  -0.087544  -0.073931   0.008073   0.000562
    11  H   -0.000006  -0.000055  -0.003120  -0.034546   0.361462  -0.044905
    12  H   -0.000000   0.000004  -0.000114   0.003770  -0.037376   0.369844
    13  H   -0.000000  -0.000000   0.000001   0.000654   0.004891  -0.040463
    14  H   -0.000000  -0.000012  -0.000156   0.003038   0.000820   0.004381
               7          8          9         10         11         12
     1  Br   0.000002  -0.000036   0.002650  -0.058324  -0.000006  -0.000000
     2  C   -0.000085   0.003561  -0.041795   0.260270  -0.000055   0.000004
     3  N    0.000031   0.010107  -0.088639  -0.087544  -0.003120  -0.000114
     4  C   -0.039704   0.008657   0.458973  -0.073931  -0.034546   0.003770
     5  C   -0.037916  -0.043778  -0.072918   0.008073   0.361462  -0.037376
     6  C    0.536343  -0.027717  -0.044629   0.000562  -0.044905   0.369844
     7  C    4.797462   0.541835  -0.033104   0.003864   0.004845  -0.041054
     8  C    0.541835   4.892539   0.450691  -0.054587   0.000081   0.005205
     9  C   -0.033104   0.450691   5.265854   0.285029   0.008007   0.000786
    10  S    0.003864  -0.054587   0.285029  15.454722  -0.000193   0.000022
    11  H    0.004845   0.000081   0.008007  -0.000193   0.609518  -0.006362
    12  H   -0.041054   0.005205   0.000786   0.000022  -0.006362   0.618743
    13  H    0.373294  -0.042716   0.005647  -0.000170  -0.000167  -0.006584
    14  H   -0.035562   0.370755  -0.041798  -0.003647   0.000019  -0.000190
              13         14
     1  Br  -0.000000  -0.000000
     2  C   -0.000000  -0.000012
     3  N    0.000001  -0.000156
     4  C    0.000654   0.003038
     5  C    0.004891   0.000820
     6  C   -0.040463   0.004381
     7  C    0.373294  -0.035562
     8  C   -0.042716   0.370755
     9  C    0.005647  -0.041798
    10  S   -0.000170  -0.003647
    11  H   -0.000167   0.000019
    12  H   -0.006584  -0.000190
    13  H    0.619189  -0.006276
    14  H   -0.006276   0.607239
 Mulliken charges:
               1
     1  Br  -0.041718
     2  C    0.067858
     3  N   -0.430284
     4  C    0.262718
     5  C   -0.074111
     6  C   -0.103536
     7  C   -0.070251
     8  C   -0.114598
     9  C   -0.154752
    10  S    0.265855
    11  H    0.105422
    12  H    0.093306
    13  H    0.092702
    14  H    0.101390
 Sum of Mulliken charges =  -0.00000
 Mulliken charges with hydrogens summed into heavy atoms:
               1
     1  Br  -0.041718
     2  C    0.067858
     3  N   -0.430284
     4  C    0.262718
     5  C    0.031311
     6  C   -0.010230
     7  C    0.022451
     8  C   -0.013208
     9  C   -0.154752
    10  S    0.265855
 Electronic spatial extent (au):  <R**2>=           2581.0697
 Charge=             -0.0000 electrons
 Dipole moment (field-independent basis, Debye):
    X=             -1.8483    Y=              0.9962    Z=              0.0001  Tot=              2.0997
 Quadrupole moment (field-independent basis, Debye-Ang):
   XX=            -65.1627   YY=            -73.0664   ZZ=            -78.1382
   XY=              0.4212   XZ=             -0.0001   YZ=             -0.0004
 Traceless Quadrupole moment (field-independent basis, Debye-Ang):
   XX=              6.9597   YY=             -0.9440   ZZ=             -6.0157
   XY=              0.4212   XZ=             -0.0001   YZ=             -0.0004
 Octapole moment (field-independent basis, Debye-Ang**2):
  XXX=             66.5099  YYY=             -4.1210  ZZZ=              0.0013  XYY=             14.5551
  XXY=             -3.6836  XXZ=              0.0025  XZZ=             36.8947  YZZ=             -2.5093
  YYZ=              0.0012  XYZ=              0.0002
 Hexadecapole moment (field-independent basis, Debye-Ang**3):
 XXXX=          -2177.7125 YYYY=           -522.2766 ZZZZ=            -84.5080 XXXY=            -22.8146
 XXXZ=              0.0067 YYYX=            -13.4706 YYYZ=             -0.0034 ZZZX=              0.0091
 ZZZY=             -0.0014 XXYY=           -460.3762 XXZZ=           -449.9759 YYZZ=           -112.2294
 XXYZ=             -0.0030 YYXZ=              0.0004 ZZXY=             -8.2106
 N-N= 8.024040566923D+02 E-N=-9.435109095826D+03  KE= 3.274094034311D+03
 No NMR shielding tensors so no spin-rotation constants.
 Leave Link  601 at Tue Sep 17 09:51:35 2024, MaxMem=  1342177280 cpu:               0.7 elap:               0.1
 (Enter /groups/ReismanLab/Software/Gaussian16_RevC/Linux_Binary_AVX2-enabled-CPU/g16/l701.exe)
 ... and contract with generalized density number  0.
 Compute integral first derivatives.
 R6Disp: Adding Grimme-D3(BJ) dispersion energy 1st derivatives to the gradient.
 Leave Link  701 at Tue Sep 17 09:51:35 2024, MaxMem=  1342177280 cpu:               0.6 elap:               0.1
 (Enter /groups/ReismanLab/Software/Gaussian16_RevC/Linux_Binary_AVX2-enabled-CPU/g16/l702.exe)
 L702 exits ... SP integral derivatives will be done elsewhere.
 Leave Link  702 at Tue Sep 17 09:51:35 2024, MaxMem=  1342177280 cpu:               0.0 elap:               0.0
 (Enter /groups/ReismanLab/Software/Gaussian16_RevC/Linux_Binary_AVX2-enabled-CPU/g16/l703.exe)
 Integral derivatives from FoFJK, PRISM(SPDF).
 Compute integral first derivatives, UseDBF=F ICtDFT=           0.
 Calling FoFJK, ICntrl=      2127 FMM=F ISym2X=0 I1Cent= 0 IOpClX= 0 NMat=1 NMatS=1 NMatT=0.
 FoFJK:  IHMeth= 1 ICntrl=    2127 DoSepK=F KAlg= 0 I1Cent=           0 FoldK=F
 IRaf=         0 NMat=       1 IRICut=       1 DoRegI=T DoRafI=F ISym2E= 0 IDoP0=0 IntGTp=1.
 FoFCou: FMM=F IPFlag=           0 FMFlag=      100000 FMFlg1=         800
         NFxFlg=           0 DoJE=F BraDBF=F KetDBF=F FulRan=T
         wScrn=  0.000000 ICntrl=      2127 IOpCl=  0 I1Cent=           0 NGrid=           0
         NMat0=    1 NMatS0=      1 NMatT0=    0 NMatD0=    1 NMtDS0=    0 NMtDT0=    0
 Symmetry not used in FoFCou.
 Leave Link  703 at Tue Sep 17 09:51:38 2024, MaxMem=  1342177280 cpu:              19.6 elap:               2.5
 (Enter /groups/ReismanLab/Software/Gaussian16_RevC/Linux_Binary_AVX2-enabled-CPU/g16/l716.exe)
 Dipole        =-7.27189667D-01 3.91919118D-01 3.67142632D-05
 ***** Axes restored to original set *****
 -------------------------------------------------------------------
 Center     Atomic                   Forces (Hartrees/Bohr)
 Number     Number              X              Y              Z
 -------------------------------------------------------------------
      1       35           0.010108058   -0.001340898    0.000001624
      2        6           0.001074864   -0.006548149    0.000004228
      3        7           0.010205350    0.019415642   -0.000002153
      4        6          -0.007872438   -0.007543717   -0.000007664
      5        6           0.002461403    0.004073066   -0.000001361
      6        6          -0.005893905    0.004308570   -0.000021387
      7        6          -0.006159478   -0.002395241    0.000023988
      8        6           0.000135121   -0.006770904    0.000000993
      9        6          -0.001193568    0.000209389    0.000008635
     10       16           0.005692550   -0.004854977   -0.000007080
     11        1           0.000728088    0.004590693    0.000006784
     12        1          -0.003375079    0.002684115    0.000004272
     13        1          -0.004088740   -0.001534739   -0.000007461
     14        1          -0.001822228   -0.004292849   -0.000003417
 -------------------------------------------------------------------
 Cartesian Forces:  Max     0.019415642 RMS     0.005004669
 Leave Link  716 at Tue Sep 17 09:51:38 2024, MaxMem=  1342177280 cpu:               0.1 elap:               0.0
 (Enter /groups/ReismanLab/Software/Gaussian16_RevC/Linux_Binary_AVX2-enabled-CPU/g16/l103.exe)

 GradGradGradGradGradGradGradGradGradGradGradGradGradGradGradGradGradGrad
 Berny optimization.
 FormGI is forming the generalized inverse of G from B-inverse, IUseBI=4.
 Internal  Forces:  Max     0.020179105 RMS     0.004738873
 Search for a local minimum.
 Step number   1 out of a maximum of   80
 All quantities printed in internal units (Hartrees-Bohrs-Radians)
 RMS Force = .47389D-02 SwitMx=.10000D-02 MixMth= 1
 Mixed Optimization -- RFO/linear search
 Second derivative matrix not updated -- first step.
 ITU=  0
     Eigenvalues ---    0.01652   0.01919   0.02100   0.02107   0.02230
     Eigenvalues ---    0.02254   0.02270   0.02299   0.02314   0.02318
     Eigenvalues ---    0.02454   0.16000   0.16000   0.16000   0.16000
     Eigenvalues ---    0.20383   0.22000   0.22593   0.24503   0.25000
     Eigenvalues ---    0.25000   0.25000   0.28603   0.30922   0.36083
     Eigenvalues ---    0.36087   0.36175   0.36272   0.38915   0.43747
     Eigenvalues ---    0.45178   0.47369   0.48382   0.49014   0.50371
     Eigenvalues ---    0.71680
 RFO step:  Lambda=-3.60299088D-03 EMin= 1.65208058D-02
 Linear search not attempted -- first point.
 Iteration  1 RMS(Cart)=  0.02096864 RMS(Int)=  0.00007197
 Iteration  2 RMS(Cart)=  0.00009914 RMS(Int)=  0.00000516
 Iteration  3 RMS(Cart)=  0.00000002 RMS(Int)=  0.00000516
 ITry= 1 IFail=0 DXMaxC= 1.01D-01 DCOld= 1.00D+10 DXMaxT= 3.00D-01 DXLimC= 3.00D+00 Rises=F
 Variable       Old X    -DE/DX   Delta X   Delta X   Delta X     New X
                                 (Linear)    (Quad)   (Total)
    R1        3.51391   0.01000   0.00000   0.04821   0.04821   3.56212
    R2        2.40524   0.01406   0.00000   0.01951   0.01952   2.42475
    R3        3.33609   0.00419   0.00000   0.01358   0.01358   3.34966
    R4        2.57930   0.02018   0.00000   0.04010   0.04011   2.61941
    R5        2.62976   0.00935   0.00000   0.01948   0.01948   2.64924
    R6        2.67171   0.00656   0.00000   0.01433   0.01432   2.68604
    R7        2.60471   0.01118   0.00000   0.02267   0.02267   2.62738
    R8        2.03659   0.00465   0.00000   0.01269   0.01269   2.04928
    R9        2.63379   0.01029   0.00000   0.02233   0.02233   2.65613
   R10        2.03952   0.00431   0.00000   0.01183   0.01183   2.05135
   R11        2.61032   0.01071   0.00000   0.02200   0.02200   2.63232
   R12        2.03946   0.00437   0.00000   0.01198   0.01198   2.05144
   R13        2.61597   0.01147   0.00000   0.02335   0.02335   2.63931
   R14        2.03809   0.00452   0.00000   0.01236   0.01236   2.05045
   R15        3.28931   0.00809   0.00000   0.02267   0.02266   3.31197
    A1        2.14971   0.00386   0.00000   0.01438   0.01438   2.16409
    A2        2.09307  -0.00313   0.00000  -0.01318  -0.01319   2.07989
    A3        2.04040  -0.00072   0.00000  -0.00119  -0.00119   2.03921
    A4        1.94447  -0.00448   0.00000  -0.00963  -0.00961   1.93486
    A5        2.19376  -0.00120   0.00000  -0.00515  -0.00515   2.18861
    A6        1.99989   0.00185   0.00000   0.01034   0.01036   2.01024
    A7        2.08954  -0.00065   0.00000  -0.00520  -0.00521   2.08433
    A8        2.07099   0.00126   0.00000   0.00540   0.00540   2.07639
    A9        2.08167  -0.00058   0.00000  -0.00241  -0.00241   2.07926
   A10        2.13052  -0.00068   0.00000  -0.00299  -0.00299   2.12753
   A11        2.11467  -0.00079   0.00000  -0.00230  -0.00229   2.11238
   A12        2.08644   0.00035   0.00000   0.00090   0.00090   2.08734
   A13        2.08207   0.00044   0.00000   0.00140   0.00139   2.08346
   A14        2.11476  -0.00076   0.00000  -0.00210  -0.00209   2.11267
   A15        2.08614   0.00036   0.00000   0.00092   0.00091   2.08706
   A16        2.08228   0.00040   0.00000   0.00118   0.00118   2.08346
   A17        2.06031  -0.00017   0.00000  -0.00087  -0.00086   2.05944
   A18        2.11751  -0.00110   0.00000  -0.00683  -0.00683   2.11068
   A19        2.10537   0.00127   0.00000   0.00770   0.00770   2.11306
   A20        2.11609   0.00111   0.00000   0.00506   0.00505   2.12114
   A21        1.91655  -0.00226   0.00000  -0.01232  -0.01233   1.90423
   A22        2.25054   0.00114   0.00000   0.00727   0.00727   2.25782
   A23        1.52347   0.00562   0.00000   0.01280   0.01278   1.53624
    D1        3.14152   0.00000   0.00000   0.00012   0.00012  -3.14155
    D2       -0.00006   0.00000   0.00000   0.00014   0.00014   0.00008
    D3       -3.14147  -0.00000   0.00000  -0.00019  -0.00019   3.14152
    D4        0.00011  -0.00000   0.00000  -0.00022  -0.00022  -0.00011
    D5       -3.14154  -0.00000   0.00000  -0.00007  -0.00007   3.14157
    D6       -0.00004   0.00000   0.00000   0.00004   0.00004   0.00001
    D7        3.14157   0.00000   0.00000   0.00006   0.00006  -3.14156
    D8        0.00008  -0.00000   0.00000  -0.00003  -0.00003   0.00006
    D9        0.00007  -0.00000   0.00000  -0.00007  -0.00007   0.00001
   D10       -3.14142  -0.00000   0.00000  -0.00015  -0.00015  -3.14157
   D11       -3.14151  -0.00000   0.00000  -0.00012  -0.00012   3.14155
   D12        0.00012  -0.00000   0.00000  -0.00020  -0.00020  -0.00008
   D13        0.00000  -0.00000   0.00000  -0.00001  -0.00001  -0.00001
   D14       -3.14156  -0.00000   0.00000  -0.00009  -0.00009   3.14154
   D15       -0.00016   0.00000   0.00000   0.00018   0.00018   0.00001
   D16       -3.14152  -0.00000   0.00000  -0.00006  -0.00005  -3.14157
   D17        3.14132   0.00001   0.00000   0.00026   0.00026   3.14159
   D18       -0.00003   0.00000   0.00000   0.00003   0.00003  -0.00000
   D19        0.00019  -0.00001   0.00000  -0.00021  -0.00021  -0.00003
   D20        3.14151   0.00000   0.00000   0.00005   0.00005   3.14156
   D21        3.14154   0.00000   0.00000   0.00002   0.00002   3.14156
   D22       -0.00032   0.00001   0.00000   0.00028   0.00028  -0.00004
   D23       -0.00011   0.00000   0.00000   0.00013   0.00013   0.00002
   D24        3.14143   0.00001   0.00000   0.00020   0.00020  -3.14156
   D25       -3.14144  -0.00000   0.00000  -0.00013  -0.00013  -3.14157
   D26        0.00010  -0.00000   0.00000  -0.00006  -0.00006   0.00004
   D27        0.00002  -0.00000   0.00000  -0.00002  -0.00002   0.00000
   D28        3.14157   0.00000   0.00000   0.00008   0.00008  -3.14154
   D29       -3.14152  -0.00000   0.00000  -0.00009  -0.00009   3.14158
   D30        0.00003  -0.00000   0.00000   0.00001   0.00001   0.00004
   D31       -0.00012   0.00000   0.00000   0.00022   0.00022   0.00010
   D32        3.14151   0.00000   0.00000   0.00013   0.00013  -3.14154
         Item               Value     Threshold  Converged?
 Maximum Force            0.020179     0.000450     NO 
 RMS     Force            0.004739     0.000300     NO 
 Maximum Displacement     0.101398     0.001800     NO 
 RMS     Displacement     0.020986     0.001200     NO 
 Predicted change in Energy=-1.818326D-03
 Lowest energy point so far.  Saving SCF results.
 GradGradGradGradGradGradGradGradGradGradGradGradGradGradGradGradGradGrad

 Leave Link  103 at Tue Sep 17 09:51:38 2024, MaxMem=  1342177280 cpu:               0.1 elap:               0.0
 (Enter /groups/ReismanLab/Software/Gaussian16_RevC/Linux_Binary_AVX2-enabled-CPU/g16/l202.exe)
                          Input orientation:                          
 ---------------------------------------------------------------------
 Center     Atomic      Atomic             Coordinates (Angstroms)
 Number     Number       Type             X           Y           Z
 ---------------------------------------------------------------------
      1         35           0        2.600835    0.175215    0.000202
      2          6           0        0.718033    0.084328    0.000059
      3          7           0       -0.049816    1.112344    0.000051
      4          6           0       -1.382934    0.732656   -0.000014
      5          6           0       -2.476967    1.609279   -0.000013
      6          6           0       -3.763084    1.081093   -0.000038
      7          6           0       -3.975776   -0.308283   -0.000049
      8          6           0       -2.904820   -1.199012   -0.000064
      9          6           0       -1.612166   -0.670127   -0.000047
     10         16           0       -0.070255   -1.503309   -0.000133
     11          1           0       -2.296651    2.678613   -0.000010
     12          1           0       -4.617589    1.750562   -0.000056
     13          1           0       -4.990086   -0.695123   -0.000039
     14          1           0       -3.071151   -2.271238   -0.000105
 ---------------------------------------------------------------------
                    Distance matrix (angstroms):
                    1          2          3          4          5
     1  Br   0.000000
     2  C    1.884994   0.000000
     3  N    2.811434   1.283125   0.000000
     4  C    4.022581   2.198725   1.386134   0.000000
     5  C    5.276420   3.540268   2.477500   1.401918   0.000000
     6  C    6.428069   4.590637   3.713399   2.405518   1.390351
     7  C    6.594359   4.710200   4.175086   2.793990   2.433818
     8  C    5.674569   3.843439   3.673338   2.459162   2.840696
     9  C    4.296973   2.449292   2.370262   1.421389   2.437944
    10  S    3.154705   1.772566   2.615733   2.592810   3.934522
    11  H    5.500215   3.977265   2.738881   2.149798   1.084431
    12  H    7.388326   5.589740   4.612144   3.391036   2.145279
    13  H    7.640652   5.761091   5.260533   3.879445   3.409697
    14  H    6.177099   4.461682   4.536198   3.445788   3.925744
                    6          7          8          9         10
     6  C    0.000000
     7  C    1.405561   0.000000
     8  C    2.436288   1.392963   0.000000
     9  C    2.773665   2.391147   1.396665   0.000000
    10  S    4.507340   4.084260   2.850851   1.752621   0.000000
    11  H    2.168524   3.426516   3.925029   3.417979   4.737648
    12  H    1.085527   2.156563   3.410801   3.859054   5.591593
    13  H    2.158814   1.085574   2.145284   3.378013   4.985770
    14  H    3.422995   2.161375   1.085051   2.166147   3.097594
                   11         12         13         14
    11  H    0.000000
    12  H    2.499606   0.000000
    13  H    4.317023   2.473889   0.000000
    14  H    5.010078   4.308869   2.483234   0.000000
 Stoichiometry    C7H4BrNS
 Framework group  C1[X(C7H4BrNS)]
 Deg. of freedom    36
 Full point group                 C1      NOp   1
 RotChk:  IX=0 Diff= 4.21D-03
 Largest Abelian subgroup         C1      NOp   1
 Largest concise Abelian subgroup C1      NOp   1
                         Standard orientation:                         
 ---------------------------------------------------------------------
 Center     Atomic      Atomic             Coordinates (Angstroms)
 Number     Number       Type             X           Y           Z
 ---------------------------------------------------------------------
      1         35           0        2.769635   -0.215416   -0.000163
      2          6           0        0.888072   -0.101738   -0.000020
      3          7           0        0.107831   -1.120382   -0.000012
      4          6           0       -1.220592   -0.724580    0.000053
      5          6           0       -2.325158   -1.587891    0.000052
      6          6           0       -3.604786   -1.044172    0.000078
      7          6           0       -3.800640    0.347677    0.000088
      8          6           0       -2.718977    1.225374    0.000103
      9          6           0       -1.432822    0.680876    0.000087
     10         16           0        0.119064    1.495327    0.000173
     11          1           0       -2.157804   -2.659331    0.000050
     12          1           0       -4.467334   -1.703246    0.000095
     13          1           0       -4.810192    0.746770    0.000078
     14          1           0       -2.872313    2.299536    0.000144
 ---------------------------------------------------------------------
 Rotational constants (GHZ):           2.7556484           0.4246050           0.3679147
 Leave Link  202 at Tue Sep 17 09:51:38 2024, MaxMem=  1342177280 cpu:               0.0 elap:               0.0
 (Enter /groups/ReismanLab/Software/Gaussian16_RevC/Linux_Binary_AVX2-enabled-CPU/g16/l301.exe)
 Standard basis: 6-31G(d,p) (6D, 7F)
 Ernie: Thresh=  0.10000D-02 Tol=  0.10000D-05 Strict=F.
 There are   189 symmetry adapted cartesian basis functions of A   symmetry.
 There are   189 symmetry adapted basis functions of A   symmetry.
   189 basis functions,   387 primitive gaussians,   189 cartesian basis functions
    52 alpha electrons       52 beta electrons
       nuclear repulsion energy       795.2077724558 Hartrees.
 IExCor=  402 DFT=T Ex+Corr=B3LYP ExCW=0 ScaHFX=  0.200000
 ScaDFX=  0.800000  0.720000  1.000000  0.810000 ScalE2=  1.000000  1.000000
 IRadAn=      5 IRanWt=     -1 IRanGd=            0 ICorTp=0 IEmpDi=141
 NAtoms=   14 NActive=   14 NUniq=   14 SFac= 1.00D+00 NAtFMM=   60 NAOKFM=F Big=F
 Integral buffers will be    131072 words long.
 Raffenetti 2 integral format.
 Two-electron integral symmetry is turned on.
 R6Disp:  Grimme-D3(BJ) Dispersion energy=       -0.0351077500 Hartrees.
 Nuclear repulsion after empirical dispersion term =      795.1726647058 Hartrees.
 Leave Link  301 at Tue Sep 17 09:51:38 2024, MaxMem=  1342177280 cpu:               0.1 elap:               0.0
 (Enter /groups/ReismanLab/Software/Gaussian16_RevC/Linux_Binary_AVX2-enabled-CPU/g16/l302.exe)
 NPDir=0 NMtPBC=     1 NCelOv=     1 NCel=       1 NClECP=     1 NCelD=      1
         NCelK=      1 NCelE2=     1 NClLst=     1 CellRange=     0.0.
 One-electron integrals computed using PRISM.
 One-electron integral symmetry used in STVInt
 NBasis=   189 RedAO= T EigKep=  4.69D-04  NBF=   189
 NBsUse=   189 1.00D-06 EigRej= -1.00D+00 NBFU=   189
 Precomputing XC quadrature grid using
 IXCGrd= 4 IRadAn=           5 IRanWt=          -1 IRanGd=           0 AccXCQ= 0.00D+00.
 Generated NRdTot=       0 NPtTot=           0 NUsed=           0 NTot=          32
 NSgBfM=   188   188   188   188   188 MxSgAt=    14 MxSgA2=    14.
 Leave Link  302 at Tue Sep 17 09:51:38 2024, MaxMem=  1342177280 cpu:               0.8 elap:               0.1
 (Enter /groups/ReismanLab/Software/Gaussian16_RevC/Linux_Binary_AVX2-enabled-CPU/g16/l303.exe)
 DipDrv:  MaxL=1.
 Leave Link  303 at Tue Sep 17 09:51:38 2024, MaxMem=  1342177280 cpu:               0.1 elap:               0.0
 (Enter /groups/ReismanLab/Software/Gaussian16_RevC/Linux_Binary_AVX2-enabled-CPU/g16/l401.exe)
 Initial guess from the checkpoint file:  "smiles_00114_conf_0.chk"
 B after Tr=    -0.000000    0.000000    0.000000
         Rot=    1.000000   -0.000027   -0.000019    0.000247 Ang=  -0.03 deg.
 Guess basis will be translated and rotated to current coordinates.
 JPrj=2 DoOrth=T DoCkMO=T.
 Generating alternative initial guess.
 ExpMin= 1.17D-01 ExpMax= 5.74D+05 ExpMxC= 5.74D+03 IAcc=3 IRadAn=         5 AccDes= 0.00D+00
 Harris functional with IExCor=  402 and IRadAn=       5 diagonalized for initial guess.
 HarFok:  IExCor=  402 AccDes= 0.00D+00 IRadAn=         5 IDoV= 1 UseB2=F ITyADJ=14
 ICtDFT=  3500011 ScaDFX=  1.000000  1.000000  1.000000  1.000000
 FoFCou: FMM=F IPFlag=           0 FMFlag=      100000 FMFlg1=           0
         NFxFlg=           0 DoJE=T BraDBF=F KetDBF=T FulRan=T
         wScrn=  0.000000 ICntrl=       500 IOpCl=  0 I1Cent=   200000004 NGrid=           0
         NMat0=    1 NMatS0=      1 NMatT0=    0 NMatD0=    1 NMtDS0=    0 NMtDT0=    0
 Petite list used in FoFCou.
 Harris En= -3293.89684465529    
 Leave Link  401 at Tue Sep 17 09:51:39 2024, MaxMem=  1342177280 cpu:               3.6 elap:               0.5
 (Enter /groups/ReismanLab/Software/Gaussian16_RevC/Linux_Binary_AVX2-enabled-CPU/g16/l502.exe)
 Integral symmetry usage will be decided dynamically.
 Closed shell SCF:
 Using DIIS extrapolation, IDIIS=  1040.
 NGot=  1342177280 LenX=  1342102048 LenY=  1342065886
 Requested convergence on RMS density matrix=1.00D-08 within  32 cycles.
 Requested convergence on MAX density matrix=1.00D-06.
 Requested convergence on             energy=1.00D-06.
 No special actions if energy rises.
 Fock matrices will be formed incrementally for  20 cycles.
 Integral accuracy reduced to 1.0D-05 until final iterations.

 Cycle   1  Pass 0  IDiag  1:
 FoFJK:  IHMeth= 1 ICntrl=       0 DoSepK=F KAlg= 0 I1Cent=           0 FoldK=F
 IRaf= 870000000 NMat=       1 IRICut=       1 DoRegI=T DoRafI=F ISym2E= 0 IDoP0=0 IntGTp=1.
 FoFCou: FMM=F IPFlag=           0 FMFlag=      100000 FMFlg1=           0
         NFxFlg=           0 DoJE=F BraDBF=F KetDBF=F FulRan=T
         wScrn=  0.000000 ICntrl=         0 IOpCl=  0 I1Cent=           0 NGrid=           0
         NMat0=    1 NMatS0=      1 NMatT0=    0 NMatD0=    1 NMtDS0=    0 NMtDT0=    0
 Symmetry not used in FoFCou.
 E= -3293.84096830453    
 DIIS: error= 3.74D-03 at cycle   1 NSaved=   1.
 NSaved= 1 IEnMin= 1 EnMin= -3293.84096830453     IErMin= 1 ErrMin= 3.74D-03
 ErrMax= 3.74D-03  0.00D+00 EMaxC= 1.00D-01 BMatC= 2.32D-03 BMatP= 2.32D-03
 IDIUse=3 WtCom= 9.63D-01 WtEn= 3.74D-02
 Coeff-Com:  0.100D+01
 Coeff-En:   0.100D+01
 Coeff:      0.100D+01
 Gap=     1.728 Goal=   None    Shift=    0.000
 GapD=    1.728 DampG=2.000 DampE=1.000 DampFc=2.0000 IDamp=-1.
 RMSDP=3.23D-04 MaxDP=5.74D-03              OVMax= 6.86D-03

 Cycle   2  Pass 0  IDiag  1:
 RMSU=  3.22D-04    CP:  1.00D+00
 E= -3293.84155482944     Delta-E=       -0.000586524914 Rises=F Damp=F
 DIIS: error= 6.58D-04 at cycle   2 NSaved=   2.
 NSaved= 2 IEnMin= 2 EnMin= -3293.84155482944     IErMin= 2 ErrMin= 6.58D-04
 ErrMax= 6.58D-04  0.00D+00 EMaxC= 1.00D-01 BMatC= 1.06D-04 BMatP= 2.32D-03
 IDIUse=3 WtCom= 9.93D-01 WtEn= 6.58D-03
 Coeff-Com:  0.728D-01 0.927D+00
 Coeff-En:   0.000D+00 0.100D+01
 Coeff:      0.723D-01 0.928D+00
 Gap=     0.197 Goal=   None    Shift=    0.000
 RMSDP=1.50D-04 MaxDP=3.93D-03 DE=-5.87D-04 OVMax= 4.95D-03

 Cycle   3  Pass 0  IDiag  1:
 RMSU=  1.50D-04    CP:  1.00D+00  1.01D+00
 E= -3293.84146065709     Delta-E=        0.000094172357 Rises=F Damp=F
 DIIS: error= 8.61D-04 at cycle   3 NSaved=   3.
 NSaved= 3 IEnMin= 2 EnMin= -3293.84155482944     IErMin= 2 ErrMin= 6.58D-04
 ErrMax= 8.61D-04  0.00D+00 EMaxC= 1.00D-01 BMatC= 1.87D-04 BMatP= 1.06D-04
 IDIUse=3 WtCom= 2.54D-01 WtEn= 7.46D-01
 Coeff-Com:  0.221D-02 0.572D+00 0.426D+00
 Coeff-En:   0.000D+00 0.626D+00 0.374D+00
 Coeff:      0.561D-03 0.612D+00 0.387D+00
 Gap=     0.197 Goal=   None    Shift=    0.000
 RMSDP=8.99D-05 MaxDP=2.53D-03 DE= 9.42D-05 OVMax= 3.48D-03

 Cycle   4  Pass 0  IDiag  1:
 RMSU=  3.26D-05    CP:  1.00D+00  1.02D+00  4.41D-01
 E= -3293.84166635505     Delta-E=       -0.000205697969 Rises=F Damp=F
 DIIS: error= 1.76D-04 at cycle   4 NSaved=   4.
 NSaved= 4 IEnMin= 4 EnMin= -3293.84166635505     IErMin= 4 ErrMin= 1.76D-04
 ErrMax= 1.76D-04  0.00D+00 EMaxC= 1.00D-01 BMatC= 4.62D-06 BMatP= 1.06D-04
 IDIUse=3 WtCom= 9.98D-01 WtEn= 1.76D-03
 Coeff-Com: -0.128D-02 0.298D+00 0.208D+00 0.496D+00
 Coeff-En:   0.000D+00 0.000D+00 0.000D+00 0.100D+01
 Coeff:     -0.128D-02 0.298D+00 0.207D+00 0.496D+00
 Gap=     0.197 Goal=   None    Shift=    0.000
 RMSDP=1.78D-05 MaxDP=3.65D-04 DE=-2.06D-04 OVMax= 1.05D-03

 Cycle   5  Pass 0  IDiag  1:
 RMSU=  1.17D-05    CP:  1.00D+00  1.03D+00  4.23D-01  6.13D-01
 E= -3293.84167082194     Delta-E=       -0.000004466881 Rises=F Damp=F
 DIIS: error= 5.93D-05 at cycle   5 NSaved=   5.
 NSaved= 5 IEnMin= 5 EnMin= -3293.84167082194     IErMin= 5 ErrMin= 5.93D-05
 ErrMax= 5.93D-05  0.00D+00 EMaxC= 1.00D-01 BMatC= 5.91D-07 BMatP= 4.62D-06
 IDIUse=1 WtCom= 1.00D+00 WtEn= 0.00D+00
 Coeff-Com: -0.108D-02 0.102D+00 0.724D-01 0.281D+00 0.545D+00
 Coeff:     -0.108D-02 0.102D+00 0.724D-01 0.281D+00 0.545D+00
 Gap=     0.197 Goal=   None    Shift=    0.000
 RMSDP=5.50D-06 MaxDP=1.33D-04 DE=-4.47D-06 OVMax= 3.39D-04

 Initial convergence to 1.0D-05 achieved.  Increase integral accuracy.
 Cycle   6  Pass 1  IDiag  1:
 E= -3293.84166372893     Delta-E=        0.000007093004 Rises=F Damp=F
 DIIS: error= 1.72D-05 at cycle   1 NSaved=   1.
 NSaved= 1 IEnMin= 1 EnMin= -3293.84166372893     IErMin= 1 ErrMin= 1.72D-05
 ErrMax= 1.72D-05  0.00D+00 EMaxC= 1.00D-01 BMatC= 1.09D-07 BMatP= 1.09D-07
 IDIUse=1 WtCom= 1.00D+00 WtEn= 0.00D+00
 Coeff-Com:  0.100D+01
 Coeff:      0.100D+01
 Gap=     0.197 Goal=   None    Shift=    0.000
 RMSDP=5.50D-06 MaxDP=1.33D-04 DE= 7.09D-06 OVMax= 2.53D-04

 Cycle   7  Pass 1  IDiag  1:
 RMSU=  9.51D-06    CP:  1.00D+00
 E= -3293.84166359145     Delta-E=        0.000000137484 Rises=F Damp=F
 DIIS: error= 3.92D-05 at cycle   2 NSaved=   2.
 NSaved= 2 IEnMin= 1 EnMin= -3293.84166372893     IErMin= 1 ErrMin= 1.72D-05
 ErrMax= 3.92D-05  0.00D+00 EMaxC= 1.00D-01 BMatC= 2.12D-07 BMatP= 1.09D-07
 IDIUse=1 WtCom= 1.00D+00 WtEn= 0.00D+00
 Coeff-Com:  0.598D+00 0.402D+00
 Coeff:      0.598D+00 0.402D+00
 Gap=     0.197 Goal=   None    Shift=    0.000
 RMSDP=3.34D-06 MaxDP=1.00D-04 DE= 1.37D-07 OVMax= 2.26D-04

 Cycle   8  Pass 1  IDiag  1:
 RMSU=  3.05D-06    CP:  1.00D+00  8.59D-01
 E= -3293.84166380309     Delta-E=       -0.000000211638 Rises=F Damp=F
 DIIS: error= 1.10D-05 at cycle   3 NSaved=   3.
 NSaved= 3 IEnMin= 3 EnMin= -3293.84166380309     IErMin= 3 ErrMin= 1.10D-05
 ErrMax= 1.10D-05  0.00D+00 EMaxC= 1.00D-01 BMatC= 1.84D-08 BMatP= 1.09D-07
 IDIUse=1 WtCom= 1.00D+00 WtEn= 0.00D+00
 Coeff-Com:  0.859D-01 0.230D+00 0.684D+00
 Coeff:      0.859D-01 0.230D+00 0.684D+00
 Gap=     0.197 Goal=   None    Shift=    0.000
 RMSDP=1.12D-06 MaxDP=4.16D-05 DE=-2.12D-07 OVMax= 6.22D-05

 Cycle   9  Pass 1  IDiag  1:
 RMSU=  7.35D-07    CP:  1.00D+00  8.94D-01  7.45D-01
 E= -3293.84166381958     Delta-E=       -0.000000016492 Rises=F Damp=F
 DIIS: error= 3.40D-06 at cycle   4 NSaved=   4.
 NSaved= 4 IEnMin= 4 EnMin= -3293.84166381958     IErMin= 4 ErrMin= 3.40D-06
 ErrMax= 3.40D-06  0.00D+00 EMaxC= 1.00D-01 BMatC= 3.57D-09 BMatP= 1.84D-08
 IDIUse=1 WtCom= 1.00D+00 WtEn= 0.00D+00
 Coeff-Com:  0.266D-02 0.109D+00 0.434D+00 0.454D+00
 Coeff:      0.266D-02 0.109D+00 0.434D+00 0.454D+00
 Gap=     0.197 Goal=   None    Shift=    0.000
 RMSDP=4.09D-07 MaxDP=2.00D-05 DE=-1.65D-08 OVMax= 2.12D-05

 Cycle  10  Pass 1  IDiag  1:
 RMSU=  1.38D-07    CP:  1.00D+00  8.96D-01  7.79D-01  4.96D-01
 E= -3293.84166382336     Delta-E=       -0.000000003782 Rises=F Damp=F
 DIIS: error= 6.59D-07 at cycle   5 NSaved=   5.
 NSaved= 5 IEnMin= 5 EnMin= -3293.84166382336     IErMin= 5 ErrMin= 6.59D-07
 ErrMax= 6.59D-07  0.00D+00 EMaxC= 1.00D-01 BMatC= 1.38D-10 BMatP= 3.57D-09
 IDIUse=1 WtCom= 1.00D+00 WtEn= 0.00D+00
 Coeff-Com: -0.236D-02 0.542D-01 0.227D+00 0.265D+00 0.456D+00
 Coeff:     -0.236D-02 0.542D-01 0.227D+00 0.265D+00 0.456D+00
 Gap=     0.197 Goal=   None    Shift=    0.000
 RMSDP=7.57D-08 MaxDP=2.34D-06 DE=-3.78D-09 OVMax= 3.77D-06

 Cycle  11  Pass 1  IDiag  1:
 RMSU=  3.93D-08    CP:  1.00D+00  8.96D-01  7.81D-01  4.95D-01  5.36D-01
 E= -3293.84166382352     Delta-E=       -0.000000000156 Rises=F Damp=F
 DIIS: error= 1.23D-07 at cycle   6 NSaved=   6.
 NSaved= 6 IEnMin= 6 EnMin= -3293.84166382352     IErMin= 6 ErrMin= 1.23D-07
 ErrMax= 1.23D-07  0.00D+00 EMaxC= 1.00D-01 BMatC= 3.69D-12 BMatP= 1.38D-10
 IDIUse=1 WtCom= 1.00D+00 WtEn= 0.00D+00
 Coeff-Com: -0.131D-02 0.223D-01 0.938D-01 0.113D+00 0.226D+00 0.546D+00
 Coeff:     -0.131D-02 0.223D-01 0.938D-01 0.113D+00 0.226D+00 0.546D+00
 Gap=     0.197 Goal=   None    Shift=    0.000
 RMSDP=1.54D-08 MaxDP=4.63D-07 DE=-1.56D-10 OVMax= 8.62D-07

 Cycle  12  Pass 1  IDiag  1:
 RMSU=  1.29D-08    CP:  1.00D+00  8.96D-01  7.80D-01  4.98D-01  5.48D-01
                    CP:  8.14D-01
 E= -3293.84166382348     Delta-E=        0.000000000040 Rises=F Damp=F
 DIIS: error= 3.91D-08 at cycle   7 NSaved=   7.
 NSaved= 7 IEnMin= 6 EnMin= -3293.84166382352     IErMin= 7 ErrMin= 3.91D-08
 ErrMax= 3.91D-08  0.00D+00 EMaxC= 1.00D-01 BMatC= 5.52D-13 BMatP= 3.69D-12
 IDIUse=1 WtCom= 1.00D+00 WtEn= 0.00D+00
 Coeff-Com: -0.370D-03 0.463D-02 0.194D-01 0.249D-01 0.583D-01 0.298D+00
 Coeff-Com:  0.595D+00
 Coeff:     -0.370D-03 0.463D-02 0.194D-01 0.249D-01 0.583D-01 0.298D+00
 Coeff:      0.595D+00
 Gap=     0.197 Goal=   None    Shift=    0.000
 RMSDP=5.71D-09 MaxDP=2.10D-07 DE= 3.96D-11 OVMax= 2.65D-07

 SCF Done:  E(RB3LYP) =  -3293.84166382     A.U. after   12 cycles
            NFock= 12  Conv=0.57D-08     -V/T= 2.0061
 KE= 3.273735946684D+03 PE=-9.420333592808D+03 EE= 2.057583317594D+03
 Leave Link  502 at Tue Sep 17 09:51:46 2024, MaxMem=  1342177280 cpu:              54.6 elap:               7.7
 (Enter /groups/ReismanLab/Software/Gaussian16_RevC/Linux_Binary_AVX2-enabled-CPU/g16/l508.exe)
 QCSCF skips out because SCF is already converged.
 Leave Link  508 at Tue Sep 17 09:51:46 2024, MaxMem=  1342177280 cpu:               0.0 elap:               0.0
 (Enter /groups/ReismanLab/Software/Gaussian16_RevC/Linux_Binary_AVX2-enabled-CPU/g16/l701.exe)
 ... and contract with generalized density number  0.
 Compute integral first derivatives.
 R6Disp: Adding Grimme-D3(BJ) dispersion energy 1st derivatives to the gradient.
 Leave Link  701 at Tue Sep 17 09:51:46 2024, MaxMem=  1342177280 cpu:               0.7 elap:               0.1
 (Enter /groups/ReismanLab/Software/Gaussian16_RevC/Linux_Binary_AVX2-enabled-CPU/g16/l702.exe)
 L702 exits ... SP integral derivatives will be done elsewhere.
 Leave Link  702 at Tue Sep 17 09:51:46 2024, MaxMem=  1342177280 cpu:               0.1 elap:               0.0
 (Enter /groups/ReismanLab/Software/Gaussian16_RevC/Linux_Binary_AVX2-enabled-CPU/g16/l703.exe)
 Integral derivatives from FoFJK, PRISM(SPDF).
 Compute integral first derivatives, UseDBF=F ICtDFT=           0.
 Calling FoFJK, ICntrl=      2127 FMM=F ISym2X=0 I1Cent= 0 IOpClX= 0 NMat=1 NMatS=1 NMatT=0.
 FoFJK:  IHMeth= 1 ICntrl=    2127 DoSepK=F KAlg= 0 I1Cent=           0 FoldK=F
 IRaf=         0 NMat=       1 IRICut=       1 DoRegI=T DoRafI=F ISym2E= 0 IDoP0=0 IntGTp=1.
 FoFCou: FMM=F IPFlag=           0 FMFlag=      100000 FMFlg1=         800
         NFxFlg=           0 DoJE=F BraDBF=F KetDBF=F FulRan=T
         wScrn=  0.000000 ICntrl=      2127 IOpCl=  0 I1Cent=           0 NGrid=           0
         NMat0=    1 NMatS0=      1 NMatT0=    0 NMatD0=    1 NMtDS0=    0 NMtDT0=    0
 Symmetry not used in FoFCou.
 Leave Link  703 at Tue Sep 17 09:51:49 2024, MaxMem=  1342177280 cpu:              19.6 elap:               2.5
 (Enter /groups/ReismanLab/Software/Gaussian16_RevC/Linux_Binary_AVX2-enabled-CPU/g16/l716.exe)
 Dipole        =-7.57068414D-01 4.00093641D-01 5.06978754D-05
 ***** Axes restored to original set *****
 -------------------------------------------------------------------
 Center     Atomic                   Forces (Hartrees/Bohr)
 Number     Number              X              Y              Z
 -------------------------------------------------------------------
      1       35          -0.001222443   -0.000573152   -0.000001045
      2        6          -0.004829992    0.000009418   -0.000006643
      3        7           0.004263960    0.003212719    0.000003951
      4        6          -0.004123264   -0.004283862    0.000002837
      5        6           0.000834389   -0.000348747   -0.000001530
      6        6           0.000660545   -0.000193389    0.000000100
      7        6           0.001105131    0.000347475    0.000000536
      8        6           0.000786448    0.000438096   -0.000001587
      9        6          -0.001002111    0.003084870   -0.000005791
     10       16           0.003136012   -0.001892375    0.000007514
     11        1          -0.000207200   -0.000093998    0.000000847
     12        1           0.000347750   -0.000098039    0.000000888
     13        1           0.000301593    0.000021845   -0.000000989
     14        1          -0.000050819    0.000369138    0.000000913
 -------------------------------------------------------------------
 Cartesian Forces:  Max     0.004829992 RMS     0.001667623
 Leave Link  716 at Tue Sep 17 09:51:49 2024, MaxMem=  1342177280 cpu:               0.0 elap:               0.0
 (Enter /groups/ReismanLab/Software/Gaussian16_RevC/Linux_Binary_AVX2-enabled-CPU/g16/l103.exe)

 GradGradGradGradGradGradGradGradGradGradGradGradGradGradGradGradGradGrad
 Berny optimization.
 Using GEDIIS/GDIIS optimizer.
 FormGI is forming the generalized inverse of G from B-inverse, IUseBI=4.
 Internal  Forces:  Max     0.003683741 RMS     0.000963328
 Search for a local minimum.
 Step number   2 out of a maximum of   80
 All quantities printed in internal units (Hartrees-Bohrs-Radians)
 RMS Force = .96333D-03 SwitMx=.10000D-02 MixMth= 2
 Mixed Optimization -- En-DIIS/RFO-DIIS
 Update second derivatives using D2CorX and points    1    2
 DE= -1.68D-03 DEPred=-1.82D-03 R= 9.22D-01
 TightC=F SS=  1.41D+00  RLast= 9.71D-02 DXNew= 5.0454D-01 2.9134D-01
 Trust test= 9.22D-01 RLast= 9.71D-02 DXMaxT set to 3.00D-01
 ITU=  1  0
 Use linear search instead of GDIIS.
     Eigenvalues ---    0.01648   0.01922   0.02105   0.02122   0.02230
     Eigenvalues ---    0.02254   0.02270   0.02299   0.02314   0.02318
     Eigenvalues ---    0.02448   0.15961   0.16000   0.16000   0.16006
     Eigenvalues ---    0.20237   0.21988   0.22622   0.23565   0.24573
     Eigenvalues ---    0.25000   0.26039   0.28766   0.30763   0.36085
     Eigenvalues ---    0.36129   0.36232   0.36398   0.39181   0.43785
     Eigenvalues ---    0.45456   0.47907   0.48422   0.48535   0.52933
     Eigenvalues ---    0.73009
 RFO step:  Lambda=-1.92053778D-04 EMin= 1.64761526D-02
 Quartic linear search produced a step of -0.05338.
 Iteration  1 RMS(Cart)=  0.00415633 RMS(Int)=  0.00001303
 Iteration  2 RMS(Cart)=  0.00001583 RMS(Int)=  0.00000484
 Iteration  3 RMS(Cart)=  0.00000000 RMS(Int)=  0.00000484
 ITry= 1 IFail=0 DXMaxC= 1.88D-02 DCOld= 1.00D+10 DXMaxT= 3.00D-01 DXLimC= 3.00D+00 Rises=F
 Variable       Old X    -DE/DX   Delta X   Delta X   Delta X     New X
                                 (Linear)    (Quad)   (Total)
    R1        3.56212  -0.00125  -0.00257  -0.00080  -0.00338   3.55874
    R2        2.42475  -0.00128  -0.00104   0.00044  -0.00059   2.42416
    R3        3.34966  -0.00096  -0.00072  -0.00177  -0.00248   3.34718
    R4        2.61941   0.00158  -0.00214   0.00712   0.00497   2.62439
    R5        2.64924  -0.00161  -0.00104  -0.00121  -0.00225   2.64699
    R6        2.68604  -0.00202  -0.00076  -0.00293  -0.00370   2.68233
    R7        2.62738  -0.00156  -0.00121  -0.00056  -0.00177   2.62562
    R8        2.04928  -0.00013  -0.00068   0.00100   0.00032   2.04960
    R9        2.65613  -0.00085  -0.00119   0.00070  -0.00050   2.65563
   R10        2.05135  -0.00033  -0.00063   0.00037  -0.00027   2.05108
   R11        2.63232  -0.00099  -0.00117   0.00044  -0.00074   2.63158
   R12        2.05144  -0.00029  -0.00064   0.00050  -0.00014   2.05130
   R13        2.63931  -0.00169  -0.00125  -0.00089  -0.00214   2.63718
   R14        2.05045  -0.00036  -0.00066   0.00036  -0.00030   2.05015
   R15        3.31197   0.00109  -0.00121   0.00568   0.00447   3.31644
    A1        2.16409  -0.00093  -0.00077  -0.00194  -0.00271   2.16138
    A2        2.07989  -0.00276   0.00070  -0.01174  -0.01104   2.06884
    A3        2.03921   0.00368   0.00006   0.01368   0.01376   2.05296
    A4        1.93486  -0.00304   0.00051  -0.01259  -0.01207   1.92280
    A5        2.18861  -0.00162   0.00027  -0.00664  -0.00635   2.18226
    A6        2.01024   0.00056  -0.00055   0.00334   0.00278   2.01302
    A7        2.08433   0.00106   0.00028   0.00329   0.00358   2.08791
    A8        2.07639  -0.00049  -0.00029  -0.00147  -0.00176   2.07463
    A9        2.07926   0.00044   0.00013   0.00191   0.00203   2.08130
   A10        2.12753   0.00005   0.00016  -0.00043  -0.00027   2.12726
   A11        2.11238  -0.00028   0.00012  -0.00115  -0.00103   2.11135
   A12        2.08734  -0.00000  -0.00005  -0.00028  -0.00033   2.08701
   A13        2.08346   0.00028  -0.00007   0.00144   0.00136   2.08483
   A14        2.11267   0.00030   0.00011   0.00134   0.00145   2.11412
   A15        2.08706  -0.00006  -0.00005  -0.00016  -0.00020   2.08685
   A16        2.08346  -0.00024  -0.00006  -0.00118  -0.00124   2.08221
[...]
          There are     3 degrees of freedom in the 1st order CPHF.  IDoFFX=0 NUNeed=     3.
      3 vectors produced by pass  0 Test12= 5.29D-13 3.33D-08 XBig12= 1.61D+01 1.07D+00.
 AX will form     3 AO Fock derivatives at one time.
      3 vectors produced by pass  1 Test12= 5.29D-13 3.33D-08 XBig12= 1.49D-01 1.45D-01.
      3 vectors produced by pass  2 Test12= 5.29D-13 3.33D-08 XBig12= 2.21D-03 1.46D-02.
      3 vectors produced by pass  3 Test12= 5.29D-13 3.33D-08 XBig12= 1.75D-05 9.74D-04.
      3 vectors produced by pass  4 Test12= 5.29D-13 3.33D-08 XBig12= 2.36D-07 1.58D-04.
      3 vectors produced by pass  5 Test12= 5.29D-13 3.33D-08 XBig12= 3.01D-09 1.34D-05.
      3 vectors produced by pass  6 Test12= 5.29D-13 3.33D-08 XBig12= 2.95D-11 1.83D-06.
      3 vectors produced by pass  7 Test12= 5.29D-13 3.33D-08 XBig12= 4.67D-13 3.65D-07.
 InvSVY:  IOpt=1 It=  1 EMax= 1.78D-15
 Solved reduced A of dimension    24 with     3 vectors.
 Calculating GIAO nuclear magnetic shielding tensors.
 SCF GIAO Magnetic shielding tensor (ppm):
      1  Br   Isotropic =  1941.8287   Anisotropy =  1419.7017
   XX=  2845.3880   YX=  -371.4318   ZX=    -0.0196
   XY=  -147.6011   YY=  1318.7064   ZY=    -0.0008
   XZ=     0.0418   YZ=     0.0386   ZZ=  1661.3916
   Eigenvalues:  1275.7979  1661.3916  2888.2965
      2  C    Isotropic =    -3.3384   Anisotropy =    90.0864
   XX=   -87.9419   YX=    79.9562   ZX=     0.0146
   XY=     8.3870   YY=    21.2075   ZY=    -0.0042
   XZ=     0.0250   YZ=    -0.0007   ZZ=    56.7192
   Eigenvalues:  -103.5778    36.8434    56.7192
      3  N    Isotropic =  -134.2999   Anisotropy =   448.4683
   XX=  -429.4683   YX=    -0.5301   ZX=     0.0283
   XY=   -81.3997   YY=  -138.1105   ZY=    -0.0006
   XZ=     0.0103   YZ=    -0.0105   ZZ=   164.6789
   Eigenvalues:  -435.1184  -132.4604   164.6789
      4  C    Isotropic =    12.2417   Anisotropy =   152.2001
   XX=   -59.7163   YX=    29.2034   ZX=     0.0053
   XY=    44.7576   YY=   -17.2670   ZY=    -0.0022
   XZ=    -0.0009   YZ=    -0.0123   ZZ=   113.7085
   Eigenvalues:   -81.1302     4.1469   113.7085
      5  C    Isotropic =    40.2525   Anisotropy =   199.2376
   XX=    18.7745   YX=     1.0030   ZX=     0.0018
   XY=     0.4530   YY=   -71.0946   ZY=    -0.0032
   XZ=     0.0020   YZ=    -0.0050   ZZ=   173.0776
   Eigenvalues:   -71.1005    18.7804   173.0776
      6  C    Isotropic =    37.1702   Anisotropy =   215.8600
   XX=   -42.5539   YX=   -52.9714   ZX=     0.0009
   XY=   -56.1418   YY=   -27.0123   ZY=    -0.0018
   XZ=     0.0054   YZ=     0.0014   ZZ=   181.0769
   Eigenvalues:   -89.8903    20.3241   181.0769
      7  C    Isotropic =    37.1935   Anisotropy =   211.7527
   XX=   -71.6199   YX=    40.8073   ZX=     0.0046
   XY=    40.5457   YY=     4.8384   ZY=    -0.0037
   XZ=     0.0093   YZ=    -0.0091   ZZ=   178.3619
   Eigenvalues:   -89.2123    22.4308   178.3619
      8  C    Isotropic =    43.6220   Anisotropy =   203.4609
   XX=    18.7634   YX=    21.9973   ZX=     0.0016
   XY=    21.7111   YY=   -67.1600   ZY=    -0.0066
   XZ=    -0.0006   YZ=    -0.0117   ZZ=   179.2626
   Eigenvalues:   -72.3990    24.0024   179.2626
      9  C    Isotropic =    20.5718   Anisotropy =   154.6072
   XX=   -33.1599   YX=   -30.3713   ZX=    -0.0057
   XY=   -16.5354   YY=   -28.7679   ZY=    -0.0048
   XZ=     0.0012   YZ=     0.0052   ZZ=   123.6433
   Eigenvalues:   -54.5198    -7.4080   123.6433
     10  S    Isotropic =   149.3682   Anisotropy =   328.4826
   XX=   172.4265   YX=  -216.2054   ZX=    -0.0532
   XY=  -301.2531   YY=    26.6997   ZY=    -0.0325
   XZ=    -0.0724   YZ=    -0.0333   ZZ=   248.9784
   Eigenvalues:  -169.2303   248.9784   368.3566
     11  H    Isotropic =    22.9760   Anisotropy =     7.2606
   XX=    27.7098   YX=     0.7547   ZX=    -0.0002
   XY=     0.8115   YY=    22.0627   ZY=     0.0001
   XZ=    -0.0002   YZ=    -0.0001   ZZ=    19.1554
   Eigenvalues:    19.1554    21.9561    27.8164
     12  H    Isotropic =    23.4673   Anisotropy =     6.1069
   XX=    24.8139   YX=    -2.2550   ZX=    -0.0001
   XY=    -2.4855   YY=    25.4767   ZY=     0.0001
   XZ=     0.0001   YZ=     0.0002   ZZ=    20.1114
   Eigenvalues:    20.1114    22.7520    27.5386
     13  H    Isotropic =    23.5047   Anisotropy =     6.2922
   XX=    23.7264   YX=     2.0121   ZX=     0.0000
   XY=     1.8330   YY=    26.7692   ZY=     0.0001
   XZ=     0.0002   YZ=    -0.0001   ZZ=    20.0185
   Eigenvalues:    20.0185    22.7961    27.6995
     14  H    Isotropic =    23.2385   Anisotropy =     8.5716
   XX=    28.9338   YX=     0.4372   ZX=    -0.0001
   XY=     0.2820   YY=    22.1988   ZY=    -0.0000
   XZ=    -0.0000   YZ=    -0.0000   ZZ=    18.5829
   Eigenvalues:    18.5829    22.1797    28.9529
 End of Minotr F.D. properties file   721 does not exist.
 End of Minotr F.D. properties file   722 does not exist.
 End of Minotr F.D. properties file   788 does not exist.
 Leave Link 1002 at Tue Sep 17 10:22:08 2024, MaxMem=  1342177280 cpu:             403.1 elap:             404.0
 (Enter /groups/ReismanLab/Software/Gaussian16_RevC/Linux_Binary_AVX2-enabled-CPU/g16/l601.exe)
 Copying SCF densities to generalized density rwf, IOpCl= 0 IROHF=0.

 **********************************************************************

            Population analysis using the SCF Density.

 **********************************************************************

 Orbital symmetries:
       Occupied  (A) (A) (A) (A) (A) (A) (A) (A) (A) (A) (A) (A)
                 (A) (A) (A) (A) (A) (A) (A) (A) (A) (A) (A) (A)
                 (A) (A) (A) (A) (A) (A) (A) (A) (A) (A) (A) (A)
                 (A) (A) (A) (A) (A) (A) (A) (A) (A) (A) (A) (A)
                 (A) (A) (A) (A)
       Virtual   (A) (A) (A) (A) (A) (A) (A) (A) (A) (A) (A) (A)
                 (A) (A) (A) (A) (A) (A) (A) (A) (A) (A) (A) (A)
                 (A) (A) (A) (A) (A) (A) (A) (A) (A) (A) (A) (A)
                 (A) (A) (A) (A) (A) (A) (A) (A) (A) (A) (A) (A)
                 (A) (A) (A) (A) (A) (A) (A) (A) (A) (A) (A) (A)
                 (A) (A) (A) (A) (A) (A) (A) (A) (A) (A) (A) (A)
                 (A) (A) (A) (A) (A) (A) (A) (A) (A) (A) (A) (A)
                 (A) (A) (A) (A) (A) (A) (A) (A) (A) (A) (A) (A)
                 (A) (A) (A) (A) (A) (A) (A) (A) (A) (A) (A) (A)
                 (A) (A) (A) (A) (A) (A) (A) (A) (A) (A) (A) (A)
                 (A) (A) (A) (A) (A) (A) (A) (A) (A) (A) (A) (A)
                 (A) (A) (A) (A) (A) (A) (A) (A) (A) (A) (A) (A)
                 (A) (A) (A) (A) (A) (A) (A) (A) (A) (A) (A) (A)
                 (A) (A) (A) (A) (A) (A) (A) (A) (A) (A) (A) (A)
                 (A) (A) (A) (A) (A) (A) (A) (A) (A) (A) (A) (A)
                 (A) (A) (A) (A) (A) (A) (A) (A) (A) (A) (A) (A)
                 (A) (A) (A) (A) (A) (A) (A) (A) (A) (A) (A) (A)
                 (A) (A) (A) (A) (A) (A) (A) (A) (A) (A) (A) (A)
                 (A) (A) (A) (A) (A) (A) (A) (A) (A) (A) (A) (A)
                 (A) (A) (A) (A) (A) (A) (A) (A) (A) (A) (A) (A)
                 (A) (A) (A) (A) (A) (A) (A) (A) (A) (A) (A) (A)
                 (A) (A) (A) (A) (A) (A) (A) (A) (A) (A) (A) (A)
                 (A) (A) (A) (A) (A) (A) (A) (A) (A) (A) (A) (A)
                 (A) (A) (A) (A) (A) (A) (A) (A) (A) (A) (A) (A)
                 (A) (A) (A) (A) (A) (A) (A) (A) (A) (A) (A) (A)
                 (A) (A) (A) (A) (A)
 The electronic state is 1-A.
 Alpha  occ. eigenvalues -- -485.39745 -89.95326 -63.38231 -57.20184 -57.19933
 Alpha  occ. eigenvalues --  -57.19921 -14.77567 -10.66989 -10.59382 -10.59295
 Alpha  occ. eigenvalues --  -10.56303 -10.55591 -10.55566 -10.55323  -9.04896
 Alpha  occ. eigenvalues --   -8.31073  -6.87344  -6.86410  -6.86369  -6.22989
 Alpha  occ. eigenvalues --   -6.22804  -6.22590  -2.90723  -2.90386  -2.90343
 Alpha  occ. eigenvalues --   -2.89475  -2.89475  -1.09864  -0.96926  -0.91918
 Alpha  occ. eigenvalues --   -0.89872  -0.84727  -0.81982  -0.70788  -0.69114
 Alpha  occ. eigenvalues --   -0.65401  -0.57531  -0.56727  -0.55018  -0.52079
 Alpha  occ. eigenvalues --   -0.51604  -0.48084  -0.46693  -0.44029  -0.43875
 Alpha  occ. eigenvalues --   -0.40834  -0.37724  -0.37609  -0.36997  -0.36462
 Alpha  occ. eigenvalues --   -0.29917  -0.29774
 Alpha virt. eigenvalues --   -0.02106   0.00724   0.01009   0.03917   0.04729
 Alpha virt. eigenvalues --    0.09551   0.10527   0.11100   0.12351   0.13992
 Alpha virt. eigenvalues --    0.14714   0.16437   0.17544   0.19078   0.19508
 Alpha virt. eigenvalues --    0.20704   0.22645   0.22999   0.23443   0.25399
 Alpha virt. eigenvalues --    0.25689   0.26881   0.27188   0.27727   0.28667
 Alpha virt. eigenvalues --    0.28721   0.29760   0.30348   0.31084   0.31836
 Alpha virt. eigenvalues --    0.32865   0.33870   0.35806   0.36047   0.36480
 Alpha virt. eigenvalues --    0.38548   0.38576   0.38960   0.41503   0.41997
 Alpha virt. eigenvalues --    0.42202   0.43660   0.43686   0.44563   0.45879
 Alpha virt. eigenvalues --    0.46114   0.47456   0.49483   0.50739   0.51301
 Alpha virt. eigenvalues --    0.52231   0.53136   0.53900   0.55051   0.55299
 Alpha virt. eigenvalues --    0.56421   0.59051   0.60733   0.61237   0.63408
 Alpha virt. eigenvalues --    0.64312   0.65429   0.67785   0.68277   0.70450
 Alpha virt. eigenvalues --    0.71117   0.72596   0.74461   0.75503   0.77509
 Alpha virt. eigenvalues --    0.78021   0.79241   0.80463   0.81260   0.84556
 Alpha virt. eigenvalues --    0.87255   0.89465   0.91477   0.91630   0.93168
 Alpha virt. eigenvalues --    0.93317   0.96618   0.98581   1.01967   1.02942
 Alpha virt. eigenvalues --    1.04350   1.06731   1.09479   1.10483   1.11344
 Alpha virt. eigenvalues --    1.11826   1.15821   1.16600   1.21066   1.22497
 Alpha virt. eigenvalues --    1.23374   1.24384   1.25075   1.25359   1.27394
 Alpha virt. eigenvalues --    1.30826   1.34950   1.35500   1.36563   1.39066
 Alpha virt. eigenvalues --    1.39609   1.39715   1.42969   1.44019   1.45393
 Alpha virt. eigenvalues --    1.45996   1.47474   1.48758   1.49370   1.51290
 Alpha virt. eigenvalues --    1.51569   1.52354   1.53530   1.54918   1.55276
 Alpha virt. eigenvalues --    1.55933   1.56371   1.56711   1.58335   1.59540
 Alpha virt. eigenvalues --    1.60077   1.62779   1.62780   1.63521   1.65867
 Alpha virt. eigenvalues --    1.67082   1.67229   1.69059   1.70653   1.71113
 Alpha virt. eigenvalues --    1.73192   1.75295   1.76444   1.76630   1.77312
 Alpha virt. eigenvalues --    1.78974   1.80449   1.80940   1.83690   1.86002
 Alpha virt. eigenvalues --    1.87283   1.88456   1.89205   1.94387   1.95130
 Alpha virt. eigenvalues --    1.98048   1.99529   2.02152   2.03628   2.05861
 Alpha virt. eigenvalues --    2.09216   2.10863   2.10947   2.13513   2.14507
 Alpha virt. eigenvalues --    2.16356   2.18574   2.22124   2.24900   2.26384
 Alpha virt. eigenvalues --    2.29075   2.33033   2.33431   2.39342   2.42073
 Alpha virt. eigenvalues --    2.43312   2.47113   2.47565   2.50574   2.53790
 Alpha virt. eigenvalues --    2.59659   2.60912   2.61302   2.62466   2.63831
 Alpha virt. eigenvalues --    2.66069   2.67103   2.67816   2.69526   2.71621
 Alpha virt. eigenvalues --    2.73683   2.75056   2.78272   2.79481   2.81258
 Alpha virt. eigenvalues --    2.81903   2.82936   2.85343   2.86948   2.88364
 Alpha virt. eigenvalues --    2.92432   2.93839   2.95138   2.97044   2.99537
 Alpha virt. eigenvalues --    3.01656   3.03854   3.04520   3.07641   3.09005
 Alpha virt. eigenvalues --    3.11019   3.12248   3.13180   3.14647   3.14678
 Alpha virt. eigenvalues --    3.15277   3.18692   3.19807   3.21822   3.22067
 Alpha virt. eigenvalues --    3.25114   3.27625   3.28234   3.31216   3.31774
 Alpha virt. eigenvalues --    3.32081   3.34571   3.37140   3.39151   3.39477
 Alpha virt. eigenvalues --    3.41547   3.42057   3.42913   3.46729   3.48081
 Alpha virt. eigenvalues --    3.48908   3.50758   3.52608   3.53005   3.54472
 Alpha virt. eigenvalues --    3.56827   3.60712   3.64694   3.66767   3.67784
 Alpha virt. eigenvalues --    3.71502   3.72157   3.76438   3.82876   3.87117
 Alpha virt. eigenvalues --    3.89526   3.91755   3.96216   4.01054   4.02873
 Alpha virt. eigenvalues --    4.03248   4.04443   4.04773   4.06105   4.08010
 Alpha virt. eigenvalues --    4.10839   4.14935   4.16203   4.16871   4.19210
 Alpha virt. eigenvalues --    4.19213   4.21293   4.24996   4.28997   4.34105
 Alpha virt. eigenvalues --    4.39594   4.43949   4.53195   4.57925   4.64656
 Alpha virt. eigenvalues --    4.65766   4.67165   4.73135   4.76399   4.79504
 Alpha virt. eigenvalues --    4.82456   4.85120   4.86385   4.98329   5.01957
 Alpha virt. eigenvalues --    5.05838   5.11312   5.18394   5.21568   5.22201
 Alpha virt. eigenvalues --    5.23817   5.39668   5.41969   5.51648   5.62318
 Alpha virt. eigenvalues --    5.75174   5.87767   7.81675   8.93448   9.43267
 Alpha virt. eigenvalues --    9.52347  20.23166  22.24376  22.62489  22.69470
 Alpha virt. eigenvalues --   22.70324  22.91916  22.95737  23.37868  32.53032
          Condensed to atoms (all electrons):
               1          2          3          4          5          6
     1  Br  34.832789   0.331139  -0.064106  -0.002436  -0.002607   0.000075
     2  C    0.331139   4.788274   0.597339  -0.108615  -0.004803   0.000295
     3  N   -0.064106   0.597339   6.467919   0.436021  -0.038054   0.003528
     4  C   -0.002436  -0.108615   0.436021   4.980962   0.274607  -0.001523
     5  C   -0.002607  -0.004803  -0.038054   0.274607   5.202737   0.461994
     6  C    0.000075   0.000295   0.003528  -0.001523   0.461994   4.944777
     7  C   -0.000010  -0.000738  -0.002477  -0.091967   0.010845   0.465739
     8  C   -0.000358   0.007224   0.017175   0.032978  -0.119672   0.000257
     9  C    0.003323  -0.113064  -0.106050   0.407504   0.057065  -0.091916
    10  S   -0.063811   0.449207  -0.104209  -0.094661   0.026332  -0.001640
    11  H   -0.000120  -0.000457   0.007365  -0.036693   0.404616  -0.030280
    12  H   -0.000000   0.000037  -0.000119   0.009372  -0.041451   0.422302
    13  H   -0.000000   0.000006  -0.000007  -0.001609   0.006138  -0.036252
    14  H   -0.000011  -0.000115  -0.000200   0.008359  -0.001094   0.003228
               7          8          9         10         11         12
     1  Br  -0.000010  -0.000358   0.003323  -0.063811  -0.000120  -0.000000
     2  C   -0.000738   0.007224  -0.113064   0.449207  -0.000457   0.000037
     3  N   -0.002477   0.017175  -0.106050  -0.104209   0.007365  -0.000119
     4  C   -0.091967   0.032978   0.407504  -0.094661  -0.036693   0.009372
     5  C    0.010845  -0.119672   0.057065   0.026332   0.404616  -0.041451
     6  C    0.465739   0.000257  -0.091916  -0.001640  -0.030280   0.422302
     7  C    4.939457   0.471600   0.000446   0.003299   0.005381  -0.038890
     8  C    0.471600   5.169718   0.294692  -0.053432  -0.002212   0.006548
     9  C    0.000446   0.294692   5.166206   0.424611   0.010594  -0.001778
    10  S    0.003299  -0.053432   0.424611  15.347522   0.000043   0.000019
    11  H    0.005381  -0.002212   0.010594   0.000043   0.469258  -0.004452
    12  H   -0.038890   0.006548  -0.001778   0.000019  -0.004452   0.485461
    13  H    0.420879  -0.041846   0.007602  -0.000208  -0.000105  -0.003721
    14  H   -0.028158   0.402443  -0.028501  -0.003268   0.000063  -0.000200
              13         14
     1  Br  -0.000000  -0.000011
     2  C    0.000006  -0.000115
     3  N   -0.000007  -0.000200
     4  C   -0.001609   0.008359
     5  C    0.006138  -0.001094
     6  C   -0.036252   0.003228
     7  C    0.420879  -0.028158
     8  C   -0.041846   0.402443
     9  C    0.007602  -0.028501
    10  S   -0.000208  -0.003268
    11  H   -0.000105   0.000063
    12  H   -0.003721  -0.000200
    13  H    0.485340  -0.003237
    14  H   -0.003237   0.477275
 Mulliken charges:
               1
     1  Br  -0.033866
     2  C    0.054271
     3  N   -0.214125
     4  C    0.187703
     5  C   -0.236652
     6  C   -0.140583
     7  C   -0.155407
     8  C   -0.185115
     9  C   -0.030734
    10  S    0.070196
    11  H    0.177000
    12  H    0.166873
    13  H    0.167021
    14  H    0.173417
 Sum of Mulliken charges =  -0.00000
 Mulliken charges with hydrogens summed into heavy atoms:
               1
     1  Br  -0.033866
     2  C    0.054271
     3  N   -0.214125
     4  C    0.187703
     5  C   -0.059652
     6  C    0.026290
     7  C    0.011614
     8  C   -0.011697
     9  C   -0.030734
    10  S    0.070196
 Electronic spatial extent (au):  <R**2>=           2623.6094
 Charge=             -0.0000 electrons
 Dipole moment (field-independent basis, Debye):
    X=             -2.3712    Y=              1.4087    Z=              0.0002  Tot=              2.7581
 Quadrupole moment (field-independent basis, Debye-Ang):
   XX=            -64.4234   YY=            -73.2710   ZZ=            -80.2458
   XY=              0.5420   XZ=             -0.0004   YZ=              0.0004
 Traceless Quadrupole moment (field-independent basis, Debye-Ang):
   XX=              8.2233   YY=             -0.6242   ZZ=             -7.5991
   XY=              0.5420   XZ=             -0.0004   YZ=              0.0004
 Octapole moment (field-independent basis, Debye-Ang**2):
  XXX=             55.1597  YYY=             -0.9727  ZZZ=             -0.0046  XYY=             11.4317
  XXY=             -3.2245  XXZ=             -0.0000  XZZ=             40.1639  YZZ=             -1.6537
  YYZ=              0.0003  XYZ=             -0.0006
 Hexadecapole moment (field-independent basis, Debye-Ang**3):
 XXXX=          -2207.8200 YYYY=           -525.7532 ZZZZ=            -94.6486 XXXY=            -19.8045
 XXXZ=              0.0284 YYYX=            -11.6144 YYYZ=             -0.0073 ZZZX=              0.0409
 ZZZY=             -0.0107 XXYY=           -466.6521 XXZZ=           -476.4030 YYZZ=           -117.4364
 XXYZ=             -0.0010 YYXZ=              0.0112 ZZXY=             -8.6015
 N-N= 7.961548011669D+02 E-N=-9.443618848761D+03  KE= 3.290687518034D+03
 Calculating spin-rotation constants.
 Leave Link  601 at Tue Sep 17 10:22:10 2024, MaxMem=  1342177280 cpu:               1.9 elap:               1.9
 (Enter /groups/ReismanLab/Software/Gaussian16_RevC/Linux_Binary_AVX2-enabled-CPU/g16/l9999.exe)
 Unable to Open any file for archive entry.
 1\1\GINC-HPC-52-29\SP\RM062X\def2TZVP\C7H4Br1N1S1\MANTIND\17-Sep-2024\
 0\\#p M062X/def2tzvp geom=check guess=read scf(xqc,tight) integral(gri
 d=ultrafine) scrf(SMD, solvent=1,4-Dioxane) nmr=giao\\spe\\0,1\Br,0,2.
 5914484104,0.1655960888,0.000154913\C,0,0.7090250113,0.0867238095,0.00
 01070074\N,0,-0.0503215207,1.1201508073,0.0000393226\C,0,-1.3864309194
 ,0.7308640768,-0.0000175367\C,0,-2.4768434485,1.6086730396,-0.00002255
 36\C,0,-3.7618239648,1.080873609,-0.0000376908\C,0,-3.9721204483,-0.30
 78362379,-0.0000542576\C,0,-2.9015803026,-1.1978216556,-0.0000554171\C
 ,0,-1.6112182467,-0.6683045338,-0.000035235\S,0,-0.0656020719,-1.50407
 19464,-0.0001190376\H,0,-2.2966062498,2.6778194539,0.0000012039\H,0,-4
 .6160897241,1.7499002724,-0.0000372637\H,0,-4.985506656,-0.6961807435,
 -0.0000841106\H,0,-3.0687573366,-2.2693868643,-0.0000945906\\Version=E
 S64L-G16RevC.02\State=1-A\HF=-3296.2845935\RMSD=3.277e-09\Dipole=-0.94
 08441,-0.5406207,-0.0000651\Quadrupole=6.1007548,-0.4510313,-5.6497234
 ,-0.4982547,0.0002863,0.0003004\PG=C01 [X(C7H4Br1N1S1)]\\@
 The archive entry for this job was punched.


 NOTHING RESEMBLES A NEW PHENOMENON AS MUCH AS A MISTAKE.

                               -- ENRICO FERMI (?)
 Job cpu time:       0 days  0 hours  7 minutes 27.1 seconds.
 Elapsed time:       0 days  0 hours  7 minutes 28.7 seconds.
 File lengths (MBytes):  RWF=    224 Int=      0 D2E=      0 Chk=     24 Scr=     16
 Normal termination of Gaussian 16 at Tue Sep 17 10:22:10 2024.
