 Entering Gaussian System, Link 0=g16
 Input=smiles_00097_conf_0.gjf
 Output=smiles_00097_conf_0.log
 Initial command:
 /groups/ReismanLab/Software/Gaussian16_RevC/Linux_Binary_AVX2-enabled-CPU/g16/l1.exe "/central/groups/ReismanLab/DM/dft_final/smiles_00097/Gau-2104702.inp" -scrdir="/central/groups/ReismanLab/DM/dft_final/smiles_00097/"
 Entering Link 1 = /groups/ReismanLab/Software/Gaussian16_RevC/Linux_Binary_AVX2-enabled-CPU/g16/l1.exe PID=   2104703.
  
 Copyright (c) 1988-2021, Gaussian, Inc.  All Rights Reserved.
  
 This is part of the Gaussian(R) 16 program.  It is based on
 the Gaussian(R) 09 system (copyright 2009, Gaussian, Inc.),
 the Gaussian(R) 03 system (copyright 2003, Gaussian, Inc.),
 the Gaussian(R) 98 system (copyright 1998, Gaussian, Inc.),
 the Gaussian(R) 94 system (copyright 1995, Gaussian, Inc.),
 the Gaussian 92(TM) system (copyright 1992, Gaussian, Inc.),
 the Gaussian 90(TM) system (copyright 1990, Gaussian, Inc.),
 the Gaussian 88(TM) system (copyright 1988, Gaussian, Inc.),
 the Gaussian 86(TM) system (copyright 1986, Carnegie Mellon
 University), and the Gaussian 82(TM) system (copyright 1983,
 Carnegie Mellon University). Gaussian is a federally registered
 trademark of Gaussian, Inc.
  
 This software contains proprietary and confidential information,
 including trade secrets, belonging to Gaussian, Inc.
  
 This software is provided under written license and may be
 used, copied, transmitted, or stored only in accord with that
 written license.
  
 The following legend is applicable only to US Government
 contracts under FAR:
  
                    RESTRICTED RIGHTS LEGEND
  
 Use, reproduction and disclosure by the US Government is
 subject to restrictions as set forth in subparagraphs (a)
 and (c) of the Commercial Computer Software - Restricted
 Rights clause in FAR 52.227-19.
  
 Gaussian, Inc.
 340 Quinnipiac St., Bldg. 40, Wallingford CT 06492
  
  
 ---------------------------------------------------------------
 Warning -- This program may not be used in any manner that
 competes with the business of Gaussian, Inc. or will provide
 assistance to any competitor of Gaussian, Inc.  The licensee
 of this program is prohibited from giving any competitor of
 Gaussian, Inc. access to this program.  By using this program,
 the user acknowledges that Gaussian, Inc. is engaged in the
 business of creating and licensing software in the field of
 computational chemistry and represents and warrants to the
 licensee that it is not a competitor of Gaussian, Inc. and that
 it will not use this program in any manner prohibited above.
 ---------------------------------------------------------------
  

 Cite this work as:
 Gaussian 16, Revision C.02,
 M. J. Frisch, G. W. Trucks, H. B. Schlegel, G. E. Scuseria, 
 M. A. Robb, J. R. Cheeseman, G. Scalmani, V. Barone, 
 G. A. Petersson, H. Nakatsuji, X. Li, M. Caricato, A. V. Marenich, 
 J. Bloino, B. G. Janesko, R. Gomperts, B. Mennucci, H. P. Hratchian, 
 J. V. Ortiz, A. F. Izmaylov, J. L. Sonnenberg, D. Williams-Young, 
 F. Ding, F. Lipparini, F. Egidi, J. Goings, B. Peng, A. Petrone, 
 T. Henderson, D. Ranasinghe, V. G. Zakrzewski, J. Gao, N. Rega, 
 G. Zheng, W. Liang, M. Hada, M. Ehara, K. Toyota, R. Fukuda, 
 J. Hasegawa, M. Ishida, T. Nakajima, Y. Honda, O. Kitao, H. Nakai, 
 T. Vreven, K. Throssell, J. A. Montgomery, Jr., J. E. Peralta, 
 F. Ogliaro, M. J. Bearpark, J. J. Heyd, E. N. Brothers, K. N. Kudin, 
 V. N. Staroverov, T. A. Keith, R. Kobayashi, J. Normand, 
 K. Raghavachari, A. P. Rendell, J. C. Burant, S. S. Iyengar, 
 J. Tomasi, M. Cossi, J. M. Millam, M. Klene, C. Adamo, R. Cammi, 
 J. W. Ochterski, R. L. Martin, K. Morokuma, O. Farkas, 
 J. B. Foresman, and D. J. Fox, Gaussian, Inc., Wallingford CT, 2019.
 
 ******************************************
 Gaussian 16:  ES64L-G16RevC.02  7-Dec-2021
                17-Sep-2024 
 ******************************************
 %nprocshared=8
 Will use up to    8 processors via shared memory.
 %Mem=10GB
 %Chk=smiles_00097_conf_0.chk
 ----------------------------------------------------------------------
 #p B3LYP/gen pseudo=read EmpiricalDispersion=GD3BJ opt freq scf(xqc,ti
 ght) integral(grid=ultrafine)
 ----------------------------------------------------------------------
 1/18=20,19=15,26=4,38=1/1,3;
 2/9=110,12=2,17=6,18=5,40=1/2;
 3/5=7,11=2,16=1,17=8,25=1,30=1,71=1,74=-5,75=-5,124=41/1,2,3;
 4//1;
 5/5=2,8=3,13=1,32=2,38=5/2,8;
 6/7=2,8=2,9=2,10=2,28=1/1;
 7//1,2,3,16;
 1/18=20,19=15,26=4/3(2);
 2/9=110/2;
 99//99;
 2/9=110/2;
 3/5=7,6=1,11=2,16=1,17=8,25=1,30=1,71=1,74=-5,75=-5,82=7,124=41/1,2,3;
 4/5=5,16=3,69=1/1;
 5/5=2,8=3,13=1,32=2,38=5/2,8;
 7//1,2,3,16;
 1/18=20,19=15,26=4/3(-5);
 2/9=110/2;
 6/7=2,8=2,9=2,10=2,19=2,28=1/1;
 99/9=1/99;
 Leave Link    1 at Tue Sep 17 09:55:55 2024, MaxMem=  1342177280 cpu:               0.1 elap:               0.5
 (Enter /groups/ReismanLab/Software/Gaussian16_RevC/Linux_Binary_AVX2-enabled-CPU/g16/l101.exe)
 ----------------------------------
 opt-freq conformers_unique/conf_aa
 ----------------------------------
 Symbolic Z-matrix:
 Charge =  0 Multiplicity = 1
 I                     2.30858   0.1293   -0.00003 
 C                     0.22252  -0.25106   0.0001 
 C                    -0.21794  -1.58198   0.00017 
 C                    -1.55842  -1.84532   0.00008 
 C                    -2.50617  -0.80046  -0.00002 
 C                    -3.89501  -1.04466  -0.00014 
 C                    -4.78477  -0.00712  -0.00013 
 C                    -4.32759   1.32034   0.00001 
 C                    -2.98806   1.59101   0.00011 
 C                    -2.04491   0.54214   0.00007 
 C                    -0.65653   0.79229   0.00006 
 H                     0.50138  -2.38651   0.00014 
 H                    -1.90854  -2.86742   0.00009 
 H                    -4.24146  -2.06816  -0.00024 
 H                    -5.84724  -0.20063  -0.00025 
 H                    -5.04551   2.12714   0.00001 
 H                    -2.63128   2.61083   0.00015 
 H                    -0.31015   1.81511   0.00011 
 
 ITRead=  0  0  0  0  0  0  0  0  0  0  0  0  0  0  0  0  0  0
 MicOpt= -1 -1 -1 -1 -1 -1 -1 -1 -1 -1 -1 -1 -1 -1 -1 -1 -1 -1
 NAtoms=     18 NQM=       18 NQMF=       0 NMMI=      0 NMMIF=      0
                NMic=       0 NMicF=      0.
                    Isotopes and Nuclear Properties:
 (Nuclear quadrupole moments (NQMom) in fm**2, nuclear magnetic moments (NMagM)
  in nuclear magnetons)

  Atom         1           2           3           4           5           6           7           8           9          10
 IAtWgt=         127          12          12          12          12          12          12          12          12          12
 AtmWgt= 126.9004000  12.0000000  12.0000000  12.0000000  12.0000000  12.0000000  12.0000000  12.0000000  12.0000000  12.0000000
 NucSpn=           5           0           0           0           0           0           0           0           0           0
 AtZEff=  -0.0000000  -0.0000000  -0.0000000  -0.0000000  -0.0000000  -0.0000000  -0.0000000  -0.0000000  -0.0000000  -0.0000000
 NQMom=  -71.0000000   0.0000000   0.0000000   0.0000000   0.0000000   0.0000000   0.0000000   0.0000000   0.0000000   0.0000000
 NMagM=    2.8132800   0.0000000   0.0000000   0.0000000   0.0000000   0.0000000   0.0000000   0.0000000   0.0000000   0.0000000
 AtZNuc=  53.0000000   6.0000000   6.0000000   6.0000000   6.0000000   6.0000000   6.0000000   6.0000000   6.0000000   6.0000000

  Atom        11          12          13          14          15          16          17          18
 IAtWgt=          12           1           1           1           1           1           1           1
 AtmWgt=  12.0000000   1.0078250   1.0078250   1.0078250   1.0078250   1.0078250   1.0078250   1.0078250
 NucSpn=           0           1           1           1           1           1           1           1
 AtZEff=  -0.0000000  -0.0000000  -0.0000000  -0.0000000  -0.0000000  -0.0000000  -0.0000000  -0.0000000
 NQMom=    0.0000000   0.0000000   0.0000000   0.0000000   0.0000000   0.0000000   0.0000000   0.0000000
 NMagM=    0.0000000   2.7928460   2.7928460   2.7928460   2.7928460   2.7928460   2.7928460   2.7928460
 AtZNuc=   6.0000000   1.0000000   1.0000000   1.0000000   1.0000000   1.0000000   1.0000000   1.0000000
 Leave Link  101 at Tue Sep 17 09:55:55 2024, MaxMem=  1342177280 cpu:               0.2 elap:               0.2
 (Enter /groups/ReismanLab/Software/Gaussian16_RevC/Linux_Binary_AVX2-enabled-CPU/g16/l103.exe)

 GradGradGradGradGradGradGradGradGradGradGradGradGradGradGradGradGradGrad
 Berny optimization.
 Initialization pass.
                           ----------------------------
                           !    Initial Parameters    !
                           ! (Angstroms and Degrees)  !
 --------------------------                            --------------------------
 ! Name  Definition              Value          Derivative Info.                !
 --------------------------------------------------------------------------------
 ! R1    R(1,2)                  2.1205         estimate D2E/DX2                !
 ! R2    R(2,3)                  1.4019         estimate D2E/DX2                !
 ! R3    R(2,11)                 1.3643         estimate D2E/DX2                !
 ! R4    R(3,4)                  1.3661         estimate D2E/DX2                !
 ! R5    R(3,12)                 1.0792         estimate D2E/DX2                !
 ! R6    R(4,5)                  1.4107         estimate D2E/DX2                !
 ! R7    R(4,13)                 1.0804         estimate D2E/DX2                !
 ! R8    R(5,6)                  1.4101         estimate D2E/DX2                !
 ! R9    R(5,10)                 1.4196         estimate D2E/DX2                !
 ! R10   R(6,7)                  1.3668         estimate D2E/DX2                !
 ! R11   R(6,14)                 1.0806         estimate D2E/DX2                !
 ! R12   R(7,8)                  1.404          estimate D2E/DX2                !
 ! R13   R(7,15)                 1.08           estimate D2E/DX2                !
 ! R14   R(8,9)                  1.3666         estimate D2E/DX2                !
 ! R15   R(8,16)                 1.08           estimate D2E/DX2                !
 ! R16   R(9,10)                 1.4106         estimate D2E/DX2                !
 ! R17   R(9,17)                 1.0804         estimate D2E/DX2                !
 ! R18   R(10,11)                1.4107         estimate D2E/DX2                !
 ! R19   R(11,18)                1.0799         estimate D2E/DX2                !
 ! A1    A(1,2,3)              118.6452         estimate D2E/DX2                !
 ! A2    A(1,2,11)             119.7818         estimate D2E/DX2                !
 ! A3    A(3,2,11)             121.573          estimate D2E/DX2                !
 ! A4    A(2,3,4)              119.4264         estimate D2E/DX2                !
 ! A5    A(2,3,12)             119.8891         estimate D2E/DX2                !
 ! A6    A(4,3,12)             120.6845         estimate D2E/DX2                !
 ! A7    A(3,4,5)              121.0952         estimate D2E/DX2                !
 ! A8    A(3,4,13)             120.0238         estimate D2E/DX2                !
 ! A9    A(5,4,13)             118.881          estimate D2E/DX2                !
 ! A10   A(4,5,6)              122.2376         estimate D2E/DX2                !
 ! A11   A(4,5,10)             118.8295         estimate D2E/DX2                !
 ! A12   A(6,5,10)             118.9329         estimate D2E/DX2                !
 ! A13   A(5,6,7)              120.6431         estimate D2E/DX2                !
 ! A14   A(5,6,14)             118.6727         estimate D2E/DX2                !
 ! A15   A(7,6,14)             120.6841         estimate D2E/DX2                !
 ! A16   A(6,7,8)              120.3808         estimate D2E/DX2                !
 ! A17   A(6,7,15)             120.2929         estimate D2E/DX2                !
 ! A18   A(8,7,15)             119.3263         estimate D2E/DX2                !
 ! A19   A(7,8,9)              120.4271         estimate D2E/DX2                !
 ! A20   A(7,8,16)             119.3322         estimate D2E/DX2                !
 ! A21   A(9,8,16)             120.2407         estimate D2E/DX2                !
 ! A22   A(8,9,10)             120.539          estimate D2E/DX2                !
 ! A23   A(8,9,17)             120.7055         estimate D2E/DX2                !
 ! A24   A(10,9,17)            118.7554         estimate D2E/DX2                !
 ! A25   A(5,10,9)             119.077          estimate D2E/DX2                !
 ! A26   A(5,10,11)            119.1741         estimate D2E/DX2                !
 ! A27   A(9,10,11)            121.7489         estimate D2E/DX2                !
 ! A28   A(2,11,10)            119.9018         estimate D2E/DX2                !
 ! A29   A(2,11,18)            121.1757         estimate D2E/DX2                !
 ! A30   A(10,11,18)           118.9225         estimate D2E/DX2                !
 ! D1    D(1,2,3,4)           -179.9916         estimate D2E/DX2                !
 ! D2    D(1,2,3,12)            -0.001          estimate D2E/DX2                !
 ! D3    D(11,2,3,4)             0.0056         estimate D2E/DX2                !
 ! D4    D(11,2,3,12)          179.9962         estimate D2E/DX2                !
 ! D5    D(1,2,11,10)          179.9965         estimate D2E/DX2                !
 ! D6    D(1,2,11,18)           -0.0095         estimate D2E/DX2                !
 ! D7    D(3,2,11,10)           -0.0007         estimate D2E/DX2                !
 ! D8    D(3,2,11,18)          179.9933         estimate D2E/DX2                !
 ! D9    D(2,3,4,5)             -0.0029         estimate D2E/DX2                !
 ! D10   D(2,3,4,13)           179.9977         estimate D2E/DX2                !
 ! D11   D(12,3,4,5)          -179.9933         estimate D2E/DX2                !
 ! D12   D(12,3,4,13)            0.0073         estimate D2E/DX2                !
 ! D13   D(3,4,5,6)            179.9991         estimate D2E/DX2                !
 ! D14   D(3,4,5,10)            -0.0046         estimate D2E/DX2                !
 ! D15   D(13,4,5,6)            -0.0016         estimate D2E/DX2                !
 ! D16   D(13,4,5,10)          179.9948         estimate D2E/DX2                !
 ! D17   D(4,5,6,7)            179.995          estimate D2E/DX2                !
 ! D18   D(4,5,6,14)            -0.0056         estimate D2E/DX2                !
 ! D19   D(10,5,6,7)            -0.0014         estimate D2E/DX2                !
 ! D20   D(10,5,6,14)          179.9981         estimate D2E/DX2                !
 ! D21   D(4,5,10,9)          -179.9936         estimate D2E/DX2                !
 ! D22   D(4,5,10,11)            0.0094         estimate D2E/DX2                !
 ! D23   D(6,5,10,9)             0.0029         estimate D2E/DX2                !
 ! D24   D(6,5,10,11)         -179.9941         estimate D2E/DX2                !
 ! D25   D(5,6,7,8)             -0.0012         estimate D2E/DX2                !
 ! D26   D(5,6,7,15)           179.9981         estimate D2E/DX2                !
 ! D27   D(14,6,7,8)           179.9994         estimate D2E/DX2                !
 ! D28   D(14,6,7,15)           -0.0013         estimate D2E/DX2                !
 ! D29   D(6,7,8,9)              0.0022         estimate D2E/DX2                !
 ! D30   D(6,7,8,16)           179.9998         estimate D2E/DX2                !
 ! D31   D(15,7,8,9)          -179.9971         estimate D2E/DX2                !
 ! D32   D(15,7,8,16)            0.0004         estimate D2E/DX2                !
 ! D33   D(7,8,9,10)            -0.0007         estimate D2E/DX2                !
 ! D34   D(7,8,9,17)           179.9961         estimate D2E/DX2                !
 ! D35   D(16,8,9,10)         -179.9982         estimate D2E/DX2                !
 ! D36   D(16,8,9,17)           -0.0014         estimate D2E/DX2                !
 ! D37   D(8,9,10,5)            -0.0019         estimate D2E/DX2                !
 ! D38   D(8,9,10,11)          179.995          estimate D2E/DX2                !
 ! D39   D(17,9,10,5)         -179.9987         estimate D2E/DX2                !
 ! D40   D(17,9,10,11)          -0.0018         estimate D2E/DX2                !
 ! D41   D(5,10,11,2)           -0.0069         estimate D2E/DX2                !
 ! D42   D(5,10,11,18)         179.999          estimate D2E/DX2                !
 ! D43   D(9,10,11,2)          179.9962         estimate D2E/DX2                !
 ! D44   D(9,10,11,18)           0.0021         estimate D2E/DX2                !
 --------------------------------------------------------------------------------
 Trust Radius=3.00D-01 FncErr=1.00D-07 GrdErr=1.00D-06 EigMax=2.50D+02 EigMin=1.00D-04
 Number of steps in this run=    103 maximum allowed number of steps=    108.
 GradGradGradGradGradGradGradGradGradGradGradGradGradGradGradGradGradGrad

 Leave Link  103 at Tue Sep 17 09:55:55 2024, MaxMem=  1342177280 cpu:               0.1 elap:               0.0
 (Enter /groups/ReismanLab/Software/Gaussian16_RevC/Linux_Binary_AVX2-enabled-CPU/g16/l202.exe)
                          Input orientation:                          
 ---------------------------------------------------------------------
 Center     Atomic      Atomic             Coordinates (Angstroms)
 Number     Number       Type             X           Y           Z
 ---------------------------------------------------------------------
      1         53           0        2.308583    0.129303   -0.000029
      2          6           0        0.222523   -0.251059    0.000101
      3          6           0       -0.217937   -1.581977    0.000170
      4          6           0       -1.558418   -1.845324    0.000079
      5          6           0       -2.506171   -0.800459   -0.000023
      6          6           0       -3.895009   -1.044655   -0.000138
      7          6           0       -4.784770   -0.007117   -0.000133
      8          6           0       -4.327590    1.320344    0.000013
      9          6           0       -2.988061    1.591008    0.000105
     10          6           0       -2.044907    0.542144    0.000069
     11          6           0       -0.656534    0.792289    0.000058
     12          1           0        0.501375   -2.386507    0.000141
     13          1           0       -1.908544   -2.867424    0.000095
     14          1           0       -4.241457   -2.068164   -0.000240
     15          1           0       -5.847244   -0.200632   -0.000251
     16          1           0       -5.045510    2.127140    0.000012
     17          1           0       -2.631278    2.610834    0.000154
     18          1           0       -0.310149    1.815112    0.000112
 ---------------------------------------------------------------------
                    Distance matrix (angstroms):
                    1          2          3          4          5
     1  I    0.000000
     2  C    2.120453   0.000000
     3  C    3.051521   1.401908   0.000000
     4  C    4.341986   2.390279   1.366104   0.000000
     5  C    4.903704   2.783453   2.418012   1.410666   0.000000
     6  C    6.313693   4.193312   3.716123   2.469965   1.410142
     7  C    7.094664   5.013232   4.830750   3.713267   2.412759
     8  C    6.742207   4.813817   5.031173   4.205921   2.795599
     9  C    5.494635   3.701494   4.212056   3.721862   2.439535
    10  C    4.373020   2.402168   2.801733   2.436530   1.419630
    11  C    3.038333   1.364302   2.414437   2.787544   2.440903
    12  H    3.097627   2.153577   1.079203   2.129701   3.400129
    13  H    5.173445   3.374435   2.123800   1.080406   2.151628
    14  H    6.908827   4.819647   4.052788   2.692278   2.149022
    15  H    8.162497   6.069977   5.796310   4.593370   3.394490
    16  H    7.620632   5.779966   6.087939   5.285857   3.875446
    17  H    5.528130   4.041611   4.837755   4.583490   3.413587
    18  H    3.114435   2.133730   3.398340   3.867424   3.415220
                    6          7          8          9         10
     6  C    0.000000
     7  C    1.366807   0.000000
     8  C    2.404235   1.403982   0.000000
     9  C    2.787342   2.404614   1.366600   0.000000
    10  C    2.437378   2.794376   2.411687   1.410551   0.000000
    11  C    3.723182   4.204923   3.708839   2.464542   1.410727
    12  H    4.596603   5.796967   6.087663   5.291199   3.880792
    13  H    2.696021   4.056357   4.836237   4.587262   3.412294
    14  H    1.080554   2.131456   3.389603   3.867886   3.411531
    15  H    2.126875   1.079953   2.150050   3.374152   3.874208
    16  H    3.374009   2.150125   1.079967   2.126155   3.393498
    17  H    3.867767   3.389867   2.131394   1.080435   2.150188
    18  H    4.585792   4.831434   4.047793   2.687273   2.151704
                   11         12         13         14         15
    11  C    0.000000
    12  H    3.383120   0.000000
    13  H    3.867950   2.457436   0.000000
    14  H    4.586270   4.753504   2.466029   0.000000
    15  H    5.284824   6.714389   4.756589   2.462972   0.000000
    16  H    4.587476   7.151289   5.897985   4.271660   2.461970
    17  H    2.684533   5.898045   5.525727   4.948303   4.271625
    18  H    1.079884   4.279272   4.947829   5.525850   5.892593
                   16         17         18
    16  H    0.000000
    17  H    2.462210   0.000000
    18  H    4.745630   2.453735   0.000000
 Stoichiometry    C10H7I
 Framework group  C1[X(C10H7I)]
 Deg. of freedom    48
 Full point group                 C1      NOp   1
 Largest Abelian subgroup         C1      NOp   1
 Largest concise Abelian subgroup C1      NOp   1
                         Standard orientation:                         
 ---------------------------------------------------------------------
 Center     Atomic      Atomic             Coordinates (Angstroms)
 Number     Number       Type             X           Y           Z
 ---------------------------------------------------------------------
      1         53           0       -2.587972   -0.164404   -0.000031
      2          6           0       -0.504897    0.231975    0.000098
      3          6           0       -0.074675    1.566237    0.000168
      4          6           0        1.263742    1.839877    0.000076
      5          6           0        2.219496    0.802324   -0.000026
      6          6           0        3.606416    1.057184   -0.000141
      7          6           0        4.504123    0.026512   -0.000135
      8          6           0        4.057155   -1.304422    0.000011
      9          6           0        2.719746   -1.585370    0.000103
     10          6           0        1.768561   -0.543784    0.000066
     11          6           0        0.382151   -0.804589    0.000055
     12          1           0       -0.800148    2.365217    0.000138
     13          1           0        1.606005    2.864636    0.000092
     14          1           0        3.944991    2.083325   -0.000243
     15          1           0        5.565079    0.228185   -0.000254
     16          1           0        4.781253   -2.105678    0.000009
     17          1           0        2.370809   -2.607907    0.000152
     18          1           0        0.043634   -1.830043    0.000109
 ---------------------------------------------------------------------
 Rotational constants (GHZ):           2.6593184           0.2946374           0.2652493
 Leave Link  202 at Tue Sep 17 09:55:55 2024, MaxMem=  1342177280 cpu:               0.0 elap:               0.0
 (Enter /groups/ReismanLab/Software/Gaussian16_RevC/Linux_Binary_AVX2-enabled-CPU/g16/l301.exe)
 General basis read from cards:  (5D, 7F)
 Centers:       2      3      4      5      6      7      8      9     10     11
 Centers:      12     13     14     15     16     17     18
 6-31G(d,p)
 ****
 Centers:       1
 LANL2DZ
 ****
 ======================================================================================================
                                       Pseudopotential Parameters
 ======================================================================================================
  Center     Atomic      Valence      Angular      Power
  Number     Number     Electrons     Momentum     of R      Exponent        Coefficient   SO-Coeffient
 ======================================================================================================
    1         53            7
                                      F and up 
                                                     0        1.0715702       -0.07476210    0.00000000
                                                     1       44.1936028      -30.08112240    0.00000000
                                                     2       12.9367609      -75.37227210    0.00000000
                                                     2        3.1956412      -22.05637580    0.00000000
                                                     2        0.8589806       -1.69795850    0.00000000
                                      S - F
                                                     0      127.9202670        2.93800360    0.00000000
                                                     1       78.6211465       41.24712670    0.00000000
                                                     2       36.5146237      287.86800950    0.00000000
                                                     2        9.9065681      114.37585060    0.00000000
                                                     2        1.9420086       37.65477140    0.00000000
                                      P - F
                                                     0       13.0035304        2.22226300    0.00000000
                                                     1       76.0331404       39.40908310    0.00000000
                                                     2       24.1961684      177.40750020    0.00000000
                                                     2        6.4053433       77.98894620    0.00000000
                                                     2        1.5851786       25.75476410    0.00000000
                                      D - F
                                                     0       40.4278108        7.05243600    0.00000000
                                                     1       28.9084375       33.30416350    0.00000000
                                                     2       15.6268936      186.94538750    0.00000000
                                                     2        4.1442856       71.96883610    0.00000000
                                                     2        0.9377235        9.36306570    0.00000000
    2          6
                                   No pseudopotential on this center.
    3          6
                                   No pseudopotential on this center.
    4          6
                                   No pseudopotential on this center.
    5          6
                                   No pseudopotential on this center.
    6          6
                                   No pseudopotential on this center.
    7          6
                                   No pseudopotential on this center.
    8          6
                                   No pseudopotential on this center.
    9          6
                                   No pseudopotential on this center.
   10          6
                                   No pseudopotential on this center.
   11          6
                                   No pseudopotential on this center.
   12          1
                                   No pseudopotential on this center.
   13          1
                                   No pseudopotential on this center.
   14          1
                                   No pseudopotential on this center.
   15          1
                                   No pseudopotential on this center.
   16          1
                                   No pseudopotential on this center.
   17          1
                                   No pseudopotential on this center.
   18          1
                                   No pseudopotential on this center.
 ======================================================================================================
 Ernie: Thresh=  0.10000D-02 Tol=  0.10000D-05 Strict=F.
 There are   193 symmetry adapted cartesian basis functions of A   symmetry.
 There are   183 symmetry adapted basis functions of A   symmetry.
   183 basis functions,   341 primitive gaussians,   193 cartesian basis functions
    37 alpha electrons       37 beta electrons
       nuclear repulsion energy       508.1270074904 Hartrees.
 IExCor=  402 DFT=T Ex+Corr=B3LYP ExCW=0 ScaHFX=  0.200000
 ScaDFX=  0.800000  0.720000  1.000000  0.810000 ScalE2=  1.000000  1.000000
 IRadAn=      5 IRanWt=     -1 IRanGd=            0 ICorTp=0 IEmpDi=141
 NAtoms=   18 NActive=   18 NUniq=   18 SFac= 1.00D+00 NAtFMM=   60 NAOKFM=F Big=F
 Integral buffers will be    131072 words long.
 Raffenetti 2 integral format.
 Two-electron integral symmetry is turned on.
 R6Disp:  Grimme-D3(BJ) Dispersion energy=       -0.0427395211 Hartrees.
 Nuclear repulsion after empirical dispersion term =      508.0842679693 Hartrees.
 Leave Link  301 at Tue Sep 17 09:55:55 2024, MaxMem=  1342177280 cpu:               0.1 elap:               0.1
 (Enter /groups/ReismanLab/Software/Gaussian16_RevC/Linux_Binary_AVX2-enabled-CPU/g16/l302.exe)
 NPDir=0 NMtPBC=     1 NCelOv=     1 NCel=       1 NClECP=     1 NCelD=      1
         NCelK=      1 NCelE2=     1 NClLst=     1 CellRange=     0.0.
 One-electron integrals computed using PRISM.
 One-electron integral symmetry used in STVInt
   1 Symmetry operations used in ECPInt.
 ECPInt:  NShTT=    2145 NPrTT=   11679 LenC2=    2080 LenP2D=    8021.
 LDataN:  DoStor=T MaxTD1= 5 Len=  102
 NBasis=   183 RedAO= T EigKep=  2.84D-04  NBF=   183
 NBsUse=   183 1.00D-06 EigRej= -1.00D+00 NBFU=   183
 Precomputing XC quadrature grid using
 IXCGrd= 4 IRadAn=           5 IRanWt=          -1 IRanGd=           0 AccXCQ= 0.00D+00.
 Defaulting to unpruned grid for atomic number  53.
 Generated NRdTot=       0 NPtTot=           0 NUsed=           0 NTot=          32
 NSgBfM=   193   193   193   193   193 MxSgAt=    18 MxSgA2=    18.
 Leave Link  302 at Tue Sep 17 09:55:55 2024, MaxMem=  1342177280 cpu:               1.2 elap:               0.2
 (Enter /groups/ReismanLab/Software/Gaussian16_RevC/Linux_Binary_AVX2-enabled-CPU/g16/l303.exe)
 DipDrv:  MaxL=1.
 Leave Link  303 at Tue Sep 17 09:55:55 2024, MaxMem=  1342177280 cpu:               0.1 elap:               0.0
 (Enter /groups/ReismanLab/Software/Gaussian16_RevC/Linux_Binary_AVX2-enabled-CPU/g16/l401.exe)
 ExpMin= 1.05D-01 ExpMax= 3.05D+03 ExpMxC= 4.57D+02 IAcc=3 IRadAn=         5 AccDes= 0.00D+00
 Harris functional with IExCor=  402 and IRadAn=       5 diagonalized for initial guess.
 HarFok:  IExCor=  402 AccDes= 0.00D+00 IRadAn=         5 IDoV= 1 UseB2=F ITyADJ=14
 ICtDFT=  3500011 ScaDFX=  1.000000  1.000000  1.000000  1.000000
 Defaulting to unpruned grid for atomic number  53.
 FoFCou: FMM=F IPFlag=           0 FMFlag=      100000 FMFlg1=           0
         NFxFlg=           0 DoJE=T BraDBF=F KetDBF=T FulRan=T
         wScrn=  0.000000 ICntrl=       500 IOpCl=  0 I1Cent=   200000004 NGrid=           0
         NMat0=    1 NMatS0=      1 NMatT0=    0 NMatD0=    1 NMtDS0=    0 NMtDT0=    0
 Petite list used in FoFCou.
 Harris En= -396.661006827475    
 JPrj=0 DoOrth=F DoCkMO=F.
 Leave Link  401 at Tue Sep 17 09:55:56 2024, MaxMem=  1342177280 cpu:               4.5 elap:               0.6
 (Enter /groups/ReismanLab/Software/Gaussian16_RevC/Linux_Binary_AVX2-enabled-CPU/g16/l502.exe)
 Integral symmetry usage will be decided dynamically.
 Closed shell SCF:
 Using DIIS extrapolation, IDIIS=  1040.
 NGot=  1342177280 LenX=  1342098730 LenY=  1342061040
 Requested convergence on RMS density matrix=1.00D-08 within  32 cycles.
 Requested convergence on MAX density matrix=1.00D-06.
 Requested convergence on             energy=1.00D-06.
 No special actions if energy rises.
 Fock matrices will be formed incrementally for  20 cycles.
 Integral accuracy reduced to 1.0D-05 until final iterations.

 Cycle   1  Pass 0  IDiag  1:
 FoFJK:  IHMeth= 1 ICntrl=       0 DoSepK=F KAlg= 0 I1Cent=           0 FoldK=F
 IRaf= 920000000 NMat=       1 IRICut=       1 DoRegI=T DoRafI=F ISym2E= 0 IDoP0=0 IntGTp=1.
 FoFCou: FMM=F IPFlag=           0 FMFlag=      100000 FMFlg1=           0
         NFxFlg=           0 DoJE=F BraDBF=F KetDBF=F FulRan=T
         wScrn=  0.000000 ICntrl=         0 IOpCl=  0 I1Cent=           0 NGrid=           0
         NMat0=    1 NMatS0=      1 NMatT0=    0 NMatD0=    1 NMtDS0=    0 NMtDT0=    0
 Symmetry not used in FoFCou.
 Defaulting to unpruned grid for atomic number  53.
 Defaulting to unpruned grid for atomic number  53.
 Defaulting to unpruned grid for atomic number  53.
 Defaulting to unpruned grid for atomic number  53.
 Defaulting to unpruned grid for atomic number  53.
 Defaulting to unpruned grid for atomic number  53.
 Defaulting to unpruned grid for atomic number  53.
 Defaulting to unpruned grid for atomic number  53.
 E= -396.485010298561    
 DIIS: error= 4.52D-02 at cycle   1 NSaved=   1.
 NSaved= 1 IEnMin= 1 EnMin= -396.485010298561     IErMin= 1 ErrMin= 4.52D-02
 ErrMax= 4.52D-02  0.00D+00 EMaxC= 1.00D-01 BMatC= 1.86D-01 BMatP= 1.86D-01
 IDIUse=3 WtCom= 5.48D-01 WtEn= 4.52D-01
 Coeff-Com:  0.100D+01
 Coeff-En:   0.100D+01
 Coeff:      0.100D+01
 Gap=     0.327 Goal=   None    Shift=    0.000
 GapD=    0.327 DampG=1.000 DampE=0.500 DampFc=0.5000 IDamp=-1.
 Damping current iteration by 5.00D-01
 RMSDP=6.43D-03 MaxDP=1.18D-01              OVMax= 1.59D-01

 Cycle   2  Pass 0  IDiag  1:
 RMSU=  3.10D-03    CP:  9.65D-01
 E= -396.590597490246     Delta-E=       -0.105587191685 Rises=F Damp=T
 DIIS: error= 5.08D-03 at cycle   2 NSaved=   2.
 NSaved= 2 IEnMin= 2 EnMin= -396.590597490246     IErMin= 2 ErrMin= 5.08D-03
 ErrMax= 5.08D-03  0.00D+00 EMaxC= 1.00D-01 BMatC= 8.03D-03 BMatP= 1.86D-01
 IDIUse=3 WtCom= 9.49D-01 WtEn= 5.08D-02
 Coeff-Com:  0.239D-01 0.976D+00
 Coeff-En:   0.552D-01 0.945D+00
 Coeff:      0.255D-01 0.975D+00
 Gap=     0.198 Goal=   None    Shift=    0.000
 RMSDP=2.23D-03 MaxDP=3.39D-02 DE=-1.06D-01 OVMax= 1.55D-01

 Cycle   3  Pass 0  IDiag  1:
 RMSU=  2.17D-03    CP:  9.45D-01  9.43D-01
 E= -396.710228243542     Delta-E=       -0.119630753297 Rises=F Damp=F
 DIIS: error= 4.98D-03 at cycle   3 NSaved=   3.
 NSaved= 3 IEnMin= 3 EnMin= -396.710228243542     IErMin= 3 ErrMin= 4.98D-03
 ErrMax= 4.98D-03  0.00D+00 EMaxC= 1.00D-01 BMatC= 3.63D-03 BMatP= 8.03D-03
 IDIUse=3 WtCom= 9.50D-01 WtEn= 4.98D-02
 Coeff-Com: -0.305D-01 0.379D+00 0.651D+00
 Coeff-En:   0.000D+00 0.000D+00 0.100D+01
 Coeff:     -0.290D-01 0.361D+00 0.668D+00
 Gap=     0.176 Goal=   None    Shift=    0.000
 RMSDP=7.30D-04 MaxDP=1.43D-02 DE=-1.20D-01 OVMax= 2.71D-02

 Cycle   4  Pass 0  IDiag  1:
 RMSU=  4.91D-04    CP:  9.47D-01  9.94D-01  7.62D-01
 E= -396.712602281315     Delta-E=       -0.002374037772 Rises=F Damp=F
 DIIS: error= 3.35D-03 at cycle   4 NSaved=   4.
 NSaved= 4 IEnMin= 4 EnMin= -396.712602281315     IErMin= 4 ErrMin= 3.35D-03
 ErrMax= 3.35D-03  0.00D+00 EMaxC= 1.00D-01 BMatC= 1.59D-03 BMatP= 3.63D-03
 IDIUse=3 WtCom= 9.66D-01 WtEn= 3.35D-02
 Coeff-Com: -0.220D-01 0.130D+00 0.418D+00 0.474D+00
 Coeff-En:   0.000D+00 0.000D+00 0.307D+00 0.693D+00
 Coeff:     -0.212D-01 0.126D+00 0.415D+00 0.481D+00
 Gap=     0.176 Goal=   None    Shift=    0.000
 RMSDP=2.82D-04 MaxDP=8.00D-03 DE=-2.37D-03 OVMax= 1.51D-02

 Cycle   5  Pass 0  IDiag  1:
 RMSU=  1.59D-04    CP:  9.47D-01  9.90D-01  8.14D-01  5.86D-01
 E= -396.714269523128     Delta-E=       -0.001667241813 Rises=F Damp=F
 DIIS: error= 9.58D-04 at cycle   5 NSaved=   5.
 NSaved= 5 IEnMin= 5 EnMin= -396.714269523128     IErMin= 5 ErrMin= 9.58D-04
 ErrMax= 9.58D-04  0.00D+00 EMaxC= 1.00D-01 BMatC= 8.82D-05 BMatP= 1.59D-03
 IDIUse=3 WtCom= 9.90D-01 WtEn= 9.58D-03
 Coeff-Com: -0.806D-02 0.290D-01 0.144D+00 0.249D+00 0.586D+00
 Coeff-En:   0.000D+00 0.000D+00 0.000D+00 0.000D+00 0.100D+01
 Coeff:     -0.798D-02 0.287D-01 0.143D+00 0.247D+00 0.590D+00
 Gap=     0.175 Goal=   None    Shift=    0.000
 RMSDP=7.96D-05 MaxDP=2.17D-03 DE=-1.67D-03 OVMax= 6.00D-03

 Cycle   6  Pass 0  IDiag  1:
 RMSU=  4.58D-05    CP:  9.47D-01  9.91D-01  8.15D-01  6.57D-01  6.56D-01
 E= -396.714352143399     Delta-E=       -0.000082620271 Rises=F Damp=F
 DIIS: error= 4.04D-04 at cycle   6 NSaved=   6.
 NSaved= 6 IEnMin= 6 EnMin= -396.714352143399     IErMin= 6 ErrMin= 4.04D-04
 ErrMax= 4.04D-04  0.00D+00 EMaxC= 1.00D-01 BMatC= 1.96D-05 BMatP= 8.82D-05
 IDIUse=3 WtCom= 9.96D-01 WtEn= 4.04D-03
 Coeff-Com: -0.230D-02 0.173D-02 0.385D-01 0.977D-01 0.379D+00 0.485D+00
 Coeff-En:   0.000D+00 0.000D+00 0.000D+00 0.000D+00 0.178D+00 0.822D+00
 Coeff:     -0.229D-02 0.173D-02 0.383D-01 0.973D-01 0.379D+00 0.486D+00
 Gap=     0.175 Goal=   None    Shift=    0.000
 RMSDP=2.77D-05 MaxDP=8.28D-04 DE=-8.26D-05 OVMax= 1.93D-03

 Cycle   7  Pass 0  IDiag  1:
 RMSU=  1.08D-05    CP:  9.47D-01  9.91D-01  8.17D-01  6.50D-01  7.44D-01
                    CP:  5.49D-01
 E= -396.714373305628     Delta-E=       -0.000021162229 Rises=F Damp=F
 DIIS: error= 5.24D-05 at cycle   7 NSaved=   7.
 NSaved= 7 IEnMin= 7 EnMin= -396.714373305628     IErMin= 7 ErrMin= 5.24D-05
 ErrMax= 5.24D-05  0.00D+00 EMaxC= 1.00D-01 BMatC= 4.22D-07 BMatP= 1.96D-05
 IDIUse=1 WtCom= 1.00D+00 WtEn= 0.00D+00
 Coeff-Com: -0.885D-03-0.131D-03 0.149D-01 0.414D-01 0.175D+00 0.248D+00
 Coeff-Com:  0.522D+00
 Coeff:     -0.885D-03-0.131D-03 0.149D-01 0.414D-01 0.175D+00 0.248D+00
 Coeff:      0.522D+00
 Gap=     0.175 Goal=   None    Shift=    0.000
 RMSDP=5.81D-06 MaxDP=1.68D-04 DE=-2.12D-05 OVMax= 3.89D-04

 Initial convergence to 1.0D-05 achieved.  Increase integral accuracy.
 Cycle   8  Pass 1  IDiag  1:
 E= -396.714313305293     Delta-E=        0.000060000335 Rises=F Damp=F
 DIIS: error= 3.86D-05 at cycle   1 NSaved=   1.
 NSaved= 1 IEnMin= 1 EnMin= -396.714313305293     IErMin= 1 ErrMin= 3.86D-05
 ErrMax= 3.86D-05  0.00D+00 EMaxC= 1.00D-01 BMatC= 1.90D-07 BMatP= 1.90D-07
 IDIUse=1 WtCom= 1.00D+00 WtEn= 0.00D+00
 Coeff-Com:  0.100D+01
 Coeff:      0.100D+01
 Gap=     0.175 Goal=   None    Shift=    0.000
 RMSDP=5.81D-06 MaxDP=1.68D-04 DE= 6.00D-05 OVMax= 3.56D-04

 Cycle   9  Pass 1  IDiag  1:
 RMSU=  2.25D-05    CP:  1.00D+00
 E= -396.714312963180     Delta-E=        0.000000342113 Rises=F Damp=F
 DIIS: error= 5.21D-05 at cycle   2 NSaved=   2.
 NSaved= 2 IEnMin= 1 EnMin= -396.714313305293     IErMin= 1 ErrMin= 3.86D-05
 ErrMax= 5.21D-05  0.00D+00 EMaxC= 1.00D-01 BMatC= 4.60D-07 BMatP= 1.90D-07
 IDIUse=1 WtCom= 1.00D+00 WtEn= 0.00D+00
 Coeff-Com:  0.623D+00 0.377D+00
 Coeff:      0.623D+00 0.377D+00
 Gap=     0.175 Goal=   None    Shift=    0.000
 RMSDP=5.02D-06 MaxDP=1.28D-04 DE= 3.42D-07 OVMax= 3.02D-04

 Cycle  10  Pass 1  IDiag  1:
 RMSU=  4.88D-06    CP:  1.00D+00  9.51D-01
 E= -396.714313470706     Delta-E=       -0.000000507526 Rises=F Damp=F
 DIIS: error= 1.10D-05 at cycle   3 NSaved=   3.
 NSaved= 3 IEnMin= 3 EnMin= -396.714313470706     IErMin= 3 ErrMin= 1.10D-05
 ErrMax= 1.10D-05  0.00D+00 EMaxC= 1.00D-01 BMatC= 1.41D-08 BMatP= 1.90D-07
 IDIUse=1 WtCom= 1.00D+00 WtEn= 0.00D+00
 Coeff-Com:  0.412D-01 0.152D+00 0.807D+00
 Coeff:      0.412D-01 0.152D+00 0.807D+00
 Gap=     0.175 Goal=   None    Shift=    0.000
 RMSDP=1.00D-06 MaxDP=2.06D-05 DE=-5.08D-07 OVMax= 6.02D-05

 Cycle  11  Pass 1  IDiag  1:
 RMSU=  6.11D-07    CP:  1.00D+00  9.66D-01  8.52D-01
 E= -396.714313482927     Delta-E=       -0.000000012220 Rises=F Damp=F
 DIIS: error= 5.05D-06 at cycle   4 NSaved=   4.
 NSaved= 4 IEnMin= 4 EnMin= -396.714313482927     IErMin= 4 ErrMin= 5.05D-06
 ErrMax= 5.05D-06  0.00D+00 EMaxC= 1.00D-01 BMatC= 3.89D-09 BMatP= 1.41D-08
 IDIUse=1 WtCom= 1.00D+00 WtEn= 0.00D+00
 Coeff-Com: -0.161D-02 0.807D-01 0.519D+00 0.402D+00
 Coeff:     -0.161D-02 0.807D-01 0.519D+00 0.402D+00
 Gap=     0.175 Goal=   None    Shift=    0.000
 RMSDP=3.92D-07 MaxDP=9.99D-06 DE=-1.22D-08 OVMax= 2.58D-05

 Cycle  12  Pass 1  IDiag  1:
 RMSU=  1.58D-07    CP:  1.00D+00  9.66D-01  8.75D-01  4.42D-01
 E= -396.714313487168     Delta-E=       -0.000000004242 Rises=F Damp=F
 DIIS: error= 7.51D-07 at cycle   5 NSaved=   5.
 NSaved= 5 IEnMin= 5 EnMin= -396.714313487168     IErMin= 5 ErrMin= 7.51D-07
 ErrMax= 7.51D-07  0.00D+00 EMaxC= 1.00D-01 BMatC= 6.82D-11 BMatP= 3.89D-09
 IDIUse=1 WtCom= 1.00D+00 WtEn= 0.00D+00
 Coeff-Com: -0.199D-02 0.414D-01 0.270D+00 0.227D+00 0.464D+00
 Coeff:     -0.199D-02 0.414D-01 0.270D+00 0.227D+00 0.464D+00
 Gap=     0.175 Goal=   None    Shift=    0.000
 RMSDP=7.07D-08 MaxDP=1.70D-06 DE=-4.24D-09 OVMax= 3.66D-06

 Cycle  13  Pass 1  IDiag  1:
 RMSU=  4.73D-08    CP:  1.00D+00  9.66D-01  8.72D-01  4.69D-01  6.93D-01
 E= -396.714313487243     Delta-E=       -0.000000000075 Rises=F Damp=F
 DIIS: error= 2.06D-07 at cycle   6 NSaved=   6.
 NSaved= 6 IEnMin= 6 EnMin= -396.714313487243     IErMin= 6 ErrMin= 2.06D-07
 ErrMax= 2.06D-07  0.00D+00 EMaxC= 1.00D-01 BMatC= 6.13D-12 BMatP= 6.82D-11
 IDIUse=1 WtCom= 1.00D+00 WtEn= 0.00D+00
 Coeff-Com: -0.909D-03 0.964D-02 0.637D-01 0.601D-01 0.254D+00 0.614D+00
 Coeff:     -0.909D-03 0.964D-02 0.637D-01 0.601D-01 0.254D+00 0.614D+00
 Gap=     0.175 Goal=   None    Shift=    0.000
 RMSDP=1.82D-08 MaxDP=3.87D-07 DE=-7.47D-11 OVMax= 8.58D-07

 Cycle  14  Pass 1  IDiag  1:
 RMSU=  1.30D-08    CP:  1.00D+00  9.66D-01  8.71D-01  4.68D-01  7.30D-01
                    CP:  7.77D-01
 E= -396.714313487248     Delta-E=       -0.000000000005 Rises=F Damp=F
 DIIS: error= 2.37D-08 at cycle   7 NSaved=   7.
 NSaved= 7 IEnMin= 7 EnMin= -396.714313487248     IErMin= 7 ErrMin= 2.37D-08
 ErrMax= 2.37D-08  0.00D+00 EMaxC= 1.00D-01 BMatC= 1.32D-13 BMatP= 6.13D-12
 IDIUse=1 WtCom= 1.00D+00 WtEn= 0.00D+00
 Coeff-Com: -0.608D-04-0.768D-03-0.461D-02-0.169D-02 0.314D-01 0.152D+00
 Coeff-Com:  0.824D+00
 Coeff:     -0.608D-04-0.768D-03-0.461D-02-0.169D-02 0.314D-01 0.152D+00
 Coeff:      0.824D+00
 Gap=     0.175 Goal=   None    Shift=    0.000
 RMSDP=4.45D-09 MaxDP=1.24D-07 DE=-4.55D-12 OVMax= 3.49D-07

 SCF Done:  E(RB3LYP) =  -396.714313487     A.U. after   14 cycles
            NFock= 14  Conv=0.44D-08     -V/T= 2.0273
 KE= 3.861774680872D+02 PE=-1.930698158553D+03 EE= 6.397221090096D+02
 Leave Link  502 at Tue Sep 17 09:56:05 2024, MaxMem=  1342177280 cpu:              66.2 elap:               8.6
 (Enter /groups/ReismanLab/Software/Gaussian16_RevC/Linux_Binary_AVX2-enabled-CPU/g16/l508.exe)
 QCSCF skips out because SCF is already converged.
 Leave Link  508 at Tue Sep 17 09:56:05 2024, MaxMem=  1342177280 cpu:               0.0 elap:               0.0
 (Enter /groups/ReismanLab/Software/Gaussian16_RevC/Linux_Binary_AVX2-enabled-CPU/g16/l601.exe)
 Copying SCF densities to generalized density rwf, IOpCl= 0 IROHF=0.

 **********************************************************************

            Population analysis using the SCF Density.

 **********************************************************************

 Orbital symmetries:
       Occupied  (A) (A) (A) (A) (A) (A) (A) (A) (A) (A) (A) (A)
                 (A) (A) (A) (A) (A) (A) (A) (A) (A) (A) (A) (A)
                 (A) (A) (A) (A) (A) (A) (A) (A) (A) (A) (A) (A)
                 (A)
       Virtual   (A) (A) (A) (A) (A) (A) (A) (A) (A) (A) (A) (A)
                 (A) (A) (A) (A) (A) (A) (A) (A) (A) (A) (A) (A)
                 (A) (A) (A) (A) (A) (A) (A) (A) (A) (A) (A) (A)
                 (A) (A) (A) (A) (A) (A) (A) (A) (A) (A) (A) (A)
                 (A) (A) (A) (A) (A) (A) (A) (A) (A) (A) (A) (A)
                 (A) (A) (A) (A) (A) (A) (A) (A) (A) (A) (A) (A)
                 (A) (A) (A) (A) (A) (A) (A) (A) (A) (A) (A) (A)
                 (A) (A) (A) (A) (A) (A) (A) (A) (A) (A) (A) (A)
                 (A) (A) (A) (A) (A) (A) (A) (A) (A) (A) (A) (A)
                 (A) (A) (A) (A) (A) (A) (A) (A) (A) (A) (A) (A)
                 (A) (A) (A) (A) (A) (A) (A) (A) (A) (A) (A) (A)
                 (A) (A) (A) (A) (A) (A) (A) (A) (A) (A) (A) (A)
                 (A) (A)
 The electronic state is 1-A.
 Alpha  occ. eigenvalues --  -10.23481 -10.19988 -10.19800 -10.19773 -10.19722
 Alpha  occ. eigenvalues --  -10.19511 -10.19075 -10.19046 -10.19015 -10.18979
 Alpha  occ. eigenvalues --   -0.88889  -0.83766  -0.78623  -0.75925  -0.73333
 Alpha  occ. eigenvalues --   -0.68033  -0.63321  -0.60777  -0.60598  -0.52451
 Alpha  occ. eigenvalues --   -0.51368  -0.48985  -0.45736  -0.44851  -0.42733
 Alpha  occ. eigenvalues --   -0.42419  -0.40441  -0.39648  -0.37167  -0.34740
 Alpha  occ. eigenvalues --   -0.34309  -0.33385  -0.29855  -0.27793  -0.26593
 Alpha  occ. eigenvalues --   -0.24262  -0.22143
 Alpha virt. eigenvalues --   -0.04612  -0.02745  -0.01566   0.02509   0.09313
 Alpha virt. eigenvalues --    0.09705   0.11425   0.13122   0.16430   0.16746
 Alpha virt. eigenvalues --    0.17879   0.19574   0.19924   0.23727   0.27687
 Alpha virt. eigenvalues --    0.29173   0.30290   0.31022   0.32800   0.34898
 Alpha virt. eigenvalues --    0.36959   0.39129   0.39969   0.47248   0.50216
 Alpha virt. eigenvalues --    0.50470   0.51796   0.53437   0.53868   0.54233
 Alpha virt. eigenvalues --    0.55989   0.56135   0.58899   0.59178   0.60448
 Alpha virt. eigenvalues --    0.60768   0.61190   0.61661   0.61982   0.62374
 Alpha virt. eigenvalues --    0.63941   0.66683   0.68049   0.68057   0.68878
 Alpha virt. eigenvalues --    0.75181   0.80612   0.80770   0.81686   0.82425
 Alpha virt. eigenvalues --    0.82934   0.84369   0.85812   0.87771   0.92873
 Alpha virt. eigenvalues --    0.93908   0.94303   0.98854   1.00090   1.04297
 Alpha virt. eigenvalues --    1.05127   1.06179   1.09267   1.11978   1.16888
 Alpha virt. eigenvalues --    1.18805   1.22592   1.23518   1.24570   1.31129
 Alpha virt. eigenvalues --    1.32347   1.34762   1.35900   1.39478   1.39504
 Alpha virt. eigenvalues --    1.40818   1.43029   1.44941   1.45881   1.46410
 Alpha virt. eigenvalues --    1.52018   1.69943   1.73702   1.75426   1.76477
 Alpha virt. eigenvalues --    1.81261   1.86563   1.87327   1.88341   1.89348
 Alpha virt. eigenvalues --    1.90076   1.92151   1.92994   1.98034   1.99513
 Alpha virt. eigenvalues --    1.99905   2.02171   2.03594   2.06729   2.07958
 Alpha virt. eigenvalues --    2.10001   2.18797   2.22503   2.25665   2.26985
 Alpha virt. eigenvalues --    2.28954   2.30088   2.32754   2.35005   2.38144
 Alpha virt. eigenvalues --    2.40995   2.41253   2.43624   2.45104   2.45733
 Alpha virt. eigenvalues --    2.47481   2.51949   2.53358   2.55608   2.58486
 Alpha virt. eigenvalues --    2.59808   2.60621   2.62997   2.63088   2.63679
 Alpha virt. eigenvalues --    2.70457   2.72215   2.74996   2.76046   2.79075
 Alpha virt. eigenvalues --    2.86205   2.92754   3.01262   3.08954   3.15255
 Alpha virt. eigenvalues --    3.17132   3.23211   3.24757   3.27677   3.33882
 Alpha virt. eigenvalues --    3.40248   3.47272   3.50536   3.75416   3.92096
 Alpha virt. eigenvalues --   10.07163
          Condensed to atoms (all electrons):
               1          2          3          4          5          6
     1  I    6.721593   0.262332  -0.062318   0.000004   0.001948   0.000045
     2  C    0.262332   5.347792   0.450770  -0.006980  -0.055445  -0.001162
     3  C   -0.062318   0.450770   4.841198   0.505273   0.008566   0.009673
     4  C    0.000004  -0.006980   0.505273   5.032323   0.434081  -0.090693
     5  C    0.001948  -0.055445   0.008566   0.434081   4.723581   0.445892
     6  C    0.000045  -0.001162   0.009673  -0.090693   0.445892   5.029981
     7  C   -0.000003   0.000139  -0.000486   0.009218  -0.003676   0.516234
     8  C    0.000009  -0.000621   0.000078  -0.000599  -0.040757  -0.019382
     9  C   -0.000273   0.010697  -0.000849   0.015386  -0.030477  -0.074755
    10  C   -0.001750   0.013458  -0.041094  -0.025330   0.491773  -0.029977
    11  C   -0.064566   0.439268  -0.014373  -0.077826  -0.021423   0.016927
    12  H   -0.001662  -0.039968   0.368787  -0.025871   0.002859  -0.000206
    13  H   -0.000299   0.006217  -0.045991   0.367633  -0.041414  -0.009293
    14  H    0.000000   0.000008   0.000219  -0.009828  -0.040610   0.364954
    15  H    0.000000  -0.000000   0.000003  -0.000212   0.003100  -0.034622
    16  H   -0.000000   0.000004  -0.000001   0.000010   0.001165   0.004442
    17  H   -0.000043   0.000357   0.000008  -0.000194   0.004872   0.000597
    18  H   -0.002495  -0.045583   0.003795   0.000655   0.004953  -0.000203
               7          8          9         10         11         12
     1  I   -0.000003   0.000009  -0.000273  -0.001750  -0.064566  -0.001662
     2  C    0.000139  -0.000621   0.010697   0.013458   0.439268  -0.039968
     3  C   -0.000486   0.000078  -0.000849  -0.041094  -0.014373   0.368787
     4  C    0.009218  -0.000599   0.015386  -0.025330  -0.077826  -0.025871
     5  C   -0.003676  -0.040757  -0.030477   0.491773  -0.021423   0.002859
     6  C    0.516234  -0.019382  -0.074755  -0.029977   0.016927  -0.000206
     7  C    4.837871   0.503545  -0.019416  -0.041661  -0.000973   0.000004
     8  C    0.503545   4.839641   0.513851  -0.004062   0.009633  -0.000001
     9  C   -0.019416   0.513851   5.027206   0.454175  -0.094061   0.000009
    10  C   -0.041661  -0.004062   0.454175   4.708335   0.426444   0.001142
    11  C   -0.000973   0.009633  -0.094061   0.426444   5.071374   0.003712
    12  H    0.000004  -0.000001   0.000009   0.001142   0.003712   0.594053
    13  H    0.000224   0.000022  -0.000219   0.004620   0.000590  -0.006369
    14  H   -0.043488   0.004604   0.000671   0.004952  -0.000207  -0.000011
    15  H    0.366069  -0.040366   0.004518   0.001145   0.000009  -0.000000
    16  H   -0.040260   0.365775  -0.034366   0.003085  -0.000212  -0.000000
    17  H    0.004647  -0.043429   0.365935  -0.041060  -0.010003   0.000000
    18  H    0.000019   0.000234  -0.010080  -0.030648   0.367568  -0.000185
              13         14         15         16         17         18
     1  I   -0.000299   0.000000   0.000000  -0.000000  -0.000043  -0.002495
     2  C    0.006217   0.000008  -0.000000   0.000004   0.000357  -0.045583
     3  C   -0.045991   0.000219   0.000003  -0.000001   0.000008   0.003795
     4  C    0.367633  -0.009828  -0.000212   0.000010  -0.000194   0.000655
     5  C   -0.041414  -0.040610   0.003100   0.001165   0.004872   0.004953
     6  C   -0.009293   0.364954  -0.034622   0.004442   0.000597  -0.000203
     7  C    0.000224  -0.043488   0.366069  -0.040260   0.004647   0.000019
     8  C    0.000022   0.004604  -0.040366   0.365775  -0.043429   0.000234
     9  C   -0.000219   0.000671   0.004518  -0.034366   0.365935  -0.010080
    10  C    0.004620   0.004952   0.001145   0.003085  -0.041060  -0.030648
    11  C    0.000590  -0.000207   0.000009  -0.000212  -0.010003   0.367568
    12  H   -0.006369  -0.000011  -0.000000  -0.000000   0.000000  -0.000185
    13  H    0.625719   0.006063  -0.000012  -0.000000   0.000003   0.000020
    14  H    0.006063   0.632390  -0.006302  -0.000205   0.000021   0.000003
    15  H   -0.000012  -0.006302   0.624509  -0.006004  -0.000204  -0.000000
    16  H   -0.000000  -0.000205  -0.006004   0.623809  -0.006287  -0.000012
    17  H    0.000003   0.000021  -0.000204  -0.006287   0.630281   0.006223
    18  H    0.000020   0.000003  -0.000000  -0.000012   0.006223   0.603279
 Mulliken charges:
               1
     1  I    0.147478
     2  C   -0.381285
     3  C   -0.023259
     4  C   -0.127050
     5  C    0.111013
     6  C   -0.128452
     7  C   -0.088008
     8  C   -0.088177
     9  C   -0.127953
    10  C    0.106454
    11  C   -0.051879
    12  H    0.103707
    13  H    0.092487
    14  H    0.086765
    15  H    0.088368
    16  H    0.089058
    17  H    0.088275
    18  H    0.102459
 Sum of Mulliken charges =  -0.00000
 Mulliken charges with hydrogens summed into heavy atoms:
               1
     1  I    0.147478
     2  C   -0.381285
     3  C    0.080448
     4  C   -0.034564
     5  C    0.111013
     6  C   -0.041687
     7  C    0.000360
     8  C    0.000881
     9  C   -0.039678
    10  C    0.106454
    11  C    0.050580
 Electronic spatial extent (au):  <R**2>=           2443.2482
 Charge=             -0.0000 electrons
 Dipole moment (field-independent basis, Debye):
    X=              1.9932    Y=              0.2582    Z=             -0.0001  Tot=              2.0098
 Quadrupole moment (field-independent basis, Debye-Ang):
   XX=            -69.8317   YY=            -69.2850   ZZ=            -81.6924
   XY=             -0.0839   XZ=             -0.0005   YZ=             -0.0003
 Traceless Quadrupole moment (field-independent basis, Debye-Ang):
   XX=              3.7713   YY=              4.3180   ZZ=             -8.0894
   XY=             -0.0839   XZ=             -0.0005   YZ=             -0.0003
 Octapole moment (field-independent basis, Debye-Ang**2):
  XXX=           -147.2902  YYY=             -7.6394  ZZZ=             -0.0026  XYY=            -47.5165
  XXY=             -6.6356  XXZ=             -0.0059  XZZ=            -69.2740  YZZ=             -4.3538
  YYZ=             -0.0003  XYZ=             -0.0014
 Hexadecapole moment (field-independent basis, Debye-Ang**3):
 XXXX=          -2935.5485 YYYY=           -568.8952 ZZZZ=           -100.5383 XXXY=             30.3858
 XXXZ=             -0.0075 YYYX=             25.9090 YYYZ=             -0.0004 ZZZX=              0.0109
 ZZZY=              0.0011 XXYY=           -604.4565 XXZZ=           -607.9673 YYZZ=           -130.4543
 XXYZ=             -0.0035 YYXZ=              0.0025 ZZXY=             11.6839
 N-N= 5.080842679693D+02 E-N=-1.930698162060D+03  KE= 3.861774680872D+02
 No NMR shielding tensors so no spin-rotation constants.
 Leave Link  601 at Tue Sep 17 09:56:05 2024, MaxMem=  1342177280 cpu:               0.7 elap:               0.1
 (Enter /groups/ReismanLab/Software/Gaussian16_RevC/Linux_Binary_AVX2-enabled-CPU/g16/l701.exe)
 ... and contract with generalized density number  0.
 Compute integral first derivatives.
 R6Disp: Adding Grimme-D3(BJ) dispersion energy 1st derivatives to the gradient.
   1 Symmetry operations used in ECPInt.
 ECPInt:  NShTT=    2145 NPrTT=   11679 LenC2=    2080 LenP2D=    8021.
 LDataN:  DoStor=T MaxTD1= 6 Len=  172
 Leave Link  701 at Tue Sep 17 09:56:06 2024, MaxMem=  1342177280 cpu:               1.0 elap:               0.8
 (Enter /groups/ReismanLab/Software/Gaussian16_RevC/Linux_Binary_AVX2-enabled-CPU/g16/l702.exe)
 L702 exits ... SP integral derivatives will be done elsewhere.
 Leave Link  702 at Tue Sep 17 09:56:06 2024, MaxMem=  1342177280 cpu:               0.1 elap:               0.0
 (Enter /groups/ReismanLab/Software/Gaussian16_RevC/Linux_Binary_AVX2-enabled-CPU/g16/l703.exe)
 Integral derivatives from FoFJK, PRISM(SPDF).
 Compute integral first derivatives, UseDBF=F ICtDFT=           0.
 Calling FoFJK, ICntrl=      2127 FMM=F ISym2X=0 I1Cent= 0 IOpClX= 0 NMat=1 NMatS=1 NMatT=0.
 FoFJK:  IHMeth= 1 ICntrl=    2127 DoSepK=F KAlg= 0 I1Cent=           0 FoldK=F
 IRaf=         0 NMat=       1 IRICut=       1 DoRegI=T DoRafI=F ISym2E= 0 IDoP0=0 IntGTp=1.
 FoFCou: FMM=F IPFlag=           0 FMFlag=      100000 FMFlg1=         800
         NFxFlg=           0 DoJE=F BraDBF=F KetDBF=F FulRan=T
         wScrn=  0.000000 ICntrl=      2127 IOpCl=  0 I1Cent=           0 NGrid=           0
         NMat0=    1 NMatS0=      1 NMatT0=    0 NMatD0=    1 NMtDS0=    0 NMtDT0=    0
 Symmetry not used in FoFCou.
 Defaulting to unpruned grid for atomic number  53.
 Defaulting to unpruned grid for atomic number  53.
 Defaulting to unpruned grid for atomic number  53.
 Defaulting to unpruned grid for atomic number  53.
 Defaulting to unpruned grid for atomic number  53.
 Defaulting to unpruned grid for atomic number  53.
 Defaulting to unpruned grid for atomic number  53.
 Defaulting to unpruned grid for atomic number  53.
 Leave Link  703 at Tue Sep 17 09:56:08 2024, MaxMem=  1342177280 cpu:              17.7 elap:               2.3
 (Enter /groups/ReismanLab/Software/Gaussian16_RevC/Linux_Binary_AVX2-enabled-CPU/g16/l716.exe)
 Dipole        = 7.84185220D-01 1.01567188D-01-2.55682489D-05
 ***** Axes restored to original set *****
 -------------------------------------------------------------------
 Center     Atomic                   Forces (Hartrees/Bohr)
 Number     Number              X              Y              Z
 -------------------------------------------------------------------
      1       53           0.006682133    0.001234373    0.000001368
      2        6           0.004596912    0.002677844   -0.000001182
      3        6           0.004817482   -0.007538512   -0.000011072
      4        6          -0.003173875   -0.003182700   -0.000000249
      5        6          -0.001412965   -0.002972700    0.000008260
      6        6          -0.000450138   -0.005100575   -0.000000493
      7        6          -0.006657279   -0.001905323   -0.000000849
      8        6          -0.003980809    0.005378870   -0.000001611
      9        6           0.002471531    0.004518073   -0.000003200
     10        6           0.000907781    0.001806199   -0.000005209
     11        6           0.001046192    0.006530648    0.000010434
     12        1           0.001842510   -0.002786564    0.000005037
     13        1          -0.001220298   -0.004153086   -0.000001365
     14        1          -0.001566371   -0.003976927    0.000000181
     15        1          -0.004016233   -0.001264451    0.000000650
     16        1          -0.002393170    0.003486661    0.000000881
     17        1           0.001297326    0.004057066    0.000001685
     18        1           0.001209272    0.003191104   -0.000003266
 -------------------------------------------------------------------
 Cartesian Forces:  Max     0.007538512 RMS     0.003019744
 Leave Link  716 at Tue Sep 17 09:56:08 2024, MaxMem=  1342177280 cpu:               0.1 elap:               0.0
 (Enter /groups/ReismanLab/Software/Gaussian16_RevC/Linux_Binary_AVX2-enabled-CPU/g16/l103.exe)

 GradGradGradGradGradGradGradGradGradGradGradGradGradGradGradGradGradGrad
 Berny optimization.
 FormGI is forming the generalized inverse of G from B-inverse, IUseBI=4.
 Internal  Forces:  Max     0.012353613 RMS     0.003807613
 Search for a local minimum.
 Step number   1 out of a maximum of  103
 All quantities printed in internal units (Hartrees-Bohrs-Radians)
 RMS Force = .38076D-02 SwitMx=.10000D-02 MixMth= 1
 Mixed Optimization -- RFO/linear search
 Second derivative matrix not updated -- first step.
 ITU=  0
     Eigenvalues ---    0.01913   0.01925   0.01927   0.02134   0.02149
     Eigenvalues ---    0.02170   0.02180   0.02246   0.02253   0.02278
     Eigenvalues ---    0.02299   0.02310   0.02338   0.02395   0.02419
     Eigenvalues ---    0.13324   0.16000   0.16000   0.16000   0.16000
     Eigenvalues ---    0.16000   0.16000   0.16000   0.22000   0.22287
     Eigenvalues ---    0.22690   0.23525   0.24368   0.24751   0.25000
     Eigenvalues ---    0.35927   0.35942   0.35945   0.35998   0.36000
     Eigenvalues ---    0.36008   0.36091   0.37931   0.41120   0.41621
     Eigenvalues ---    0.42768   0.43619   0.44439   0.44701   0.49667
     Eigenvalues ---    0.49985   0.51000   0.51314
 RFO step:  Lambda=-3.19124869D-03 EMin= 1.91321694D-02
 Linear search not attempted -- first point.
 Iteration  1 RMS(Cart)=  0.01836689 RMS(Int)=  0.00000772
 Iteration  2 RMS(Cart)=  0.00001096 RMS(Int)=  0.00000098
 Iteration  3 RMS(Cart)=  0.00000000 RMS(Int)=  0.00000098
 ITry= 1 IFail=0 DXMaxC= 8.88D-02 DCOld= 1.00D+10 DXMaxT= 3.00D-01 DXLimC= 3.00D+00 Rises=F
 Variable       Old X    -DE/DX   Delta X   Delta X   Delta X     New X
                                 (Linear)    (Quad)   (Total)
    R1        4.00707   0.00680   0.00000   0.04981   0.04981   4.05688
    R2        2.64922   0.01235   0.00000   0.02757   0.02757   2.67679
    R3        2.57816   0.01073   0.00000   0.02076   0.02077   2.59892
    R4        2.58156   0.01063   0.00000   0.02056   0.02056   2.60212
    R5        2.03940   0.00331   0.00000   0.00908   0.00908   2.04848
    R6        2.66577   0.00854   0.00000   0.01898   0.01898   2.68475
    R7        2.04167   0.00432   0.00000   0.01193   0.01193   2.05360
    R8        2.66478   0.00904   0.00000   0.02018   0.02018   2.68496
    R9        2.68271   0.01125   0.00000   0.02532   0.02531   2.70803
   R10        2.58289   0.01019   0.00000   0.01979   0.01979   2.60268
   R11        2.04195   0.00427   0.00000   0.01178   0.01178   2.05373
   R12        2.65314   0.01134   0.00000   0.02544   0.02545   2.67859
   R13        2.04082   0.00418   0.00000   0.01150   0.01150   2.05232
   R14        2.58250   0.01032   0.00000   0.02006   0.02006   2.60256
   R15        2.04084   0.00420   0.00000   0.01155   0.01155   2.05240
   R16        2.66555   0.00930   0.00000   0.02083   0.02083   2.68639
   R17        2.04173   0.00426   0.00000   0.01174   0.01174   2.05347
   R18        2.66589   0.00982   0.00000   0.02206   0.02206   2.68795
   R19        2.04068   0.00341   0.00000   0.00939   0.00939   2.05007
    A1        2.07075   0.00042   0.00000   0.00109   0.00108   2.07183
    A2        2.09059   0.00036   0.00000   0.00085   0.00085   2.09144
    A3        2.12185  -0.00079   0.00000  -0.00194  -0.00193   2.11992
    A4        2.08438  -0.00044   0.00000  -0.00100  -0.00100   2.08339
    A5        2.09246   0.00072   0.00000   0.00353   0.00352   2.09598
    A6        2.10634  -0.00027   0.00000  -0.00253  -0.00253   2.10381
    A7        2.11351   0.00090   0.00000   0.00337   0.00337   2.11687
    A8        2.09481  -0.00065   0.00000  -0.00288  -0.00288   2.09193
    A9        2.07486  -0.00026   0.00000  -0.00049  -0.00049   2.07438
   A10        2.13345   0.00004   0.00000   0.00178   0.00178   2.13523
   A11        2.07397  -0.00033   0.00000  -0.00241  -0.00242   2.07155
   A12        2.07577   0.00029   0.00000   0.00063   0.00063   2.07640
   A13        2.10562   0.00033   0.00000   0.00108   0.00107   2.10669
   A14        2.07123   0.00005   0.00000   0.00077   0.00077   2.07200
   A15        2.10634  -0.00038   0.00000  -0.00185  -0.00185   2.10449
   A16        2.10104  -0.00045   0.00000  -0.00118  -0.00118   2.09987
   A17        2.09951  -0.00031   0.00000  -0.00269  -0.00269   2.09682
   A18        2.08264   0.00076   0.00000   0.00386   0.00386   2.08650
   A19        2.10185  -0.00027   0.00000  -0.00027  -0.00027   2.10158
   A20        2.08274   0.00068   0.00000   0.00345   0.00345   2.08619
   A21        2.09860  -0.00041   0.00000  -0.00318  -0.00318   2.09541
   A22        2.10380   0.00041   0.00000   0.00157   0.00157   2.10537
   A23        2.10671  -0.00032   0.00000  -0.00150  -0.00150   2.10521
   A24        2.07267  -0.00009   0.00000  -0.00007  -0.00007   2.07261
   A25        2.07829  -0.00030   0.00000  -0.00184  -0.00184   2.07645
   A26        2.07998   0.00047   0.00000   0.00105   0.00105   2.08103
   A27        2.12492  -0.00016   0.00000   0.00079   0.00079   2.12571
   A28        2.09268   0.00020   0.00000   0.00093   0.00093   2.09361
   A29        2.11491  -0.00022   0.00000  -0.00123  -0.00123   2.11368
   A30        2.07559   0.00003   0.00000   0.00030   0.00030   2.07589
    D1       -3.14145  -0.00000   0.00000  -0.00012  -0.00012  -3.14156
    D2       -0.00002   0.00000   0.00000   0.00004   0.00004   0.00003
    D3        0.00010  -0.00000   0.00000  -0.00009  -0.00009   0.00001
    D4        3.14153   0.00000   0.00000   0.00008   0.00008  -3.14158
    D5        3.14153   0.00000   0.00000   0.00003   0.00003   3.14156
    D6       -0.00017   0.00000   0.00000   0.00012   0.00012  -0.00004
    D7       -0.00001   0.00000   0.00000  -0.00000  -0.00000  -0.00001
    D8        3.14148   0.00000   0.00000   0.00009   0.00009   3.14156
    D9       -0.00005   0.00000   0.00000   0.00005   0.00005   0.00000
   D10        3.14155   0.00000   0.00000   0.00006   0.00006  -3.14157
   D11       -3.14148  -0.00000   0.00000  -0.00011  -0.00011  -3.14159
   D12        0.00013  -0.00000   0.00000  -0.00011  -0.00011   0.00002
   D13        3.14158  -0.00000   0.00000  -0.00000  -0.00000   3.14157
   D14       -0.00008   0.00000   0.00000   0.00006   0.00006  -0.00002
   D15       -0.00003  -0.00000   0.00000  -0.00001  -0.00001  -0.00003
   D16        3.14150   0.00000   0.00000   0.00006   0.00006   3.14156
   D17        3.14151   0.00000   0.00000   0.00007   0.00007   3.14158
   D18       -0.00010   0.00000   0.00000   0.00008   0.00008  -0.00002
   D19       -0.00002   0.00000   0.00000   0.00001   0.00001  -0.00001
   D20        3.14156   0.00000   0.00000   0.00002   0.00002   3.14157
   D21       -3.14148  -0.00000   0.00000  -0.00009  -0.00009  -3.14157
   D22        0.00016  -0.00000   0.00000  -0.00015  -0.00015   0.00002
   D23        0.00005  -0.00000   0.00000  -0.00003  -0.00003   0.00002
   D24       -3.14149  -0.00000   0.00000  -0.00009  -0.00009  -3.14158
   D25       -0.00002   0.00000   0.00000   0.00002   0.00002  -0.00000
   D26        3.14156   0.00000   0.00000   0.00003   0.00003   3.14159
   D27        3.14158   0.00000   0.00000   0.00001   0.00001  -3.14159
   D28       -0.00002   0.00000   0.00000   0.00002   0.00002  -0.00000
   D29        0.00004  -0.00000   0.00000  -0.00003  -0.00003   0.00001
   D30        3.14159   0.00000   0.00000   0.00002   0.00002  -3.14158
   D31       -3.14154  -0.00000   0.00000  -0.00004  -0.00004  -3.14158
   D32        0.00001   0.00000   0.00000   0.00001   0.00001   0.00002
   D33       -0.00001   0.00000   0.00000   0.00001   0.00001  -0.00001
   D34        3.14152   0.00000   0.00000   0.00007   0.00007   3.14159
   D35       -3.14156  -0.00000   0.00000  -0.00004  -0.00004   3.14158
   D36       -0.00002   0.00000   0.00000   0.00002   0.00002  -0.00001
   D37       -0.00003   0.00000   0.00000   0.00002   0.00002  -0.00001
   D38        3.14151   0.00000   0.00000   0.00008   0.00008   3.14159
   D39       -3.14157  -0.00000   0.00000  -0.00003  -0.00003   3.14158
   D40       -0.00003   0.00000   0.00000   0.00002   0.00002  -0.00001
   D41       -0.00012   0.00000   0.00000   0.00012   0.00012  -0.00000
   D42        3.14158   0.00000   0.00000   0.00003   0.00003  -3.14158
   D43        3.14153   0.00000   0.00000   0.00006   0.00006   3.14159
   D44        0.00004  -0.00000   0.00000  -0.00003  -0.00003   0.00001
         Item               Value     Threshold  Converged?
 Maximum Force            0.012354     0.000450     NO 
 RMS     Force            0.003808     0.000300     NO 
 Maximum Displacement     0.088786     0.001800     NO 
 RMS     Displacement     0.018368     0.001200     NO 
 Predicted change in Energy=-1.609717D-03
 Lowest energy point so far.  Saving SCF results.
 GradGradGradGradGradGradGradGradGradGradGradGradGradGradGradGradGradGrad

 Leave Link  103 at Tue Sep 17 09:56:08 2024, MaxMem=  1342177280 cpu:               0.1 elap:               0.0
 (Enter /groups/ReismanLab/Software/Gaussian16_RevC/Linux_Binary_AVX2-enabled-CPU/g16/l202.exe)
                          Input orientation:                          
 ---------------------------------------------------------------------
 Center     Atomic      Atomic             Coordinates (Angstroms)
 Number     Number       Type             X           Y           Z
 ---------------------------------------------------------------------
      1         53           0        2.355566    0.134998    0.000135
      2          6           0        0.243649   -0.250479    0.000105
      3          6           0       -0.202605   -1.594845    0.000074
      4          6           0       -1.554262   -1.857728    0.000020
      5          6           0       -2.510309   -0.806827   -0.000010
      6          6           0       -3.909740   -1.052436   -0.000087
      7          6           0       -4.807116   -0.007632   -0.000096
      8          6           0       -4.344998    1.332369   -0.000028
      9          6           0       -2.994878    1.604218    0.000035
     10          6           0       -2.043411    0.548004    0.000040
     11          6           0       -0.643574    0.800359    0.000096
     12          1           0        0.516327   -2.406145    0.000090
     13          1           0       -1.905424   -2.886143    0.000013
     14          1           0       -4.259301   -2.081471   -0.000142
     15          1           0       -5.874901   -0.205922   -0.000159
     16          1           0       -5.063841    2.146516   -0.000022
     17          1           0       -2.636887    2.630205    0.000084
     18          1           0       -0.295391    1.827817    0.000146
 ---------------------------------------------------------------------
                    Distance matrix (angstroms):
                    1          2          3          4          5
     1  I    0.000000
     2  C    2.146808   0.000000
     3  C    3.088138   1.416496   0.000000
     4  C    4.388361   2.411584   1.376984   0.000000
     5  C    4.956185   2.809592   2.438538   1.420710   0.000000
     6  C    6.376838   4.230103   3.746606   2.489331   1.420821
     7  C    7.164102   5.056600   4.870397   3.742180   2.431879
     8  C    6.806707   4.853976   5.072277   4.238505   2.818199
     9  C    5.548500   3.732018   4.246268   3.749726   2.459258
    10  C    4.418322   2.422440   2.824954   2.454957   1.433026
    11  C    3.072059   1.375291   2.435457   2.809765   2.463280
    12  H    3.136911   2.172844   1.084007   2.141985   3.423206
    13  H    5.223345   3.400771   2.137065   1.086716   2.165511
    14  H    6.976331   4.860976   4.085779   2.714276   2.164183
    15  H    8.237525   6.118712   5.839867   4.625622   3.417831
    16  H    7.687250   5.823662   6.134281   5.324577   3.904198
    17  H    5.581277   4.073798   4.876144   4.616668   3.439363
    18  H    3.145347   2.147063   3.423919   3.894612   3.441978
                    6          7          8          9         10
     6  C    0.000000
     7  C    1.377280   0.000000
     8  C    2.424200   1.417447   0.000000
     9  C    2.809766   2.425339   1.377217   0.000000
    10  C    2.458576   2.819007   2.431570   1.421576   0.000000
    11  C    3.755088   4.241218   3.739462   2.484918   1.422401
    12  H    4.628455   5.838827   6.132615   5.330250   3.908869
    13  H    2.716572   4.087253   4.873127   4.620634   3.436918
    14  H    1.086787   2.144973   3.414915   3.896546   3.438649
    15  H    2.139730   1.086040   2.169549   3.401638   3.904961
    16  H    3.400771   2.169392   1.086081   2.138854   3.417344
    17  H    3.896409   3.415857   2.145232   1.086649   2.165127
    18  H    4.621621   4.870784   4.079802   2.708731   2.166447
                   11         12         13         14         15
    11  C    0.000000
    12  H    3.409844   0.000000
    13  H    3.896481   2.468861   0.000000
    14  H    4.623681   4.786652   2.487616   0.000000
    15  H    5.327230   6.759347   4.789607   2.475449   0.000000
    16  H    4.620704   7.201736   5.941654   4.303854   2.488329
    17  H    2.705852   5.942018   5.564633   4.983184   4.304457
    18  H    1.084851   4.311070   4.981328   5.567326   5.938605
                   16         17         18
    16  H    0.000000
    17  H    2.474684   0.000000
    18  H    4.779089   2.475163   0.000000
 Stoichiometry    C10H7I
 Framework group  C1[X(C10H7I)]
 Deg. of freedom    48
 Full point group                 C1      NOp   1
 RotChk:  IX=2 Diff= 1.37D-03
 Largest Abelian subgroup         C1      NOp   1
 Largest concise Abelian subgroup C1      NOp   1
                         Standard orientation:                         
 ---------------------------------------------------------------------
 Center     Atomic      Atomic             Coordinates (Angstroms)
 Number     Number       Type             X           Y           Z
 ---------------------------------------------------------------------
      1         53           0       -2.615164   -0.165316    0.000068
      2          6           0       -0.505883    0.234335    0.000038
      3          6           0       -0.068667    1.581667    0.000007
      4          6           0        1.281194    1.853622   -0.000047
      5          6           0        2.244277    0.809165   -0.000077
      6          6           0        3.642027    1.064166   -0.000154
      7          6           0        4.546399    0.025412   -0.000163
      8          6           0        4.093290   -1.317662   -0.000096
      9          6           0        2.745026   -1.598572   -0.000032
     10          6           0        1.786487   -0.548771   -0.000027
     11          6           0        0.388377   -0.810521    0.000029
     12          1           0       -0.793031    2.388121    0.000023
     13          1           0        1.625442    2.884372   -0.000054
     14          1           0        3.984669    2.095525   -0.000209
     15          1           0        5.612828    0.230868   -0.000226
     16          1           0        4.817585   -2.126963   -0.000089
     17          1           0        2.393933   -2.626940    0.000017
     18          1           0        0.047102   -1.840294    0.000079
 ---------------------------------------------------------------------
 Rotational constants (GHZ):           2.6158452           0.2888332           0.2601124
 Leave Link  202 at Tue Sep 17 09:56:08 2024, MaxMem=  1342177280 cpu:               0.0 elap:               0.0
 (Enter /groups/ReismanLab/Software/Gaussian16_RevC/Linux_Binary_AVX2-enabled-CPU/g16/l301.exe)
 Basis read from rwf:  (5D, 7F)
 Pseudo-potential data read from rwf file.
 There are   193 symmetry adapted cartesian basis functions of A   symmetry.
 There are   183 symmetry adapted basis functions of A   symmetry.
   183 basis functions,   341 primitive gaussians,   193 cartesian basis functions
    37 alpha electrons       37 beta electrons
       nuclear repulsion energy       503.8953631183 Hartrees.
 IExCor=  402 DFT=T Ex+Corr=B3LYP ExCW=0 ScaHFX=  0.200000
 ScaDFX=  0.800000  0.720000  1.000000  0.810000 ScalE2=  1.000000  1.000000
 IRadAn=      5 IRanWt=     -1 IRanGd=            0 ICorTp=0 IEmpDi=141
 NAtoms=   18 NActive=   18 NUniq=   18 SFac= 1.00D+00 NAtFMM=   60 NAOKFM=F Big=F
 Integral buffers will be    131072 words long.
 Raffenetti 2 integral format.
 Two-electron integral symmetry is turned on.
 R6Disp:  Grimme-D3(BJ) Dispersion energy=       -0.0424814998 Hartrees.
 Nuclear repulsion after empirical dispersion term =      503.8528816186 Hartrees.
 No density basis found on file    724.
 Leave Link  301 at Tue Sep 17 09:56:08 2024, MaxMem=  1342177280 cpu:               0.1 elap:               0.0
 (Enter /groups/ReismanLab/Software/Gaussian16_RevC/Linux_Binary_AVX2-enabled-CPU/g16/l302.exe)
 NPDir=0 NMtPBC=     1 NCelOv=     1 NCel=       1 NClECP=     1 NCelD=      1
         NCelK=      1 NCelE2=     1 NClLst=     1 CellRange=     0.0.
 One-electron integrals computed using PRISM.
 One-electron integral symmetry used in STVInt
   1 Symmetry operations used in ECPInt.
 ECPInt:  NShTT=    2145 NPrTT=   11679 LenC2=    2080 LenP2D=    7980.
 LDataN:  DoStor=T MaxTD1= 5 Len=  102
 NBasis=   183 RedAO= T EigKep=  3.12D-04  NBF=   183
 NBsUse=   183 1.00D-06 EigRej= -1.00D+00 NBFU=   183
 Precomputing XC quadrature grid using
 IXCGrd= 4 IRadAn=           5 IRanWt=          -1 IRanGd=           0 AccXCQ= 0.00D+00.
 Defaulting to unpruned grid for atomic number  53.
 Generated NRdTot=       0 NPtTot=           0 NUsed=           0 NTot=          32
 NSgBfM=   193   193   193   193   193 MxSgAt=    18 MxSgA2=    18.
 Leave Link  302 at Tue Sep 17 09:56:08 2024, MaxMem=  1342177280 cpu:               1.1 elap:               0.2
 (Enter /groups/ReismanLab/Software/Gaussian16_RevC/Linux_Binary_AVX2-enabled-CPU/g16/l303.exe)
 DipDrv:  MaxL=1.
 Leave Link  303 at Tue Sep 17 09:56:09 2024, MaxMem=  1342177280 cpu:               0.1 elap:               0.0
 (Enter /groups/ReismanLab/Software/Gaussian16_RevC/Linux_Binary_AVX2-enabled-CPU/g16/l401.exe)
 Initial guess from the checkpoint file:  "smiles_00097_conf_0.chk"
 B after Tr=    -0.000000    0.000000    0.000000
         Rot=    1.000000    0.000007   -0.000013    0.000259 Ang=   0.03 deg.
 Guess basis will be translated and rotated to current coordinates.
 JPrj=2 DoOrth=T DoCkMO=T.
 Generating alternative initial guess.
 ExpMin= 1.05D-01 ExpMax= 3.05D+03 ExpMxC= 4.57D+02 IAcc=3 IRadAn=         5 AccDes= 0.00D+00
 Harris functional with IExCor=  402 and IRadAn=       5 diagonalized for initial guess.
 HarFok:  IExCor=  402 AccDes= 0.00D+00 IRadAn=         5 IDoV= 1 UseB2=F ITyADJ=14
 ICtDFT=  3500011 ScaDFX=  1.000000  1.000000  1.000000  1.000000
 Defaulting to unpruned grid for atomic number  53.
 FoFCou: FMM=F IPFlag=           0 FMFlag=      100000 FMFlg1=           0
         NFxFlg=           0 DoJE=T BraDBF=F KetDBF=T FulRan=T
         wScrn=  0.000000 ICntrl=       500 IOpCl=  0 I1Cent=   200000004 NGrid=           0
         NMat0=    1 NMatS0=      1 NMatT0=    0 NMatD0=    1 NMtDS0=    0 NMtDT0=    0
 Petite list used in FoFCou.
 Harris En= -396.650976886932    
 Leave Link  401 at Tue Sep 17 09:56:09 2024, MaxMem=  1342177280 cpu:               4.2 elap:               0.6
 (Enter /groups/ReismanLab/Software/Gaussian16_RevC/Linux_Binary_AVX2-enabled-CPU/g16/l502.exe)
 Integral symmetry usage will be decided dynamically.
 Closed shell SCF:
 Using DIIS extrapolation, IDIIS=  1040.
 NGot=  1342177280 LenX=  1342098730 LenY=  1342061040
 Requested convergence on RMS density matrix=1.00D-08 within  32 cycles.
 Requested convergence on MAX density matrix=1.00D-06.
 Requested convergence on             energy=1.00D-06.
 No special actions if energy rises.
 Fock matrices will be formed incrementally for  20 cycles.
 Integral accuracy reduced to 1.0D-05 until final iterations.

 Cycle   1  Pass 0  IDiag  1:
 FoFJK:  IHMeth= 1 ICntrl=       0 DoSepK=F KAlg= 0 I1Cent=           0 FoldK=F
 IRaf= 920000000 NMat=       1 IRICut=       1 DoRegI=T DoRafI=F ISym2E= 0 IDoP0=0 IntGTp=1.
 FoFCou: FMM=F IPFlag=           0 FMFlag=      100000 FMFlg1=           0
         NFxFlg=           0 DoJE=F BraDBF=F KetDBF=F FulRan=T
         wScrn=  0.000000 ICntrl=         0 IOpCl=  0 I1Cent=           0 NGrid=           0
         NMat0=    1 NMatS0=      1 NMatT0=    0 NMatD0=    1 NMtDS0=    0 NMtDT0=    0
 Symmetry not used in FoFCou.
 Defaulting to unpruned grid for atomic number  53.
 Defaulting to unpruned grid for atomic number  53.
 Defaulting to unpruned grid for atomic number  53.
 Defaulting to unpruned grid for atomic number  53.
 Defaulting to unpruned grid for atomic number  53.
 Defaulting to unpruned grid for atomic number  53.
 Defaulting to unpruned grid for atomic number  53.
 Defaulting to unpruned grid for atomic number  53.
 E= -396.715287934103    
 DIIS: error= 1.55D-03 at cycle   1 NSaved=   1.
 NSaved= 1 IEnMin= 1 EnMin= -396.715287934103     IErMin= 1 ErrMin= 1.55D-03
 ErrMax= 1.55D-03  0.00D+00 EMaxC= 1.00D-01 BMatC= 4.79D-04 BMatP= 4.79D-04
 IDIUse=3 WtCom= 9.85D-01 WtEn= 1.55D-02
 Coeff-Com:  0.100D+01
 Coeff-En:   0.100D+01
 Coeff:      0.100D+01
 Gap=     0.805 Goal=   None    Shift=    0.000
 GapD=    0.805 DampG=2.000 DampE=1.000 DampFc=2.0000 IDamp=-1.
 RMSDP=4.53D-04 MaxDP=1.15D-02              OVMax= 6.94D-03

 Cycle   2  Pass 0  IDiag  1:
 RMSU=  4.39D-04    CP:  9.95D-01
[...]
   XY=   -49.6783   YY=   -60.7066   ZY=     0.0066
   XZ=     0.0053   YZ=     0.0050   ZZ=   135.0282
   Eigenvalues:   -85.3675    32.0011   135.0282
     12  H    Isotropic =    23.4565   Anisotropy =    12.7452
   XX=    26.5548   YX=     5.5978   ZX=    -0.0004
   XY=     5.4970   YY=    26.2530   ZY=    -0.0003
   XZ=    -0.0004   YZ=    -0.0003   ZZ=    17.5618
   Eigenvalues:    17.5618    20.8544    31.9533
     13  H    Isotropic =    23.0981   Anisotropy =     8.5556
   XX=    28.6934   YX=    -1.0005   ZX=    -0.0004
   XY=    -0.7107   YY=    22.0503   ZY=    -0.0001
   XZ=    -0.0004   YZ=     0.0001   ZZ=    18.5506
   Eigenvalues:    18.5506    21.9418    28.8018
     14  H    Isotropic =    23.0084   Anisotropy =     8.5400
   XX=    27.7430   YX=    -2.4110   ZX=    -0.0003
   XY=    -2.4194   YY=    22.6171   ZY=     0.0000
   XZ=    -0.0004   YZ=    -0.0000   ZZ=    18.6650
   Eigenvalues:    18.6650    21.6584    28.7017
     15  H    Isotropic =    23.4831   Anisotropy =     6.4301
   XX=    23.1977   YX=    -1.2784   ZX=    -0.0001
   XY=    -1.7197   YY=    27.2784   ZY=    -0.0001
   XZ=    -0.0002   YZ=    -0.0001   ZZ=    19.9733
   Eigenvalues:    19.9733    22.7062    27.7699
     16  H    Isotropic =    23.3755   Anisotropy =     6.7773
   XX=    26.2866   YX=     2.2170   ZX=    -0.0003
   XY=     2.6886   YY=    24.1500   ZY=    -0.0002
   XZ=    -0.0003   YZ=    -0.0003   ZZ=    19.6900
   Eigenvalues:    19.6900    22.5429    27.8937
     17  H    Isotropic =    23.0952   Anisotropy =     9.3541
   XX=    28.8177   YX=    -2.0226   ZX=    -0.0003
   XY=    -1.8795   YY=    21.9188   ZY=    -0.0000
   XZ=    -0.0003   YZ=    -0.0000   ZZ=    18.5492
   Eigenvalues:    18.5492    21.4052    29.3313
     18  H    Isotropic =    22.8711   Anisotropy =    14.6738
   XX=    30.1542   YX=    -5.4192   ZX=    -0.0003
   XY=    -4.8353   YY=    22.1356   ZY=     0.0000
   XZ=    -0.0004   YZ=    -0.0000   ZZ=    16.3235
   Eigenvalues:    16.3235    19.6362    32.6536
 End of Minotr F.D. properties file   721 does not exist.
 End of Minotr F.D. properties file   722 does not exist.
 End of Minotr F.D. properties file   788 does not exist.
 Leave Link 1002 at Tue Sep 17 10:51:11 2024, MaxMem=  1342177280 cpu:             644.5 elap:             645.9
 (Enter /groups/ReismanLab/Software/Gaussian16_RevC/Linux_Binary_AVX2-enabled-CPU/g16/l601.exe)
 Copying SCF densities to generalized density rwf, IOpCl= 0 IROHF=0.

 **********************************************************************

            Population analysis using the SCF Density.

 **********************************************************************

 Orbital symmetries:
       Occupied  (A) (A) (A) (A) (A) (A) (A) (A) (A) (A) (A) (A)
                 (A) (A) (A) (A) (A) (A) (A) (A) (A) (A) (A) (A)
                 (A) (A) (A) (A) (A) (A) (A) (A) (A) (A) (A) (A)
                 (A) (A) (A) (A) (A) (A) (A) (A) (A) (A)
       Virtual   (A) (A) (A) (A) (A) (A) (A) (A) (A) (A) (A) (A)
                 (A) (A) (A) (A) (A) (A) (A) (A) (A) (A) (A) (A)
                 (A) (A) (A) (A) (A) (A) (A) (A) (A) (A) (A) (A)
                 (A) (A) (A) (A) (A) (A) (A) (A) (A) (A) (A) (A)
                 (A) (A) (A) (A) (A) (A) (A) (A) (A) (A) (A) (A)
                 (A) (A) (A) (A) (A) (A) (A) (A) (A) (A) (A) (A)
                 (A) (A) (A) (A) (A) (A) (A) (A) (A) (A) (A) (A)
                 (A) (A) (A) (A) (A) (A) (A) (A) (A) (A) (A) (A)
                 (A) (A) (A) (A) (A) (A) (A) (A) (A) (A) (A) (A)
                 (A) (A) (A) (A) (A) (A) (A) (A) (A) (A) (A) (A)
                 (A) (A) (A) (A) (A) (A) (A) (A) (A) (A) (A) (A)
                 (A) (A) (A) (A) (A) (A) (A) (A) (A) (A) (A) (A)
                 (A) (A) (A) (A) (A) (A) (A) (A) (A) (A) (A) (A)
                 (A) (A) (A) (A) (A) (A) (A) (A) (A) (A) (A) (A)
                 (A) (A) (A) (A) (A) (A) (A) (A) (A) (A) (A) (A)
                 (A) (A) (A) (A) (A) (A) (A) (A) (A) (A) (A) (A)
                 (A) (A) (A) (A) (A) (A) (A) (A) (A) (A) (A) (A)
                 (A) (A) (A) (A) (A) (A) (A) (A) (A) (A) (A) (A)
                 (A) (A) (A) (A) (A) (A) (A) (A) (A) (A) (A) (A)
                 (A) (A) (A) (A) (A) (A) (A) (A) (A) (A) (A) (A)
                 (A) (A) (A) (A) (A) (A) (A) (A) (A) (A) (A) (A)
                 (A) (A) (A) (A) (A) (A) (A) (A) (A) (A) (A) (A)
                 (A) (A) (A) (A) (A) (A) (A) (A) (A) (A) (A) (A)
                 (A) (A) (A) (A) (A) (A) (A) (A) (A) (A) (A) (A)
                 (A) (A) (A) (A) (A) (A) (A) (A) (A) (A) (A) (A)
                 (A) (A) (A) (A) (A) (A) (A) (A) (A) (A) (A) (A)
                 (A) (A) (A) (A) (A) (A) (A) (A) (A) (A) (A) (A)
                 (A) (A) (A) (A) (A) (A) (A) (A) (A) (A) (A) (A)
                 (A) (A) (A) (A) (A) (A) (A) (A) (A) (A) (A) (A)
                 (A) (A) (A) (A) (A) (A) (A) (A)
 The electronic state is 1-A.
 Alpha  occ. eigenvalues --  -10.59874 -10.56301 -10.56058 -10.55808 -10.55743
 Alpha  occ. eigenvalues --  -10.55509 -10.55006 -10.54991 -10.54898 -10.54830
 Alpha  occ. eigenvalues --   -7.10342  -5.09678  -5.08648  -5.08644  -2.06509
 Alpha  occ. eigenvalues --   -2.06078  -2.06077  -2.05221  -2.05220  -0.99070
 Alpha  occ. eigenvalues --   -0.93545  -0.88221  -0.85169  -0.82537  -0.77648
 Alpha  occ. eigenvalues --   -0.71582  -0.68893  -0.68655  -0.59692  -0.58537
 Alpha  occ. eigenvalues --   -0.55864  -0.52425  -0.51336  -0.49087  -0.48724
 Alpha  occ. eigenvalues --   -0.47754  -0.45687  -0.42870  -0.41378  -0.39853
 Alpha  occ. eigenvalues --   -0.38423  -0.35959  -0.33462  -0.32146  -0.29494
 Alpha  occ. eigenvalues --   -0.27271
 Alpha virt. eigenvalues --   -0.02573  -0.00354   0.00141   0.04254   0.09000
 Alpha virt. eigenvalues --    0.09634   0.10227   0.11921   0.12567   0.12901
 Alpha virt. eigenvalues --    0.14567   0.15034   0.15554   0.17842   0.18403
 Alpha virt. eigenvalues --    0.18413   0.19076   0.20316   0.20956   0.21730
 Alpha virt. eigenvalues --    0.22153   0.22879   0.24428   0.24539   0.25078
 Alpha virt. eigenvalues --    0.25666   0.26799   0.27950   0.28110   0.29660
 Alpha virt. eigenvalues --    0.30235   0.31093   0.31916   0.31970   0.32671
 Alpha virt. eigenvalues --    0.33740   0.34354   0.34616   0.37487   0.37732
 Alpha virt. eigenvalues --    0.37978   0.38977   0.39283   0.39579   0.41786
 Alpha virt. eigenvalues --    0.42870   0.43112   0.43273   0.44684   0.45380
 Alpha virt. eigenvalues --    0.45472   0.46437   0.47211   0.49332   0.50354
 Alpha virt. eigenvalues --    0.50794   0.51610   0.53365   0.53424   0.54134
 Alpha virt. eigenvalues --    0.54825   0.55643   0.56405   0.59142   0.59758
 Alpha virt. eigenvalues --    0.60569   0.64576   0.65931   0.66224   0.68100
 Alpha virt. eigenvalues --    0.69520   0.69957   0.72034   0.73226   0.73802
 Alpha virt. eigenvalues --    0.74516   0.75438   0.76105   0.77148   0.77667
 Alpha virt. eigenvalues --    0.77849   0.79547   0.80464   0.82398   0.84097
 Alpha virt. eigenvalues --    0.85067   0.85380   0.87407   0.87874   0.89843
 Alpha virt. eigenvalues --    0.90267   0.91056   0.92513   0.93941   0.93954
 Alpha virt. eigenvalues --    0.94498   0.96124   0.96958   0.97842   0.98099
 Alpha virt. eigenvalues --    1.00138   1.02090   1.02479   1.05240   1.05293
 Alpha virt. eigenvalues --    1.07541   1.11449   1.13582   1.15207   1.17537
 Alpha virt. eigenvalues --    1.18602   1.19871   1.20764   1.21998   1.23129
 Alpha virt. eigenvalues --    1.24643   1.25279   1.25422   1.26110   1.27866
 Alpha virt. eigenvalues --    1.28196   1.30037   1.30741   1.32199   1.33007
 Alpha virt. eigenvalues --    1.35037   1.37700   1.38087   1.40041   1.42524
 Alpha virt. eigenvalues --    1.43628   1.44344   1.44780   1.45301   1.46987
 Alpha virt. eigenvalues --    1.47278   1.50554   1.52459   1.52577   1.54350
 Alpha virt. eigenvalues --    1.54613   1.55504   1.55614   1.56699   1.57759
 Alpha virt. eigenvalues --    1.58553   1.61214   1.62201   1.64655   1.65694
 Alpha virt. eigenvalues --    1.67777   1.69116   1.70763   1.71889   1.73413
 Alpha virt. eigenvalues --    1.73778   1.74104   1.74161   1.74723   1.81395
 Alpha virt. eigenvalues --    1.83791   1.86729   1.87336   1.89664   1.91693
 Alpha virt. eigenvalues --    1.93604   1.97464   1.99624   2.00938   2.01760
 Alpha virt. eigenvalues --    2.04471   2.06301   2.06394   2.11015   2.13523
 Alpha virt. eigenvalues --    2.15714   2.17315   2.18334   2.20097   2.21982
 Alpha virt. eigenvalues --    2.25459   2.25727   2.26706   2.28104   2.30823
 Alpha virt. eigenvalues --    2.33540   2.34977   2.36805   2.40980   2.45930
 Alpha virt. eigenvalues --    2.47316   2.47769   2.51557   2.54254   2.57098
 Alpha virt. eigenvalues --    2.58060   2.58073   2.59978   2.62402   2.63263
 Alpha virt. eigenvalues --    2.64262   2.64600   2.64837   2.66245   2.70052
 Alpha virt. eigenvalues --    2.70943   2.73140   2.74145   2.74691   2.75481
 Alpha virt. eigenvalues --    2.75685   2.78222   2.78363   2.78873   2.80473
 Alpha virt. eigenvalues --    2.81159   2.83577   2.85063   2.86051   2.87785
 Alpha virt. eigenvalues --    2.88520   2.90629   2.91088   2.91692   2.93805
 Alpha virt. eigenvalues --    2.94791   2.95900   2.98043   2.98875   2.99957
 Alpha virt. eigenvalues --    3.00108   3.01367   3.03271   3.06997   3.09395
 Alpha virt. eigenvalues --    3.11022   3.11696   3.12498   3.14170   3.15704
 Alpha virt. eigenvalues --    3.15890   3.16092   3.17160   3.18492   3.18840
 Alpha virt. eigenvalues --    3.20414   3.20593   3.21149   3.21905   3.23134
 Alpha virt. eigenvalues --    3.23994   3.25039   3.25203   3.25543   3.30232
 Alpha virt. eigenvalues --    3.30599   3.31531   3.31939   3.33519   3.34085
 Alpha virt. eigenvalues --    3.35718   3.36979   3.38956   3.40154   3.42727
 Alpha virt. eigenvalues --    3.43288   3.43671   3.45572   3.46733   3.47029
 Alpha virt. eigenvalues --    3.47451   3.48395   3.51119   3.51251   3.54145
 Alpha virt. eigenvalues --    3.54912   3.55679   3.58921   3.59761   3.61411
 Alpha virt. eigenvalues --    3.64992   3.66159   3.67301   3.72341   3.73689
 Alpha virt. eigenvalues --    3.79418   3.80155   3.80199   3.81617   3.85915
 Alpha virt. eigenvalues --    3.87620   3.92691   3.92785   3.95887   4.00216
 Alpha virt. eigenvalues --    4.02920   4.03813   4.07947   4.09134   4.10732
 Alpha virt. eigenvalues --    4.10964   4.11955   4.12722   4.16656   4.17513
 Alpha virt. eigenvalues --    4.18983   4.21711   4.22258   4.22525   4.27245
 Alpha virt. eigenvalues --    4.28171   4.32523   4.37536   4.39618   4.41257
 Alpha virt. eigenvalues --    4.47844   4.47962   4.50389   4.57362   4.60811
 Alpha virt. eigenvalues --    4.67380   4.68942   4.68962   4.69833   4.70603
 Alpha virt. eigenvalues --    4.73715   4.82475   4.86602   4.91839   4.99396
 Alpha virt. eigenvalues --    5.02699   5.04561   5.12008   5.12369   5.24153
 Alpha virt. eigenvalues --    5.26100   5.29752   5.49539   5.53332   5.57251
 Alpha virt. eigenvalues --    5.81006  21.94805  22.62222  22.70714  22.71846
 Alpha virt. eigenvalues --   22.76736  22.79636  22.90289  23.00003  23.09379
 Alpha virt. eigenvalues --   23.62755  34.48287  34.56999  34.81949  42.87353
 Alpha virt. eigenvalues --  117.58779
          Condensed to atoms (all electrons):
               1          2          3          4          5          6
     1  I   24.940447   0.325391  -0.086965   0.021154   0.000167   0.000019
     2  C    0.325391   4.892104   0.377578   0.008509  -0.026892  -0.002342
     3  C   -0.086965   0.377578   5.178918   0.438102  -0.042966   0.007130
     4  C    0.021154   0.008509   0.438102   5.124558   0.468585  -0.111568
     5  C    0.000167  -0.026892  -0.042966   0.468585   4.837701   0.481626
     6  C    0.000019  -0.002342   0.007130  -0.111568   0.481626   5.060971
     7  C   -0.000007   0.000557  -0.001321   0.007464  -0.065646   0.552749
     8  C    0.000034  -0.000741   0.000165  -0.001639  -0.031073  -0.043224
     9  C   -0.001651   0.002638   0.001681   0.016866  -0.050904  -0.072130
    10  C    0.022531  -0.007951  -0.058237  -0.031093   0.440917  -0.056634
    11  C   -0.090065   0.413937  -0.008153  -0.113054  -0.068780   0.023367
    12  H   -0.011651  -0.047998   0.416474  -0.031024   0.003943  -0.000189
    13  H   -0.000441  -0.000108  -0.020958   0.391601  -0.027144  -0.004488
    14  H   -0.000005  -0.000126   0.000507  -0.004417  -0.032322   0.399902
    15  H    0.000000  -0.000001   0.000020  -0.000329   0.004601  -0.033256
    16  H   -0.000001   0.000014   0.000001   0.000060   0.000441   0.004193
    17  H    0.000054   0.000711   0.000140  -0.000347   0.010728  -0.000085
    18  H   -0.013120  -0.028961   0.009927  -0.002123   0.009005  -0.000277
               7          8          9         10         11         12
     1  I   -0.000007   0.000034  -0.001651   0.022531  -0.090065  -0.011651
     2  C    0.000557  -0.000741   0.002638  -0.007951   0.413937  -0.047998
     3  C   -0.001321   0.000165   0.001681  -0.058237  -0.008153   0.416474
     4  C    0.007464  -0.001639   0.016866  -0.031093  -0.113054  -0.031024
     5  C   -0.065646  -0.031073  -0.050904   0.440917  -0.068780   0.003943
     6  C    0.552749  -0.043224  -0.072130  -0.056634   0.023367  -0.000189
     7  C    4.912934   0.469532  -0.043686  -0.029637  -0.001919   0.000012
     8  C    0.469532   4.910810   0.550458  -0.062192   0.006849   0.000001
     9  C   -0.043686   0.550458   5.073084   0.461191  -0.100934   0.000108
    10  C   -0.029637  -0.062192   0.461191   4.902317   0.326936  -0.001678
    11  C   -0.001919   0.006849  -0.100934   0.326936   5.473455   0.013842
    12  H    0.000012   0.000001   0.000108  -0.001678   0.013842   0.475929
    13  H    0.000063   0.000014  -0.000167   0.010599   0.000489  -0.002132
    14  H   -0.026725   0.002776   0.000053   0.010668  -0.000139  -0.000002
    15  H    0.414356  -0.034579   0.004219   0.000353   0.000055  -0.000000
    16  H   -0.034616   0.414176  -0.033161   0.004455  -0.000411   0.000000
    17  H    0.002897  -0.027684   0.402188  -0.032711  -0.005513  -0.000003
    18  H    0.000059  -0.000087   0.000539  -0.020058   0.383273   0.000040
              13         14         15         16         17         18
     1  I   -0.000441  -0.000005   0.000000  -0.000001   0.000054  -0.013120
     2  C   -0.000108  -0.000126  -0.000001   0.000014   0.000711  -0.028961
     3  C   -0.020958   0.000507   0.000020   0.000001   0.000140   0.009927
     4  C    0.391601  -0.004417  -0.000329   0.000060  -0.000347  -0.002123
     5  C   -0.027144  -0.032322   0.004601   0.000441   0.010728   0.009005
     6  C   -0.004488   0.399902  -0.033256   0.004193  -0.000085  -0.000277
     7  C    0.000063  -0.026725   0.414356  -0.034616   0.002897   0.000059
     8  C    0.000014   0.002776  -0.034579   0.414176  -0.027684  -0.000087
     9  C   -0.000167   0.000053   0.004219  -0.033161   0.402188   0.000539
    10  C    0.010599   0.010668   0.000353   0.004455  -0.032711  -0.020058
    11  C    0.000489  -0.000139   0.000055  -0.000411  -0.005513   0.383273
    12  H   -0.002132  -0.000002  -0.000000   0.000000  -0.000003   0.000040
    13  H    0.484639   0.005143  -0.000015  -0.000002   0.000012   0.000063
    14  H    0.005143   0.490085  -0.003740  -0.000244   0.000061   0.000014
    15  H   -0.000015  -0.003740   0.487944  -0.003039  -0.000238  -0.000002
    16  H   -0.000002  -0.000244  -0.003039   0.487999  -0.003722  -0.000010
    17  H    0.000012   0.000061  -0.000238  -0.003722   0.489404   0.005488
    18  H    0.000063   0.000014  -0.000002  -0.000010   0.005488   0.470672
 Mulliken charges:
               1
     1  I   -0.105893
     2  C    0.093681
     3  C   -0.212042
     4  C   -0.181304
     5  C    0.088015
     6  C   -0.205762
     7  C   -0.157066
     8  C   -0.153595
     9  C   -0.210394
    10  C    0.120223
    11  C   -0.253234
    12  H    0.184327
    13  H    0.162833
    14  H    0.158511
    15  H    0.163651
    16  H    0.163867
    17  H    0.158622
    18  H    0.185560
 Sum of Mulliken charges =  -0.00000
 Mulliken charges with hydrogens summed into heavy atoms:
               1
     1  I   -0.105893
     2  C    0.093681
     3  C   -0.027715
     4  C   -0.018472
     5  C    0.088015
     6  C   -0.047250
     7  C    0.006585
     8  C    0.010272
     9  C   -0.051772
    10  C    0.120223
    11  C   -0.067675
 Electronic spatial extent (au):  <R**2>=           2933.3053
 Charge=              0.0000 electrons
 Dipole moment (field-independent basis, Debye):
    X=              2.3293    Y=              0.2875    Z=             -0.0001  Tot=              2.3469
 Quadrupole moment (field-independent basis, Debye-Ang):
   XX=            -75.5803   YY=            -75.1025   ZZ=            -90.9068
   XY=             -0.0307   XZ=             -0.0006   YZ=             -0.0004
 Traceless Quadrupole moment (field-independent basis, Debye-Ang):
   XX=              4.9496   YY=              5.4273   ZZ=            -10.3769
   XY=             -0.0307   XZ=             -0.0006   YZ=             -0.0004
 Octapole moment (field-independent basis, Debye-Ang**2):
  XXX=            -87.9130  YYY=             -3.7595  ZZZ=              0.0056  XYY=            -28.2531
  XXY=             -5.6972  XXZ=             -0.0018  XZZ=            -58.1553  YZZ=             -3.5753
  YYZ=              0.0010  XYZ=             -0.0008
 Hexadecapole moment (field-independent basis, Debye-Ang**3):
 XXXX=          -3219.4650 YYYY=           -570.4212 ZZZZ=           -114.8038 XXXY=             19.9960
 XXXZ=              0.0352 YYYX=             18.4707 YYYZ=              0.0023 ZZZX=              0.0646
 ZZZY=              0.0052 XXYY=           -653.6975 XXZZ=           -686.9720 YYZZ=           -140.1037
 XXYZ=             -0.0015 YYXZ=              0.0172 ZZXY=             10.0900
 N-N= 6.549955223862D+02 E-N=-2.834022686553D+03  KE= 4.965781196133D+02
 Calculating spin-rotation constants.
 Leave Link  601 at Tue Sep 17 10:51:14 2024, MaxMem=  1342177280 cpu:               3.1 elap:               3.1
 (Enter /groups/ReismanLab/Software/Gaussian16_RevC/Linux_Binary_AVX2-enabled-CPU/g16/l9999.exe)
 Unable to Open any file for archive entry.
 1\1\GINC-HPC-53-15\SP\RM062X\def2TZVP\C10H7I1\MANTIND\17-Sep-2024\0\\#
 p M062X/def2tzvp geom=check guess=read scf(xqc,tight) integral(grid=ul
 trafine) scrf(SMD, solvent=1,4-Dioxane) nmr=giao\\spe\\0,1\I,0,2.34547
 14296,0.1339838251,0.0001642815\C,0,0.2389277972,-0.2504730068,0.00010
 57287\C,0,-0.2039847535,-1.5942078465,0.0000696832\C,0,-1.5546156652,-
 1.8563633889,0.0000117437\C,0,-2.509508542,-0.8061835542,-0.0000097895
 \C,0,-3.9074757138,-1.0516891022,-0.0000776626\C,0,-4.8043094847,-0.00
 77782135,-0.0000883888\C,0,-4.3426332083,1.3313670936,-0.0000295624\C,
 0,-2.9936035433,1.6029122124,0.00003367\C,0,-2.0434068103,0.5474533837
 ,0.000042633\C,0,-0.6451477279,0.8004236436,0.0000960819\H,0,0.5156117
 665,-2.4044130967,0.0000812732\H,0,-1.9050467179,-2.884816794,-0.00001
 32531\H,0,-4.2570962876,-2.0804069915,-0.0001237662\H,0,-5.8716168218,
 -0.2065653313,-0.0001450012\H,0,-5.0607900153,2.1456382181,-0.00003479
 11\H,0,-2.6359368744,2.628735422,0.0000740094\H,0,-0.2959361168,1.8272
 393007,0.0001374942\\Version=ES64L-G16RevC.02\State=1-A\HF=-682.896044
 1\RMSD=3.056e-09\Dipole=-0.9171708,-0.10671,-0.0000325\Quadrupole=3.67
 95932,4.0353758,-7.714969,-0.0203373,0.0004413,0.0002624\PG=C01 [X(C10
 H7I1)]\\@
 The archive entry for this job was punched.


 THE CAUTIOUS SELDOM ERR...CONFUCIUS                   
 Job cpu time:       0 days  0 hours 11 minutes 52.0 seconds.
 Elapsed time:       0 days  0 hours 11 minutes 54.5 seconds.
 File lengths (MBytes):  RWF=    264 Int=      0 D2E=      0 Chk=     24 Scr=     16
 Normal termination of Gaussian 16 at Tue Sep 17 10:51:14 2024.
