 Entering Gaussian System, Link 0=g16
 Input=smiles_00042_conf_0.gjf
 Output=smiles_00042_conf_0.log
 Initial command:
 /groups/ReismanLab/Software/Gaussian16_RevC/Linux_Binary_AVX2-enabled-CPU/g16/l1.exe "/central/groups/ReismanLab/DM/dft_final/smiles_00042/Gau-1344264.inp" -scrdir="/central/groups/ReismanLab/DM/dft_final/smiles_00042/"
 Entering Link 1 = /groups/ReismanLab/Software/Gaussian16_RevC/Linux_Binary_AVX2-enabled-CPU/g16/l1.exe PID=   1344269.
  
 Copyright (c) 1988-2021, Gaussian, Inc.  All Rights Reserved.
  
 This is part of the Gaussian(R) 16 program.  It is based on
 the Gaussian(R) 09 system (copyright 2009, Gaussian, Inc.),
 the Gaussian(R) 03 system (copyright 2003, Gaussian, Inc.),
 the Gaussian(R) 98 system (copyright 1998, Gaussian, Inc.),
 the Gaussian(R) 94 system (copyright 1995, Gaussian, Inc.),
 the Gaussian 92(TM) system (copyright 1992, Gaussian, Inc.),
 the Gaussian 90(TM) system (copyright 1990, Gaussian, Inc.),
 the Gaussian 88(TM) system (copyright 1988, Gaussian, Inc.),
 the Gaussian 86(TM) system (copyright 1986, Carnegie Mellon
 University), and the Gaussian 82(TM) system (copyright 1983,
 Carnegie Mellon University). Gaussian is a federally registered
 trademark of Gaussian, Inc.
  
 This software contains proprietary and confidential information,
 including trade secrets, belonging to Gaussian, Inc.
  
 This software is provided under written license and may be
 used, copied, transmitted, or stored only in accord with that
 written license.
  
 The following legend is applicable only to US Government
 contracts under FAR:
  
                    RESTRICTED RIGHTS LEGEND
  
 Use, reproduction and disclosure by the US Government is
 subject to restrictions as set forth in subparagraphs (a)
 and (c) of the Commercial Computer Software - Restricted
 Rights clause in FAR 52.227-19.
  
 Gaussian, Inc.
 340 Quinnipiac St., Bldg. 40, Wallingford CT 06492
  
  
 ---------------------------------------------------------------
 Warning -- This program may not be used in any manner that
 competes with the business of Gaussian, Inc. or will provide
 assistance to any competitor of Gaussian, Inc.  The licensee
 of this program is prohibited from giving any competitor of
 Gaussian, Inc. access to this program.  By using this program,
 the user acknowledges that Gaussian, Inc. is engaged in the
 business of creating and licensing software in the field of
 computational chemistry and represents and warrants to the
 licensee that it is not a competitor of Gaussian, Inc. and that
 it will not use this program in any manner prohibited above.
 ---------------------------------------------------------------
  

 Cite this work as:
 Gaussian 16, Revision C.02,
 M. J. Frisch, G. W. Trucks, H. B. Schlegel, G. E. Scuseria, 
 M. A. Robb, J. R. Cheeseman, G. Scalmani, V. Barone, 
 G. A. Petersson, H. Nakatsuji, X. Li, M. Caricato, A. V. Marenich, 
 J. Bloino, B. G. Janesko, R. Gomperts, B. Mennucci, H. P. Hratchian, 
 J. V. Ortiz, A. F. Izmaylov, J. L. Sonnenberg, D. Williams-Young, 
 F. Ding, F. Lipparini, F. Egidi, J. Goings, B. Peng, A. Petrone, 
 T. Henderson, D. Ranasinghe, V. G. Zakrzewski, J. Gao, N. Rega, 
 G. Zheng, W. Liang, M. Hada, M. Ehara, K. Toyota, R. Fukuda, 
 J. Hasegawa, M. Ishida, T. Nakajima, Y. Honda, O. Kitao, H. Nakai, 
 T. Vreven, K. Throssell, J. A. Montgomery, Jr., J. E. Peralta, 
 F. Ogliaro, M. J. Bearpark, J. J. Heyd, E. N. Brothers, K. N. Kudin, 
 V. N. Staroverov, T. A. Keith, R. Kobayashi, J. Normand, 
 K. Raghavachari, A. P. Rendell, J. C. Burant, S. S. Iyengar, 
 J. Tomasi, M. Cossi, J. M. Millam, M. Klene, C. Adamo, R. Cammi, 
 J. W. Ochterski, R. L. Martin, K. Morokuma, O. Farkas, 
 J. B. Foresman, and D. J. Fox, Gaussian, Inc., Wallingford CT, 2019.
 
 ******************************************
 Gaussian 16:  ES64L-G16RevC.02  7-Dec-2021
                17-Sep-2024 
 ******************************************
 %nprocshared=8
 Will use up to    8 processors via shared memory.
 %Mem=10GB
 %Chk=smiles_00042_conf_0.chk
 ----------------------------------------------------------------------
 #p B3LYP/6-31G(d,p) EmpiricalDispersion=GD3BJ opt freq scf(xqc,tight) 
 integral(grid=ultrafine)
 ----------------------------------------------------------------------
 1/18=20,19=15,26=4,38=1/1,3;
 2/9=110,12=2,17=6,18=5,40=1/2;
 3/5=1,6=6,7=101,11=2,25=1,30=1,71=1,74=-5,75=-5,124=41/1,2,3;
 4//1;
 5/5=2,8=3,13=1,32=2,38=5/2,8;
 6/7=2,8=2,9=2,10=2,28=1/1;
 7//1,2,3,16;
 1/18=20,19=15,26=4/3(2);
 2/9=110/2;
 99//99;
 2/9=110/2;
 3/5=1,6=6,7=101,11=2,25=1,30=1,71=1,74=-5,75=-5,124=41/1,2,3;
 4/5=5,16=3,69=1/1;
 5/5=2,8=3,13=1,32=2,38=5/2,8;
 7//1,2,3,16;
 1/18=20,19=15,26=4/3(-5);
 2/9=110/2;
 6/7=2,8=2,9=2,10=2,19=2,28=1/1;
 99/9=1/99;
 Leave Link    1 at Tue Sep 17 09:43:05 2024, MaxMem=  1342177280 cpu:               0.0 elap:               2.3
 (Enter /groups/ReismanLab/Software/Gaussian16_RevC/Linux_Binary_AVX2-enabled-CPU/g16/l101.exe)
 ----------------------------------
 opt-freq conformers_unique/conf_aa
 ----------------------------------
 Symbolic Z-matrix:
 Charge =  0 Multiplicity = 1
 Br                    1.57879  0.        -0.00003 
 C                    -0.30169  -0.00001   0.00016 
 N                    -0.88404  -1.17926   0.00014 
 C                    -2.20664  -1.17921  -0.00003 
 C                    -2.94023  -0.00003  -0.00011 
 C                    -2.2066    1.17926   0.00001 
 N                    -0.88405   1.17925   0.00009 
 H                    -2.67463  -2.15463  -0.00042 
 H                    -4.01688   0.00001  -0.00039 
 H                    -2.67459   2.15465  -0.00024 
 
 ITRead=  0  0  0  0  0  0  0  0  0  0
 MicOpt= -1 -1 -1 -1 -1 -1 -1 -1 -1 -1
 NAtoms=     10 NQM=       10 NQMF=       0 NMMI=      0 NMMIF=      0
                NMic=       0 NMicF=      0.
                    Isotopes and Nuclear Properties:
 (Nuclear quadrupole moments (NQMom) in fm**2, nuclear magnetic moments (NMagM)
  in nuclear magnetons)

  Atom         1           2           3           4           5           6           7           8           9          10
 IAtWgt=          79          12          14          12          12          12          14           1           1           1
 AtmWgt=  78.9183361  12.0000000  14.0030740  12.0000000  12.0000000  12.0000000  14.0030740   1.0078250   1.0078250   1.0078250
 NucSpn=           3           0           2           0           0           0           2           1           1           1
 AtZEff=  -0.0000000  -0.0000000  -0.0000000  -0.0000000  -0.0000000  -0.0000000  -0.0000000  -0.0000000  -0.0000000  -0.0000000
 NQMom=   31.3000000   0.0000000   2.0440000   0.0000000   0.0000000   0.0000000   2.0440000   0.0000000   0.0000000   0.0000000
 NMagM=    2.1063990   0.0000000   0.4037610   0.0000000   0.0000000   0.0000000   0.4037610   2.7928460   2.7928460   2.7928460
 AtZNuc=  35.0000000   6.0000000   7.0000000   6.0000000   6.0000000   6.0000000   7.0000000   1.0000000   1.0000000   1.0000000
 Leave Link  101 at Tue Sep 17 09:43:05 2024, MaxMem=  1342177280 cpu:               0.1 elap:               0.4
 (Enter /groups/ReismanLab/Software/Gaussian16_RevC/Linux_Binary_AVX2-enabled-CPU/g16/l103.exe)

 GradGradGradGradGradGradGradGradGradGradGradGradGradGradGradGradGradGrad
 Berny optimization.
 Initialization pass.
                           ----------------------------
                           !    Initial Parameters    !
                           ! (Angstroms and Degrees)  !
 --------------------------                            --------------------------
 ! Name  Definition              Value          Derivative Info.                !
 --------------------------------------------------------------------------------
 ! R1    R(1,2)                  1.8805         estimate D2E/DX2                !
 ! R2    R(2,3)                  1.3152         estimate D2E/DX2                !
 ! R3    R(2,7)                  1.3152         estimate D2E/DX2                !
 ! R4    R(3,4)                  1.3226         estimate D2E/DX2                !
 ! R5    R(4,5)                  1.3888         estimate D2E/DX2                !
 ! R6    R(4,8)                  1.0819         estimate D2E/DX2                !
 ! R7    R(5,6)                  1.3889         estimate D2E/DX2                !
 ! R8    R(5,9)                  1.0766         estimate D2E/DX2                !
 ! R9    R(6,7)                  1.3226         estimate D2E/DX2                !
 ! R10   R(6,10)                 1.0819         estimate D2E/DX2                !
 ! A1    A(1,2,3)              116.2819         estimate D2E/DX2                !
 ! A2    A(1,2,7)              116.2814         estimate D2E/DX2                !
 ! A3    A(3,2,7)              127.4366         estimate D2E/DX2                !
 ! A4    A(2,3,4)              116.2794         estimate D2E/DX2                !
 ! A5    A(3,4,5)              121.8888         estimate D2E/DX2                !
 ! A6    A(3,4,8)              115.6286         estimate D2E/DX2                !
 ! A7    A(5,4,8)              122.4826         estimate D2E/DX2                !
 ! A8    A(4,5,6)              116.2277         estimate D2E/DX2                !
 ! A9    A(4,5,9)              121.8885         estimate D2E/DX2                !
 ! A10   A(6,5,9)              121.8838         estimate D2E/DX2                !
 ! A11   A(5,6,7)              121.8851         estimate D2E/DX2                !
 ! A12   A(5,6,10)             122.4829         estimate D2E/DX2                !
 ! A13   A(7,6,10)             115.6319         estimate D2E/DX2                !
 ! A14   A(2,7,6)              116.2823         estimate D2E/DX2                !
 ! D1    D(1,2,3,4)           -179.9854         estimate D2E/DX2                !
 ! D2    D(7,2,3,4)              0.0039         estimate D2E/DX2                !
 ! D3    D(1,2,7,6)            179.9902         estimate D2E/DX2                !
 ! D4    D(3,2,7,6)              0.001          estimate D2E/DX2                !
 ! D5    D(2,3,4,5)             -0.0037         estimate D2E/DX2                !
 ! D6    D(2,3,4,8)            179.9771         estimate D2E/DX2                !
 ! D7    D(3,4,5,6)             -0.0008         estimate D2E/DX2                !
 ! D8    D(3,4,5,9)            179.9913         estimate D2E/DX2                !
 ! D9    D(8,4,5,6)           -179.9803         estimate D2E/DX2                !
 ! D10   D(8,4,5,9)              0.0117         estimate D2E/DX2                !
 ! D11   D(4,5,6,7)              0.0059         estimate D2E/DX2                !
 ! D12   D(4,5,6,10)           179.9871         estimate D2E/DX2                !
 ! D13   D(9,5,6,7)           -179.9862         estimate D2E/DX2                !
 ! D14   D(9,5,6,10)            -0.005          estimate D2E/DX2                !
 ! D15   D(5,6,7,2)             -0.006          estimate D2E/DX2                !
 ! D16   D(10,6,7,2)          -179.9883         estimate D2E/DX2                !
 --------------------------------------------------------------------------------
 Trust Radius=3.00D-01 FncErr=1.00D-07 GrdErr=1.00D-06 EigMax=2.50D+02 EigMin=1.00D-04
 Number of steps in this run=     50 maximum allowed number of steps=    100.
 GradGradGradGradGradGradGradGradGradGradGradGradGradGradGradGradGradGrad

 Leave Link  103 at Tue Sep 17 09:43:05 2024, MaxMem=  1342177280 cpu:               0.0 elap:               0.0
 (Enter /groups/ReismanLab/Software/Gaussian16_RevC/Linux_Binary_AVX2-enabled-CPU/g16/l202.exe)
                          Input orientation:                          
 ---------------------------------------------------------------------
 Center     Atomic      Atomic             Coordinates (Angstroms)
 Number     Number       Type             X           Y           Z
 ---------------------------------------------------------------------
      1         35           0        1.578787   -0.000001   -0.000032
      2          6           0       -0.301690   -0.000009    0.000155
      3          7           0       -0.884043   -1.179261    0.000145
      4          6           0       -2.206641   -1.179209   -0.000026
      5          6           0       -2.940235   -0.000026   -0.000109
      6          6           0       -2.206600    1.179263    0.000015
      7          7           0       -0.884048    1.179250    0.000086
      8          1           0       -2.674628   -2.154626   -0.000422
      9          1           0       -4.016875    0.000010   -0.000387
     10          1           0       -2.674585    2.154655   -0.000240
 ---------------------------------------------------------------------
                    Distance matrix (angstroms):
                    1          2          3          4          5
     1  Br   0.000000
     2  C    1.880478   0.000000
     3  N    2.730602   1.315207   0.000000
     4  C    3.964846   2.240391   1.322598   0.000000
     5  C    4.519022   2.638544   2.370341   1.388752   0.000000
     6  C    3.964823   2.240394   2.704033   2.358472   1.388864
     7  N    2.730602   1.315216   2.358511   2.703994   2.370357
     8  H    4.768013   3.205184   2.039002   1.081873   2.170910
     9  H    5.595663   3.715185   3.347434   2.160441   1.076641
    10  H    4.767989   3.205185   3.784315   3.366544   2.170995
                    6          7          8          9         10
     6  C    0.000000
     7  N    1.322552   0.000000
     8  H    3.366581   3.784297   0.000000
     9  H    2.160494   3.347419   2.538520   0.000000
    10  H    1.081850   2.038980   4.309281   2.538550   0.000000
 Stoichiometry    C4H3BrN2
 Framework group  C1[X(C4H3BrN2)]
 Deg. of freedom    24
 Full point group                 C1      NOp   1
 Largest Abelian subgroup         C1      NOp   1
 Largest concise Abelian subgroup C1      NOp   1
                         Standard orientation:                         
 ---------------------------------------------------------------------
 Center     Atomic      Atomic             Coordinates (Angstroms)
 Number     Number       Type             X           Y           Z
 ---------------------------------------------------------------------
      1         35           0       -1.742158   -0.000002    0.000028
      2          6           0        0.138320   -0.000010   -0.000160
      3          7           0        0.720673   -1.179262   -0.000149
      4          6           0        2.043271   -1.179210    0.000021
      5          6           0        2.776864   -0.000026    0.000104
      6          6           0        2.043229    1.179263   -0.000020
      7          7           0        0.720677    1.179249   -0.000091
      8          1           0        2.511257   -2.154627    0.000417
      9          1           0        3.853505    0.000010    0.000383
     10          1           0        2.511215    2.154654    0.000236
 ---------------------------------------------------------------------
 Rotational constants (GHZ):           6.1874157           1.0730911           0.9144900
 Leave Link  202 at Tue Sep 17 09:43:05 2024, MaxMem=  1342177280 cpu:               0.0 elap:               0.0
 (Enter /groups/ReismanLab/Software/Gaussian16_RevC/Linux_Binary_AVX2-enabled-CPU/g16/l301.exe)
 Standard basis: 6-31G(d,p) (6D, 7F)
 Ernie: Thresh=  0.10000D-02 Tol=  0.10000D-05 Strict=F.
 There are   135 symmetry adapted cartesian basis functions of A   symmetry.
 There are   135 symmetry adapted basis functions of A   symmetry.
   135 basis functions,   272 primitive gaussians,   135 cartesian basis functions
    38 alpha electrons       38 beta electrons
       nuclear repulsion energy       446.8606802221 Hartrees.
 IExCor=  402 DFT=T Ex+Corr=B3LYP ExCW=0 ScaHFX=  0.200000
 ScaDFX=  0.800000  0.720000  1.000000  0.810000 ScalE2=  1.000000  1.000000
 IRadAn=      5 IRanWt=     -1 IRanGd=            0 ICorTp=0 IEmpDi=141
 NAtoms=   10 NActive=   10 NUniq=   10 SFac= 1.00D+00 NAtFMM=   60 NAOKFM=F Big=F
 Integral buffers will be    131072 words long.
 Raffenetti 2 integral format.
 Two-electron integral symmetry is turned on.
 R6Disp:  Grimme-D3(BJ) Dispersion energy=       -0.0194218814 Hartrees.
 Nuclear repulsion after empirical dispersion term =      446.8412583407 Hartrees.
 Leave Link  301 at Tue Sep 17 09:43:05 2024, MaxMem=  1342177280 cpu:               0.1 elap:               0.0
 (Enter /groups/ReismanLab/Software/Gaussian16_RevC/Linux_Binary_AVX2-enabled-CPU/g16/l302.exe)
 NPDir=0 NMtPBC=     1 NCelOv=     1 NCel=       1 NClECP=     1 NCelD=      1
         NCelK=      1 NCelE2=     1 NClLst=     1 CellRange=     0.0.
 One-electron integrals computed using PRISM.
 One-electron integral symmetry used in STVInt
 NBasis=   135 RedAO= T EigKep=  7.54D-04  NBF=   135
 NBsUse=   135 1.00D-06 EigRej= -1.00D+00 NBFU=   135
 Precomputing XC quadrature grid using
 IXCGrd= 4 IRadAn=           5 IRanWt=          -1 IRanGd=           0 AccXCQ= 0.00D+00.
 Generated NRdTot=       0 NPtTot=           0 NUsed=           0 NTot=          32
 NSgBfM=   135   135   135   135   135 MxSgAt=    10 MxSgA2=    10.
 Leave Link  302 at Tue Sep 17 09:43:05 2024, MaxMem=  1342177280 cpu:               0.5 elap:               0.1
 (Enter /groups/ReismanLab/Software/Gaussian16_RevC/Linux_Binary_AVX2-enabled-CPU/g16/l303.exe)
 DipDrv:  MaxL=1.
 Leave Link  303 at Tue Sep 17 09:43:05 2024, MaxMem=  1342177280 cpu:               0.1 elap:               0.0
 (Enter /groups/ReismanLab/Software/Gaussian16_RevC/Linux_Binary_AVX2-enabled-CPU/g16/l401.exe)
 ExpMin= 1.43D-01 ExpMax= 5.74D+05 ExpMxC= 5.74D+03 IAcc=3 IRadAn=         5 AccDes= 0.00D+00
 Harris functional with IExCor=  402 and IRadAn=       5 diagonalized for initial guess.
 HarFok:  IExCor=  402 AccDes= 0.00D+00 IRadAn=         5 IDoV= 1 UseB2=F ITyADJ=14
 ICtDFT=  3500011 ScaDFX=  1.000000  1.000000  1.000000  1.000000
 FoFCou: FMM=F IPFlag=           0 FMFlag=      100000 FMFlg1=           0
         NFxFlg=           0 DoJE=T BraDBF=F KetDBF=T FulRan=T
         wScrn=  0.000000 ICntrl=       500 IOpCl=  0 I1Cent=   200000004 NGrid=           0
         NMat0=    1 NMatS0=      1 NMatT0=    0 NMatD0=    1 NMtDS0=    0 NMtDT0=    0
 Petite list used in FoFCou.
 Harris En= -2835.52425513274    
 JPrj=0 DoOrth=F DoCkMO=F.
 Leave Link  401 at Tue Sep 17 09:43:06 2024, MaxMem=  1342177280 cpu:               1.7 elap:               0.2
 (Enter /groups/ReismanLab/Software/Gaussian16_RevC/Linux_Binary_AVX2-enabled-CPU/g16/l502.exe)
 Keep R1 ints in memory in canonical form, NReq=49821054.
 FoFCou: FMM=F IPFlag=           0 FMFlag=           0 FMFlg1=           0
         NFxFlg=           0 DoJE=F BraDBF=F KetDBF=F FulRan=T
         wScrn=  0.000000 ICntrl=       600 IOpCl=  0 I1Cent=           0 NGrid=           0
         NMat0=    1 NMatS0=   9180 NMatT0=    0 NMatD0=    1 NMtDS0=    0 NMtDT0=    0
 Symmetry not used in FoFCou.
 Two-electron integral symmetry not used.
 Closed shell SCF:
 Using DIIS extrapolation, IDIIS=  1040.
 NGot=  1342177280 LenX=  1299997284 LenY=  1299978618
 Requested convergence on RMS density matrix=1.00D-08 within  32 cycles.
 Requested convergence on MAX density matrix=1.00D-06.
 Requested convergence on             energy=1.00D-06.
 No special actions if energy rises.
 Integral accuracy reduced to 1.0D-05 until final iterations.

 Cycle   1  Pass 0  IDiag  1:
 E= -2835.35181475906    
 DIIS: error= 2.12D-01 at cycle   1 NSaved=   1.
 NSaved= 1 IEnMin= 1 EnMin= -2835.35181475906     IErMin= 1 ErrMin= 2.12D-01
 ErrMax= 2.12D-01  0.00D+00 EMaxC= 1.00D-01 BMatC= 4.49D-01 BMatP= 4.49D-01
 IDIUse=3 WtCom= 0.00D+00 WtEn= 1.00D+00
 Coeff-Com:  0.100D+01
 Coeff-En:   0.100D+01
 Coeff:      0.100D+01
 Gap=     0.211 Goal=   None    Shift=    0.000
 GapD=    0.211 DampG=1.000 DampE=0.250 DampFc=0.2500 IDamp=-1.
 Damping current iteration by 2.50D-01
 RMSDP=5.73D-03 MaxDP=1.41D-01              OVMax= 1.91D-01

 Cycle   2  Pass 0  IDiag  1:
 E= -2835.38501988171     Delta-E=       -0.033205122647 Rises=F Damp=T
 DIIS: error= 1.57D-01 at cycle   2 NSaved=   2.
 NSaved= 2 IEnMin= 2 EnMin= -2835.38501988171     IErMin= 2 ErrMin= 1.57D-01
 ErrMax= 1.57D-01  0.00D+00 EMaxC= 1.00D-01 BMatC= 2.19D-01 BMatP= 4.49D-01
 IDIUse=3 WtCom= 0.00D+00 WtEn= 1.00D+00
 Coeff-Com: -0.185D+01 0.285D+01
 Coeff-En:   0.000D+00 0.100D+01
 Coeff:      0.000D+00 0.100D+01
 Gap=     0.210 Goal=   None    Shift=    0.000
 RMSDP=3.33D-03 MaxDP=1.10D-01 DE=-3.32D-02 OVMax= 8.12D-02

 Cycle   3  Pass 0  IDiag  1:
 E= -2835.43119743388     Delta-E=       -0.046177552171 Rises=F Damp=F
 DIIS: error= 1.14D-02 at cycle   3 NSaved=   3.
 NSaved= 3 IEnMin= 3 EnMin= -2835.43119743388     IErMin= 3 ErrMin= 1.14D-02
 ErrMax= 1.14D-02  0.00D+00 EMaxC= 1.00D-01 BMatC= 1.88D-02 BMatP= 2.19D-01
 IDIUse=3 WtCom= 8.86D-01 WtEn= 1.14D-01
 Coeff-Com:  0.167D+01-0.218D+01 0.151D+01
 Coeff-En:   0.342D-01 0.000D+00 0.966D+00
 Coeff:      0.148D+01-0.193D+01 0.145D+01
 Gap=     0.212 Goal=   None    Shift=    0.000
 RMSDP=1.42D-03 MaxDP=2.64D-02 DE=-4.62D-02 OVMax= 4.54D-02

 Cycle   4  Pass 0  IDiag  1:
 E= -2835.44662295007     Delta-E=       -0.015425516192 Rises=F Damp=F
 DIIS: error= 3.55D-03 at cycle   4 NSaved=   4.
 NSaved= 4 IEnMin= 4 EnMin= -2835.44662295007     IErMin= 4 ErrMin= 3.55D-03
 ErrMax= 3.55D-03  0.00D+00 EMaxC= 1.00D-01 BMatC= 1.96D-03 BMatP= 1.88D-02
 IDIUse=3 WtCom= 9.64D-01 WtEn= 3.55D-02
 Coeff-Com:  0.822D+00-0.108D+01 0.773D+00 0.484D+00
 Coeff-En:   0.000D+00 0.000D+00 0.000D+00 0.100D+01
 Coeff:      0.793D+00-0.104D+01 0.745D+00 0.503D+00
 Gap=     0.209 Goal=   None    Shift=    0.000
 RMSDP=4.95D-04 MaxDP=1.09D-02 DE=-1.54D-02 OVMax= 1.56D-02

 Cycle   5  Pass 0  IDiag  1:
 E= -2835.44846497173     Delta-E=       -0.001842021654 Rises=F Damp=F
 DIIS: error= 1.69D-03 at cycle   5 NSaved=   5.
 NSaved= 5 IEnMin= 5 EnMin= -2835.44846497173     IErMin= 5 ErrMin= 1.69D-03
 ErrMax= 1.69D-03  0.00D+00 EMaxC= 1.00D-01 BMatC= 2.36D-04 BMatP= 1.96D-03
 IDIUse=3 WtCom= 9.83D-01 WtEn= 1.69D-02
 Coeff-Com:  0.277D+00-0.364D+00 0.267D+00 0.296D+00 0.525D+00
 Coeff-En:   0.000D+00 0.000D+00 0.000D+00 0.725D-01 0.928D+00
 Coeff:      0.272D+00-0.358D+00 0.262D+00 0.292D+00 0.532D+00
 Gap=     0.209 Goal=   None    Shift=    0.000
 RMSDP=1.36D-04 MaxDP=2.88D-03 DE=-1.84D-03 OVMax= 7.06D-03

 Cycle   6  Pass 0  IDiag  1:
 E= -2835.44869079657     Delta-E=       -0.000225824838 Rises=F Damp=F
 DIIS: error= 4.47D-04 at cycle   6 NSaved=   6.
 NSaved= 6 IEnMin= 6 EnMin= -2835.44869079657     IErMin= 6 ErrMin= 4.47D-04
 ErrMax= 4.47D-04  0.00D+00 EMaxC= 1.00D-01 BMatC= 2.22D-05 BMatP= 2.36D-04
 IDIUse=3 WtCom= 9.96D-01 WtEn= 4.47D-03
 Coeff-Com:  0.101D+00-0.134D+00 0.999D-01 0.145D+00 0.333D+00 0.454D+00
 Coeff-En:   0.000D+00 0.000D+00 0.000D+00 0.000D+00 0.000D+00 0.100D+01
 Coeff:      0.101D+00-0.133D+00 0.994D-01 0.144D+00 0.332D+00 0.457D+00
 Gap=     0.208 Goal=   None    Shift=    0.000
 RMSDP=3.67D-05 MaxDP=7.52D-04 DE=-2.26D-04 OVMax= 2.19D-03

 Cycle   7  Pass 0  IDiag  1:
 E= -2835.44871212059     Delta-E=       -0.000021324025 Rises=F Damp=F
 DIIS: error= 4.90D-05 at cycle   7 NSaved=   7.
 NSaved= 7 IEnMin= 7 EnMin= -2835.44871212059     IErMin= 7 ErrMin= 4.90D-05
 ErrMax= 4.90D-05  0.00D+00 EMaxC= 1.00D-01 BMatC= 4.82D-07 BMatP= 2.22D-05
 IDIUse=1 WtCom= 1.00D+00 WtEn= 0.00D+00
 Coeff-Com:  0.221D-01-0.293D-01 0.225D-01 0.389D-01 0.100D+00 0.186D+00
 Coeff-Com:  0.660D+00
 Coeff:      0.221D-01-0.293D-01 0.225D-01 0.389D-01 0.100D+00 0.186D+00
 Coeff:      0.660D+00
 Gap=     0.208 Goal=   None    Shift=    0.000
 RMSDP=8.49D-06 MaxDP=2.03D-04 DE=-2.13D-05 OVMax= 3.06D-04

 Initial convergence to 1.0D-05 achieved.  Increase integral accuracy.
 Cycle   8  Pass 1  IDiag  1:
 E= -2835.44875441087     Delta-E=       -0.000042290283 Rises=F Damp=F
 DIIS: error= 1.86D-05 at cycle   1 NSaved=   1.
 NSaved= 1 IEnMin= 1 EnMin= -2835.44875441087     IErMin= 1 ErrMin= 1.86D-05
 ErrMax= 1.86D-05  0.00D+00 EMaxC= 1.00D-01 BMatC= 6.11D-08 BMatP= 6.11D-08
 IDIUse=1 WtCom= 1.00D+00 WtEn= 0.00D+00
 Coeff-Com:  0.100D+01
 Coeff:      0.100D+01
 Gap=     0.208 Goal=   None    Shift=    0.000
 RMSDP=8.49D-06 MaxDP=2.03D-04 DE=-4.23D-05 OVMax= 1.65D-04

 Cycle   9  Pass 1  IDiag  1:
 E= -2835.44875436020     Delta-E=        0.000000050678 Rises=F Damp=F
 DIIS: error= 2.90D-05 at cycle   2 NSaved=   2.
 NSaved= 2 IEnMin= 1 EnMin= -2835.44875441087     IErMin= 1 ErrMin= 1.86D-05
 ErrMax= 2.90D-05  0.00D+00 EMaxC= 1.00D-01 BMatC= 1.09D-07 BMatP= 6.11D-08
 IDIUse=1 WtCom= 1.00D+00 WtEn= 0.00D+00
 Coeff-Com:  0.577D+00 0.423D+00
 Coeff:      0.577D+00 0.423D+00
 Gap=     0.208 Goal=   None    Shift=    0.000
 RMSDP=2.67D-06 MaxDP=8.26D-05 DE= 5.07D-08 OVMax= 1.22D-04

 Cycle  10  Pass 1  IDiag  1:
 E= -2835.44875446391     Delta-E=       -0.000000103715 Rises=F Damp=F
 DIIS: error= 6.21D-06 at cycle   3 NSaved=   3.
 NSaved= 3 IEnMin= 3 EnMin= -2835.44875446391     IErMin= 3 ErrMin= 6.21D-06
 ErrMax= 6.21D-06  0.00D+00 EMaxC= 1.00D-01 BMatC= 3.70D-09 BMatP= 6.11D-08
 IDIUse=1 WtCom= 1.00D+00 WtEn= 0.00D+00
 Coeff-Com:  0.197D+00 0.201D+00 0.601D+00
 Coeff:      0.197D+00 0.201D+00 0.601D+00
 Gap=     0.208 Goal=   None    Shift=    0.000
 RMSDP=6.39D-07 MaxDP=1.05D-05 DE=-1.04D-07 OVMax= 3.79D-05

 Cycle  11  Pass 1  IDiag  1:
 E= -2835.44875446640     Delta-E=       -0.000000002493 Rises=F Damp=F
 DIIS: error= 4.59D-06 at cycle   4 NSaved=   4.
 NSaved= 4 IEnMin= 4 EnMin= -2835.44875446640     IErMin= 4 ErrMin= 4.59D-06
 ErrMax= 4.59D-06  0.00D+00 EMaxC= 1.00D-01 BMatC= 1.26D-09 BMatP= 3.70D-09
 IDIUse=1 WtCom= 1.00D+00 WtEn= 0.00D+00
 Coeff-Com:  0.140D-01 0.490D-01 0.397D+00 0.540D+00
 Coeff:      0.140D-01 0.490D-01 0.397D+00 0.540D+00
 Gap=     0.208 Goal=   None    Shift=    0.000
 RMSDP=2.65D-07 MaxDP=5.56D-06 DE=-2.49D-09 OVMax= 1.61D-05

 Cycle  12  Pass 1  IDiag  1:
 E= -2835.44875446763     Delta-E=       -0.000000001226 Rises=F Damp=F
 DIIS: error= 6.40D-07 at cycle   5 NSaved=   5.
 NSaved= 5 IEnMin= 5 EnMin= -2835.44875446763     IErMin= 5 ErrMin= 6.40D-07
 ErrMax= 6.40D-07  0.00D+00 EMaxC= 1.00D-01 BMatC= 4.15D-11 BMatP= 1.26D-09
 IDIUse=1 WtCom= 1.00D+00 WtEn= 0.00D+00
 Coeff-Com: -0.461D-02 0.121D-01 0.160D+00 0.270D+00 0.562D+00
 Coeff:     -0.461D-02 0.121D-01 0.160D+00 0.270D+00 0.562D+00
 Gap=     0.208 Goal=   None    Shift=    0.000
 RMSDP=5.41D-08 MaxDP=1.41D-06 DE=-1.23D-09 OVMax= 1.67D-06

 Cycle  13  Pass 1  IDiag  1:
 E= -2835.44875446767     Delta-E=       -0.000000000036 Rises=F Damp=F
 DIIS: error= 9.81D-08 at cycle   6 NSaved=   6.
 NSaved= 6 IEnMin= 6 EnMin= -2835.44875446767     IErMin= 6 ErrMin= 9.81D-08
 ErrMax= 9.81D-08  0.00D+00 EMaxC= 1.00D-01 BMatC= 2.38D-12 BMatP= 4.15D-11
 IDIUse=1 WtCom= 1.00D+00 WtEn= 0.00D+00
 Coeff-Com: -0.294D-02 0.414D-02 0.672D-01 0.120D+00 0.298D+00 0.514D+00
 Coeff:     -0.294D-02 0.414D-02 0.672D-01 0.120D+00 0.298D+00 0.514D+00
 Gap=     0.208 Goal=   None    Shift=    0.000
 RMSDP=1.22D-08 MaxDP=3.38D-07 DE=-3.64D-11 OVMax= 4.98D-07

 Cycle  14  Pass 1  IDiag  1:
 E= -2835.44875446766     Delta-E=        0.000000000001 Rises=F Damp=F
 DIIS: error= 2.43D-08 at cycle   7 NSaved=   7.
 NSaved= 7 IEnMin= 6 EnMin= -2835.44875446767     IErMin= 7 ErrMin= 2.43D-08
 ErrMax= 2.43D-08  0.00D+00 EMaxC= 1.00D-01 BMatC= 1.20D-13 BMatP= 2.38D-12
 IDIUse=1 WtCom= 1.00D+00 WtEn= 0.00D+00
 Coeff-Com: -0.626D-03 0.227D-03 0.932D-02 0.186D-01 0.588D-01 0.213D+00
 Coeff-Com:  0.700D+00
 Coeff:     -0.626D-03 0.227D-03 0.932D-02 0.186D-01 0.588D-01 0.213D+00
 Coeff:      0.700D+00
 Gap=     0.208 Goal=   None    Shift=    0.000
 RMSDP=3.31D-09 MaxDP=8.02D-08 DE= 9.09D-13 OVMax= 1.33D-07

 SCF Done:  E(RB3LYP) =  -2835.44875447     A.U. after   14 cycles
            NFock= 14  Conv=0.33D-08     -V/T= 2.0063
 KE= 2.817557560248D+03 PE=-7.640056620541D+03 EE= 1.540209047484D+03
 Leave Link  502 at Tue Sep 17 09:43:09 2024, MaxMem=  1342177280 cpu:              20.0 elap:               3.3
 (Enter /groups/ReismanLab/Software/Gaussian16_RevC/Linux_Binary_AVX2-enabled-CPU/g16/l508.exe)
 QCSCF skips out because SCF is already converged.
 Leave Link  508 at Tue Sep 17 09:43:09 2024, MaxMem=  1342177280 cpu:               0.0 elap:               0.0
 (Enter /groups/ReismanLab/Software/Gaussian16_RevC/Linux_Binary_AVX2-enabled-CPU/g16/l601.exe)
 Copying SCF densities to generalized density rwf, IOpCl= 0 IROHF=0.

 **********************************************************************

            Population analysis using the SCF Density.

 **********************************************************************

 Orbital symmetries:
       Occupied  (A) (A) (A) (A) (A) (A) (A) (A) (A) (A) (A) (A)
                 (A) (A) (A) (A) (A) (A) (A) (A) (A) (A) (A) (A)
                 (A) (A) (A) (A) (A) (A) (A) (A) (A) (A) (A) (A)
                 (A) (A)
       Virtual   (A) (A) (A) (A) (A) (A) (A) (A) (A) (A) (A) (A)
                 (A) (A) (A) (A) (A) (A) (A) (A) (A) (A) (A) (A)
                 (A) (A) (A) (A) (A) (A) (A) (A) (A) (A) (A) (A)
                 (A) (A) (A) (A) (A) (A) (A) (A) (A) (A) (A) (A)
                 (A) (A) (A) (A) (A) (A) (A) (A) (A) (A) (A) (A)
                 (A) (A) (A) (A) (A) (A) (A) (A) (A) (A) (A) (A)
                 (A) (A) (A) (A) (A) (A) (A) (A) (A) (A) (A) (A)
                 (A) (A) (A) (A) (A) (A) (A) (A) (A) (A) (A) (A)
                 (A)
 The electronic state is 1-A.
 Alpha  occ. eigenvalues -- -482.90964 -61.87212 -56.39334 -56.38940 -56.38915
 Alpha  occ. eigenvalues --  -14.35632 -14.35631 -10.31152 -10.25862 -10.25861
 Alpha  occ. eigenvalues --  -10.22242  -8.58445  -6.53854  -6.52621  -6.52486
 Alpha  occ. eigenvalues --   -2.65438  -2.65104  -2.64998  -2.64013  -2.64010
 Alpha  occ. eigenvalues --   -1.02210  -0.91879  -0.83434  -0.76837  -0.68337
 Alpha  occ. eigenvalues --   -0.65644  -0.54158  -0.53965  -0.47303  -0.45741
 Alpha  occ. eigenvalues --   -0.44011  -0.41644  -0.33783  -0.33220  -0.31901
 Alpha  occ. eigenvalues --   -0.29149  -0.26955  -0.26215
 Alpha virt. eigenvalues --   -0.05388  -0.04130   0.02096   0.09498   0.11835
 Alpha virt. eigenvalues --    0.14065   0.15584   0.22498   0.22820   0.26594
 Alpha virt. eigenvalues --    0.30939   0.31702   0.37516   0.39406   0.45777
 Alpha virt. eigenvalues --    0.46159   0.47009   0.47584   0.48609   0.49554
 Alpha virt. eigenvalues --    0.51029   0.54648   0.56496   0.57048   0.57675
 Alpha virt. eigenvalues --    0.60207   0.62469   0.63317   0.65533   0.69629
 Alpha virt. eigenvalues --    0.74706   0.78493   0.78761   0.79006   0.82134
 Alpha virt. eigenvalues --    0.84063   0.86380   0.86518   0.89936   0.89942
 Alpha virt. eigenvalues --    0.94839   1.02646   1.08641   1.09674   1.18214
 Alpha virt. eigenvalues --    1.19429   1.22178   1.29375   1.38940   1.41249
 Alpha virt. eigenvalues --    1.42125   1.48134   1.55559   1.56328   1.59501
 Alpha virt. eigenvalues --    1.62662   1.74340   1.78701   1.81495   1.82298
 Alpha virt. eigenvalues --    1.88760   1.95335   2.00408   2.04284   2.07380
 Alpha virt. eigenvalues --    2.17131   2.20565   2.24134   2.32143   2.33053
 Alpha virt. eigenvalues --    2.33545   2.39938   2.40900   2.42382   2.49277
 Alpha virt. eigenvalues --    2.49597   2.49723   2.54596   2.68187   2.69627
 Alpha virt. eigenvalues --    2.73317   2.84691   2.94548   2.96750   3.21504
 Alpha virt. eigenvalues --    3.22752   3.24620   3.36801   3.75986   4.01894
 Alpha virt. eigenvalues --    4.02615   4.24067   4.24735   4.26918   4.61199
 Alpha virt. eigenvalues --    8.59909  72.68956
          Condensed to atoms (all electrons):
               1          2          3          4          5          6
     1  Br  34.916360   0.309497  -0.085378   0.004742   0.000583   0.004742
     2  C    0.309497   4.619273   0.417146  -0.059576  -0.043726  -0.059581
     3  N   -0.085378   0.417146   6.773095   0.475964  -0.031698  -0.038499
     4  C    0.004742  -0.059576   0.475964   4.689586   0.483822  -0.034514
     5  C    0.000583  -0.043726  -0.031698   0.483822   5.017923   0.483777
     6  C    0.004742  -0.059581  -0.038499  -0.034514   0.483777   4.689580
     7  N   -0.085378   0.417125  -0.063339  -0.038503  -0.031700   0.476011
     8  H   -0.000211   0.005763  -0.052978   0.393489  -0.065065   0.003767
     9  H    0.000021   0.000555   0.004361  -0.032996   0.361206  -0.032998
    10  H   -0.000211   0.005763  -0.000336   0.003766  -0.065059   0.393481
               7          8          9         10
     1  Br  -0.085378  -0.000211   0.000021  -0.000211
     2  C    0.417125   0.005763   0.000555   0.005763
     3  N   -0.063339  -0.052978   0.004361  -0.000336
     4  C   -0.038503   0.393489  -0.032996   0.003766
     5  C   -0.031700  -0.065065   0.361206  -0.065059
     6  C    0.476011   0.003767  -0.032998   0.393481
     7  N    6.773059  -0.000336   0.004361  -0.052975
     8  H   -0.000336   0.595781  -0.002295  -0.000160
     9  H    0.004361  -0.002295   0.589298  -0.002292
    10  H   -0.052975  -0.000160  -0.002292   0.595772
 Mulliken charges:
               1
     1  Br  -0.064767
     2  C    0.387760
     3  N   -0.398337
     4  C    0.114222
     5  C   -0.110061
     6  C    0.114233
     7  N   -0.398324
     8  H    0.122246
     9  H    0.110778
    10  H    0.122252
 Sum of Mulliken charges =  -0.00000
 Mulliken charges with hydrogens summed into heavy atoms:
               1
     1  Br  -0.064767
     2  C    0.387760
     3  N   -0.398337
     4  C    0.236468
     5  C    0.000717
     6  C    0.236485
     7  N   -0.398324
 Electronic spatial extent (au):  <R**2>=           1118.1077
 Charge=             -0.0000 electrons
 Dipole moment (field-independent basis, Debye):
    X=              3.6177    Y=              0.0002    Z=              0.0006  Tot=              3.6177
 Quadrupole moment (field-independent basis, Debye-Ang):
   XX=            -40.1642   YY=            -52.7716   ZZ=            -52.2147
   XY=              0.0005   XZ=              0.0015   YZ=             -0.0004
 Traceless Quadrupole moment (field-independent basis, Debye-Ang):
   XX=              8.2194   YY=             -4.3881   ZZ=             -3.8312
   XY=              0.0005   XZ=              0.0015   YZ=             -0.0004
 Octapole moment (field-independent basis, Debye-Ang**2):
  XXX=            -28.1417  YYY=              0.0012  ZZZ=              0.0007  XYY=             -6.4821
  XXY=              0.0012  XXZ=              0.0073  XZZ=            -19.6308  YZZ=              0.0001
  YYZ=              0.0033  XYZ=             -0.0008
 Hexadecapole moment (field-independent basis, Debye-Ang**3):
 XXXX=           -873.3851 YYYY=           -261.0353 ZZZZ=            -52.6337 XXXY=              0.0035
 XXXZ=              0.0130 YYYX=              0.0024 YYYZ=             -0.0015 ZZZX=             -0.0062
 ZZZY=              0.0004 XXYY=           -185.1031 XXZZ=           -186.1527 YYZZ=            -54.7060
 XXYZ=             -0.0016 YYXZ=              0.0043 ZZXY=              0.0004
 N-N= 4.468412583407D+02 E-N=-7.640056625497D+03  KE= 2.817557560248D+03
 No NMR shielding tensors so no spin-rotation constants.
 Leave Link  601 at Tue Sep 17 09:43:09 2024, MaxMem=  1342177280 cpu:               0.4 elap:               0.1
 (Enter /groups/ReismanLab/Software/Gaussian16_RevC/Linux_Binary_AVX2-enabled-CPU/g16/l701.exe)
 ... and contract with generalized density number  0.
 Compute integral first derivatives.
 R6Disp: Adding Grimme-D3(BJ) dispersion energy 1st derivatives to the gradient.
 Leave Link  701 at Tue Sep 17 09:43:09 2024, MaxMem=  1342177280 cpu:               0.4 elap:               0.1
 (Enter /groups/ReismanLab/Software/Gaussian16_RevC/Linux_Binary_AVX2-enabled-CPU/g16/l702.exe)
 L702 exits ... SP integral derivatives will be done elsewhere.
 Leave Link  702 at Tue Sep 17 09:43:09 2024, MaxMem=  1342177280 cpu:               0.0 elap:               0.0
 (Enter /groups/ReismanLab/Software/Gaussian16_RevC/Linux_Binary_AVX2-enabled-CPU/g16/l703.exe)
 Integral derivatives from FoFJK, PRISM(SPDF).
 Compute integral first derivatives, UseDBF=F ICtDFT=           0.
 Calling FoFJK, ICntrl=      2127 FMM=F ISym2X=0 I1Cent= 0 IOpClX= 0 NMat=1 NMatS=1 NMatT=0.
 FoFJK:  IHMeth= 1 ICntrl=    2127 DoSepK=F KAlg= 0 I1Cent=           0 FoldK=F
 IRaf=         0 NMat=       1 IRICut=       1 DoRegI=T DoRafI=F ISym2E= 0 IDoP0=0 IntGTp=1.
 FoFCou: FMM=F IPFlag=           0 FMFlag=      100000 FMFlg1=         800
         NFxFlg=           0 DoJE=F BraDBF=F KetDBF=F FulRan=T
         wScrn=  0.000000 ICntrl=      2127 IOpCl=  0 I1Cent=           0 NGrid=           0
         NMat0=    1 NMatS0=      1 NMatT0=    0 NMatD0=    1 NMtDS0=    0 NMtDT0=    0
 Symmetry not used in FoFCou.
 Leave Link  703 at Tue Sep 17 09:43:10 2024, MaxMem=  1342177280 cpu:               8.8 elap:               1.2
 (Enter /groups/ReismanLab/Software/Gaussian16_RevC/Linux_Binary_AVX2-enabled-CPU/g16/l716.exe)
 Dipole        = 1.42331232D+00 9.73177054D-05 2.21040178D-04
 ***** Axes restored to original set *****
 -------------------------------------------------------------------
 Center     Atomic                   Forces (Hartrees/Bohr)
 Number     Number              X              Y              Z
 -------------------------------------------------------------------
      1       35           0.011782157    0.000000204    0.000004768
      2        6          -0.000212567   -0.000008790   -0.000000713
      3        7           0.012179907   -0.015231112   -0.000000134
      4        6          -0.009501714    0.000478052   -0.000021250
      5        6          -0.003939264    0.000069366    0.000002751
      6        6          -0.009547485   -0.000567848   -0.000020022
      7        7           0.012200644    0.015248983    0.000007047
      8        1          -0.004004542   -0.002701147    0.000014917
      9        1          -0.004945897   -0.000002783    0.000002521
     10        1          -0.004011239    0.002715074    0.000010114
 -------------------------------------------------------------------
 Cartesian Forces:  Max     0.015248983 RMS     0.006243281
 Leave Link  716 at Tue Sep 17 09:43:10 2024, MaxMem=  1342177280 cpu:               0.0 elap:               0.0
 (Enter /groups/ReismanLab/Software/Gaussian16_RevC/Linux_Binary_AVX2-enabled-CPU/g16/l103.exe)

 GradGradGradGradGradGradGradGradGradGradGradGradGradGradGradGradGradGrad
 Berny optimization.
 FormGI is forming the generalized inverse of G from B-inverse, IUseBI=4.
 Internal  Forces:  Max     0.017985948 RMS     0.005925506
 Search for a local minimum.
 Step number   1 out of a maximum of   50
 All quantities printed in internal units (Hartrees-Bohrs-Radians)
 RMS Force = .59255D-02 SwitMx=.10000D-02 MixMth= 1
 Mixed Optimization -- RFO/linear search
 Second derivative matrix not updated -- first step.
 ITU=  0
     Eigenvalues ---    0.02237   0.02307   0.02366   0.02406   0.02623
     Eigenvalues ---    0.02787   0.02813   0.16000   0.16000   0.16000
     Eigenvalues ---    0.19239   0.22083   0.23189   0.24919   0.25000
     Eigenvalues ---    0.35769   0.35772   0.36403   0.44835   0.46550
     Eigenvalues ---    0.57198   0.59824   0.61294   0.62909
 RFO step:  Lambda=-3.00696880D-03 EMin= 2.23680413D-02
 Linear search not attempted -- first point.
 Iteration  1 RMS(Cart)=  0.02025455 RMS(Int)=  0.00008300
 Iteration  2 RMS(Cart)=  0.00009459 RMS(Int)=  0.00001317
 Iteration  3 RMS(Cart)=  0.00000001 RMS(Int)=  0.00001317
 ITry= 1 IFail=0 DXMaxC= 8.85D-02 DCOld= 1.00D+10 DXMaxT= 3.00D-01 DXLimC= 3.00D+00 Rises=F
 Variable       Old X    -DE/DX   Delta X   Delta X   Delta X     New X
                                 (Linear)    (Quad)   (Total)
    R1        3.55359   0.01178   0.00000   0.06030   0.06030   3.61389
    R2        2.48538   0.01478   0.00000   0.02443   0.02445   2.50983
    R3        2.48540   0.01479   0.00000   0.02444   0.02446   2.50986
    R4        2.49935   0.01796   0.00000   0.02917   0.02917   2.52852
    R5        2.62436   0.00561   0.00000   0.01029   0.01027   2.63464
    R6        2.04444   0.00417   0.00000   0.01155   0.01155   2.05600
    R7        2.62457   0.00553   0.00000   0.01014   0.01013   2.63470
    R8        2.03456   0.00495   0.00000   0.01348   0.01348   2.04803
    R9        2.49926   0.01799   0.00000   0.02920   0.02920   2.52846
   R10        2.04440   0.00418   0.00000   0.01160   0.01160   2.05600
    A1        2.02950   0.00023   0.00000  -0.00134  -0.00135   2.02815
    A2        2.02949   0.00023   0.00000  -0.00134  -0.00135   2.02814
    A3        2.22419  -0.00045   0.00000   0.00267   0.00270   2.22689
    A4        2.02946  -0.00279   0.00000  -0.00781  -0.00778   2.02168
    A5        2.12736   0.00248   0.00000   0.00754   0.00752   2.13488
    A6        2.01810   0.00126   0.00000   0.01154   0.01155   2.02965
    A7        2.13773  -0.00374   0.00000  -0.01909  -0.01908   2.11865
    A8        2.02856   0.00106   0.00000  -0.00217  -0.00220   2.02635
    A9        2.12735  -0.00053   0.00000   0.00107   0.00108   2.12844
   A10        2.12727  -0.00053   0.00000   0.00110   0.00112   2.12839
   A11        2.12730   0.00249   0.00000   0.00759   0.00758   2.13487
   A12        2.13773  -0.00374   0.00000  -0.01911  -0.01910   2.11863
   A13        2.01816   0.00125   0.00000   0.01152   0.01153   2.02968
   A14        2.02951  -0.00279   0.00000  -0.00784  -0.00781   2.02169
    D1       -3.14134  -0.00001   0.00000  -0.00034  -0.00034   3.14151
    D2        0.00007   0.00000   0.00000   0.00003   0.00003   0.00010
    D3        3.14142   0.00001   0.00000   0.00027   0.00027  -3.14149
    D4        0.00002  -0.00000   0.00000  -0.00009  -0.00010  -0.00008
    D5       -0.00006  -0.00000   0.00000  -0.00004  -0.00004  -0.00010
    D6        3.14119   0.00001   0.00000   0.00045   0.00045  -3.14154
    D7       -0.00001   0.00000   0.00000   0.00011   0.00011   0.00010
    D8        3.14144   0.00001   0.00000   0.00029   0.00028  -3.14146
    D9       -3.14125  -0.00001   0.00000  -0.00041  -0.00041   3.14153
   D10        0.00020  -0.00001   0.00000  -0.00024  -0.00024  -0.00003
   D11        0.00010  -0.00001   0.00000  -0.00018  -0.00018  -0.00008
   D12        3.14137   0.00001   0.00000   0.00031   0.00031  -3.14151
   D13       -3.14135  -0.00001   0.00000  -0.00036  -0.00035   3.14148
   D14       -0.00009   0.00000   0.00000   0.00014   0.00014   0.00005
   D15       -0.00010   0.00000   0.00000   0.00017   0.00017   0.00007
   D16       -3.14139  -0.00001   0.00000  -0.00029  -0.00029   3.14150
         Item               Value     Threshold  Converged?
 Maximum Force            0.017986     0.000450     NO 
 RMS     Force            0.005926     0.000300     NO 
 Maximum Displacement     0.088535     0.001800     NO 
 RMS     Displacement     0.020246     0.001200     NO 
 Predicted change in Energy=-1.515906D-03
 Lowest energy point so far.  Saving SCF results.
 GradGradGradGradGradGradGradGradGradGradGradGradGradGradGradGradGradGrad

 Leave Link  103 at Tue Sep 17 09:43:11 2024, MaxMem=  1342177280 cpu:               0.1 elap:               0.0
 (Enter /groups/ReismanLab/Software/Gaussian16_RevC/Linux_Binary_AVX2-enabled-CPU/g16/l202.exe)
                          Input orientation:                          
 ---------------------------------------------------------------------
 Center     Atomic      Atomic             Coordinates (Angstroms)
 Number     Number       Type             X           Y           Z
 ---------------------------------------------------------------------
      1         35           0        1.625638   -0.000006    0.000311
      2          6           0       -0.286749   -0.000012   -0.000036
      3          7           0       -0.873223   -1.191656   -0.000066
      4          6           0       -2.211228   -1.182996   -0.000208
      5          6           0       -2.948984    0.000001   -0.000198
      6          6           0       -2.211200    1.183018   -0.000153
      7          7           0       -0.873226    1.191649   -0.000029
      8          1           0       -2.699425   -2.155302   -0.000183
      9          1           0       -4.032755    0.000030   -0.000194
     10          1           0       -2.699407    2.155319   -0.000062
 ---------------------------------------------------------------------
                    Distance matrix (angstroms):
                    1          2          3          4          5
     1  Br   0.000000
     2  C    1.912387   0.000000
     3  N    2.768454   1.328145   0.000000
     4  C    4.015097   2.258998   1.338033   0.000000
     5  C    4.574622   2.662235   2.393497   1.394189   0.000000
     6  C    4.015080   2.258998   2.725667   2.366014   1.394222
     7  N    2.768458   1.328161   2.383305   2.725654   2.393491
     8  H    4.832336   3.235164   2.064855   1.087987   2.169703
     9  H    5.658393   3.746007   3.376797   2.171983   1.083772
    10  H    4.832332   3.235177   3.812766   3.373820   2.169720
                    6          7          8          9         10
     6  C    0.000000
     7  N    1.338002   0.000000
     8  H    3.373833   3.812753   0.000000
     9  H    2.171987   3.376772   2.534408   0.000000
    10  H    1.087987   2.064848   4.310621   2.534381   0.000000
 Stoichiometry    C4H3BrN2
 Framework group  C1[X(C4H3BrN2)]
 Deg. of freedom    24
 Full point group                 C1      NOp   1
 RotChk:  IX=0 Diff= 3.79D-06
 Largest Abelian subgroup         C1      NOp   1
 Largest concise Abelian subgroup C1      NOp   1
                         Standard orientation:                         
 ---------------------------------------------------------------------
 Center     Atomic      Atomic             Coordinates (Angstroms)
 Number     Number       Type             X           Y           Z
 ---------------------------------------------------------------------
      1         35           0       -1.766537    0.000001   -0.000229
      2          6           0        0.145849   -0.000010    0.000117
      3          7           0        0.732320   -1.191657    0.000147
      4          6           0        2.070325   -1.182999    0.000290
      5          6           0        2.808084   -0.000005    0.000280
      6          6           0        2.070303    1.183014    0.000235
      7          7           0        0.732329    1.191649    0.000111
      8          1           0        2.558520   -2.155307    0.000265
      9          1           0        3.891856    0.000021    0.000276
     10          1           0        2.558513    2.155314    0.000144
 ---------------------------------------------------------------------
 Rotational constants (GHZ):           6.1094191           1.0449374           0.8923179
 Leave Link  202 at Tue Sep 17 09:43:11 2024, MaxMem=  1342177280 cpu:               0.0 elap:               0.0
 (Enter /groups/ReismanLab/Software/Gaussian16_RevC/Linux_Binary_AVX2-enabled-CPU/g16/l301.exe)
 Standard basis: 6-31G(d,p) (6D, 7F)
 Ernie: Thresh=  0.10000D-02 Tol=  0.10000D-05 Strict=F.
 There are   135 symmetry adapted cartesian basis functions of A   symmetry.
 There are   135 symmetry adapted basis functions of A   symmetry.
   135 basis functions,   272 primitive gaussians,   135 cartesian basis functions
    38 alpha electrons       38 beta electrons
       nuclear repulsion energy       441.7813221814 Hartrees.
 IExCor=  402 DFT=T Ex+Corr=B3LYP ExCW=0 ScaHFX=  0.200000
 ScaDFX=  0.800000  0.720000  1.000000  0.810000 ScalE2=  1.000000  1.000000
 IRadAn=      5 IRanWt=     -1 IRanGd=            0 ICorTp=0 IEmpDi=141
 NAtoms=   10 NActive=   10 NUniq=   10 SFac= 1.00D+00 NAtFMM=   60 NAOKFM=F Big=F
 Integral buffers will be    131072 words long.
 Raffenetti 2 integral format.
 Two-electron integral symmetry is turned on.
 R6Disp:  Grimme-D3(BJ) Dispersion energy=       -0.0193402793 Hartrees.
 Nuclear repulsion after empirical dispersion term =      441.7619819021 Hartrees.
 Leave Link  301 at Tue Sep 17 09:43:11 2024, MaxMem=  1342177280 cpu:               0.1 elap:               0.1
 (Enter /groups/ReismanLab/Software/Gaussian16_RevC/Linux_Binary_AVX2-enabled-CPU/g16/l302.exe)
 NPDir=0 NMtPBC=     1 NCelOv=     1 NCel=       1 NClECP=     1 NCelD=      1
         NCelK=      1 NCelE2=     1 NClLst=     1 CellRange=     0.0.
 One-electron integrals computed using PRISM.
 One-electron integral symmetry used in STVInt
 NBasis=   135 RedAO= T EigKep=  7.55D-04  NBF=   135
 NBsUse=   135 1.00D-06 EigRej= -1.00D+00 NBFU=   135
 Precomputing XC quadrature grid using
 IXCGrd= 4 IRadAn=           5 IRanWt=          -1 IRanGd=           0 AccXCQ= 0.00D+00.
 Generated NRdTot=       0 NPtTot=           0 NUsed=           0 NTot=          32
 NSgBfM=   135   135   135   135   135 MxSgAt=    10 MxSgA2=    10.
 Leave Link  302 at Tue Sep 17 09:43:11 2024, MaxMem=  1342177280 cpu:               0.5 elap:               0.1
 (Enter /groups/ReismanLab/Software/Gaussian16_RevC/Linux_Binary_AVX2-enabled-CPU/g16/l303.exe)
 DipDrv:  MaxL=1.
 Leave Link  303 at Tue Sep 17 09:43:11 2024, MaxMem=  1342177280 cpu:               0.0 elap:               0.0
 (Enter /groups/ReismanLab/Software/Gaussian16_RevC/Linux_Binary_AVX2-enabled-CPU/g16/l401.exe)
 Initial guess from the checkpoint file:  "smiles_00042_conf_0.chk"
 B after Tr=    -0.000000    0.000000   -0.000000
         Rot=    1.000000    0.000008    0.000056    0.000001 Ang=   0.01 deg.
 Guess basis will be translated and rotated to current coordinates.
 JPrj=2 DoOrth=T DoCkMO=T.
 Generating alternative initial guess.
 ExpMin= 1.43D-01 ExpMax= 5.74D+05 ExpMxC= 5.74D+03 IAcc=3 IRadAn=         5 AccDes= 0.00D+00
 Harris functional with IExCor=  402 and IRadAn=       5 diagonalized for initial guess.
 HarFok:  IExCor=  402 AccDes= 0.00D+00 IRadAn=         5 IDoV= 1 UseB2=F ITyADJ=14
 ICtDFT=  3500011 ScaDFX=  1.000000  1.000000  1.000000  1.000000
 FoFCou: FMM=F IPFlag=           0 FMFlag=      100000 FMFlg1=           0
         NFxFlg=           0 DoJE=T BraDBF=F KetDBF=T FulRan=T
         wScrn=  0.000000 ICntrl=       500 IOpCl=  0 I1Cent=   200000004 NGrid=           0
         NMat0=    1 NMatS0=      1 NMatT0=    0 NMatD0=    1 NMtDS0=    0 NMtDT0=    0
 Petite list used in FoFCou.
 Harris En= -2835.52387002685    
 Leave Link  401 at Tue Sep 17 09:43:11 2024, MaxMem=  1342177280 cpu:               1.9 elap:               0.3
 (Enter /groups/ReismanLab/Software/Gaussian16_RevC/Linux_Binary_AVX2-enabled-CPU/g16/l502.exe)
 Keep R1 ints in memory in canonical form, NReq=49821054.
 FoFCou: FMM=F IPFlag=           0 FMFlag=           0 FMFlg1=           0
         NFxFlg=           0 DoJE=F BraDBF=F KetDBF=F FulRan=T
         wScrn=  0.000000 ICntrl=       600 IOpCl=  0 I1Cent=           0 NGrid=           0
         NMat0=    1 NMatS0=   9180 NMatT0=    0 NMatD0=    1 NMtDS0=    0 NMtDT0=    0
 Symmetry not used in FoFCou.
 Two-electron integral symmetry not used.
 Closed shell SCF:
 Using DIIS extrapolation, IDIIS=  1040.
 NGot=  1342177280 LenX=  1299997284 LenY=  1299978618
 Requested convergence on RMS density matrix=1.00D-08 within  32 cycles.
 Requested convergence on MAX density matrix=1.00D-06.
 Requested convergence on             energy=1.00D-06.
 No special actions if energy rises.
 Integral accuracy reduced to 1.0D-05 until final iterations.

 Cycle   1  Pass 0  IDiag  1:
 E= -2835.44952080524    
 DIIS: error= 4.40D-03 at cycle   1 NSaved=   1.
 NSaved= 1 IEnMin= 1 EnMin= -2835.44952080524     IErMin= 1 ErrMin= 4.40D-03
 ErrMax= 4.40D-03  0.00D+00 EMaxC= 1.00D-01 BMatC= 2.78D-03 BMatP= 2.78D-03
 IDIUse=3 WtCom= 9.56D-01 WtEn= 4.40D-02
 Coeff-Com:  0.100D+01
 Coeff-En:   0.100D+01
 Coeff:      0.100D+01
 Gap=     1.510 Goal=   None    Shift=    0.000
 GapD=    1.510 DampG=2.000 DampE=1.000 DampFc=2.0000 IDamp=-1.
 RMSDP=3.75D-04 MaxDP=7.57D-03              OVMax= 7.21D-03

 Cycle   2  Pass 0  IDiag  1:
 E= -2835.44999089054     Delta-E=       -0.000470085297 Rises=F Damp=F
 DIIS: error= 7.90D-04 at cycle   2 NSaved=   2.
 NSaved= 2 IEnMin= 2 EnMin= -2835.44999089054     IErMin= 2 ErrMin= 7.90D-04
 ErrMax= 7.90D-04  0.00D+00 EMaxC= 1.00D-01 BMatC= 1.03D-04 BMatP= 2.78D-03
 IDIUse=3 WtCom= 9.92D-01 WtEn= 7.90D-03
 Coeff-Com:  0.586D-01 0.941D+00
 Coeff-En:   0.000D+00 0.100D+01
 Coeff:      0.581D-01 0.942D+00
 Gap=     0.207 Goal=   None    Shift=    0.000
 RMSDP=2.09D-04 MaxDP=4.63D-03 DE=-4.70D-04 OVMax= 7.23D-03

 Cycle   3  Pass 0  IDiag  1:
 E= -2835.44985257495     Delta-E=        0.000138315586 Rises=F Damp=F
 DIIS: error= 1.54D-03 at cycle   3 NSaved=   3.
 NSaved= 3 IEnMin= 2 EnMin= -2835.44999089054     IErMin= 2 ErrMin= 7.90D-04
 ErrMax= 1.54D-03  0.00D+00 EMaxC= 1.00D-01 BMatC= 2.27D-04 BMatP= 1.03D-04
 IDIUse=3 WtCom= 2.03D-01 WtEn= 7.97D-01
 Coeff-Com:  0.265D-02 0.600D+00 0.397D+00
 Coeff-En:   0.000D+00 0.668D+00 0.332D+00
 Coeff:      0.539D-03 0.654D+00 0.346D+00
 Gap=     0.207 Goal=   None    Shift=    0.000
 RMSDP=1.11D-04 MaxDP=2.57D-03 DE= 1.38D-04 OVMax= 4.48D-03

 Cycle   4  Pass 0  IDiag  1:
 E= -2835.45009323533     Delta-E=       -0.000240660373 Rises=F Damp=F
 DIIS: error= 1.95D-04 at cycle   4 NSaved=   4.
 NSaved= 4 IEnMin= 4 EnMin= -2835.45009323533     IErMin= 4 ErrMin= 1.95D-04
 ErrMax= 1.95D-04  0.00D+00 EMaxC= 1.00D-01 BMatC= 5.02D-06 BMatP= 1.03D-04
 IDIUse=3 WtCom= 9.98D-01 WtEn= 1.95D-03
 Coeff-Com: -0.102D-02 0.306D+00 0.163D+00 0.533D+00
 Coeff-En:   0.000D+00 0.000D+00 0.000D+00 0.100D+01
 Coeff:     -0.102D-02 0.305D+00 0.162D+00 0.533D+00
 Gap=     0.207 Goal=   None    Shift=    0.000
 RMSDP=2.38D-05 MaxDP=3.94D-04 DE=-2.41D-04 OVMax= 7.98D-04

 Cycle   5  Pass 0  IDiag  1:
 E= -2835.45009855756     Delta-E=       -0.000005322230 Rises=F Damp=F
 DIIS: error= 3.76D-05 at cycle   5 NSaved=   5.
 NSaved= 5 IEnMin= 5 EnMin= -2835.45009855756     IErMin= 5 ErrMin= 3.76D-05
 ErrMax= 3.76D-05  0.00D+00 EMaxC= 1.00D-01 BMatC= 2.85D-07 BMatP= 5.02D-06
 IDIUse=1 WtCom= 1.00D+00 WtEn= 0.00D+00
 Coeff-Com: -0.646D-03 0.901D-01 0.461D-01 0.250D+00 0.615D+00
 Coeff:     -0.646D-03 0.901D-01 0.461D-01 0.250D+00 0.615D+00
 Gap=     0.207 Goal=   None    Shift=    0.000
 RMSDP=5.72D-06 MaxDP=1.49D-04 DE=-5.32D-06 OVMax= 1.98D-04

 Initial convergence to 1.0D-05 achieved.  Increase integral accuracy.
 Cycle   6  Pass 1  IDiag  1:
 E= -2835.45015261913     Delta-E=       -0.000054061572 Rises=F Damp=F
 DIIS: error= 1.36D-05 at cycle   1 NSaved=   1.
 NSaved= 1 IEnMin= 1 EnMin= -2835.45015261913     IErMin= 1 ErrMin= 1.36D-05
 ErrMax= 1.36D-05  0.00D+00 EMaxC= 1.00D-01 BMatC= 3.56D-08 BMatP= 3.56D-08
 IDIUse=1 WtCom= 1.00D+00 WtEn= 0.00D+00
 Coeff-Com:  0.100D+01
 Coeff:      0.100D+01
 Gap=     0.207 Goal=   None    Shift=    0.000
 RMSDP=5.72D-06 MaxDP=1.49D-04 DE=-5.41D-05 OVMax= 1.42D-04

 Cycle   7  Pass 1  IDiag  1:
 E= -2835.45015259123     Delta-E=        0.000000027900 Rises=F Damp=F
 DIIS: error= 2.33D-05 at cycle   2 NSaved=   2.
 NSaved= 2 IEnMin= 1 EnMin= -2835.45015261913     IErMin= 1 ErrMin= 1.36D-05
 ErrMax= 2.33D-05  0.00D+00 EMaxC= 1.00D-01 BMatC= 7.03D-08 BMatP= 3.56D-08
 IDIUse=1 WtCom= 1.00D+00 WtEn= 0.00D+00
 Coeff-Com:  0.591D+00 0.409D+00
 Coeff:      0.591D+00 0.409D+00
 Gap=     0.207 Goal=   None    Shift=    0.000
 RMSDP=1.94D-06 MaxDP=5.33D-05 DE= 2.79D-08 OVMax= 1.08D-04

 Cycle   8  Pass 1  IDiag  1:
 E= -2835.45015265070     Delta-E=       -0.000000059468 Rises=F Damp=F
 DIIS: error= 3.91D-06 at cycle   3 NSaved=   3.
 NSaved= 3 IEnMin= 3 EnMin= -2835.45015265070     IErMin= 3 ErrMin= 3.91D-06
 ErrMax= 3.91D-06  0.00D+00 EMaxC= 1.00D-01 BMatC= 2.01D-09 BMatP= 3.56D-08
 IDIUse=1 WtCom= 1.00D+00 WtEn= 0.00D+00
 Coeff-Com:  0.146D+00 0.174D+00 0.680D+00
 Coeff:      0.146D+00 0.174D+00 0.680D+00
 Gap=     0.207 Goal=   None    Shift=    0.000
 RMSDP=4.86D-07 MaxDP=1.12D-05 DE=-5.95D-08 OVMax= 2.44D-05

 Cycle   9  Pass 1  IDiag  1:
 E= -2835.45015265205     Delta-E=       -0.000000001353 Rises=F Damp=F
 DIIS: error= 2.58D-06 at cycle   4 NSaved=   4.
 NSaved= 4 IEnMin= 4 EnMin= -2835.45015265205     IErMin= 4 ErrMin= 2.58D-06
 ErrMax= 2.58D-06  0.00D+00 EMaxC= 1.00D-01 BMatC= 5.59D-10 BMatP= 2.01D-09
 IDIUse=1 WtCom= 1.00D+00 WtEn= 0.00D+00
 Coeff-Com:  0.152D-01 0.525D-01 0.400D+00 0.532D+00
 Coeff:      0.152D-01 0.525D-01 0.400D+00 0.532D+00
 Gap=     0.207 Goal=   None    Shift=    0.000
 RMSDP=2.12D-07 MaxDP=5.99D-06 DE=-1.35D-09 OVMax= 9.20D-06

 Cycle  10  Pass 1  IDiag  1:
 E= -2835.45015265251     Delta-E=       -0.000000000457 Rises=F Damp=F
 DIIS: error= 1.03D-06 at cycle   5 NSaved=   5.
 NSaved= 5 IEnMin= 5 EnMin= -2835.45015265251     IErMin= 5 ErrMin= 1.03D-06
 ErrMax= 1.03D-06  0.00D+00 EMaxC= 1.00D-01 BMatC= 8.70D-11 BMatP= 5.59D-10
 IDIUse=1 WtCom= 1.00D+00 WtEn= 0.00D+00
 Coeff-Com: -0.611D-02 0.135D-01 0.173D+00 0.340D+00 0.480D+00
 Coeff:     -0.611D-02 0.135D-01 0.173D+00 0.340D+00 0.480D+00
 Gap=     0.207 Goal=   None    Shift=    0.000
 RMSDP=7.64D-08 MaxDP=2.22D-06 DE=-4.57D-10 OVMax= 2.84D-06

 Cycle  11  Pass 1  IDiag  1:
 E= -2835.45015265262     Delta-E=       -0.000000000112 Rises=F Damp=F
 DIIS: error= 6.66D-08 at cycle   6 NSaved=   6.
 NSaved= 6 IEnMin= 6 EnMin= -2835.45015265262     IErMin= 6 ErrMin= 6.66D-08
 ErrMax= 6.66D-08  0.00D+00 EMaxC= 1.00D-01 BMatC= 3.16D-13 BMatP= 8.70D-11
 IDIUse=1 WtCom= 1.00D+00 WtEn= 0.00D+00
 Coeff-Com: -0.199D-02 0.313D-02 0.442D-01 0.873D-01 0.143D+00 0.725D+00
 Coeff:     -0.199D-02 0.313D-02 0.442D-01 0.873D-01 0.143D+00 0.725D+00
 Gap=     0.207 Goal=   None    Shift=    0.000
 RMSDP=6.17D-09 MaxDP=2.25D-07 DE=-1.12D-10 OVMax= 3.78D-07

 SCF Done:  E(RB3LYP) =  -2835.45015265     A.U. after   11 cycles
            NFock= 11  Conv=0.62D-08     -V/T= 2.0064
 KE= 2.817296751164D+03 PE=-7.629692620571D+03 EE= 1.535183734852D+03
 Leave Link  502 at Tue Sep 17 09:43:14 2024, MaxMem=  1342177280 cpu:              16.7 elap:               3.0
 (Enter /groups/ReismanLab/Software/Gaussian16_RevC/Linux_Binary_AVX2-enabled-CPU/g16/l508.exe)
 QCSCF skips out because SCF is already converged.
 Leave Link  508 at Tue Sep 17 09:43:14 2024, MaxMem=  1342177280 cpu:               0.0 elap:               0.0
 (Enter /groups/ReismanLab/Software/Gaussian16_RevC/Linux_Binary_AVX2-enabled-CPU/g16/l701.exe)
 ... and contract with generalized density number  0.
 Compute integral first derivatives.
 R6Disp: Adding Grimme-D3(BJ) dispersion energy 1st derivatives to the gradient.
 Leave Link  701 at Tue Sep 17 09:43:14 2024, MaxMem=  1342177280 cpu:               0.4 elap:               0.1
 (Enter /groups/ReismanLab/Software/Gaussian16_RevC/Linux_Binary_AVX2-enabled-CPU/g16/l702.exe)
 L702 exits ... SP integral derivatives will be done elsewhere.
 Leave Link  702 at Tue Sep 17 09:43:14 2024, MaxMem=  1342177280 cpu:               0.0 elap:               0.0
 (Enter /groups/ReismanLab/Software/Gaussian16_RevC/Linux_Binary_AVX2-enabled-CPU/g16/l703.exe)
 Integral derivatives from FoFJK, PRISM(SPDF).
 Compute integral first derivatives, UseDBF=F ICtDFT=           0.
 Calling FoFJK, ICntrl=      2127 FMM=F ISym2X=0 I1Cent= 0 IOpClX= 0 NMat=1 NMatS=1 NMatT=0.
 FoFJK:  IHMeth= 1 ICntrl=    2127 DoSepK=F KAlg= 0 I1Cent=           0 FoldK=F
 IRaf=         0 NMat=       1 IRICut=       1 DoRegI=T DoRafI=F ISym2E= 0 IDoP0=0 IntGTp=1.
 FoFCou: FMM=F IPFlag=           0 FMFlag=      100000 FMFlg1=         800
         NFxFlg=           0 DoJE=F BraDBF=F KetDBF=F FulRan=T
         wScrn=  0.000000 ICntrl=      2127 IOpCl=  0 I1Cent=           0 NGrid=           0
         NMat0=    1 NMatS0=      1 NMatT0=    0 NMatD0=    1 NMtDS0=    0 NMtDT0=    0
 Symmetry not used in FoFCou.
 Leave Link  703 at Tue Sep 17 09:43:15 2024, MaxMem=  1342177280 cpu:               8.6 elap:               1.1
 (Enter /groups/ReismanLab/Software/Gaussian16_RevC/Linux_Binary_AVX2-enabled-CPU/g16/l716.exe)
 Dipole        = 1.46800692D+00 2.65279327D-05 1.06745214D-04
 ***** Axes restored to original set *****
 -------------------------------------------------------------------
 Center     Atomic                   Forces (Hartrees/Bohr)
 Number     Number              X              Y              Z
 -------------------------------------------------------------------
      1       35          -0.001920393    0.000000028   -0.000003963
      2        6          -0.005504248    0.000003626    0.000015181
      3        7           0.003677752   -0.002104622   -0.000011594
      4        6          -0.001360847    0.001930373    0.000013837
      5        6           0.001546359    0.000016523   -0.000006250
      6        6          -0.001383643   -0.001951105    0.000013721
      7        7           0.003697849    0.002105552   -0.000009747
      8        1           0.000480416    0.000164442   -0.000003708
      9        1           0.000285428   -0.000002041   -0.000002791
     10        1           0.000481328   -0.000162776   -0.000004687
 -------------------------------------------------------------------
 Cartesian Forces:  Max     0.005504248 RMS     0.001676672
 Leave Link  716 at Tue Sep 17 09:43:15 2024, MaxMem=  1342177280 cpu:               0.0 elap:               0.0
 (Enter /groups/ReismanLab/Software/Gaussian16_RevC/Linux_Binary_AVX2-enabled-CPU/g16/l103.exe)

 GradGradGradGradGradGradGradGradGradGradGradGradGradGradGradGradGradGrad
 Berny optimization.
 Using GEDIIS/GDIIS optimizer.
 FormGI is forming the generalized inverse of G from B-inverse, IUseBI=4.
 Internal  Forces:  Max     0.004208299 RMS     0.001144130
 Search for a local minimum.
 Step number   2 out of a maximum of   50
 All quantities printed in internal units (Hartrees-Bohrs-Radians)
 RMS Force = .11441D-02 SwitMx=.10000D-02 MixMth= 1
 Mixed Optimization -- RFO/linear search
 Update second derivatives using D2CorX and points    1    2
 DE= -1.40D-03 DEPred=-1.52D-03 R= 9.22D-01
 TightC=F SS=  1.41D+00  RLast= 9.19D-02 DXNew= 5.0454D-01 2.7566D-01
 Trust test= 9.22D-01 RLast= 9.19D-02 DXMaxT set to 3.00D-01
 ITU=  1  0
 Use linear search instead of GDIIS.
     Eigenvalues ---    0.02237   0.02307   0.02370   0.02410   0.02621
     Eigenvalues ---    0.02787   0.02813   0.16000   0.16000   0.16071
     Eigenvalues ---    0.19321   0.22004   0.23179   0.24903   0.25000
     Eigenvalues ---    0.35770   0.35971   0.36608   0.45048   0.46565
     Eigenvalues ---    0.57253   0.60311   0.62911   0.63345
 RFO step:  Lambda=-1.77396181D-04 EMin= 2.23680459D-02
 Quartic linear search produced a step of -0.05253.
 Iteration  1 RMS(Cart)=  0.00472330 RMS(Int)=  0.00001810
 Iteration  2 RMS(Cart)=  0.00001945 RMS(Int)=  0.00000506
 Iteration  3 RMS(Cart)=  0.00000000 RMS(Int)=  0.00000506
 ITry= 1 IFail=0 DXMaxC= 1.96D-02 DCOld= 1.00D+10 DXMaxT= 3.00D-01 DXLimC= 3.00D+00 Rises=F
 Variable       Old X    -DE/DX   Delta X   Delta X   Delta X     New X
                                 (Linear)    (Quad)   (Total)
    R1        3.61389  -0.00192  -0.00317  -0.00295  -0.00611   3.60777
    R2        2.50983  -0.00103  -0.00128   0.00117  -0.00011   2.50972
    R3        2.50986  -0.00103  -0.00129   0.00116  -0.00011   2.50975
    R4        2.52852  -0.00002  -0.00153   0.00319   0.00166   2.53017
    R5        2.63464  -0.00105  -0.00054  -0.00097  -0.00152   2.63312
    R6        2.05600  -0.00036  -0.00061   0.00031  -0.00030   2.05570
    R7        2.63470  -0.00107  -0.00053  -0.00102  -0.00156   2.63314
    R8        2.04803  -0.00029  -0.00071   0.00074   0.00003   2.04806
    R9        2.52846  -0.00001  -0.00153   0.00322   0.00168   2.53014
   R10        2.05600  -0.00036  -0.00061   0.00032  -0.00029   2.05570
    A1        2.02815  -0.00210   0.00007  -0.00809  -0.00802   2.02013
    A2        2.02814  -0.00210   0.00007  -0.00809  -0.00803   2.02012
    A3        2.22689   0.00421  -0.00014   0.01618   0.01605   2.24294
    A4        2.02168  -0.00279   0.00041  -0.01154  -0.01112   2.01055
    A5        2.13488   0.00030  -0.00040   0.00195   0.00155   2.13644
    A6        2.02965  -0.00051  -0.00061  -0.00150  -0.00210   2.02755
    A7        2.11865   0.00022   0.00100  -0.00045   0.00055   2.11920
    A8        2.02635   0.00079   0.00012   0.00299   0.00310   2.02945
    A9        2.12844  -0.00040  -0.00006  -0.00151  -0.00156   2.12688
   A10        2.12839  -0.00039  -0.00006  -0.00148  -0.00153   2.12686
   A11        2.13487   0.00030  -0.00040   0.00197   0.00157   2.13644
   A12        2.11863   0.00022   0.00100  -0.00045   0.00055   2.11918
   A13        2.02968  -0.00052  -0.00061  -0.00152  -0.00212   2.02756
   A14        2.02169  -0.00280   0.00041  -0.01156  -0.01114   2.01055
    D1        3.14151   0.00001   0.00002   0.00017   0.00018  -3.14149
    D2        0.00010  -0.00001  -0.00000  -0.00018  -0.00018  -0.00009
    D3       -3.14149  -0.00001  -0.00001  -0.00019  -0.00020   3.14149
    D4       -0.00008   0.00000   0.00001   0.00016   0.00017   0.00009
    D5       -0.00010   0.00000   0.00000   0.00016   0.00016   0.00006
    D6       -3.14154  -0.00000  -0.00002  -0.00004  -0.00007   3.14158
    D7        0.00010  -0.00000  -0.00001  -0.00014  -0.00014  -0.00004
    D8       -3.14146  -0.00000  -0.00001  -0.00017  -0.00018   3.14154
    D9        3.14153   0.00000   0.00002   0.00008   0.00010  -3.14156
   D10       -0.00003   0.00000   0.00001   0.00005   0.00006   0.00003
   D11       -0.00008   0.00000   0.00001   0.00012   0.00013   0.00004
   D12       -3.14151  -0.00000  -0.00002  -0.00011  -0.00012   3.14156
   D13        3.14148   0.00000   0.00002   0.00014   0.00016  -3.14154
   D14        0.00005  -0.00000  -0.00001  -0.00008  -0.00008  -0.00003
   D15        0.00007  -0.00000  -0.00001  -0.00012  -0.00013  -0.00006
   D16        3.14150   0.00000   0.00002   0.00009   0.00010  -3.14158
         Item               Value     Threshold  Converged?
 Maximum Force            0.004208     0.000450     NO 
 RMS     Force            0.001144     0.000300     NO 
 Maximum Displacement     0.019576     0.001800     NO 
 RMS     Displacement     0.004726     0.001200     NO 
 Predicted change in Energy=-9.300249D-05
 Lowest energy point so far.  Saving SCF results.
 GradGradGradGradGradGradGradGradGradGradGradGradGradGradGradGradGradGrad

 Leave Link  103 at Tue Sep 17 09:43:15 2024, MaxMem=  1342177280 cpu:               0.1 elap:               0.0
 (Enter /groups/ReismanLab/Software/Gaussian16_RevC/Linux_Binary_AVX2-enabled-CPU/g16/l202.exe)
                          Input orientation:                          
 ---------------------------------------------------------------------
 Center     Atomic      Atomic             Coordinates (Angstroms)
 Number     Number       Type             X           Y           Z
 ---------------------------------------------------------------------
      1         35           0        1.615279   -0.000009    0.000109
      2          6           0       -0.293872   -0.000009    0.000115
      3          7           0       -0.870745   -1.196268   -0.000009
      4          6           0       -2.209593   -1.183449   -0.000125
      5          6           0       -2.945088    0.000008   -0.000187
      6          6           0       -2.209569    1.183463   -0.000066
      7          7           0       -0.870737    1.196268    0.000050
      8          1           0       -2.698690   -2.155126   -0.000243
      9          1           0       -4.028875    0.000025   -0.000326
     10          1           0       -2.698670    2.155140   -0.000135
 ---------------------------------------------------------------------
                    Distance matrix (angstroms):
                    1          2          3          4          5
     1  Br   0.000000
     2  C    1.909151   0.000000
     3  N    2.758867   1.328088   0.000000
     4  C    4.003770   2.251781   1.338910   0.000000
     5  C    4.560367   2.651216   2.394572   1.393385   0.000000
     6  C    4.003756   2.251776   2.730488   2.366911   1.393397
     7  N    2.758868   1.328100   2.392535   2.730492   2.394571
     8  H    4.822329   3.229191   2.064169   1.087829   2.169173
     9  H    5.644154   3.735003   3.377115   2.170345   1.083787
    10  H    4.822325   3.229197   3.817492   3.374221   2.169174
                    6          7          8          9         10
     6  C    0.000000
     7  N    1.338893   0.000000
     8  H    3.374228   3.817493   0.000000
     9  H    2.170345   3.377104   2.532601   0.000000
    10  H    1.087831   2.064164   4.310265   2.532580   0.000000
 Stoichiometry    C4H3BrN2
 Framework group  C1[X(C4H3BrN2)]
 Deg. of freedom    24
 Full point group                 C1      NOp   1
 RotChk:  IX=0 Diff= 1.09D-06
 Largest Abelian subgroup         C1      NOp   1
 Largest concise Abelian subgroup C1      NOp   1
                         Standard orientation:                         
 ---------------------------------------------------------------------
 Center     Atomic      Atomic             Coordinates (Angstroms)
 Number     Number       Type             X           Y           Z
 ---------------------------------------------------------------------
      1         35           0       -1.760418   -0.000000   -0.000085
      2          6           0        0.148733   -0.000007   -0.000091
      3          7           0        0.725601   -1.196268    0.000033
      4          6           0        2.064449   -1.183453    0.000149
      5          6           0        2.799949    0.000000    0.000211
      6          6           0        2.064433    1.183458    0.000090
      7          7           0        0.725602    1.196268   -0.000026
      8          1           0        2.553543   -2.155132    0.000267
      9          1           0        3.883736    0.000014    0.000350
     10          1           0        2.553538    2.155133    0.000160
 ---------------------------------------------------------------------
 Rotational constants (GHZ):           6.0849539           1.0518757           0.8968429
 Leave Link  202 at Tue Sep 17 09:43:15 2024, MaxMem=  1342177280 cpu:               0.0 elap:               0.0
 (Enter /groups/ReismanLab/Software/Gaussian16_RevC/Linux_Binary_AVX2-enabled-CPU/g16/l301.exe)
 Standard basis: 6-31G(d,p) (6D, 7F)
 Ernie: Thresh=  0.10000D-02 Tol=  0.10000D-05 Strict=F.
 There are   135 symmetry adapted cartesian basis functions of A   symmetry.
 There are   135 symmetry adapted basis functions of A   symmetry.
   135 basis functions,   272 primitive gaussians,   135 cartesian basis functions
    38 alpha electrons       38 beta electrons
       nuclear repulsion energy       442.4676481092 Hartrees.
 IExCor=  402 DFT=T Ex+Corr=B3LYP ExCW=0 ScaHFX=  0.200000
 ScaDFX=  0.800000  0.720000  1.000000  0.810000 ScalE2=  1.000000  1.000000
 IRadAn=      5 IRanWt=     -1 IRanGd=            0 ICorTp=0 IEmpDi=141
 NAtoms=   10 NActive=   10 NUniq=   10 SFac= 1.00D+00 NAtFMM=   60 NAOKFM=F Big=F
 Integral buffers will be    131072 words long.
 Raffenetti 2 integral format.
 Two-electron integral symmetry is turned on.
 R6Disp:  Grimme-D3(BJ) Dispersion energy=       -0.0193487571 Hartrees.
 Nuclear repulsion after empirical dispersion term =      442.4482993521 Hartrees.
 Leave Link  301 at Tue Sep 17 09:43:16 2024, MaxMem=  1342177280 cpu:               0.1 elap:               0.0
 (Enter /groups/ReismanLab/Software/Gaussian16_RevC/Linux_Binary_AVX2-enabled-CPU/g16/l302.exe)
 NPDir=0 NMtPBC=     1 NCelOv=     1 NCel=       1 NClECP=     1 NCelD=      1
         NCelK=      1 NCelE2=     1 NClLst=     1 CellRange=     0.0.
 One-electron integrals computed using PRISM.
 One-electron integral symmetry used in STVInt
 NBasis=   135 RedAO= T EigKep=  7.55D-04  NBF=   135
 NBsUse=   135 1.00D-06 EigRej= -1.00D+00 NBFU=   135
 Precomputing XC quadrature grid using
 IXCGrd= 4 IRadAn=           5 IRanWt=          -1 IRanGd=           0 AccXCQ= 0.00D+00.
 Generated NRdTot=       0 NPtTot=           0 NUsed=           0 NTot=          32
 NSgBfM=   135   135   135   135   135 MxSgAt=    10 MxSgA2=    10.
 Leave Link  302 at Tue Sep 17 09:43:16 2024, MaxMem=  1342177280 cpu:               0.5 elap:               0.1
 (Enter /groups/ReismanLab/Software/Gaussian16_RevC/Linux_Binary_AVX2-enabled-CPU/g16/l303.exe)
 DipDrv:  MaxL=1.
 Leave Link  303 at Tue Sep 17 09:43:16 2024, MaxMem=  1342177280 cpu:               0.1 elap:               0.0
 (Enter /groups/ReismanLab/Software/Gaussian16_RevC/Linux_Binary_AVX2-enabled-CPU/g16/l401.exe)
 Initial guess from the checkpoint file:  "smiles_00042_conf_0.chk"
 B after Tr=    -0.000000    0.000000    0.000000
         Rot=    1.000000    0.000002   -0.000030   -0.000000 Ang=   0.00 deg.
 Guess basis will be translated and rotated to current coordinates.
 JPrj=2 DoOrth=T DoCkMO=T.
 Leave Link  401 at Tue Sep 17 09:43:16 2024, MaxMem=  1342177280 cpu:               0.1 elap:               0.1
 (Enter /groups/ReismanLab/Software/Gaussian16_RevC/Linux_Binary_AVX2-enabled-CPU/g16/l502.exe)
 Keep R1 ints in memory in canonical form, NReq=49821054.
 FoFCou: FMM=F IPFlag=           0 FMFlag=           0 FMFlg1=           0
         NFxFlg=           0 DoJE=F BraDBF=F KetDBF=F FulRan=T
         wScrn=  0.000000 ICntrl=       600 IOpCl=  0 I1Cent=           0 NGrid=           0
         NMat0=    1 NMatS0=   9180 NMatT0=    0 NMatD0=    1 NMtDS0=    0 NMtDT0=    0
 Symmetry not used in FoFCou.
 Two-electron integral symmetry not used.
 Closed shell SCF:
 Using DIIS extrapolation, IDIIS=  1040.
 NGot=  1342177280 LenX=  1299997284 LenY=  1299978618
 Requested convergence on RMS density matrix=1.00D-08 within  32 cycles.
 Requested convergence on MAX density matrix=1.00D-06.
 Requested convergence on             energy=1.00D-06.
 No special actions if energy rises.

 Cycle   1  Pass 1  IDiag  1:
 E= -2835.45018675755    
 DIIS: error= 9.26D-04 at cycle   1 NSaved=   1.
 NSaved= 1 IEnMin= 1 EnMin= -2835.45018675755     IErMin= 1 ErrMin= 9.26D-04
 ErrMax= 9.26D-04  0.00D+00 EMaxC= 1.00D-01 BMatC= 1.23D-04 BMatP= 1.23D-04
 IDIUse=3 WtCom= 9.91D-01 WtEn= 9.26D-03
 Coeff-Com:  0.100D+01
 Coeff-En:   0.100D+01
 Coeff:      0.100D+01
 Gap=     1.519 Goal=   None    Shift=    0.000
 RMSDP=1.08D-04 MaxDP=3.00D-03              OVMax= 2.37D-03

 Cycle   2  Pass 1  IDiag  1:
 E= -2835.45024100727     Delta-E=       -0.000054249721 Rises=F Damp=F
 DIIS: error= 9.76D-05 at cycle   2 NSaved=   2.
 NSaved= 2 IEnMin= 2 EnMin= -2835.45024100727     IErMin= 2 ErrMin= 9.76D-05
 ErrMax= 9.76D-05  0.00D+00 EMaxC= 1.00D-01 BMatC= 1.21D-06 BMatP= 1.23D-04
 IDIUse=1 WtCom= 1.00D+00 WtEn= 0.00D+00
 Coeff-Com:  0.648D-03 0.999D+00
 Coeff:      0.648D-03 0.999D+00
 Gap=     0.208 Goal=   None    Shift=    0.000
 RMSDP=1.85D-05 MaxDP=5.44D-04 DE=-5.42D-05 OVMax= 6.26D-04

 Cycle   3  Pass 1  IDiag  1:
 E= -2835.45024009266     Delta-E=        0.000000914617 Rises=F Damp=F
 DIIS: error= 1.50D-04 at cycle   3 NSaved=   3.
 NSaved= 3 IEnMin= 2 EnMin= -2835.45024100727     IErMin= 2 ErrMin= 9.76D-05
 ErrMax= 1.50D-04  0.00D+00 EMaxC= 1.00D-01 BMatC= 2.41D-06 BMatP= 1.21D-06
 IDIUse=3 WtCom= 4.50D-01 WtEn= 5.50D-01
 Coeff-Com: -0.867D-02 0.599D+00 0.410D+00
 Coeff-En:   0.000D+00 0.628D+00 0.372D+00
 Coeff:     -0.390D-02 0.615D+00 0.389D+00
 Gap=     0.208 Goal=   None    Shift=    0.000
 RMSDP=1.04D-05 MaxDP=3.57D-04 DE= 9.15D-07 OVMax= 4.25D-04

 Cycle   4  Pass 1  IDiag  1:
 E= -2835.45024233739     Delta-E=       -0.000002244734 Rises=F Damp=F
 DIIS: error= 2.33D-05 at cycle   4 NSaved=   4.
 NSaved= 4 IEnMin= 4 EnMin= -2835.45024233739     IErMin= 4 ErrMin= 2.33D-05
 ErrMax= 2.33D-05  0.00D+00 EMaxC= 1.00D-01 BMatC= 3.59D-08 BMatP= 1.21D-06
 IDIUse=1 WtCom= 1.00D+00 WtEn= 0.00D+00
 Coeff-Com: -0.300D-02 0.137D+00 0.131D+00 0.735D+00
 Coeff:     -0.300D-02 0.137D+00 0.131D+00 0.735D+00
 Gap=     0.208 Goal=   None    Shift=    0.000
 RMSDP=2.29D-06 MaxDP=7.13D-05 DE=-2.24D-06 OVMax= 1.21D-04

 Cycle   5  Pass 1  IDiag  1:
 E= -2835.45024234939     Delta-E=       -0.000000012001 Rises=F Damp=F
 DIIS: error= 1.81D-05 at cycle   5 NSaved=   5.
 NSaved= 5 IEnMin= 5 EnMin= -2835.45024234939     IErMin= 5 ErrMin= 1.81D-05
 ErrMax= 1.81D-05  0.00D+00 EMaxC= 1.00D-01 BMatC= 2.63D-08 BMatP= 3.59D-08
 IDIUse=1 WtCom= 1.00D+00 WtEn= 0.00D+00
 Coeff-Com: -0.108D-02 0.259D-01 0.409D-01 0.483D+00 0.451D+00
 Coeff:     -0.108D-02 0.259D-01 0.409D-01 0.483D+00 0.451D+00
 Gap=     0.208 Goal=   None    Shift=    0.000
 RMSDP=1.40D-06 MaxDP=3.56D-05 DE=-1.20D-08 OVMax= 6.62D-05

 Cycle   6  Pass 1  IDiag  1:
 E= -2835.45024237605     Delta-E=       -0.000000026654 Rises=F Damp=F
 DIIS: error= 3.54D-06 at cycle   6 NSaved=   6.
 NSaved= 6 IEnMin= 6 EnMin= -2835.45024237605     IErMin= 6 ErrMin= 3.54D-06
 ErrMax= 3.54D-06  0.00D+00 EMaxC= 1.00D-01 BMatC= 9.35D-10 BMatP= 2.63D-08
 IDIUse=1 WtCom= 1.00D+00 WtEn= 0.00D+00
 Coeff-Com: -0.657D-04-0.121D-01-0.383D-02 0.120D+00 0.200D+00 0.696D+00
 Coeff:     -0.657D-04-0.121D-01-0.383D-02 0.120D+00 0.200D+00 0.696D+00
 Gap=     0.208 Goal=   None    Shift=    0.000
 RMSDP=2.56D-07 MaxDP=5.63D-06 DE=-2.67D-08 OVMax= 1.39D-05

 Cycle   7  Pass 1  IDiag  1:
 E= -2835.45024237678     Delta-E=       -0.000000000739 Rises=F Damp=F
 DIIS: error= 1.34D-06 at cycle   7 NSaved=   7.
 NSaved= 7 IEnMin= 7 EnMin= -2835.45024237678     IErMin= 7 ErrMin= 1.34D-06
 ErrMax= 1.34D-06  0.00D+00 EMaxC= 1.00D-01 BMatC= 1.74D-10 BMatP= 9.35D-10
 IDIUse=1 WtCom= 1.00D+00 WtEn= 0.00D+00
 Coeff-Com:  0.243D-04-0.730D-02-0.429D-02 0.385D-01 0.814D-01 0.391D+00
 Coeff-Com:  0.501D+00
 Coeff:      0.243D-04-0.730D-02-0.429D-02 0.385D-01 0.814D-01 0.391D+00
 Coeff:      0.501D+00
 Gap=     0.208 Goal=   None    Shift=    0.000
 RMSDP=8.65D-08 MaxDP=2.56D-06 DE=-7.39D-10 OVMax= 5.71D-06

 Cycle   8  Pass 1  IDiag  1:
 E= -2835.45024237692     Delta-E=       -0.000000000140 Rises=F Damp=F
 DIIS: error= 1.73D-07 at cycle   8 NSaved=   8.
 NSaved= 8 IEnMin= 8 EnMin= -2835.45024237692     IErMin= 8 ErrMin= 1.73D-07
 ErrMax= 1.73D-07  0.00D+00 EMaxC= 1.00D-01 BMatC= 6.60D-12 BMatP= 1.74D-10
 IDIUse=1 WtCom= 1.00D+00 WtEn= 0.00D+00
 Coeff-Com:  0.151D-04-0.178D-02-0.156D-02 0.478D-02 0.112D-01 0.871D-01
 Coeff-Com:  0.211D+00 0.689D+00
 Coeff:      0.151D-04-0.178D-02-0.156D-02 0.478D-02 0.112D-01 0.871D-01
 Coeff:      0.211D+00 0.689D+00
 Gap=     0.208 Goal=   None    Shift=    0.000
 RMSDP=1.76D-08 MaxDP=3.64D-07 DE=-1.40D-10 OVMax= 5.23D-07

 Cycle   9  Pass 1  IDiag  1:
 E= -2835.45024237694     Delta-E=       -0.000000000010 Rises=F Damp=F
 DIIS: error= 2.75D-08 at cycle   9 NSaved=   9.
 NSaved= 9 IEnMin= 9 EnMin= -2835.45024237694     IErMin= 9 ErrMin= 2.75D-08
 ErrMax= 2.75D-08  0.00D+00 EMaxC= 1.00D-01 BMatC= 1.94D-13 BMatP= 6.60D-12
 IDIUse=1 WtCom= 1.00D+00 WtEn= 0.00D+00
 Coeff-Com:  0.148D-05 0.175D-03-0.578D-04-0.148D-02-0.392D-02-0.885D-02
 Coeff-Com:  0.296D-01 0.136D+00 0.849D+00
 Coeff:      0.148D-05 0.175D-03-0.578D-04-0.148D-02-0.392D-02-0.885D-02
 Coeff:      0.296D-01 0.136D+00 0.849D+00
 Gap=     0.208 Goal=   None    Shift=    0.000
 RMSDP=4.12D-09 MaxDP=8.19D-08 DE=-1.05D-11 OVMax= 1.10D-07

 SCF Done:  E(RB3LYP) =  -2835.45024238     A.U. after    9 cycles
            NFock=  9  Conv=0.41D-08     -V/T= 2.0064
 KE= 2.817313277871D+03 PE=-7.631092842098D+03 EE= 1.535881022498D+03
 Leave Link  502 at Tue Sep 17 09:43:19 2024, MaxMem=  1342177280 cpu:              18.8 elap:               2.9
 (Enter /groups/ReismanLab/Software/Gaussian16_RevC/Linux_Binary_AVX2-enabled-CPU/g16/l508.exe)
 QCSCF skips out because SCF is already converged.
 Leave Link  508 at Tue Sep 17 09:43:19 2024, MaxMem=  1342177280 cpu:               0.0 elap:               0.0
 (Enter /groups/ReismanLab/Software/Gaussian16_RevC/Linux_Binary_AVX2-enabled-CPU/g16/l701.exe)
 ... and contract with generalized density number  0.
 Compute integral first derivatives.
[...]
 (Enter /groups/ReismanLab/Software/Gaussian16_RevC/Linux_Binary_AVX2-enabled-CPU/g16/l401.exe)
 Initial guess from the checkpoint file:  "smiles_00042_conf_0.chk"
 B after Tr=    -0.000000    0.000000    0.000000
         Rot=    1.000000   -0.000000    0.000000    0.000000 Ang=   0.00 deg.
 Guess basis will be translated and rotated to current coordinates.
 JPrj=2 DoOrth=T DoCkMO=T.
 Leave Link  401 at Tue Sep 17 09:48:13 2024, MaxMem=  1342177280 cpu:               0.1 elap:               0.1
 (Enter /groups/ReismanLab/Software/Gaussian16_RevC/Linux_Binary_AVX2-enabled-CPU/g16/l502.exe)
 Keep R1 ints in memory in canonical form, NReq=520315261.
 FoFCou: FMM=F IPFlag=           0 FMFlag=           0 FMFlg1=           0
         NFxFlg=           0 DoJE=F BraDBF=F KetDBF=F FulRan=T
         wScrn=  0.000000 ICntrl=       600 IOpCl=  0 I1Cent=           0 NGrid=           0
         NMat0=    1 NMatS0=  31878 NMatT0=    0 NMatD0=    1 NMtDS0=    0 NMtDT0=    0
 Symmetry not used in FoFCou.
 Two-electron integral symmetry not used.
 Closed shell SCF:
 Using DIIS extrapolation, IDIIS=  1040.
 NGot=  1342177280 LenX=   833886357 LenY=   833802395
 Requested convergence on RMS density matrix=1.00D-08 within  32 cycles.
 Requested convergence on MAX density matrix=1.00D-06.
 Requested convergence on             energy=1.00D-06.
 No special actions if energy rises.

 Cycle   1  Pass 1  IDiag  1:
 Inv3:  Mode=1 IEnd=     3844272.
 Iteration    1 A*A^-1 deviation from unit magnitude is 2.89D-15 for    244.
 Iteration    1 A*A^-1 deviation from orthogonality  is 1.72D-15 for    565    224.
 Iteration    1 A^-1*A deviation from unit magnitude is 2.89D-15 for    244.
 Iteration    1 A^-1*A deviation from orthogonality  is 1.80D-15 for    285     19.
 E= -2837.91406518851    
 DIIS: error= 3.84D-08 at cycle   1 NSaved=   1.
 NSaved= 1 IEnMin= 1 EnMin= -2837.91406518851     IErMin= 1 ErrMin= 3.84D-08
 ErrMax= 3.84D-08  0.00D+00 EMaxC= 1.00D-01 BMatC= 2.82D-13 BMatP= 2.82D-13
 IDIUse=1 WtCom= 1.00D+00 WtEn= 0.00D+00
 Coeff-Com:  0.100D+01
 Coeff:      0.100D+01
 Gap=     0.302 Goal=   None    Shift=    0.000
 RMSDP=2.87D-09 MaxDP=1.47D-07              OVMax= 3.88D-07

 Error on total polarization charges =  0.01329
 SCF Done:  E(RM062X) =  -2837.91406519     A.U. after    1 cycles
            NFock=  1  Conv=0.29D-08     -V/T= 2.0017
 KE= 2.833216479567D+03 PE=-7.651320205363D+03 EE= 1.537769304522D+03
 SMD-CDS (non-electrostatic) energy       (kcal/mol) =      -1.86
 (included in total energy above)
 Leave Link  502 at Tue Sep 17 09:48:38 2024, MaxMem=  1342177280 cpu:              25.1 elap:              25.2
 (Enter /groups/ReismanLab/Software/Gaussian16_RevC/Linux_Binary_AVX2-enabled-CPU/g16/l508.exe)
 QCSCF skips out because SCF is already converged.
 Leave Link  508 at Tue Sep 17 09:48:38 2024, MaxMem=  1342177280 cpu:               0.0 elap:               0.0
 (Enter /groups/ReismanLab/Software/Gaussian16_RevC/Linux_Binary_AVX2-enabled-CPU/g16/l801.exe)
 DoSCS=F DFT=T ScalE2(SS,OS)=  1.000000  1.000000
 Range of M.O.s used for correlation:     1   252
 NBasis=   252 NAE=    38 NBE=    38 NFC=     0 NFV=     0
 NROrb=    252 NOA=    38 NOB=    38 NVA=   214 NVB=   214

 **** Warning!!: The largest alpha MO coefficient is  0.22642396D+02

 Leave Link  801 at Tue Sep 17 09:48:38 2024, MaxMem=  1342177280 cpu:               0.0 elap:               0.0
 (Enter /groups/ReismanLab/Software/Gaussian16_RevC/Linux_Binary_AVX2-enabled-CPU/g16/l1002.exe)
 Minotr:  Closed shell wavefunction.
 NEqPCM:  Using equilibrium solvation (IEInf=0, Eps=   2.2099, EpsInf=   2.0232)
          Direct CPHF calculation.
          Differentiating once with respect to magnetic field using GIAOs.
          Electric field/nuclear overlap derivatives assumed to be zero.
          Requested convergence is 1.0D-08 RMS, and 1.0D-07 maximum.
          Secondary convergence is 1.0D-12 RMS, and 1.0D-12 maximum.
          NewPWx=T KeepS1=F KeepF1=F KeepIn=T MapXYZ=F SortEE=F KeepMc=T.
         2967 words used for storage of precomputed grid.
 Keep R3 ints in memory in canonical form, NReq=520319759.
 FoFCou: FMM=F IPFlag=           0 FMFlag=           0 FMFlg1=           0
         NFxFlg=           0 DoJE=F BraDBF=F KetDBF=F FulRan=T
         wScrn=  0.000000 ICntrl=       600 IOpCl=  0 I1Cent=           0 NGrid=           0
         NMat0=    1 NMatS0=  31878 NMatT0=    0 NMatD0=    1 NMtDS0=    0 NMtDT0=    0
 Symmetry not used in FoFCou.
 Two-electron integral symmetry not used.
          MDV=    1342177280 using IRadAn=       1.
          Solving linear equations simultaneously, MaxMat=       0.
   1 Symmetry operations used in ECPInt.
 ECPInt:  NShTT=    4465 NPrTT=   15960 LenC2=    4466 LenP2D=   15960.
 LDataN:  DoStor=T MaxTD1= 7 Len=  274
 FoFJK:  IHMeth= 1 ICntrl=    6127 DoSepK=F KAlg= 0 I1Cent=           0 FoldK=F
 IRaf=         1 NMat=       1 IRICut=       1 DoRegI=T DoRafI=F ISym2E= 0 IDoP0=0 IntGTp=1.
          There are     3 degrees of freedom in the 1st order CPHF.  IDoFFX=0 NUNeed=     3.
      3 vectors produced by pass  0 Test12= 2.71D-13 3.33D-08 XBig12= 6.85D+00 9.79D-01.
 AX will form     3 AO Fock derivatives at one time.
      3 vectors produced by pass  1 Test12= 2.71D-13 3.33D-08 XBig12= 6.19D-02 1.19D-01.
      3 vectors produced by pass  2 Test12= 2.71D-13 3.33D-08 XBig12= 8.55D-04 1.31D-02.
      3 vectors produced by pass  3 Test12= 2.71D-13 3.33D-08 XBig12= 1.07D-05 1.42D-03.
      3 vectors produced by pass  4 Test12= 2.71D-13 3.33D-08 XBig12= 1.52D-07 2.24D-04.
      3 vectors produced by pass  5 Test12= 2.71D-13 3.33D-08 XBig12= 3.07D-09 2.24D-05.
      3 vectors produced by pass  6 Test12= 2.71D-13 3.33D-08 XBig12= 3.23D-11 1.91D-06.
      3 vectors produced by pass  7 Test12= 2.71D-13 3.33D-08 XBig12= 3.13D-13 2.40D-07.
 InvSVY:  IOpt=1 It=  1 EMax= 4.44D-16
 Solved reduced A of dimension    24 with     3 vectors.
 Calculating GIAO nuclear magnetic shielding tensors.
 SCF GIAO Magnetic shielding tensor (ppm):
      1  Br   Isotropic =  1815.2456   Anisotropy =  1638.1422
   XX=  2907.3403   YX=     0.0050   ZX=     0.3634
   XY=    -0.0019   YY=  1357.4685   ZY=    -0.0046
   XZ=     0.3143   YZ=    -0.0049   ZZ=  1180.9280
   Eigenvalues:  1180.9279  1357.4685  2907.3404
      2  C    Isotropic =   -12.2060   Anisotropy =    99.2298
   XX=  -110.9564   YX=    -0.0031   ZX=    -0.0195
   XY=    -0.0007   YY=    20.3912   ZY=     0.0008
   XZ=    -0.0151   YZ=     0.0008   ZZ=    53.9472
   Eigenvalues:  -110.9564    20.3912    53.9472
      3  N    Isotropic =  -120.1874   Anisotropy =   526.7057
   XX=  -308.8911   YX=    91.1080   ZX=    -0.0389
   XY=    66.3244   YY=  -282.6208   ZY=     0.0025
   XZ=    -0.0598   YZ=    -0.0092   ZZ=   230.9497
   Eigenvalues:  -375.5606  -215.9514   230.9497
      4  C    Isotropic =    -0.6777   Anisotropy =   222.9794
   XX=   -67.0137   YX=    67.9225   ZX=    -0.0123
   XY=    48.6648   YY=   -82.9947   ZY=     0.0043
   XZ=    -0.0102   YZ=     0.0007   ZZ=   147.9752
   Eigenvalues:  -133.8429   -16.1654   147.9752
      5  C    Isotropic =    44.4664   Anisotropy =   205.0475
   XX=   -93.4818   YX=     0.0004   ZX=    -0.0137
   XY=     0.0008   YY=    45.7162   ZY=     0.0033
   XZ=    -0.0061   YZ=     0.0033   ZZ=   181.1647
   Eigenvalues:   -93.4818    45.7162   181.1647
      6  C    Isotropic =    -0.6781   Anisotropy =   222.9802
   XX=   -67.0128   YX=   -67.9227   ZX=    -0.0091
   XY=   -48.6638   YY=   -82.9970   ZY=     0.0071
   XZ=    -0.0077   YZ=     0.0108   ZZ=   147.9753
   Eigenvalues:  -133.8434   -16.1663   147.9753
      7  N    Isotropic =  -120.1895   Anisotropy =   526.7053
   XX=  -308.8912   YX=   -91.1115   ZX=    -0.0346
   XY=   -66.3253   YY=  -282.6246   ZY=     0.0231
   XZ=    -0.0564   YZ=     0.0349   ZZ=   230.9474
   Eigenvalues:  -375.5644  -215.9514   230.9474
      8  H    Isotropic =    22.3913   Anisotropy =     7.0850
   XX=    24.9536   YX=     2.9812   ZX=     0.0003
   XY=     3.1573   YY=    22.7554   ZY=     0.0000
   XZ=     0.0003   YZ=     0.0001   ZZ=    19.4649
   Eigenvalues:    19.4649    20.5943    27.1146
      9  H    Isotropic =    23.8645   Anisotropy =     5.8405
   XX=    21.0800   YX=     0.0000   ZX=    -0.0001
   XY=    -0.0000   YY=    27.7581   ZY=    -0.0001
   XZ=     0.0003   YZ=    -0.0001   ZZ=    22.7552
   Eigenvalues:    21.0800    22.7552    27.7581
     10  H    Isotropic =    22.3912   Anisotropy =     7.0850
   XX=    24.9534   YX=    -2.9812   ZX=     0.0005
   XY=    -3.1574   YY=    22.7554   ZY=    -0.0002
   XZ=     0.0004   YZ=    -0.0003   ZZ=    19.4649
   Eigenvalues:    19.4649    20.5943    27.1146
 End of Minotr F.D. properties file   721 does not exist.
 End of Minotr F.D. properties file   722 does not exist.
 End of Minotr F.D. properties file   788 does not exist.
 Leave Link 1002 at Tue Sep 17 09:50:32 2024, MaxMem=  1342177280 cpu:             113.2 elap:             113.5
 (Enter /groups/ReismanLab/Software/Gaussian16_RevC/Linux_Binary_AVX2-enabled-CPU/g16/l601.exe)
 Copying SCF densities to generalized density rwf, IOpCl= 0 IROHF=0.

 **********************************************************************

            Population analysis using the SCF Density.

 **********************************************************************

 Orbital symmetries:
       Occupied  (A) (A) (A) (A) (A) (A) (A) (A) (A) (A) (A) (A)
                 (A) (A) (A) (A) (A) (A) (A) (A) (A) (A) (A) (A)
                 (A) (A) (A) (A) (A) (A) (A) (A) (A) (A) (A) (A)
                 (A) (A)
       Virtual   (A) (A) (A) (A) (A) (A) (A) (A) (A) (A) (A) (A)
                 (A) (A) (A) (A) (A) (A) (A) (A) (A) (A) (A) (A)
                 (A) (A) (A) (A) (A) (A) (A) (A) (A) (A) (A) (A)
                 (A) (A) (A) (A) (A) (A) (A) (A) (A) (A) (A) (A)
                 (A) (A) (A) (A) (A) (A) (A) (A) (A) (A) (A) (A)
                 (A) (A) (A) (A) (A) (A) (A) (A) (A) (A) (A) (A)
                 (A) (A) (A) (A) (A) (A) (A) (A) (A) (A) (A) (A)
                 (A) (A) (A) (A) (A) (A) (A) (A) (A) (A) (A) (A)
                 (A) (A) (A) (A) (A) (A) (A) (A) (A) (A) (A) (A)
                 (A) (A) (A) (A) (A) (A) (A) (A) (A) (A) (A) (A)
                 (A) (A) (A) (A) (A) (A) (A) (A) (A) (A) (A) (A)
                 (A) (A) (A) (A) (A) (A) (A) (A) (A) (A) (A) (A)
                 (A) (A) (A) (A) (A) (A) (A) (A) (A) (A) (A) (A)
                 (A) (A) (A) (A) (A) (A) (A) (A) (A) (A) (A) (A)
                 (A) (A) (A) (A) (A) (A) (A) (A) (A) (A) (A) (A)
                 (A) (A) (A) (A) (A) (A) (A) (A) (A) (A) (A) (A)
                 (A) (A) (A) (A) (A) (A) (A) (A) (A) (A) (A) (A)
                 (A) (A) (A) (A) (A) (A) (A) (A) (A) (A)
 The electronic state is 1-A.
 Alpha  occ. eigenvalues -- -485.37710 -63.36221 -57.18162 -57.17933 -57.17910
 Alpha  occ. eigenvalues --  -14.77917 -14.77916 -10.67346 -10.61188 -10.61187
 Alpha  occ. eigenvalues --  -10.57075  -9.02890  -6.85300  -6.84447  -6.84368
 Alpha  occ. eigenvalues --   -2.88679  -2.88383  -2.88303  -2.87511  -2.87509
 Alpha  occ. eigenvalues --   -1.12644  -1.01947  -0.92792  -0.85990  -0.76617
 Alpha  occ. eigenvalues --   -0.73600  -0.61327  -0.60681  -0.53701  -0.53164
 Alpha  occ. eigenvalues --   -0.50182  -0.47843  -0.39700  -0.39330  -0.39204
 Alpha  occ. eigenvalues --   -0.36091  -0.33810  -0.32870
 Alpha virt. eigenvalues --   -0.02627  -0.01270   0.04067   0.08819   0.11014
 Alpha virt. eigenvalues --    0.11281   0.13876   0.15217   0.17887   0.18246
 Alpha virt. eigenvalues --    0.21991   0.22132   0.24655   0.25340   0.26570
 Alpha virt. eigenvalues --    0.27543   0.27954   0.29240   0.30403   0.31057
 Alpha virt. eigenvalues --    0.31182   0.32965   0.34713   0.35898   0.36344
 Alpha virt. eigenvalues --    0.37855   0.38080   0.40671   0.41311   0.43781
 Alpha virt. eigenvalues --    0.44704   0.46530   0.47237   0.49238   0.49884
 Alpha virt. eigenvalues --    0.52453   0.55453   0.55911   0.57671   0.57794
 Alpha virt. eigenvalues --    0.60889   0.64506   0.64676   0.64969   0.68611
 Alpha virt. eigenvalues --    0.70670   0.70707   0.71993   0.75996   0.77527
 Alpha virt. eigenvalues --    0.82535   0.85975   0.86523   0.92608   0.95685
 Alpha virt. eigenvalues --    0.95912   0.97411   1.04807   1.09031   1.09955
 Alpha virt. eigenvalues --    1.10110   1.11984   1.20522   1.21234   1.21988
 Alpha virt. eigenvalues --    1.25834   1.27359   1.31118   1.31353   1.33698
 Alpha virt. eigenvalues --    1.37418   1.38852   1.39896   1.43793   1.46818
 Alpha virt. eigenvalues --    1.47171   1.47182   1.48400   1.50153   1.52387
 Alpha virt. eigenvalues --    1.56030   1.56287   1.56422   1.56702   1.57254
 Alpha virt. eigenvalues --    1.58593   1.58985   1.63915   1.63956   1.66080
 Alpha virt. eigenvalues --    1.66874   1.67229   1.69478   1.70259   1.75653
 Alpha virt. eigenvalues --    1.76806   1.77793   1.79961   1.86477   1.88129
 Alpha virt. eigenvalues --    1.90655   1.91847   1.97952   1.98035   2.00287
 Alpha virt. eigenvalues --    2.04583   2.11173   2.12558   2.16174   2.17457
 Alpha virt. eigenvalues --    2.25796   2.28966   2.30508   2.30783   2.38333
 Alpha virt. eigenvalues --    2.38422   2.41995   2.49377   2.50099   2.55969
 Alpha virt. eigenvalues --    2.63462   2.63833   2.67503   2.69756   2.71483
 Alpha virt. eigenvalues --    2.73390   2.75443   2.81851   2.82587   2.83863
 Alpha virt. eigenvalues --    2.86599   2.87765   2.91826   2.94753   2.95193
 Alpha virt. eigenvalues --    2.99908   3.01478   3.03251   3.05108   3.06745
 Alpha virt. eigenvalues --    3.11540   3.11763   3.12266   3.19692   3.20224
 Alpha virt. eigenvalues --    3.21363   3.23043   3.27198   3.27827   3.30123
 Alpha virt. eigenvalues --    3.36381   3.37338   3.42202   3.42408   3.42628
 Alpha virt. eigenvalues --    3.46226   3.51653   3.58517   3.65674   3.66643
 Alpha virt. eigenvalues --    3.70875   3.79079   3.80079   3.80484   3.81043
 Alpha virt. eigenvalues --    3.86782   3.92153   4.01634   4.05355   4.07132
 Alpha virt. eigenvalues --    4.11146   4.11990   4.13286   4.13604   4.16397
 Alpha virt. eigenvalues --    4.26430   4.31745   4.40882   4.41171   4.42890
 Alpha virt. eigenvalues --    4.51205   4.52560   4.60350   4.64003   4.69502
 Alpha virt. eigenvalues --    4.73752   4.76194   4.79456   4.84510   4.91553
 Alpha virt. eigenvalues --    4.98637   4.99368   5.04213   5.07162   5.09748
 Alpha virt. eigenvalues --    5.22049   5.27650   5.30633   5.32290   5.35294
 Alpha virt. eigenvalues --    5.38478   5.47702   5.55541   5.64335   5.65196
 Alpha virt. eigenvalues --    5.93032   6.12351   7.80723  22.47423  22.67761
 Alpha virt. eigenvalues --   22.96333  23.01264  32.38674  32.54717
          Condensed to atoms (all electrons):
               1          2          3          4          5          6
     1  Br  34.893793   0.351017  -0.086248  -0.003411   0.008051  -0.003411
     2  C    0.351017   4.619264   0.510886  -0.088635  -0.034683  -0.088636
     3  N   -0.086248   0.510886   6.500415   0.490104  -0.056590  -0.016519
     4  C   -0.003411  -0.088635   0.490104   4.765002   0.491158  -0.036532
     5  C    0.008051  -0.034683  -0.056590   0.491158   5.045584   0.491150
     6  C   -0.003411  -0.088636  -0.016519  -0.036532   0.491150   4.765003
     7  N   -0.086249   0.510877  -0.071296  -0.016519  -0.056590   0.490113
     8  H   -0.000708   0.005532  -0.030338   0.429652  -0.058679   0.004027
     9  H    0.000165   0.001306   0.004392  -0.036161   0.412889  -0.036161
    10  H   -0.000708   0.005532  -0.001657   0.004027  -0.058680   0.429652
               7          8          9         10
     1  Br  -0.086249  -0.000708   0.000165  -0.000708
     2  C    0.510877   0.005532   0.001306   0.005532
     3  N   -0.071296  -0.030338   0.004392  -0.001657
     4  C   -0.016519   0.429652  -0.036161   0.004027
     5  C   -0.056590  -0.058679   0.412889  -0.058680
     6  C    0.490113   0.004027  -0.036161   0.429652
     7  N    6.500417  -0.001657   0.004392  -0.030337
     8  H   -0.001657   0.474899  -0.001834  -0.000083
     9  H    0.004392  -0.001834   0.479191  -0.001834
    10  H   -0.030337  -0.000083  -0.001834   0.474900
 Mulliken charges:
               1
     1  Br  -0.072293
     2  C    0.207539
     3  N   -0.243150
     4  C    0.001315
     5  C   -0.183609
     6  C    0.001314
     7  N   -0.243150
     8  H    0.179188
     9  H    0.173656
    10  H    0.179188
 Sum of Mulliken charges =  -0.00000
 Mulliken charges with hydrogens summed into heavy atoms:
               1
     1  Br  -0.072293
     2  C    0.207539
     3  N   -0.243150
     4  C    0.180504
     5  C   -0.009953
     6  C    0.180502
     7  N   -0.243150
 Electronic spatial extent (au):  <R**2>=           1138.4854
 Charge=             -0.0000 electrons
 Dipole moment (field-independent basis, Debye):
    X=              4.7118    Y=              0.0000    Z=              0.0004  Tot=              4.7118
 Quadrupole moment (field-independent basis, Debye-Ang):
   XX=            -38.4084   YY=            -53.3916   ZZ=            -53.7107
   XY=              0.0000   XZ=              0.0014   YZ=             -0.0000
 Traceless Quadrupole moment (field-independent basis, Debye-Ang):
   XX=             10.0952   YY=             -4.8880   ZZ=             -5.2071
   XY=              0.0000   XZ=              0.0014   YZ=             -0.0000
 Octapole moment (field-independent basis, Debye-Ang**2):
  XXX=            -15.0611  YYY=             -0.0001  ZZZ=             -0.0073  XYY=             -3.1238
  XXY=              0.0001  XXZ=              0.0001  XZZ=            -20.3747  YZZ=              0.0000
  YYZ=             -0.0015  XYZ=             -0.0004
 Hexadecapole moment (field-independent basis, Debye-Ang**3):
 XXXX=           -870.2357 YYYY=           -269.6665 ZZZZ=            -59.3563 XXXY=              0.0004
 XXXZ=             -0.0338 YYYX=             -0.0001 YYYZ=              0.0024 ZZZX=             -0.0566
 ZZZY=              0.0029 XXYY=           -183.9266 XXZZ=           -195.9189 YYZZ=            -58.3349
 XXYZ=             -0.0003 YYXZ=             -0.0148 ZZXY=              0.0000
 N-N= 4.424203560849D+02 E-N=-7.651320204744D+03  KE= 2.833216479567D+03
 Calculating spin-rotation constants.
 Leave Link  601 at Tue Sep 17 09:50:33 2024, MaxMem=  1342177280 cpu:               1.1 elap:               1.1
 (Enter /groups/ReismanLab/Software/Gaussian16_RevC/Linux_Binary_AVX2-enabled-CPU/g16/l9999.exe)
 Unable to Open any file for archive entry.
 1\1\GINC-HPC-21-28\SP\RM062X\def2TZVP\C4H3Br1N2\MANTIND\17-Sep-2024\0\
 \#p M062X/def2tzvp geom=check guess=read scf(xqc,tight) integral(grid=
 ultrafine) scrf(SMD, solvent=1,4-Dioxane) nmr=giao\\spe\\0,1\Br,0,1.61
 6153269,-0.0000107584,0.0002935932\C,0,-0.2937273096,-0.0000066433,-0.
 0000530271\N,0,-0.870863265,-1.1958433302,-0.0000732204\C,0,-2.2102030
 582,-1.1828887651,-0.0001647408\C,0,-2.945221691,0.0000092991,-0.00018
 18086\C,0,-2.210183369,1.182902843,-0.0001060383\N,0,-0.8708520207,1.1
 958445484,-0.0000133396\H,0,-2.6985374652,-2.1545440739,-0.0001934004\
 H,0,-4.0286080894,0.0000208672,-0.0002379576\H,0,-2.6985161109,2.15455
 996,-0.0000870051\\Version=ES64L-G16RevC.02\State=1-A\HF=-2837.9140652
 \RMSD=2.870e-09\Dipole=-1.8537741,0.0000104,-0.0001482\Quadrupole=7.50
 55234,-3.6341439,-3.8713794,-0.0000693,0.0010424,0.0000038\PG=C01 [X(C
 4H3Br1N2)]\\@
 The archive entry for this job was punched.


 THE MOST INCOMPREHENSIBLE THING ABOUT THE WORLD
 IS THAT IT IS COMPREHENSIBLE. -- A. EINSTEIN
 Job cpu time:       0 days  0 hours  2 minutes 20.2 seconds.
 Elapsed time:       0 days  0 hours  2 minutes 21.2 seconds.
 File lengths (MBytes):  RWF=    176 Int=      0 D2E=      0 Chk=     16 Scr=     16
 Normal termination of Gaussian 16 at Tue Sep 17 09:50:33 2024.
