 Entering Gaussian System, Link 0=g16
 Input=smiles_00120_conf_0.gjf
 Output=smiles_00120_conf_0.log
 Initial command:
 /groups/ReismanLab/Software/Gaussian16_RevC/Linux_Binary_AVX2-enabled-CPU/g16/l1.exe "/central/groups/ReismanLab/DM/dft_final/smiles_00120/Gau-101791.inp" -scrdir="/central/groups/ReismanLab/DM/dft_final/smiles_00120/"
 Entering Link 1 = /groups/ReismanLab/Software/Gaussian16_RevC/Linux_Binary_AVX2-enabled-CPU/g16/l1.exe PID=    101799.
  
 Copyright (c) 1988-2021, Gaussian, Inc.  All Rights Reserved.
  
 This is part of the Gaussian(R) 16 program.  It is based on
 the Gaussian(R) 09 system (copyright 2009, Gaussian, Inc.),
 the Gaussian(R) 03 system (copyright 2003, Gaussian, Inc.),
 the Gaussian(R) 98 system (copyright 1998, Gaussian, Inc.),
 the Gaussian(R) 94 system (copyright 1995, Gaussian, Inc.),
 the Gaussian 92(TM) system (copyright 1992, Gaussian, Inc.),
 the Gaussian 90(TM) system (copyright 1990, Gaussian, Inc.),
 the Gaussian 88(TM) system (copyright 1988, Gaussian, Inc.),
 the Gaussian 86(TM) system (copyright 1986, Carnegie Mellon
 University), and the Gaussian 82(TM) system (copyright 1983,
 Carnegie Mellon University). Gaussian is a federally registered
 trademark of Gaussian, Inc.
  
 This software contains proprietary and confidential information,
 including trade secrets, belonging to Gaussian, Inc.
  
 This software is provided under written license and may be
 used, copied, transmitted, or stored only in accord with that
 written license.
  
 The following legend is applicable only to US Government
 contracts under FAR:
  
                    RESTRICTED RIGHTS LEGEND
  
 Use, reproduction and disclosure by the US Government is
 subject to restrictions as set forth in subparagraphs (a)
 and (c) of the Commercial Computer Software - Restricted
 Rights clause in FAR 52.227-19.
  
 Gaussian, Inc.
 340 Quinnipiac St., Bldg. 40, Wallingford CT 06492
  
  
 ---------------------------------------------------------------
 Warning -- This program may not be used in any manner that
 competes with the business of Gaussian, Inc. or will provide
 assistance to any competitor of Gaussian, Inc.  The licensee
 of this program is prohibited from giving any competitor of
 Gaussian, Inc. access to this program.  By using this program,
 the user acknowledges that Gaussian, Inc. is engaged in the
 business of creating and licensing software in the field of
 computational chemistry and represents and warrants to the
 licensee that it is not a competitor of Gaussian, Inc. and that
 it will not use this program in any manner prohibited above.
 ---------------------------------------------------------------
  

 Cite this work as:
 Gaussian 16, Revision C.02,
 M. J. Frisch, G. W. Trucks, H. B. Schlegel, G. E. Scuseria, 
 M. A. Robb, J. R. Cheeseman, G. Scalmani, V. Barone, 
 G. A. Petersson, H. Nakatsuji, X. Li, M. Caricato, A. V. Marenich, 
 J. Bloino, B. G. Janesko, R. Gomperts, B. Mennucci, H. P. Hratchian, 
 J. V. Ortiz, A. F. Izmaylov, J. L. Sonnenberg, D. Williams-Young, 
 F. Ding, F. Lipparini, F. Egidi, J. Goings, B. Peng, A. Petrone, 
 T. Henderson, D. Ranasinghe, V. G. Zakrzewski, J. Gao, N. Rega, 
 G. Zheng, W. Liang, M. Hada, M. Ehara, K. Toyota, R. Fukuda, 
 J. Hasegawa, M. Ishida, T. Nakajima, Y. Honda, O. Kitao, H. Nakai, 
 T. Vreven, K. Throssell, J. A. Montgomery, Jr., J. E. Peralta, 
 F. Ogliaro, M. J. Bearpark, J. J. Heyd, E. N. Brothers, K. N. Kudin, 
 V. N. Staroverov, T. A. Keith, R. Kobayashi, J. Normand, 
 K. Raghavachari, A. P. Rendell, J. C. Burant, S. S. Iyengar, 
 J. Tomasi, M. Cossi, J. M. Millam, M. Klene, C. Adamo, R. Cammi, 
 J. W. Ochterski, R. L. Martin, K. Morokuma, O. Farkas, 
 J. B. Foresman, and D. J. Fox, Gaussian, Inc., Wallingford CT, 2019.
 
 ******************************************
 Gaussian 16:  ES64L-G16RevC.02  7-Dec-2021
                17-Sep-2024 
 ******************************************
 %nprocshared=8
 Will use up to    8 processors via shared memory.
 %Mem=10GB
 %Chk=smiles_00120_conf_0.chk
 ----------------------------------------------------------------------
 #p B3LYP/6-31G(d,p) EmpiricalDispersion=GD3BJ opt freq scf(xqc,tight) 
 integral(grid=ultrafine)
 ----------------------------------------------------------------------
 1/18=20,19=15,26=4,38=1/1,3;
 2/9=110,12=2,17=6,18=5,40=1/2;
 3/5=1,6=6,7=101,11=2,25=1,30=1,71=1,74=-5,75=-5,124=41/1,2,3;
 4//1;
 5/5=2,8=3,13=1,32=2,38=5/2,8;
 6/7=2,8=2,9=2,10=2,28=1/1;
 7//1,2,3,16;
 1/18=20,19=15,26=4/3(2);
 2/9=110/2;
 99//99;
 2/9=110/2;
 3/5=1,6=6,7=101,11=2,25=1,30=1,71=1,74=-5,75=-5,124=41/1,2,3;
 4/5=5,16=3,69=1/1;
 5/5=2,8=3,13=1,32=2,38=5/2,8;
 7//1,2,3,16;
 1/18=20,19=15,26=4/3(-5);
 2/9=110/2;
 6/7=2,8=2,9=2,10=2,19=2,28=1/1;
 99/9=1/99;
 Leave Link    1 at Tue Sep 17 09:53:48 2024, MaxMem=  1342177280 cpu:               0.1 elap:               1.4
 (Enter /groups/ReismanLab/Software/Gaussian16_RevC/Linux_Binary_AVX2-enabled-CPU/g16/l101.exe)
 ----------------------------------
 opt-freq conformers_unique/conf_aa
 ----------------------------------
 Symbolic Z-matrix:
 Charge =  0 Multiplicity = 1
 F                     0.45926   1.86631   1.07729 
 C                     1.05532   1.33642  -0.00007 
 F                     2.31433   1.79361   0.00096 
 F                     0.46115   1.86575  -1.07857 
 C                     1.00013  -0.17182   0.00008 
 C                     2.17429  -0.91518   0.00035 
 C                     2.07652  -2.29904   0.00023 
 N                     0.92075  -2.93841  -0.0001 
 C                    -0.19474  -2.24426  -0.00021 
 C                    -0.21732  -0.85007  -0.0002 
 Br                   -1.87927   0.05206   0.00007 
 H                     3.13288  -0.42132   0.00056 
 H                     2.95981  -2.92105   0.0003 
 H                    -1.11784  -2.80676  -0.0007 
 
 ITRead=  0  0  0  0  0  0  0  0  0  0  0  0  0  0
 MicOpt= -1 -1 -1 -1 -1 -1 -1 -1 -1 -1 -1 -1 -1 -1
 NAtoms=     14 NQM=       14 NQMF=       0 NMMI=      0 NMMIF=      0
                NMic=       0 NMicF=      0.
                    Isotopes and Nuclear Properties:
 (Nuclear quadrupole moments (NQMom) in fm**2, nuclear magnetic moments (NMagM)
  in nuclear magnetons)

  Atom         1           2           3           4           5           6           7           8           9          10
 IAtWgt=          19          12          19          19          12          12          12          14          12          12
 AtmWgt=  18.9984032  12.0000000  18.9984032  18.9984032  12.0000000  12.0000000  12.0000000  14.0030740  12.0000000  12.0000000
 NucSpn=           1           0           1           1           0           0           0           2           0           0
 AtZEff=  -0.0000000  -0.0000000  -0.0000000  -0.0000000  -0.0000000  -0.0000000  -0.0000000  -0.0000000  -0.0000000  -0.0000000
 NQMom=    0.0000000   0.0000000   0.0000000   0.0000000   0.0000000   0.0000000   0.0000000   2.0440000   0.0000000   0.0000000
 NMagM=    2.6288670   0.0000000   2.6288670   2.6288670   0.0000000   0.0000000   0.0000000   0.4037610   0.0000000   0.0000000
 AtZNuc=   9.0000000   6.0000000   9.0000000   9.0000000   6.0000000   6.0000000   6.0000000   7.0000000   6.0000000   6.0000000

  Atom        11          12          13          14
 IAtWgt=          79           1           1           1
 AtmWgt=  78.9183361   1.0078250   1.0078250   1.0078250
 NucSpn=           3           1           1           1
 AtZEff=  -0.0000000  -0.0000000  -0.0000000  -0.0000000
 NQMom=   31.3000000   0.0000000   0.0000000   0.0000000
 NMagM=    2.1063990   2.7928460   2.7928460   2.7928460
 AtZNuc=  35.0000000   1.0000000   1.0000000   1.0000000
 Leave Link  101 at Tue Sep 17 09:53:48 2024, MaxMem=  1342177280 cpu:               0.3 elap:               0.4
 (Enter /groups/ReismanLab/Software/Gaussian16_RevC/Linux_Binary_AVX2-enabled-CPU/g16/l103.exe)

 GradGradGradGradGradGradGradGradGradGradGradGradGradGradGradGradGradGrad
 Berny optimization.
 Initialization pass.
                           ----------------------------
                           !    Initial Parameters    !
                           ! (Angstroms and Degrees)  !
 --------------------------                            --------------------------
 ! Name  Definition              Value          Derivative Info.                !
 --------------------------------------------------------------------------------
 ! R1    R(1,2)                  1.3404         estimate D2E/DX2                !
 ! R2    R(2,3)                  1.3395         estimate D2E/DX2                !
 ! R3    R(2,4)                  1.3403         estimate D2E/DX2                !
 ! R4    R(2,5)                  1.5092         estimate D2E/DX2                !
 ! R5    R(5,6)                  1.3897         estimate D2E/DX2                !
 ! R6    R(5,10)                 1.3936         estimate D2E/DX2                !
 ! R7    R(6,7)                  1.3873         estimate D2E/DX2                !
 ! R8    R(6,12)                 1.0783         estimate D2E/DX2                !
 ! R9    R(7,8)                  1.3208         estimate D2E/DX2                !
 ! R10   R(7,13)                 1.0803         estimate D2E/DX2                !
 ! R11   R(8,9)                  1.3138         estimate D2E/DX2                !
 ! R12   R(9,10)                 1.3944         estimate D2E/DX2                !
 ! R13   R(9,14)                 1.081          estimate D2E/DX2                !
 ! R14   R(10,11)                1.891          estimate D2E/DX2                !
 ! A1    A(1,2,3)              106.4046         estimate D2E/DX2                !
 ! A2    A(1,2,4)              107.0672         estimate D2E/DX2                !
 ! A3    A(1,2,5)              112.2537         estimate D2E/DX2                !
 ! A4    A(3,2,4)              106.4094         estimate D2E/DX2                !
 ! A5    A(3,2,5)              112.0535         estimate D2E/DX2                !
 ! A6    A(4,2,5)              112.2437         estimate D2E/DX2                !
 ! A7    A(2,5,6)              120.2424         estimate D2E/DX2                !
 ! A8    A(2,5,10)             121.218          estimate D2E/DX2                !
 ! A9    A(6,5,10)             118.5397         estimate D2E/DX2                !
 ! A10   A(5,6,7)              118.2966         estimate D2E/DX2                !
 ! A11   A(5,6,12)             120.4046         estimate D2E/DX2                !
 ! A12   A(7,6,12)             121.2989         estimate D2E/DX2                !
 ! A13   A(6,7,8)              122.9927         estimate D2E/DX2                !
 ! A14   A(6,7,13)             121.112          estimate D2E/DX2                !
 ! A15   A(8,7,13)             115.8954         estimate D2E/DX2                !
 ! A16   A(7,8,9)              119.1555         estimate D2E/DX2                !
 ! A17   A(8,9,10)             122.8211         estimate D2E/DX2                !
 ! A18   A(8,9,14)             116.7503         estimate D2E/DX2                !
 ! A19   A(10,9,14)            120.4286         estimate D2E/DX2                !
 ! A20   A(5,10,9)             118.1946         estimate D2E/DX2                !
 ! A21   A(5,10,11)            122.3838         estimate D2E/DX2                !
 ! A22   A(9,10,11)            119.4217         estimate D2E/DX2                !
 ! D1    D(1,2,5,6)           -119.7106         estimate D2E/DX2                !
 ! D2    D(1,2,5,10)            60.2973         estimate D2E/DX2                !
 ! D3    D(3,2,5,6)             -0.0408         estimate D2E/DX2                !
 ! D4    D(3,2,5,10)           179.9672         estimate D2E/DX2                !
 ! D5    D(4,2,5,6)            119.6283         estimate D2E/DX2                !
 ! D6    D(4,2,5,10)           -60.3637         estimate D2E/DX2                !
 ! D7    D(2,5,6,7)           -179.9879         estimate D2E/DX2                !
 ! D8    D(2,5,6,12)             0.007          estimate D2E/DX2                !
 ! D9    D(10,5,6,7)             0.0044         estimate D2E/DX2                !
 ! D10   D(10,5,6,12)          179.9992         estimate D2E/DX2                !
 ! D11   D(2,5,10,9)           179.9917         estimate D2E/DX2                !
 ! D12   D(2,5,10,11)           -0.0309         estimate D2E/DX2                !
 ! D13   D(6,5,10,9)            -0.0005         estimate D2E/DX2                !
 ! D14   D(6,5,10,11)          179.9769         estimate D2E/DX2                !
 ! D15   D(5,6,7,8)             -0.0017         estimate D2E/DX2                !
 ! D16   D(5,6,7,13)           179.9924         estimate D2E/DX2                !
 ! D17   D(12,6,7,8)          -179.9965         estimate D2E/DX2                !
 ! D18   D(12,6,7,13)           -0.0024         estimate D2E/DX2                !
 ! D19   D(6,7,8,9)             -0.0052         estimate D2E/DX2                !
 ! D20   D(13,7,8,9)          -179.9996         estimate D2E/DX2                !
 ! D21   D(7,8,9,10)             0.0095         estimate D2E/DX2                !
 ! D22   D(7,8,9,14)           179.9871         estimate D2E/DX2                !
 ! D23   D(8,9,10,5)            -0.0067         estimate D2E/DX2                !
 ! D24   D(8,9,10,11)         -179.9847         estimate D2E/DX2                !
 ! D25   D(14,9,10,5)         -179.9835         estimate D2E/DX2                !
 ! D26   D(14,9,10,11)           0.0385         estimate D2E/DX2                !
 --------------------------------------------------------------------------------
 Trust Radius=3.00D-01 FncErr=1.00D-07 GrdErr=1.00D-06 EigMax=2.50D+02 EigMin=1.00D-04
 Number of steps in this run=     72 maximum allowed number of steps=    100.
 GradGradGradGradGradGradGradGradGradGradGradGradGradGradGradGradGradGrad

 Leave Link  103 at Tue Sep 17 09:53:48 2024, MaxMem=  1342177280 cpu:               0.1 elap:               0.0
 (Enter /groups/ReismanLab/Software/Gaussian16_RevC/Linux_Binary_AVX2-enabled-CPU/g16/l202.exe)
                          Input orientation:                          
 ---------------------------------------------------------------------
 Center     Atomic      Atomic             Coordinates (Angstroms)
 Number     Number       Type             X           Y           Z
 ---------------------------------------------------------------------
      1          9           0        0.459255    1.866311    1.077286
      2          6           0        1.055317    1.336416   -0.000072
      3          9           0        2.314329    1.793614    0.000960
      4          9           0        0.461155    1.865749   -1.078574
      5          6           0        1.000131   -0.171820    0.000083
      6          6           0        2.174290   -0.915179    0.000349
      7          6           0        2.076518   -2.299037    0.000226
      8          7           0        0.920749   -2.938407   -0.000098
      9          6           0       -0.194736   -2.244261   -0.000212
     10          6           0       -0.217317   -0.850068   -0.000200
     11         35           0       -1.879267    0.052064    0.000067
     12          1           0        3.132877   -0.421315    0.000560
     13          1           0        2.959806   -2.921050    0.000300
     14          1           0       -1.117841   -2.806765   -0.000696
 ---------------------------------------------------------------------
                    Distance matrix (angstroms):
                    1          2          3          4          5
     1  F    0.000000
     2  C    1.340440   0.000000
     3  F    2.145941   1.339456   0.000000
     4  F    2.155861   1.340294   2.145892   0.000000
     5  C    2.367887   1.509245   2.364328   2.367633   0.000000
     6  C    3.440614   2.514315   2.712411   3.439836   1.389688
     7  C    4.596272   3.776158   4.099554   4.595503   2.384043
     8  N    4.945608   4.276940   4.932959   4.945124   2.767726
     9  C    4.299478   3.792609   4.753929   4.299447   2.392221
    10  C    2.999573   2.529883   3.660367   2.999813   1.393628
    11  Br   3.149695   3.203333   4.540842   3.151269   2.888088
    12  H    3.679786   2.721374   2.361341   3.678763   2.147290
    13  H    5.507402   4.664021   4.758644   5.506421   3.376180
    14  H    5.048456   4.678521   5.739623   5.048508   3.380642
                    6          7          8          9         10
     6  C    0.000000
     7  C    1.387307   0.000000
     8  N    2.380087   1.320832   0.000000
     9  C    2.716384   2.271915   1.313829   0.000000
    10  C    2.392493   2.713151   2.378309   1.394376   0.000000
    11  Br   4.167359   4.601728   4.096706   2.847938   1.891010
    12  H    1.078328   2.154468   3.351009   3.794225   3.377518
    13  H    2.154194   1.080323   2.039131   3.226326   3.792503
    14  H    3.796870   3.234458   2.042836   1.080987   2.153975
                   11         12         13         14
    11  Br   0.000000
    12  H    5.034449   0.000000
    13  H    5.679439   2.505719   0.000000
    14  H    2.958491   4.874318   4.079248   0.000000
 Stoichiometry    C6H3BrF3N
 Framework group  C1[X(C6H3BrF3N)]
 Deg. of freedom    36
 Full point group                 C1      NOp   1
 Largest Abelian subgroup         C1      NOp   1
 Largest concise Abelian subgroup C1      NOp   1
                         Standard orientation:                         
 ---------------------------------------------------------------------
 Center     Atomic      Atomic             Coordinates (Angstroms)
 Number     Number       Type             X           Y           Z
 ---------------------------------------------------------------------
      1          9           0        0.165167    1.949591   -1.077287
      2          6           0       -0.551494    1.599627    0.000072
      3          9           0       -1.641049    2.378736   -0.000960
      4          9           0        0.163186    1.949561    1.078574
      5          6           0       -0.904178    0.132168   -0.000084
      6          6           0       -2.235054   -0.267834   -0.000350
      7          6           0       -2.513255   -1.626960   -0.000227
      8          7           0       -1.572153   -2.553742    0.000097
      9          6           0       -0.311029   -2.185351    0.000211
     10          6           0        0.085866   -0.848654    0.000199
     11         35           0        1.929265   -0.426990   -0.000068
     12          1           0       -3.025399    0.465752   -0.000560
     13          1           0       -3.531336   -1.988359   -0.000301
     14          1           0        0.426671   -2.975496    0.000695
 ---------------------------------------------------------------------
 Rotational constants (GHZ):           0.9362531           0.8431881           0.4809212
 Leave Link  202 at Tue Sep 17 09:53:48 2024, MaxMem=  1342177280 cpu:               0.1 elap:               0.0
 (Enter /groups/ReismanLab/Software/Gaussian16_RevC/Linux_Binary_AVX2-enabled-CPU/g16/l301.exe)
 Standard basis: 6-31G(d,p) (6D, 7F)
 Ernie: Thresh=  0.10000D-02 Tol=  0.10000D-05 Strict=F.
 There are   195 symmetry adapted cartesian basis functions of A   symmetry.
 There are   195 symmetry adapted basis functions of A   symmetry.
   195 basis functions,   384 primitive gaussians,   195 cartesian basis functions
    54 alpha electrons       54 beta electrons
       nuclear repulsion energy       926.4692970325 Hartrees.
 IExCor=  402 DFT=T Ex+Corr=B3LYP ExCW=0 ScaHFX=  0.200000
 ScaDFX=  0.800000  0.720000  1.000000  0.810000 ScalE2=  1.000000  1.000000
 IRadAn=      5 IRanWt=     -1 IRanGd=            0 ICorTp=0 IEmpDi=141
 NAtoms=   14 NActive=   14 NUniq=   14 SFac= 1.00D+00 NAtFMM=   60 NAOKFM=F Big=F
 Integral buffers will be    131072 words long.
 Raffenetti 2 integral format.
 Two-electron integral symmetry is turned on.
 R6Disp:  Grimme-D3(BJ) Dispersion energy=       -0.0295697070 Hartrees.
 Nuclear repulsion after empirical dispersion term =      926.4397273254 Hartrees.
 Leave Link  301 at Tue Sep 17 09:53:49 2024, MaxMem=  1342177280 cpu:               0.1 elap:               0.1
 (Enter /groups/ReismanLab/Software/Gaussian16_RevC/Linux_Binary_AVX2-enabled-CPU/g16/l302.exe)
 NPDir=0 NMtPBC=     1 NCelOv=     1 NCel=       1 NClECP=     1 NCelD=      1
         NCelK=      1 NCelE2=     1 NClLst=     1 CellRange=     0.0.
 One-electron integrals computed using PRISM.
 One-electron integral symmetry used in STVInt
 NBasis=   195 RedAO= T EigKep=  6.39D-04  NBF=   195
 NBsUse=   195 1.00D-06 EigRej= -1.00D+00 NBFU=   195
 Precomputing XC quadrature grid using
 IXCGrd= 4 IRadAn=           5 IRanWt=          -1 IRanGd=           0 AccXCQ= 0.00D+00.
 Generated NRdTot=       0 NPtTot=           0 NUsed=           0 NTot=          32
 NSgBfM=   194   194   194   194   194 MxSgAt=    14 MxSgA2=    14.
 Leave Link  302 at Tue Sep 17 09:53:49 2024, MaxMem=  1342177280 cpu:               0.9 elap:               0.2
 (Enter /groups/ReismanLab/Software/Gaussian16_RevC/Linux_Binary_AVX2-enabled-CPU/g16/l303.exe)
 DipDrv:  MaxL=1.
 Leave Link  303 at Tue Sep 17 09:53:49 2024, MaxMem=  1342177280 cpu:               0.1 elap:               0.0
 (Enter /groups/ReismanLab/Software/Gaussian16_RevC/Linux_Binary_AVX2-enabled-CPU/g16/l401.exe)
 ExpMin= 1.43D-01 ExpMax= 5.74D+05 ExpMxC= 5.74D+03 IAcc=3 IRadAn=         5 AccDes= 0.00D+00
 Harris functional with IExCor=  402 and IRadAn=       5 diagonalized for initial guess.
 HarFok:  IExCor=  402 AccDes= 0.00D+00 IRadAn=         5 IDoV= 1 UseB2=F ITyADJ=14
 ICtDFT=  3500011 ScaDFX=  1.000000  1.000000  1.000000  1.000000
 FoFCou: FMM=F IPFlag=           0 FMFlag=      100000 FMFlg1=           0
         NFxFlg=           0 DoJE=T BraDBF=F KetDBF=T FulRan=T
         wScrn=  0.000000 ICntrl=       500 IOpCl=  0 I1Cent=   200000004 NGrid=           0
         NMat0=    1 NMatS0=      1 NMatT0=    0 NMatD0=    1 NMtDS0=    0 NMtDT0=    0
 Petite list used in FoFCou.
 Harris En= -3156.51148918103    
 JPrj=0 DoOrth=F DoCkMO=F.
 Leave Link  401 at Tue Sep 17 09:53:49 2024, MaxMem=  1342177280 cpu:               3.6 elap:               0.5
 (Enter /groups/ReismanLab/Software/Gaussian16_RevC/Linux_Binary_AVX2-enabled-CPU/g16/l502.exe)
 Integral symmetry usage will be decided dynamically.
 Closed shell SCF:
 Using DIIS extrapolation, IDIIS=  1040.
 NGot=  1342177280 LenX=  1342097322 LenY=  1342058856
 Requested convergence on RMS density matrix=1.00D-08 within  32 cycles.
 Requested convergence on MAX density matrix=1.00D-06.
 Requested convergence on             energy=1.00D-06.
 No special actions if energy rises.
 Fock matrices will be formed incrementally for  20 cycles.
 Integral accuracy reduced to 1.0D-05 until final iterations.

 Cycle   1  Pass 0  IDiag  1:
 FoFJK:  IHMeth= 1 ICntrl=       0 DoSepK=F KAlg= 0 I1Cent=           0 FoldK=F
 IRaf= 900000000 NMat=       1 IRICut=       1 DoRegI=T DoRafI=F ISym2E= 0 IDoP0=0 IntGTp=1.
 FoFCou: FMM=F IPFlag=           0 FMFlag=      100000 FMFlg1=           0
         NFxFlg=           0 DoJE=F BraDBF=F KetDBF=F FulRan=T
         wScrn=  0.000000 ICntrl=         0 IOpCl=  0 I1Cent=           0 NGrid=           0
         NMat0=    1 NMatS0=      1 NMatT0=    0 NMatD0=    1 NMtDS0=    0 NMtDT0=    0
 Symmetry not used in FoFCou.
 E= -3156.29129522830    
 DIIS: error= 1.90D-01 at cycle   1 NSaved=   1.
 NSaved= 1 IEnMin= 1 EnMin= -3156.29129522830     IErMin= 1 ErrMin= 1.90D-01
 ErrMax= 1.90D-01  0.00D+00 EMaxC= 1.00D-01 BMatC= 5.46D-01 BMatP= 5.46D-01
 IDIUse=3 WtCom= 0.00D+00 WtEn= 1.00D+00
 Coeff-Com:  0.100D+01
 Coeff-En:   0.100D+01
 Coeff:      0.100D+01
 Gap=     0.251 Goal=   None    Shift=    0.000
 GapD=    0.251 DampG=1.000 DampE=0.250 DampFc=0.2500 IDamp=-1.
 Damping current iteration by 2.50D-01
 RMSDP=5.04D-03 MaxDP=1.41D-01              OVMax= 1.64D-01

 Cycle   2  Pass 0  IDiag  1:
 RMSU=  1.22D-03    CP:  9.93D-01
 E= -3156.34824228323     Delta-E=       -0.056947054926 Rises=F Damp=T
 DIIS: error= 1.40D-01 at cycle   2 NSaved=   2.
 NSaved= 2 IEnMin= 2 EnMin= -3156.34824228323     IErMin= 2 ErrMin= 1.40D-01
 ErrMax= 1.40D-01  0.00D+00 EMaxC= 1.00D-01 BMatC= 2.37D-01 BMatP= 5.46D-01
 IDIUse=3 WtCom= 0.00D+00 WtEn= 1.00D+00
 Coeff-Com: -0.137D+01 0.237D+01
 Coeff-En:   0.000D+00 0.100D+01
 Coeff:      0.000D+00 0.100D+01
 Gap=     0.210 Goal=   None    Shift=    0.000
 RMSDP=2.64D-03 MaxDP=1.10D-01 DE=-5.69D-02 OVMax= 7.58D-02

 Cycle   3  Pass 0  IDiag  1:
 RMSU=  1.02D-03    CP:  9.73D-01  2.83D+00
 E= -3156.41805683159     Delta-E=       -0.069814548359 Rises=F Damp=F
 DIIS: error= 1.37D-02 at cycle   3 NSaved=   3.
 NSaved= 3 IEnMin= 3 EnMin= -3156.41805683159     IErMin= 3 ErrMin= 1.37D-02
 ErrMax= 1.37D-02  0.00D+00 EMaxC= 1.00D-01 BMatC= 4.27D-02 BMatP= 2.37D-01
 IDIUse=3 WtCom= 8.63D-01 WtEn= 1.37D-01
 Coeff-Com:  0.146D+01-0.189D+01 0.142D+01
 Coeff-En:   0.121D+00 0.000D+00 0.879D+00
 Coeff:      0.128D+01-0.163D+01 0.135D+01
 Gap=     0.205 Goal=   None    Shift=    0.000
 RMSDP=1.21D-03 MaxDP=3.15D-02 DE=-6.98D-02 OVMax= 3.92D-02

 Cycle   4  Pass 0  IDiag  1:
 RMSU=  7.31D-04    CP:  9.73D-01  2.07D+00  1.28D+00
 E= -3156.44469378290     Delta-E=       -0.026636951315 Rises=F Damp=F
 DIIS: error= 6.02D-03 at cycle   4 NSaved=   4.
 NSaved= 4 IEnMin= 4 EnMin= -3156.44469378290     IErMin= 4 ErrMin= 6.02D-03
 ErrMax= 6.02D-03  0.00D+00 EMaxC= 1.00D-01 BMatC= 7.10D-03 BMatP= 4.27D-02
 IDIUse=3 WtCom= 9.40D-01 WtEn= 6.02D-02
 Coeff-Com:  0.907D+00-0.119D+01 0.869D+00 0.412D+00
 Coeff-En:   0.000D+00 0.000D+00 0.442D-01 0.956D+00
 Coeff:      0.852D+00-0.112D+01 0.819D+00 0.445D+00
 Gap=     0.221 Goal=   None    Shift=    0.000
 RMSDP=5.61D-04 MaxDP=1.59D-02 DE=-2.66D-02 OVMax= 3.62D-02

 Cycle   5  Pass 0  IDiag  1:
 RMSU=  1.72D-04    CP:  9.73D-01  2.11D+00  1.32D+00  2.75D-01
 E= -3156.45160646686     Delta-E=       -0.006912683961 Rises=F Damp=F
 DIIS: error= 1.69D-03 at cycle   5 NSaved=   5.
 NSaved= 5 IEnMin= 5 EnMin= -3156.45160646686     IErMin= 5 ErrMin= 1.69D-03
 ErrMax= 1.69D-03  0.00D+00 EMaxC= 1.00D-01 BMatC= 5.21D-04 BMatP= 7.10D-03
 IDIUse=3 WtCom= 9.83D-01 WtEn= 1.69D-02
 Coeff-Com:  0.301D+00-0.398D+00 0.280D+00 0.251D+00 0.566D+00
 Coeff-En:   0.000D+00 0.000D+00 0.000D+00 0.391D-01 0.961D+00
 Coeff:      0.296D+00-0.391D+00 0.275D+00 0.247D+00 0.572D+00
 Gap=     0.210 Goal=   None    Shift=    0.000
 RMSDP=1.32D-04 MaxDP=4.04D-03 DE=-6.91D-03 OVMax= 7.42D-03

 Cycle   6  Pass 0  IDiag  1:
 RMSU=  5.28D-05    CP:  9.73D-01  2.13D+00  1.32D+00  3.98D-01  5.48D-01
 E= -3156.45209483091     Delta-E=       -0.000488364047 Rises=F Damp=F
 DIIS: error= 3.33D-04 at cycle   6 NSaved=   6.
 NSaved= 6 IEnMin= 6 EnMin= -3156.45209483091     IErMin= 6 ErrMin= 3.33D-04
 ErrMax= 3.33D-04  0.00D+00 EMaxC= 1.00D-01 BMatC= 3.40D-05 BMatP= 5.21D-04
 IDIUse=3 WtCom= 9.97D-01 WtEn= 3.33D-03
 Coeff-Com:  0.105D+00-0.138D+00 0.908D-01 0.107D+00 0.322D+00 0.514D+00
 Coeff-En:   0.000D+00 0.000D+00 0.000D+00 0.000D+00 0.000D+00 0.100D+01
 Coeff:      0.104D+00-0.138D+00 0.905D-01 0.106D+00 0.321D+00 0.516D+00
 Gap=     0.209 Goal=   None    Shift=    0.000
 RMSDP=3.79D-05 MaxDP=1.50D-03 DE=-4.88D-04 OVMax= 2.85D-03

 Cycle   7  Pass 0  IDiag  1:
 RMSU=  1.96D-05    CP:  9.73D-01  2.12D+00  1.33D+00  3.98D-01  5.92D-01
                    CP:  5.02D-01
 E= -3156.45212810356     Delta-E=       -0.000033272656 Rises=F Damp=F
 DIIS: error= 8.34D-05 at cycle   7 NSaved=   7.
 NSaved= 7 IEnMin= 7 EnMin= -3156.45212810356     IErMin= 7 ErrMin= 8.34D-05
 ErrMax= 8.34D-05  0.00D+00 EMaxC= 1.00D-01 BMatC= 2.00D-06 BMatP= 3.40D-05
 IDIUse=1 WtCom= 1.00D+00 WtEn= 0.00D+00
 Coeff-Com:  0.269D-01-0.359D-01 0.205D-01 0.277D-01 0.948D-01 0.242D+00
 Coeff-Com:  0.624D+00
 Coeff:      0.269D-01-0.359D-01 0.205D-01 0.277D-01 0.948D-01 0.242D+00
 Coeff:      0.624D+00
 Gap=     0.209 Goal=   None    Shift=    0.000
 RMSDP=1.07D-05 MaxDP=3.21D-04 DE=-3.33D-05 OVMax= 7.80D-04

 Cycle   8  Pass 0  IDiag  1:
 RMSU=  6.92D-06    CP:  9.73D-01  2.12D+00  1.33D+00  3.98D-01  6.01D-01
                    CP:  5.75D-01  6.56D-01
 E= -3156.45212958519     Delta-E=       -0.000001481630 Rises=F Damp=F
 DIIS: error= 6.20D-05 at cycle   8 NSaved=   8.
 NSaved= 8 IEnMin= 8 EnMin= -3156.45212958519     IErMin= 8 ErrMin= 6.20D-05
 ErrMax= 6.20D-05  0.00D+00 EMaxC= 1.00D-01 BMatC= 5.20D-07 BMatP= 2.00D-06
 IDIUse=1 WtCom= 1.00D+00 WtEn= 0.00D+00
 Coeff-Com:  0.946D-02-0.126D-01 0.612D-02 0.898D-02 0.337D-01 0.112D+00
 Coeff-Com:  0.404D+00 0.438D+00
 Coeff:      0.946D-02-0.126D-01 0.612D-02 0.898D-02 0.337D-01 0.112D+00
 Coeff:      0.404D+00 0.438D+00
 Gap=     0.209 Goal=   None    Shift=    0.000
 RMSDP=4.12D-06 MaxDP=1.49D-04 DE=-1.48D-06 OVMax= 2.88D-04

 Initial convergence to 1.0D-05 achieved.  Increase integral accuracy.
 Cycle   9  Pass 1  IDiag  1:
 E= -3156.45210341629     Delta-E=        0.000026168908 Rises=F Damp=F
 DIIS: error= 3.76D-05 at cycle   1 NSaved=   1.
 NSaved= 1 IEnMin= 1 EnMin= -3156.45210341629     IErMin= 1 ErrMin= 3.76D-05
 ErrMax= 3.76D-05  0.00D+00 EMaxC= 1.00D-01 BMatC= 1.44D-07 BMatP= 1.44D-07
 IDIUse=1 WtCom= 1.00D+00 WtEn= 0.00D+00
 Coeff-Com:  0.100D+01
 Coeff:      0.100D+01
 Gap=     0.209 Goal=   None    Shift=    0.000
 RMSDP=4.12D-06 MaxDP=1.49D-04 DE= 2.62D-05 OVMax= 1.05D-04

 Cycle  10  Pass 1  IDiag  1:
 RMSU=  9.25D-06    CP:  1.00D+00
 E= -3156.45210345182     Delta-E=       -0.000000035537 Rises=F Damp=F
 DIIS: error= 1.80D-05 at cycle   2 NSaved=   2.
 NSaved= 2 IEnMin= 2 EnMin= -3156.45210345182     IErMin= 2 ErrMin= 1.80D-05
 ErrMax= 1.80D-05  0.00D+00 EMaxC= 1.00D-01 BMatC= 4.40D-08 BMatP= 1.44D-07
 IDIUse=1 WtCom= 1.00D+00 WtEn= 0.00D+00
 Coeff-Com:  0.287D+00 0.713D+00
 Coeff:      0.287D+00 0.713D+00
 Gap=     0.209 Goal=   None    Shift=    0.000
 RMSDP=2.32D-06 MaxDP=7.05D-05 DE=-3.55D-08 OVMax= 1.37D-04

 Cycle  11  Pass 1  IDiag  1:
 RMSU=  2.31D-06    CP:  1.00D+00  9.75D-01
 E= -3156.45210344384     Delta-E=        0.000000007985 Rises=F Damp=F
 DIIS: error= 2.17D-05 at cycle   3 NSaved=   3.
 NSaved= 3 IEnMin= 2 EnMin= -3156.45210345182     IErMin= 2 ErrMin= 1.80D-05
 ErrMax= 2.17D-05  0.00D+00 EMaxC= 1.00D-01 BMatC= 5.07D-08 BMatP= 4.40D-08
 IDIUse=1 WtCom= 1.00D+00 WtEn= 0.00D+00
 Coeff-Com:  0.743D-02 0.516D+00 0.476D+00
 Coeff:      0.743D-02 0.516D+00 0.476D+00
 Gap=     0.209 Goal=   None    Shift=    0.000
 RMSDP=1.26D-06 MaxDP=3.73D-05 DE= 7.99D-09 OVMax= 8.54D-05

 Cycle  12  Pass 1  IDiag  1:
 RMSU=  3.22D-07    CP:  1.00D+00  9.99D-01  4.82D-01
 E= -3156.45210349528     Delta-E=       -0.000000051444 Rises=F Damp=F
 DIIS: error= 1.79D-06 at cycle   4 NSaved=   4.
 NSaved= 4 IEnMin= 4 EnMin= -3156.45210349528     IErMin= 4 ErrMin= 1.79D-06
 ErrMax= 1.79D-06  0.00D+00 EMaxC= 1.00D-01 BMatC= 9.44D-10 BMatP= 4.40D-08
 IDIUse=1 WtCom= 1.00D+00 WtEn= 0.00D+00
 Coeff-Com: -0.360D-02 0.268D+00 0.265D+00 0.470D+00
 Coeff:     -0.360D-02 0.268D+00 0.265D+00 0.470D+00
 Gap=     0.209 Goal=   None    Shift=    0.000
 RMSDP=1.72D-07 MaxDP=5.56D-06 DE=-5.14D-08 OVMax= 1.05D-05

 Cycle  13  Pass 1  IDiag  1:
 RMSU=  8.68D-08    CP:  1.00D+00  1.00D+00  5.01D-01  5.61D-01
 E= -3156.45210349619     Delta-E=       -0.000000000911 Rises=F Damp=F
 DIIS: error= 3.00D-07 at cycle   5 NSaved=   5.
 NSaved= 5 IEnMin= 5 EnMin= -3156.45210349619     IErMin= 5 ErrMin= 3.00D-07
 ErrMax= 3.00D-07  0.00D+00 EMaxC= 1.00D-01 BMatC= 1.99D-11 BMatP= 9.44D-10
 IDIUse=1 WtCom= 1.00D+00 WtEn= 0.00D+00
 Coeff-Com: -0.189D-02 0.107D+00 0.107D+00 0.222D+00 0.567D+00
 Coeff:     -0.189D-02 0.107D+00 0.107D+00 0.222D+00 0.567D+00
 Gap=     0.209 Goal=   None    Shift=    0.000
 RMSDP=3.28D-08 MaxDP=7.28D-07 DE=-9.11D-10 OVMax= 1.81D-06

 Cycle  14  Pass 1  IDiag  1:
 RMSU=  2.82D-08    CP:  1.00D+00  1.00D+00  4.99D-01  5.83D-01  8.42D-01
 E= -3156.45210349621     Delta-E=       -0.000000000018 Rises=F Damp=F
 DIIS: error= 7.12D-08 at cycle   6 NSaved=   6.
 NSaved= 6 IEnMin= 6 EnMin= -3156.45210349621     IErMin= 6 ErrMin= 7.12D-08
 ErrMax= 7.12D-08  0.00D+00 EMaxC= 1.00D-01 BMatC= 1.47D-12 BMatP= 1.99D-11
 IDIUse=1 WtCom= 1.00D+00 WtEn= 0.00D+00
 Coeff-Com: -0.276D-03 0.794D-02 0.857D-02 0.294D-01 0.227D+00 0.727D+00
 Coeff:     -0.276D-03 0.794D-02 0.857D-02 0.294D-01 0.227D+00 0.727D+00
 Gap=     0.209 Goal=   None    Shift=    0.000
 RMSDP=8.80D-09 MaxDP=2.44D-07 DE=-1.82D-11 OVMax= 5.24D-07

 SCF Done:  E(RB3LYP) =  -3156.45210350     A.U. after   14 cycles
            NFock= 14  Conv=0.88D-08     -V/T= 2.0064
 KE= 3.136324828661D+03 PE=-9.361288845666D+03 EE= 2.142072186184D+03
 Leave Link  502 at Tue Sep 17 09:53:57 2024, MaxMem=  1342177280 cpu:              57.2 elap:               7.6
 (Enter /groups/ReismanLab/Software/Gaussian16_RevC/Linux_Binary_AVX2-enabled-CPU/g16/l508.exe)
 QCSCF skips out because SCF is already converged.
 Leave Link  508 at Tue Sep 17 09:53:57 2024, MaxMem=  1342177280 cpu:               0.0 elap:               0.1
 (Enter /groups/ReismanLab/Software/Gaussian16_RevC/Linux_Binary_AVX2-enabled-CPU/g16/l601.exe)
 Copying SCF densities to generalized density rwf, IOpCl= 0 IROHF=0.

 **********************************************************************

            Population analysis using the SCF Density.

 **********************************************************************

 Orbital symmetries:
       Occupied  (A) (A) (A) (A) (A) (A) (A) (A) (A) (A) (A) (A)
                 (A) (A) (A) (A) (A) (A) (A) (A) (A) (A) (A) (A)
                 (A) (A) (A) (A) (A) (A) (A) (A) (A) (A) (A) (A)
                 (A) (A) (A) (A) (A) (A) (A) (A) (A) (A) (A) (A)
                 (A) (A) (A) (A) (A) (A)
       Virtual   (A) (A) (A) (A) (A) (A) (A) (A) (A) (A) (A) (A)
                 (A) (A) (A) (A) (A) (A) (A) (A) (A) (A) (A) (A)
                 (A) (A) (A) (A) (A) (A) (A) (A) (A) (A) (A) (A)
                 (A) (A) (A) (A) (A) (A) (A) (A) (A) (A) (A) (A)
                 (A) (A) (A) (A) (A) (A) (A) (A) (A) (A) (A) (A)
                 (A) (A) (A) (A) (A) (A) (A) (A) (A) (A) (A) (A)
                 (A) (A) (A) (A) (A) (A) (A) (A) (A) (A) (A) (A)
                 (A) (A) (A) (A) (A) (A) (A) (A) (A) (A) (A) (A)
                 (A) (A) (A) (A) (A) (A) (A) (A) (A) (A) (A) (A)
                 (A) (A) (A) (A) (A) (A) (A) (A) (A) (A) (A) (A)
                 (A) (A) (A) (A) (A) (A) (A) (A) (A) (A) (A) (A)
                 (A) (A) (A) (A) (A) (A) (A) (A) (A)
 The electronic state is 1-A.
 Alpha  occ. eigenvalues -- -482.93133 -61.89278 -56.41396 -56.40956 -56.40952
 Alpha  occ. eigenvalues --  -24.73875 -24.73227 -24.73223 -14.35539 -10.44760
 Alpha  occ. eigenvalues --  -10.27515 -10.25099 -10.25005 -10.24584 -10.22989
 Alpha  occ. eigenvalues --   -8.60373  -6.55805  -6.54472  -6.54409  -2.67369
 Alpha  occ. eigenvalues --   -2.66995  -2.66948  -2.65882  -2.65882  -1.32066
 Alpha  occ. eigenvalues --   -1.22946  -1.22581  -0.98022  -0.87010  -0.82282
 Alpha  occ. eigenvalues --   -0.76277  -0.72646  -0.66025  -0.65048  -0.59546
 Alpha  occ. eigenvalues --   -0.59382  -0.58808  -0.52116  -0.49890  -0.48610
 Alpha  occ. eigenvalues --   -0.47092  -0.46578  -0.44701  -0.44218  -0.42541
 Alpha  occ. eigenvalues --   -0.42226  -0.40717  -0.39939  -0.39219  -0.34622
 Alpha  occ. eigenvalues --   -0.31309  -0.30623  -0.27573  -0.26811
 Alpha virt. eigenvalues --   -0.05943  -0.03972  -0.00677   0.10442   0.10912
 Alpha virt. eigenvalues --    0.12432   0.14214   0.17217   0.19678   0.21101
 Alpha virt. eigenvalues --    0.21931   0.24362   0.26478   0.28262   0.31591
 Alpha virt. eigenvalues --    0.32376   0.39928   0.42325   0.43158   0.43841
 Alpha virt. eigenvalues --    0.44579   0.45978   0.46473   0.47047   0.48848
 Alpha virt. eigenvalues --    0.51136   0.51934   0.52599   0.53868   0.56558
 Alpha virt. eigenvalues --    0.58641   0.60310   0.62522   0.64740   0.65678
 Alpha virt. eigenvalues --    0.66296   0.72452   0.73101   0.77757   0.78383
 Alpha virt. eigenvalues --    0.78690   0.81977   0.83567   0.85405   0.86409
 Alpha virt. eigenvalues --    0.87771   0.93612   0.95459   1.01647   1.06568
 Alpha virt. eigenvalues --    1.06763   1.08792   1.10290   1.12070   1.14889
 Alpha virt. eigenvalues --    1.18440   1.21058   1.22791   1.22969   1.31451
 Alpha virt. eigenvalues --    1.31503   1.32405   1.33352   1.35202   1.37455
 Alpha virt. eigenvalues --    1.39361   1.39784   1.40833   1.43938   1.47024
 Alpha virt. eigenvalues --    1.51042   1.56860   1.60259   1.60596   1.64372
 Alpha virt. eigenvalues --    1.65802   1.68359   1.73315   1.76208   1.76738
 Alpha virt. eigenvalues --    1.82241   1.82575   1.84799   1.88947   1.90168
 Alpha virt. eigenvalues --    1.94837   1.96158   1.97890   1.98732   2.00563
 Alpha virt. eigenvalues --    2.02389   2.03205   2.06799   2.08444   2.09110
 Alpha virt. eigenvalues --    2.10905   2.11404   2.15369   2.18911   2.25697
 Alpha virt. eigenvalues --    2.28286   2.29870   2.34909   2.39516   2.40863
 Alpha virt. eigenvalues --    2.44667   2.45360   2.47044   2.52118   2.52517
 Alpha virt. eigenvalues --    2.56375   2.61839   2.63019   2.69174   2.71279
 Alpha virt. eigenvalues --    2.74178   2.76109   2.80151   2.89525   2.97500
 Alpha virt. eigenvalues --    3.01044   3.02785   3.04124   3.12786   3.18185
 Alpha virt. eigenvalues --    3.23938   3.28778   3.43382   3.72175   4.01858
 Alpha virt. eigenvalues --    4.10933   4.13994   4.26705   4.34268   4.37579
 Alpha virt. eigenvalues --    4.42379   4.64367   4.82424   5.65191   8.62550
 Alpha virt. eigenvalues --   73.38901
          Condensed to atoms (all electrons):
               1          2          3          4          5          6
     1  F    9.101147   0.275732  -0.040580  -0.040298  -0.040591   0.001555
     2  C    0.275732   4.117434   0.297165   0.275829   0.292412  -0.042684
     3  F   -0.040580   0.297165   9.076573  -0.040587  -0.044299   0.002755
     4  F   -0.040298   0.275829  -0.040587   9.100996  -0.040661   0.001547
     5  C   -0.040591   0.292412  -0.044299  -0.040661   5.145975   0.482571
     6  C    0.001555  -0.042684   0.002755   0.001547   0.482571   5.017438
     7  C   -0.000049   0.005258   0.000629  -0.000049  -0.023020   0.451063
     8  N    0.000000  -0.000170  -0.000002   0.000000  -0.049759  -0.027311
     9  C    0.000028   0.004928  -0.000042   0.000028  -0.025451  -0.046715
    10  C   -0.004312  -0.030163   0.002726  -0.004279   0.440783  -0.038203
    11  Br   0.001997   0.000789   0.000071   0.001993  -0.076835   0.006076
    12  H    0.000217  -0.007973   0.009983   0.000217  -0.042892   0.362180
    13  H    0.000000  -0.000111  -0.000000   0.000000   0.002802  -0.060043
    14  H    0.000001  -0.000083   0.000000   0.000001   0.003724   0.000374
               7          8          9         10         11         12
     1  F   -0.000049   0.000000   0.000028  -0.004312   0.001997   0.000217
     2  C    0.005258  -0.000170   0.004928  -0.030163   0.000789  -0.007973
     3  F    0.000629  -0.000002  -0.000042   0.002726   0.000071   0.009983
     4  F   -0.000049   0.000000   0.000028  -0.004279   0.001993   0.000217
     5  C   -0.023020  -0.049759  -0.025451   0.440783  -0.076835  -0.042892
     6  C    0.451063  -0.027311  -0.046715  -0.038203   0.006076   0.362180
     7  C    4.736965   0.472111  -0.071506  -0.037182   0.000039  -0.029417
     8  N    0.472111   6.665956   0.463405  -0.022125   0.004675   0.004896
     9  C   -0.071506   0.463405   4.804487   0.428981  -0.057531   0.000209
    10  C   -0.037182  -0.022125   0.428981   5.033400   0.274463   0.005679
    11  Br   0.000039   0.004675  -0.057531   0.274463  34.920196  -0.000082
    12  H   -0.029417   0.004896   0.000209   0.005679  -0.000082   0.573992
    13  H    0.390167  -0.051477   0.004543   0.000918   0.000018  -0.001666
    14  H    0.004701  -0.049266   0.393000  -0.067954   0.002816   0.000027
              13         14
     1  F    0.000000   0.000001
     2  C   -0.000111  -0.000083
     3  F   -0.000000   0.000000
     4  F    0.000000   0.000001
     5  C    0.002802   0.003724
     6  C   -0.060043   0.000374
     7  C    0.390167   0.004701
     8  N   -0.051477  -0.049266
     9  C    0.004543   0.393000
    10  C    0.000918  -0.067954
    11  Br   0.000018   0.002816
    12  H   -0.001666   0.000027
    13  H    0.599104  -0.000169
    14  H   -0.000169   0.585248
 Mulliken charges:
               1
     1  F   -0.254847
     2  C    0.811638
     3  F   -0.264393
     4  F   -0.254737
     5  C   -0.024758
     6  C   -0.110604
     7  C    0.100292
     8  N   -0.410934
     9  C    0.101635
    10  C    0.017268
    11  Br  -0.078686
    12  H    0.124631
    13  H    0.115915
    14  H    0.127579
 Sum of Mulliken charges =  -0.00000
 Mulliken charges with hydrogens summed into heavy atoms:
               1
     1  F   -0.254847
     2  C    0.811638
     3  F   -0.264393
     4  F   -0.254737
     5  C   -0.024758
     6  C    0.014027
     7  C    0.216207
     8  N   -0.410934
     9  C    0.229214
    10  C    0.017268
    11  Br  -0.078686
 Electronic spatial extent (au):  <R**2>=           2086.4643
 Charge=             -0.0000 electrons
 Dipole moment (field-independent basis, Debye):
    X=             -1.2006    Y=             -0.3474    Z=              0.0000  Tot=              1.2498
 Quadrupole moment (field-independent basis, Debye-Ang):
   XX=            -64.7958   YY=            -77.7063   ZZ=            -73.0829
   XY=             -2.1347   XZ=              0.0012   YZ=              0.0002
 Traceless Quadrupole moment (field-independent basis, Debye-Ang):
   XX=              7.0659   YY=             -5.8446   ZZ=             -1.2212
   XY=             -2.1347   XZ=              0.0012   YZ=              0.0002
 Octapole moment (field-independent basis, Debye-Ang**2):
  XXX=             35.2904  YYY=             42.0876  ZZZ=             -0.0011  XYY=             31.5905
  XXY=             10.1739  XXZ=             -0.0045  XZZ=             17.8699  YZZ=             10.6566
  YYZ=              0.0039  XYZ=             -0.0023
 Hexadecapole moment (field-independent basis, Debye-Ang**3):
 XXXX=           -966.0107 YYYY=          -1135.9187 ZZZZ=           -131.1392 XXXY=            -22.3376
 XXXZ=             -0.0080 YYYX=            -93.7618 YYYZ=              0.0047 ZZZX=             -0.0137
 ZZZY=              0.0018 XXYY=           -373.1213 XXZZ=           -210.4520 YYZZ=           -204.4400
 XXYZ=              0.0089 YYXZ=              0.0025 ZZXY=            -17.7488
 N-N= 9.264397273254D+02 E-N=-9.361288857914D+03  KE= 3.136324828661D+03
 No NMR shielding tensors so no spin-rotation constants.
 Leave Link  601 at Tue Sep 17 09:53:57 2024, MaxMem=  1342177280 cpu:               0.6 elap:               0.1
 (Enter /groups/ReismanLab/Software/Gaussian16_RevC/Linux_Binary_AVX2-enabled-CPU/g16/l701.exe)
 ... and contract with generalized density number  0.
 Compute integral first derivatives.
 R6Disp: Adding Grimme-D3(BJ) dispersion energy 1st derivatives to the gradient.
 Leave Link  701 at Tue Sep 17 09:53:57 2024, MaxMem=  1342177280 cpu:               0.6 elap:               0.1
 (Enter /groups/ReismanLab/Software/Gaussian16_RevC/Linux_Binary_AVX2-enabled-CPU/g16/l702.exe)
 L702 exits ... SP integral derivatives will be done elsewhere.
 Leave Link  702 at Tue Sep 17 09:53:57 2024, MaxMem=  1342177280 cpu:               0.1 elap:               0.0
 (Enter /groups/ReismanLab/Software/Gaussian16_RevC/Linux_Binary_AVX2-enabled-CPU/g16/l703.exe)
 Integral derivatives from FoFJK, PRISM(SPDF).
 Compute integral first derivatives, UseDBF=F ICtDFT=           0.
 Calling FoFJK, ICntrl=      2127 FMM=F ISym2X=0 I1Cent= 0 IOpClX= 0 NMat=1 NMatS=1 NMatT=0.
 FoFJK:  IHMeth= 1 ICntrl=    2127 DoSepK=F KAlg= 0 I1Cent=           0 FoldK=F
 IRaf=         0 NMat=       1 IRICut=       1 DoRegI=T DoRafI=F ISym2E= 0 IDoP0=0 IntGTp=1.
 FoFCou: FMM=F IPFlag=           0 FMFlag=      100000 FMFlg1=         800
         NFxFlg=           0 DoJE=F BraDBF=F KetDBF=F FulRan=T
         wScrn=  0.000000 ICntrl=      2127 IOpCl=  0 I1Cent=           0 NGrid=           0
         NMat0=    1 NMatS0=      1 NMatT0=    0 NMatD0=    1 NMtDS0=    0 NMtDT0=    0
 Symmetry not used in FoFCou.
 Leave Link  703 at Tue Sep 17 09:54:00 2024, MaxMem=  1342177280 cpu:              18.9 elap:               2.4
 (Enter /groups/ReismanLab/Software/Gaussian16_RevC/Linux_Binary_AVX2-enabled-CPU/g16/l716.exe)
 Dipole        =-4.72334826D-01-1.36661459D-01 7.59042251D-07
 ***** Axes restored to original set *****
 -------------------------------------------------------------------
 Center     Atomic                   Forces (Hartrees/Bohr)
 Number     Number              X              Y              Z
 -------------------------------------------------------------------
      1        9          -0.005393038   -0.001174938    0.007961704
      2        6           0.000608271    0.005024776    0.000068433
      3        9           0.012455176   -0.001490599    0.000010040
      4        9          -0.005440683   -0.001131766   -0.008044543
      5        6          -0.002082120    0.007621561    0.000015857
      6        6           0.000646065    0.001171274   -0.000009696
      7        6           0.010355176    0.003624356    0.000000222
      8        7           0.002411542   -0.020746485    0.000002488
      9        6          -0.014384950    0.007276652   -0.000037874
     10        6           0.000679150   -0.000379458    0.000031208
     11       35          -0.002738103   -0.000226620   -0.000019882
     12        1           0.002573710    0.001764014    0.000001575
     13        1           0.005249495   -0.001142389    0.000005372
     14        1          -0.004939690   -0.000190378    0.000015096
 -------------------------------------------------------------------
 Cartesian Forces:  Max     0.020746485 RMS     0.005615256
 Leave Link  716 at Tue Sep 17 09:54:00 2024, MaxMem=  1342177280 cpu:               0.0 elap:               0.0
 (Enter /groups/ReismanLab/Software/Gaussian16_RevC/Linux_Binary_AVX2-enabled-CPU/g16/l103.exe)

 GradGradGradGradGradGradGradGradGradGradGradGradGradGradGradGradGradGrad
 Berny optimization.
 FormGI is forming the generalized inverse of G from B-inverse, IUseBI=4.
 Internal  Forces:  Max     0.020667931 RMS     0.004988068
 Search for a local minimum.
 Step number   1 out of a maximum of   72
 All quantities printed in internal units (Hartrees-Bohrs-Radians)
 RMS Force = .49881D-02 SwitMx=.10000D-02 MixMth= 1
 Mixed Optimization -- RFO/linear search
 Second derivative matrix not updated -- first step.
 ITU=  0
     Eigenvalues ---    0.00644   0.01568   0.02168   0.02195   0.02241
     Eigenvalues ---    0.02284   0.02362   0.02419   0.02654   0.10564
     Eigenvalues ---    0.10666   0.16000   0.16000   0.16000   0.18697
     Eigenvalues ---    0.22344   0.23259   0.24579   0.25000   0.25000
     Eigenvalues ---    0.25000   0.25000   0.25000   0.31426   0.35875
     Eigenvalues ---    0.35955   0.36197   0.42992   0.44842   0.46896
     Eigenvalues ---    0.47444   0.57107   0.57139   0.57327   0.59612
     Eigenvalues ---    0.61939
 RFO step:  Lambda=-3.48663448D-03 EMin= 6.43654785D-03
 Linear search not attempted -- first point.
 Iteration  1 RMS(Cart)=  0.01985803 RMS(Int)=  0.00029824
 Iteration  2 RMS(Cart)=  0.00034780 RMS(Int)=  0.00008051
 Iteration  3 RMS(Cart)=  0.00000013 RMS(Int)=  0.00008051
 ITry= 1 IFail=0 DXMaxC= 6.58D-02 DCOld= 1.00D+10 DXMaxT= 3.00D-01 DXLimC= 3.00D+00 Rises=F
 Variable       Old X    -DE/DX   Delta X   Delta X   Delta X     New X
                                 (Linear)    (Quad)   (Total)
    R1        2.53306   0.00833   0.00000   0.01450   0.01450   2.54757
    R2        2.53121   0.01120   0.00000   0.01942   0.01942   2.55062
    R3        2.53279   0.00844   0.00000   0.01468   0.01468   2.54747
    R4        2.85206   0.00131   0.00000   0.00412   0.00412   2.85618
    R5        2.62613   0.00547   0.00000   0.00976   0.00975   2.63588
    R6        2.63358   0.00623   0.00000   0.01164   0.01162   2.64520
    R7        2.62163   0.00657   0.00000   0.01361   0.01362   2.63525
    R8        2.03775   0.00310   0.00000   0.00847   0.00847   2.04622
    R9        2.49601   0.01729   0.00000   0.02906   0.02908   2.52509
   R10        2.04152   0.00495   0.00000   0.01363   0.01363   2.05515
   R11        2.48278   0.02067   0.00000   0.03364   0.03366   2.51644
   R12        2.63499   0.00449   0.00000   0.00978   0.00978   2.64477
   R13        2.04277   0.00432   0.00000   0.01192   0.01192   2.05469
   R14        3.57349   0.00230   0.00000   0.01207   0.01207   3.58556
    A1        1.85711   0.00692   0.00000   0.02823   0.02799   1.88510
    A2        1.86868   0.00563   0.00000   0.02031   0.02003   1.88871
    A3        1.95920  -0.00552   0.00000  -0.02231  -0.02258   1.93662
    A4        1.85719   0.00692   0.00000   0.02829   0.02805   1.88525
    A5        1.95570  -0.00676   0.00000  -0.02564  -0.02588   1.92982
    A6        1.95902  -0.00550   0.00000  -0.02222  -0.02249   1.93654
    A7        2.09863  -0.00339   0.00000  -0.00990  -0.00988   2.08874
    A8        2.11565   0.00371   0.00000   0.01813   0.01815   2.13380
    A9        2.06891  -0.00032   0.00000  -0.00823  -0.00826   2.06064
   A10        2.06466   0.00343   0.00000   0.01067   0.01065   2.07532
   A11        2.10146  -0.00211   0.00000  -0.00776  -0.00775   2.09371
   A12        2.11706  -0.00132   0.00000  -0.00291  -0.00290   2.11416
   A13        2.14663  -0.00065   0.00000  -0.00045  -0.00043   2.14620
   A14        2.11380  -0.00181   0.00000  -0.01281  -0.01282   2.10098
   A15        2.02276   0.00245   0.00000   0.01326   0.01325   2.03601
   A16        2.07965  -0.00528   0.00000  -0.01257  -0.01253   2.06713
   A17        2.14363  -0.00052   0.00000   0.00086   0.00087   2.14451
   A18        2.03768   0.00272   0.00000   0.01461   0.01461   2.05229
   A19        2.10188  -0.00220   0.00000  -0.01548  -0.01548   2.08639
   A20        2.06288   0.00333   0.00000   0.00971   0.00969   2.07258
   A21        2.13600   0.00102   0.00000   0.00575   0.00576   2.14176
   A22        2.08430  -0.00436   0.00000  -0.01546  -0.01545   2.06885
    D1       -2.08934  -0.00030   0.00000  -0.00209  -0.00207  -2.09142
    D2        1.05239  -0.00030   0.00000  -0.00196  -0.00194   1.05045
    D3       -0.00071   0.00000   0.00000   0.00065   0.00065  -0.00006
    D4        3.14102   0.00000   0.00000   0.00079   0.00079  -3.14138
    D5        2.08791   0.00032   0.00000   0.00353   0.00352   2.09143
    D6       -1.05355   0.00032   0.00000   0.00367   0.00365  -1.04989
    D7       -3.14138  -0.00000   0.00000  -0.00006  -0.00006  -3.14144
    D8        0.00012   0.00000   0.00000   0.00012   0.00012   0.00024
    D9        0.00008  -0.00000   0.00000  -0.00019  -0.00019  -0.00011
   D10        3.14158   0.00000   0.00000  -0.00001  -0.00001   3.14157
   D11        3.14145  -0.00000   0.00000  -0.00014  -0.00014   3.14131
   D12       -0.00054   0.00001   0.00000   0.00054   0.00054  -0.00000
   D13       -0.00001  -0.00000   0.00000  -0.00001  -0.00001  -0.00002
   D14        3.14119   0.00002   0.00000   0.00067   0.00067  -3.14132
   D15       -0.00003   0.00000   0.00000   0.00017   0.00017   0.00014
   D16        3.14146   0.00001   0.00000   0.00025   0.00025  -3.14148
   D17       -3.14153  -0.00000   0.00000  -0.00002  -0.00002  -3.14155
   D18       -0.00004   0.00000   0.00000   0.00006   0.00006   0.00002
   D19       -0.00009   0.00000   0.00000   0.00007   0.00007  -0.00002
   D20       -3.14159   0.00000   0.00000  -0.00000  -0.00000  -3.14159
   D21        0.00017  -0.00001   0.00000  -0.00029  -0.00029  -0.00012
   D22        3.14137   0.00000   0.00000   0.00014   0.00014   3.14151
   D23       -0.00012   0.00001   0.00000   0.00026   0.00026   0.00014
   D24       -3.14133  -0.00001   0.00000  -0.00040  -0.00040   3.14146
   D25       -3.14130  -0.00001   0.00000  -0.00019  -0.00019  -3.14149
   D26        0.00067  -0.00002   0.00000  -0.00085  -0.00084  -0.00017
         Item               Value     Threshold  Converged?
 Maximum Force            0.020668     0.000450     NO 
 RMS     Force            0.004988     0.000300     NO 
 Maximum Displacement     0.065777     0.001800     NO 
 RMS     Displacement     0.019872     0.001200     NO 
 Predicted change in Energy=-1.759545D-03
 Lowest energy point so far.  Saving SCF results.
 GradGradGradGradGradGradGradGradGradGradGradGradGradGradGradGradGradGrad

 Leave Link  103 at Tue Sep 17 09:54:00 2024, MaxMem=  1342177280 cpu:               0.1 elap:               0.0
 (Enter /groups/ReismanLab/Software/Gaussian16_RevC/Linux_Binary_AVX2-enabled-CPU/g16/l202.exe)
                          Input orientation:                          
 ---------------------------------------------------------------------
 Center     Atomic      Atomic             Coordinates (Angstroms)
 Number     Number       Type             X           Y           Z
 ---------------------------------------------------------------------
      1          9           0        0.461678    1.861937    1.092034
      2          6           0        1.064370    1.350383    0.000023
      3          9           0        2.349137    1.764084    0.000160
      4          9           0        0.461851    1.861576   -1.092187
      5          6           0        0.992603   -0.159336    0.000182
      6          6           0        2.170340   -0.906687    0.000363
      7          6           0        2.085431   -2.298612    0.000327
      8          7           0        0.922185   -2.956139   -0.000028
      9          6           0       -0.206063   -2.248805   -0.000339
     10          6           0       -0.225268   -0.849387   -0.000167
     11         35           0       -1.904440    0.034069   -0.000873
     12          1           0        3.129565   -0.404326    0.000616
     13          1           0        2.988439   -2.904678    0.000571
     14          1           0       -1.144562   -2.797829   -0.000704
 ---------------------------------------------------------------------
                    Distance matrix (angstroms):
                    1          2          3          4          5
     1  F    0.000000
     2  C    1.348114   0.000000
     3  F    2.182719   1.349731   0.000000
     4  F    2.184221   1.348061   2.182790   0.000000
     5  C    2.357873   1.511423   2.353662   2.357764   0.000000
     6  C    3.431698   2.513471   2.676749   3.431600   1.394847
     7  C    4.597670   3.789159   4.071245   4.597473   2.402244
     8  N    4.961706   4.308868   4.931196   4.961360   2.797690
     9  C    4.305503   3.816825   4.757344   4.305051   2.408876
    10  C    3.002678   2.549932   3.668486   3.002325   1.399779
    11  Br   3.183404   3.247539   4.591934   3.182778   2.903491
    12  H    3.666710   2.709988   2.304576   3.666773   2.150960
    13  H    5.504219   4.669859   4.712329   5.504084   3.394151
    14  H    5.048515   4.699685   5.746040   5.047964   3.395456
                    6          7          8          9         10
     6  C    0.000000
     7  C    1.394512   0.000000
     8  N    2.399614   1.336220   0.000000
     9  C    2.729208   2.292036   1.331640   0.000000
    10  C    2.396294   2.727560   2.398969   1.399550   0.000000
    11  Br   4.181968   4.621739   4.114748   2.845346   1.897396
    12  H    1.082811   2.162992   3.374060   3.811630   3.384226
    13  H    2.158994   1.087538   2.066895   3.261137   3.814726
    14  H    3.816412   3.268345   2.072802   1.087294   2.154421
                   11         12         13         14
    11  Br   0.000000
    12  H    5.053058   0.000000
    13  H    5.707582   2.504332   0.000000
    14  H    2.932074   4.898676   4.134382   0.000000
 Stoichiometry    C6H3BrF3N
 Framework group  C1[X(C6H3BrF3N)]
 Deg. of freedom    36
 Full point group                 C1      NOp   1
 RotChk:  IX=1 Diff= 1.68D-01
 Largest Abelian subgroup         C1      NOp   1
 Largest concise Abelian subgroup C1      NOp   1
                         Standard orientation:                         
 ---------------------------------------------------------------------
 Center     Atomic      Atomic             Coordinates (Angstroms)
 Number     Number       Type             X           Y           Z
 ---------------------------------------------------------------------
      1          9           0       -0.074832    1.960309   -1.092166
      2          6           0       -0.748373    1.546940    0.000025
      3          9           0       -1.954709    2.152354    0.000282
      4          9           0       -0.074402    1.959862    1.092055
      5          6           0       -0.908456    0.044018   -0.000166
      6          6           0       -2.186678   -0.514325    0.000008
      7          6           0       -2.315750   -1.902851    0.000010
      8          7           0       -1.266812   -2.730626    0.000006
      9          6           0       -0.043619   -2.204257   -0.000023
     10          6           0        0.189488   -0.824257   -0.000191
     11         35           0        1.984065   -0.208137    0.000009
     12          1           0       -3.057741    0.128893    0.000051
     13          1           0       -3.300860   -2.363609    0.000036
     14          1           0        0.799822   -2.890417    0.000054
 ---------------------------------------------------------------------
 Rotational constants (GHZ):           0.9362597           0.8257857           0.4762583
 Leave Link  202 at Tue Sep 17 09:54:00 2024, MaxMem=  1342177280 cpu:               0.0 elap:               0.0
 (Enter /groups/ReismanLab/Software/Gaussian16_RevC/Linux_Binary_AVX2-enabled-CPU/g16/l301.exe)
 Standard basis: 6-31G(d,p) (6D, 7F)
 Ernie: Thresh=  0.10000D-02 Tol=  0.10000D-05 Strict=F.
 There are   195 symmetry adapted cartesian basis functions of A   symmetry.
 There are   195 symmetry adapted basis functions of A   symmetry.
   195 basis functions,   384 primitive gaussians,   195 cartesian basis functions
    54 alpha electrons       54 beta electrons
       nuclear repulsion energy       921.3475946310 Hartrees.
 IExCor=  402 DFT=T Ex+Corr=B3LYP ExCW=0 ScaHFX=  0.200000
 ScaDFX=  0.800000  0.720000  1.000000  0.810000 ScalE2=  1.000000  1.000000
 IRadAn=      5 IRanWt=     -1 IRanGd=            0 ICorTp=0 IEmpDi=141
 NAtoms=   14 NActive=   14 NUniq=   14 SFac= 1.00D+00 NAtFMM=   60 NAOKFM=F Big=F
 Integral buffers will be    131072 words long.
 Raffenetti 2 integral format.
 Two-electron integral symmetry is turned on.
 R6Disp:  Grimme-D3(BJ) Dispersion energy=       -0.0294966334 Hartrees.
 Nuclear repulsion after empirical dispersion term =      921.3180979976 Hartrees.
 Leave Link  301 at Tue Sep 17 09:54:00 2024, MaxMem=  1342177280 cpu:               0.1 elap:               0.0
 (Enter /groups/ReismanLab/Software/Gaussian16_RevC/Linux_Binary_AVX2-enabled-CPU/g16/l302.exe)
 NPDir=0 NMtPBC=     1 NCelOv=     1 NCel=       1 NClECP=     1 NCelD=      1
         NCelK=      1 NCelE2=     1 NClLst=     1 CellRange=     0.0.
 One-electron integrals computed using PRISM.
 One-electron integral symmetry used in STVInt
 NBasis=   195 RedAO= T EigKep=  6.62D-04  NBF=   195
 NBsUse=   195 1.00D-06 EigRej= -1.00D+00 NBFU=   195
 Precomputing XC quadrature grid using
 IXCGrd= 4 IRadAn=           5 IRanWt=          -1 IRanGd=           0 AccXCQ= 0.00D+00.
 Generated NRdTot=       0 NPtTot=           0 NUsed=           0 NTot=          32
 NSgBfM=   194   194   194   194   194 MxSgAt=    14 MxSgA2=    14.
 Leave Link  302 at Tue Sep 17 09:54:00 2024, MaxMem=  1342177280 cpu:               0.8 elap:               0.1
 (Enter /groups/ReismanLab/Software/Gaussian16_RevC/Linux_Binary_AVX2-enabled-CPU/g16/l303.exe)
 DipDrv:  MaxL=1.
 Leave Link  303 at Tue Sep 17 09:54:00 2024, MaxMem=  1342177280 cpu:               0.0 elap:               0.0
 (Enter /groups/ReismanLab/Software/Gaussian16_RevC/Linux_Binary_AVX2-enabled-CPU/g16/l401.exe)
 Initial guess from the checkpoint file:  "smiles_00120_conf_0.chk"
 B after Tr=    -0.000000   -0.000000   -0.000000
         Rot=    0.998247   -0.000013   -0.000084   -0.059178 Ang=  -6.79 deg.
 Guess basis will be translated and rotated to current coordinates.
 JPrj=2 DoOrth=T DoCkMO=T.
 Generating alternative initial guess.
 ExpMin= 1.43D-01 ExpMax= 5.74D+05 ExpMxC= 5.74D+03 IAcc=3 IRadAn=         5 AccDes= 0.00D+00
 Harris functional with IExCor=  402 and IRadAn=       5 diagonalized for initial guess.
 HarFok:  IExCor=  402 AccDes= 0.00D+00 IRadAn=         5 IDoV= 1 UseB2=F ITyADJ=14
 ICtDFT=  3500011 ScaDFX=  1.000000  1.000000  1.000000  1.000000
 FoFCou: FMM=F IPFlag=           0 FMFlag=      100000 FMFlg1=           0
         NFxFlg=           0 DoJE=T BraDBF=F KetDBF=T FulRan=T
         wScrn=  0.000000 ICntrl=       500 IOpCl=  0 I1Cent=   200000004 NGrid=           0
         NMat0=    1 NMatS0=      1 NMatT0=    0 NMatD0=    1 NMtDS0=    0 NMtDT0=    0
 Petite list used in FoFCou.
 Harris En= -3156.51134001849    
 Leave Link  401 at Tue Sep 17 09:54:01 2024, MaxMem=  1342177280 cpu:               3.4 elap:               0.5
 (Enter /groups/ReismanLab/Software/Gaussian16_RevC/Linux_Binary_AVX2-enabled-CPU/g16/l502.exe)
 Integral symmetry usage will be decided dynamically.
 Closed shell SCF:
 Using DIIS extrapolation, IDIIS=  1040.
 NGot=  1342177280 LenX=  1342097322 LenY=  1342058856
 Requested convergence on RMS density matrix=1.00D-08 within  32 cycles.
 Requested convergence on MAX density matrix=1.00D-06.
 Requested convergence on             energy=1.00D-06.
 No special actions if energy rises.
 Fock matrices will be formed incrementally for  20 cycles.
 Integral accuracy reduced to 1.0D-05 until final iterations.

 Cycle   1  Pass 0  IDiag  1:
 FoFJK:  IHMeth= 1 ICntrl=       0 DoSepK=F KAlg= 0 I1Cent=           0 FoldK=F
 IRaf= 900000000 NMat=       1 IRICut=       1 DoRegI=T DoRafI=F ISym2E= 0 IDoP0=0 IntGTp=1.
 FoFCou: FMM=F IPFlag=           0 FMFlag=      100000 FMFlg1=           0
         NFxFlg=           0 DoJE=F BraDBF=F KetDBF=F FulRan=T
         wScrn=  0.000000 ICntrl=         0 IOpCl=  0 I1Cent=           0 NGrid=           0
         NMat0=    1 NMatS0=      1 NMatT0=    0 NMatD0=    1 NMtDS0=    0 NMtDT0=    0
 Symmetry not used in FoFCou.
 E= -3156.45211250623    
 DIIS: error= 2.04D-03 at cycle   1 NSaved=   1.
 NSaved= 1 IEnMin= 1 EnMin= -3156.45211250623     IErMin= 1 ErrMin= 2.04D-03
 ErrMax= 2.04D-03  0.00D+00 EMaxC= 1.00D-01 BMatC= 1.92D-03 BMatP= 1.92D-03
 IDIUse=3 WtCom= 9.80D-01 WtEn= 2.04D-02
 Coeff-Com:  0.100D+01
 Coeff-En:   0.100D+01
 Coeff:      0.100D+01
 Gap=     1.676 Goal=   None    Shift=    0.000
 GapD=    1.676 DampG=2.000 DampE=1.000 DampFc=2.0000 IDamp=-1.
 RMSDP=3.23D-04 MaxDP=9.12D-03              OVMax= 9.37D-03

 Cycle   2  Pass 0  IDiag  1:
 RMSU=  3.23D-04    CP:  1.00D+00
 E= -3156.45339389833     Delta-E=       -0.001281392098 Rises=F Damp=F
 DIIS: error= 4.65D-04 at cycle   2 NSaved=   2.
 NSaved= 2 IEnMin= 2 EnMin= -3156.45339389833     IErMin= 2 ErrMin= 4.65D-04
 ErrMax= 4.65D-04  0.00D+00 EMaxC= 1.00D-01 BMatC= 7.75D-05 BMatP= 1.92D-03
 IDIUse=3 WtCom= 9.95D-01 WtEn= 4.65D-03
 Coeff-Com:  0.482D-01 0.952D+00
 Coeff-En:   0.000D+00 0.100D+01
 Coeff:      0.480D-01 0.952D+00
 Gap=     0.205 Goal=   None    Shift=    0.000
 RMSDP=1.17D-04 MaxDP=4.22D-03 DE=-1.28D-03 OVMax= 3.98D-03

 Cycle   3  Pass 0  IDiag  1:
 RMSU=  1.17D-04    CP:  1.00D+00  1.03D+00
 E= -3156.45336486500     Delta-E=        0.000029033331 Rises=F Damp=F
 DIIS: error= 6.05D-04 at cycle   3 NSaved=   3.
 NSaved= 3 IEnMin= 2 EnMin= -3156.45339389833     IErMin= 2 ErrMin= 4.65D-04
 ErrMax= 6.05D-04  0.00D+00 EMaxC= 1.00D-01 BMatC= 1.12D-04 BMatP= 7.75D-05
 IDIUse=3 WtCom= 2.89D-01 WtEn= 7.11D-01
 Coeff-Com: -0.108D-01 0.551D+00 0.459D+00
 Coeff-En:   0.000D+00 0.574D+00 0.426D+00
 Coeff:     -0.312D-02 0.567D+00 0.436D+00
 Gap=     0.206 Goal=   None    Shift=    0.000
 RMSDP=6.65D-05 MaxDP=2.26D-03 DE= 2.90D-05 OVMax= 2.50D-03

 Cycle   4  Pass 0  IDiag  1:
 RMSU=  2.32D-05    CP:  1.00D+00  1.04D+00  4.66D-01
 E= -3156.45347071912     Delta-E=       -0.000105854121 Rises=F Damp=F
 DIIS: error= 1.14D-04 at cycle   4 NSaved=   4.
 NSaved= 4 IEnMin= 4 EnMin= -3156.45347071912     IErMin= 4 ErrMin= 1.14D-04
 ErrMax= 1.14D-04  0.00D+00 EMaxC= 1.00D-01 BMatC= 2.92D-06 BMatP= 7.75D-05
 IDIUse=3 WtCom= 9.99D-01 WtEn= 1.14D-03
 Coeff-Com: -0.719D-02 0.224D+00 0.213D+00 0.571D+00
 Coeff-En:   0.000D+00 0.000D+00 0.000D+00 0.100D+01
 Coeff:     -0.718D-02 0.223D+00 0.212D+00 0.571D+00
 Gap=     0.206 Goal=   None    Shift=    0.000
 RMSDP=1.30D-05 MaxDP=4.70D-04 DE=-1.06D-04 OVMax= 7.84D-04

 Cycle   5  Pass 0  IDiag  1:
 RMSU=  1.04D-05    CP:  1.00D+00  1.05D+00  4.69D-01  6.72D-01
 E= -3156.45347249424     Delta-E=       -0.000001775119 Rises=F Damp=F
 DIIS: error= 5.12D-05 at cycle   5 NSaved=   5.
 NSaved= 5 IEnMin= 5 EnMin= -3156.45347249424     IErMin= 5 ErrMin= 5.12D-05
 ErrMax= 5.12D-05  0.00D+00 EMaxC= 1.00D-01 BMatC= 8.24D-07 BMatP= 2.92D-06
 IDIUse=1 WtCom= 1.00D+00 WtEn= 0.00D+00
 Coeff-Com: -0.291D-02 0.589D-01 0.687D-01 0.351D+00 0.524D+00
 Coeff:     -0.291D-02 0.589D-01 0.687D-01 0.351D+00 0.524D+00
 Gap=     0.206 Goal=   None    Shift=    0.000
 RMSDP=5.84D-06 MaxDP=1.78D-04 DE=-1.78D-06 OVMax= 3.72D-04

 Initial convergence to 1.0D-05 achieved.  Increase integral accuracy.
 Cycle   6  Pass 1  IDiag  1:
 E= -3156.45350255305     Delta-E=       -0.000030058811 Rises=F Damp=F
 DIIS: error= 5.38D-05 at cycle   1 NSaved=   1.
 NSaved= 1 IEnMin= 1 EnMin= -3156.45350255305     IErMin= 1 ErrMin= 5.38D-05
 ErrMax= 5.38D-05  0.00D+00 EMaxC= 1.00D-01 BMatC= 2.20D-07 BMatP= 2.20D-07
 IDIUse=1 WtCom= 1.00D+00 WtEn= 0.00D+00
 Coeff-Com:  0.100D+01
 Coeff:      0.100D+01
 Gap=     0.206 Goal=   None    Shift=    0.000
 RMSDP=5.84D-06 MaxDP=1.78D-04 DE=-3.01D-05 OVMax= 2.52D-04

 Cycle   7  Pass 1  IDiag  1:
 RMSU=  1.08D-05    CP:  1.00D+00
 E= -3156.45350240659     Delta-E=        0.000000146461 Rises=F Damp=F
 DIIS: error= 3.78D-05 at cycle   2 NSaved=   2.
 NSaved= 2 IEnMin= 1 EnMin= -3156.45350255305     IErMin= 2 ErrMin= 3.78D-05
 ErrMax= 3.78D-05  0.00D+00 EMaxC= 1.00D-01 BMatC= 3.05D-07 BMatP= 2.20D-07
 IDIUse=1 WtCom= 1.00D+00 WtEn= 0.00D+00
 Coeff-Com:  0.551D+00 0.449D+00
 Coeff:      0.551D+00 0.449D+00
 Gap=     0.206 Goal=   None    Shift=    0.000
 RMSDP=3.84D-06 MaxDP=1.02D-04 DE= 1.46D-07 OVMax= 2.67D-04

 Cycle   8  Pass 1  IDiag  1:
 RMSU=  3.47D-06    CP:  1.00D+00  8.48D-01
 E= -3156.45350265202     Delta-E=       -0.000000245431 Rises=F Damp=F
 DIIS: error= 1.82D-05 at cycle   3 NSaved=   3.
 NSaved= 3 IEnMin= 3 EnMin= -3156.45350265202     IErMin= 3 ErrMin= 1.82D-05
 ErrMax= 1.82D-05  0.00D+00 EMaxC= 1.00D-01 BMatC= 5.01D-08 BMatP= 2.20D-07
 IDIUse=1 WtCom= 1.00D+00 WtEn= 0.00D+00
 Coeff-Com:  0.458D-01 0.286D+00 0.668D+00
 Coeff:      0.458D-01 0.286D+00 0.668D+00
 Gap=     0.206 Goal=   None    Shift=    0.000
 RMSDP=1.41D-06 MaxDP=4.59D-05 DE=-2.45D-07 OVMax= 9.90D-05

 Cycle   9  Pass 1  IDiag  1:
 RMSU=  5.60D-07    CP:  1.00D+00  9.09D-01  6.77D-01
 E= -3156.45350270074     Delta-E=       -0.000000048722 Rises=F Damp=F
 DIIS: error= 4.22D-06 at cycle   4 NSaved=   4.
 NSaved= 4 IEnMin= 4 EnMin= -3156.45350270074     IErMin= 4 ErrMin= 4.22D-06
 ErrMax= 4.22D-06  0.00D+00 EMaxC= 1.00D-01 BMatC= 4.27D-09 BMatP= 5.01D-08
 IDIUse=1 WtCom= 1.00D+00 WtEn= 0.00D+00
 Coeff-Com: -0.375D-03 0.145D+00 0.396D+00 0.459D+00
 Coeff:     -0.375D-03 0.145D+00 0.396D+00 0.459D+00
 Gap=     0.206 Goal=   None    Shift=    0.000
 RMSDP=3.30D-07 MaxDP=1.29D-05 DE=-4.87D-08 OVMax= 2.15D-05

 Cycle  10  Pass 1  IDiag  1:
 RMSU=  1.44D-07    CP:  1.00D+00  9.05D-01  7.12D-01  5.21D-01
 E= -3156.45350270416     Delta-E=       -0.000000003419 Rises=F Damp=F
 DIIS: error= 7.54D-07 at cycle   5 NSaved=   5.
 NSaved= 5 IEnMin= 5 EnMin= -3156.45350270416     IErMin= 5 ErrMin= 7.54D-07
 ErrMax= 7.54D-07  0.00D+00 EMaxC= 1.00D-01 BMatC= 1.51D-10 BMatP= 4.27D-09
 IDIUse=1 WtCom= 1.00D+00 WtEn= 0.00D+00
 Coeff-Com: -0.222D-02 0.659D-01 0.187D+00 0.255D+00 0.494D+00
 Coeff:     -0.222D-02 0.659D-01 0.187D+00 0.255D+00 0.494D+00
 Gap=     0.206 Goal=   None    Shift=    0.000
 RMSDP=7.03D-08 MaxDP=2.00D-06 DE=-3.42D-09 OVMax= 3.56D-06

 Cycle  11  Pass 1  IDiag  1:
 RMSU=  3.54D-08    CP:  1.00D+00  9.06D-01  7.14D-01  5.36D-01  5.88D-01
 E= -3156.45350270429     Delta-E=       -0.000000000133 Rises=F Damp=F
 DIIS: error= 1.59D-07 at cycle   6 NSaved=   6.
 NSaved= 6 IEnMin= 6 EnMin= -3156.45350270429     IErMin= 6 ErrMin= 1.59D-07
 ErrMax= 1.59D-07  0.00D+00 EMaxC= 1.00D-01 BMatC= 3.56D-12 BMatP= 1.51D-10
 IDIUse=1 WtCom= 1.00D+00 WtEn= 0.00D+00
 Coeff-Com: -0.106D-02 0.273D-01 0.772D-01 0.110D+00 0.239D+00 0.548D+00
 Coeff:     -0.106D-02 0.273D-01 0.772D-01 0.110D+00 0.239D+00 0.548D+00
 Gap=     0.206 Goal=   None    Shift=    0.000
 RMSDP=1.54D-08 MaxDP=4.62D-07 DE=-1.33D-10 OVMax= 1.18D-06

 Cycle  12  Pass 1  IDiag  1:
 RMSU=  1.37D-08    CP:  1.00D+00  9.06D-01  7.13D-01  5.33D-01  6.16D-01
                    CP:  8.63D-01
 E= -3156.45350270429     Delta-E=        0.000000000004 Rises=F Damp=F
 DIIS: error= 8.47D-08 at cycle   7 NSaved=   7.
 NSaved= 7 IEnMin= 6 EnMin= -3156.45350270429     IErMin= 7 ErrMin= 8.47D-08
 ErrMax= 8.47D-08  0.00D+00 EMaxC= 1.00D-01 BMatC= 1.02D-12 BMatP= 3.56D-12
 IDIUse=1 WtCom= 1.00D+00 WtEn= 0.00D+00
 Coeff-Com: -0.560D-04-0.491D-03-0.181D-02 0.692D-03 0.192D-01 0.358D+00
 Coeff-Com:  0.624D+00
 Coeff:     -0.560D-04-0.491D-03-0.181D-02 0.692D-03 0.192D-01 0.358D+00
 Coeff:      0.624D+00
 Gap=     0.206 Goal=   None    Shift=    0.000
 RMSDP=6.62D-09 MaxDP=1.93D-07 DE= 4.09D-12 OVMax= 3.78D-07

 SCF Done:  E(RB3LYP) =  -3156.45350270     A.U. after   12 cycles
            NFock= 12  Conv=0.66D-08     -V/T= 2.0065
 KE= 3.136062386781D+03 PE=-9.350845001117D+03 EE= 2.137011013633D+03
 Leave Link  502 at Tue Sep 17 09:54:08 2024, MaxMem=  1342177280 cpu:              53.9 elap:               7.2
 (Enter /groups/ReismanLab/Software/Gaussian16_RevC/Linux_Binary_AVX2-enabled-CPU/g16/l508.exe)
 QCSCF skips out because SCF is already converged.
 Leave Link  508 at Tue Sep 17 09:54:08 2024, MaxMem=  1342177280 cpu:               0.0 elap:               0.0
 (Enter /groups/ReismanLab/Software/Gaussian16_RevC/Linux_Binary_AVX2-enabled-CPU/g16/l701.exe)
 ... and contract with generalized density number  0.
 Compute integral first derivatives.
 R6Disp: Adding Grimme-D3(BJ) dispersion energy 1st derivatives to the gradient.
 Leave Link  701 at Tue Sep 17 09:54:08 2024, MaxMem=  1342177280 cpu:               0.6 elap:               0.1
 (Enter /groups/ReismanLab/Software/Gaussian16_RevC/Linux_Binary_AVX2-enabled-CPU/g16/l702.exe)
 L702 exits ... SP integral derivatives will be done elsewhere.
 Leave Link  702 at Tue Sep 17 09:54:08 2024, MaxMem=  1342177280 cpu:               0.0 elap:               0.0
 (Enter /groups/ReismanLab/Software/Gaussian16_RevC/Linux_Binary_AVX2-enabled-CPU/g16/l703.exe)
 Integral derivatives from FoFJK, PRISM(SPDF).
 Compute integral first derivatives, UseDBF=F ICtDFT=           0.
 Calling FoFJK, ICntrl=      2127 FMM=F ISym2X=0 I1Cent= 0 IOpClX= 0 NMat=1 NMatS=1 NMatT=0.
 FoFJK:  IHMeth= 1 ICntrl=    2127 DoSepK=F KAlg= 0 I1Cent=           0 FoldK=F
 IRaf=         0 NMat=       1 IRICut=       1 DoRegI=T DoRafI=F ISym2E= 0 IDoP0=0 IntGTp=1.
 FoFCou: FMM=F IPFlag=           0 FMFlag=      100000 FMFlg1=         800
         NFxFlg=           0 DoJE=F BraDBF=F KetDBF=F FulRan=T
         wScrn=  0.000000 ICntrl=      2127 IOpCl=  0 I1Cent=           0 NGrid=           0
         NMat0=    1 NMatS0=      1 NMatT0=    0 NMatD0=    1 NMtDS0=    0 NMtDT0=    0
 Symmetry not used in FoFCou.
 Leave Link  703 at Tue Sep 17 09:54:10 2024, MaxMem=  1342177280 cpu:              18.6 elap:               2.4
 (Enter /groups/ReismanLab/Software/Gaussian16_RevC/Linux_Binary_AVX2-enabled-CPU/g16/l716.exe)
 Dipole        =-4.49357024D-01-1.15843007D-01 1.03170136D-04
 ***** Axes restored to original set *****
 -------------------------------------------------------------------
 Center     Atomic                   Forces (Hartrees/Bohr)
 Number     Number              X              Y              Z
 -------------------------------------------------------------------
      1        9           0.001492050    0.001898534   -0.002082948
      2        6          -0.001239502   -0.005366017    0.000039353
      3        9          -0.002158553    0.003334911   -0.000013168
      4        9           0.001500204    0.001926920    0.002055906
      5        6          -0.001148932   -0.000377872   -0.000012258
      6        6          -0.000932538   -0.001746633    0.000015372
      7        6          -0.000305331    0.002590634   -0.000000097
      8        7           0.000901945   -0.004274639   -0.000002576
      9        6          -0.001134324    0.003747589    0.000011517
     10        6           0.002967960   -0.001734639   -0.000017117
     11       35           0.000127474    0.000293543    0.000009282
     12        1          -0.000171300   -0.000422237   -0.000002107
     13        1          -0.000609844    0.000065934   -0.000001757
     14        1           0.000710690    0.000063972    0.000000598
 -------------------------------------------------------------------
 Cartesian Forces:  Max     0.005366017 RMS     0.001732683
 Leave Link  716 at Tue Sep 17 09:54:10 2024, MaxMem=  1342177280 cpu:               0.0 elap:               0.0
 (Enter /groups/ReismanLab/Software/Gaussian16_RevC/Linux_Binary_AVX2-enabled-CPU/g16/l103.exe)

 GradGradGradGradGradGradGradGradGradGradGradGradGradGradGradGradGradGrad
 Berny optimization.
 Using GEDIIS/GDIIS optimizer.
 FormGI is forming the generalized inverse of G from B-inverse, IUseBI=4.
 Internal  Forces:  Max     0.005336236 RMS     0.001531658
 Search for a local minimum.
 Step number   2 out of a maximum of   72
 All quantities printed in internal units (Hartrees-Bohrs-Radians)
 RMS Force = .15317D-02 SwitMx=.10000D-02 MixMth= 1
 Mixed Optimization -- RFO/linear search
 Update second derivatives using D2CorX and points    1    2
 DE= -1.40D-03 DEPred=-1.76D-03 R= 7.95D-01
 TightC=F SS=  1.41D+00  RLast= 9.77D-02 DXNew= 5.0454D-01 2.9306D-01
 Trust test= 7.95D-01 RLast= 9.77D-02 DXMaxT set to 3.00D-01
 ITU=  1  0
 Use linear search instead of GDIIS.
     Eigenvalues ---    0.00644   0.01563   0.02168   0.02195   0.02241
     Eigenvalues ---    0.02283   0.02367   0.02423   0.02651   0.10976
     Eigenvalues ---    0.11090   0.15925   0.16000   0.16017   0.18636
     Eigenvalues ---    0.22301   0.22603   0.23773   0.24976   0.25000
     Eigenvalues ---    0.25000   0.25000   0.31140   0.31796   0.35909
     Eigenvalues ---    0.36137   0.36785   0.42972   0.45017   0.46920
     Eigenvalues ---    0.48223   0.56378   0.57124   0.57513   0.59517
     Eigenvalues ---    0.61570
 RFO step:  Lambda=-2.99430785D-04 EMin= 6.43661453D-03
 Quartic linear search produced a step of -0.16092.
 Iteration  1 RMS(Cart)=  0.00978763 RMS(Int)=  0.00007000
 Iteration  2 RMS(Cart)=  0.00007202 RMS(Int)=  0.00000894
 Iteration  3 RMS(Cart)=  0.00000000 RMS(Int)=  0.00000894
 ITry= 1 IFail=0 DXMaxC= 5.16D-02 DCOld= 1.00D+10 DXMaxT= 3.00D-01 DXLimC= 3.00D+00 Rises=F
 Variable       Old X    -DE/DX   Delta X   Delta X   Delta X     New X
                                 (Linear)    (Quad)   (Total)
    R1        2.54757  -0.00163  -0.00233   0.00116  -0.00117   2.54640
    R2        2.55062  -0.00103  -0.00312   0.00326   0.00014   2.55076
    R3        2.54747  -0.00161  -0.00236   0.00125  -0.00111   2.54636
    R4        2.85618   0.00177  -0.00066   0.00573   0.00507   2.86125
    R5        2.63588  -0.00024  -0.00157   0.00185   0.00028   2.63616
    R6        2.64520  -0.00245  -0.00187  -0.00171  -0.00358   2.64162
    R7        2.63525  -0.00068  -0.00219   0.00219   0.00000   2.63525
    R8        2.04622  -0.00035  -0.00136   0.00127  -0.00010   2.04612
    R9        2.52509   0.00028  -0.00468   0.00765   0.00297   2.52806
   R10        2.05515  -0.00054  -0.00219   0.00207  -0.00013   2.05502
   R11        2.51644   0.00132  -0.00542   0.01010   0.00469   2.52112
   R12        2.64477  -0.00151  -0.00157  -0.00036  -0.00193   2.64284
   R13        2.05469  -0.00065  -0.00192   0.00141  -0.00051   2.05418
   R14        3.58556   0.00002  -0.00194   0.00303   0.00108   3.58664
    A1        1.88510  -0.00423  -0.00450  -0.00708  -0.01161   1.87349
    A2        1.88871  -0.00338  -0.00322  -0.00717  -0.01037   1.87834
    A3        1.93662   0.00298   0.00363   0.00425   0.00788   1.94450
    A4        1.88525  -0.00426  -0.00451  -0.00721  -0.01175   1.87349
    A5        1.92982   0.00534   0.00417   0.01187   0.01600   1.94582
    A6        1.93654   0.00301   0.00362   0.00436   0.00798   1.94451
    A7        2.08874   0.00276   0.00159   0.00726   0.00885   2.09759
    A8        2.13380  -0.00117  -0.00292   0.00089  -0.00203   2.13177
    A9        2.06064  -0.00159   0.00133  -0.00814  -0.00681   2.05383
   A10        2.07532   0.00065  -0.00171   0.00461   0.00289   2.07821
   A11        2.09371  -0.00003   0.00125  -0.00131  -0.00006   2.09364
   A12        2.11416  -0.00063   0.00047  -0.00330  -0.00283   2.11133
   A13        2.14620   0.00134   0.00007   0.00515   0.00521   2.15141
   A14        2.10098  -0.00038   0.00206  -0.00418  -0.00211   2.09887
   A15        2.03601  -0.00096  -0.00213  -0.00097  -0.00310   2.03291
   A16        2.06713  -0.00301   0.00202  -0.01269  -0.01067   2.05645
   A17        2.14451   0.00096  -0.00014   0.00379   0.00366   2.14816
   A18        2.05229  -0.00079  -0.00235   0.00009  -0.00226   2.05003
   A19        2.08639  -0.00017   0.00249  -0.00389  -0.00140   2.08499
   A20        2.07258   0.00165  -0.00156   0.00728   0.00572   2.07830
   A21        2.14176  -0.00140  -0.00093  -0.00298  -0.00391   2.13785
   A22        2.06885  -0.00025   0.00249  -0.00430  -0.00182   2.06703
    D1       -2.09142  -0.00013   0.00033  -0.00181  -0.00150  -2.09292
    D2        1.05045  -0.00014   0.00031  -0.00207  -0.00178   1.04867
    D3       -0.00006   0.00001  -0.00010  -0.00012  -0.00022  -0.00028
    D4       -3.14138   0.00000  -0.00013  -0.00038  -0.00051   3.14130
    D5        2.09143   0.00013  -0.00057   0.00148   0.00093   2.09236
    D6       -1.04989   0.00012  -0.00059   0.00122   0.00065  -1.04924
    D7       -3.14144  -0.00000   0.00001  -0.00013  -0.00012  -3.14157
    D8        0.00024  -0.00000  -0.00002  -0.00021  -0.00023   0.00001
    D9       -0.00011   0.00000   0.00003   0.00012   0.00015   0.00003
   D10        3.14157   0.00000   0.00000   0.00004   0.00004  -3.14157
   D11        3.14131   0.00001   0.00002   0.00026   0.00028   3.14159
   D12       -0.00000  -0.00000  -0.00009  -0.00003  -0.00012  -0.00012
   D13       -0.00002   0.00000   0.00000   0.00000   0.00000  -0.00001
   D14       -3.14132  -0.00001  -0.00011  -0.00029  -0.00040   3.14146
   D15        0.00014  -0.00000  -0.00003  -0.00014  -0.00017  -0.00003
   D16       -3.14148  -0.00000  -0.00004  -0.00008  -0.00012   3.14159
   D17       -3.14155  -0.00000   0.00000  -0.00006  -0.00006   3.14158
   D18        0.00002  -0.00000  -0.00001   0.00000  -0.00001   0.00001
   D19       -0.00002   0.00000  -0.00001   0.00003   0.00002   0.00000
   D20       -3.14159  -0.00000   0.00000  -0.00003  -0.00003   3.14157
   D21       -0.00012   0.00000   0.00005   0.00009   0.00014   0.00002
   D22        3.14151   0.00000  -0.00002   0.00016   0.00013  -3.14154
[...]
      3 vectors produced by pass  5 Test12= 5.80D-13 3.33D-08 XBig12= 2.29D-09 1.34D-05.
      3 vectors produced by pass  6 Test12= 5.80D-13 3.33D-08 XBig12= 2.23D-11 1.94D-06.
      3 vectors produced by pass  7 Test12= 5.80D-13 3.33D-08 XBig12= 3.52D-13 2.50D-07.
      1 vectors produced by pass  8 Test12= 5.80D-13 3.33D-08 XBig12= 5.28D-15 3.73D-08.
 InvSVY:  IOpt=1 It=  1 EMax= 4.44D-16
 Solved reduced A of dimension    25 with     3 vectors.
 Calculating GIAO nuclear magnetic shielding tensors.
 SCF GIAO Magnetic shielding tensor (ppm):
      1  F    Isotropic =   240.3772   Anisotropy =   137.9636
   XX=   249.1956   YX=    18.4708   ZX=   -34.6162
   XY=    28.5991   YY=   179.4926   ZY=   -56.3326
   XZ=   -25.3206   YZ=   -57.1772   ZZ=   292.4434
   Eigenvalues:   154.6873   234.0914   332.3530
      2  C    Isotropic =    52.0963   Anisotropy =    17.0540
   XX=    62.3020   YX=    -4.3015   ZX=    -0.0011
   XY=    -4.8405   YY=    45.5110   ZY=     0.0005
   XZ=    -0.0004   YZ=     0.0008   ZZ=    48.4760
   Eigenvalues:    44.3473    48.4760    63.4657
      3  F    Isotropic =   254.4935   Anisotropy =   130.9350
   XX=   288.3910   YX=   -72.2823   ZX=    -0.0162
   XY=   -92.4205   YY=   214.7665   ZY=     0.0131
   XZ=    -0.0191   YZ=     0.0078   ZZ=   260.3230
   Eigenvalues:   161.3740   260.3230   341.7835
      4  F    Isotropic =   240.3790   Anisotropy =   137.9395
   XX=   249.2213   YX=    18.4770   ZX=    34.6224
   XY=    28.6147   YY=   179.4740   ZY=    56.2973
   XZ=    25.3285   YZ=    57.1388   ZZ=   292.4417
   Eigenvalues:   154.6939   234.1045   332.3386
      5  C    Isotropic =    22.0178   Anisotropy =   193.5862
   XX=     6.5894   YX=   -13.5803   ZX=     0.0059
   XY=    -9.1604   YY=   -91.6113   ZY=    -0.0032
   XZ=    -0.0034   YZ=    -0.0111   ZZ=   151.0753
   Eigenvalues:   -92.9106     7.8887   151.0753
      6  C    Isotropic =    43.6790   Anisotropy =   201.7160
   XX=   -28.7777   YX=    42.2733   ZX=     0.0122
   XY=    65.9756   YY=   -18.3417   ZY=    -0.0039
   XZ=     0.0152   YZ=    -0.0046   ZZ=   178.1563
   Eigenvalues:   -77.9351    30.8157   178.1563
      7  C    Isotropic =    10.6819   Anisotropy =   209.3662
   XX=  -111.1917   YX=   -39.8103   ZX=     0.0109
   XY=   -12.1238   YY=    -7.0221   ZY=     0.0013
   XZ=     0.0151   YZ=     0.0055   ZZ=   150.2593
   Eigenvalues:  -117.3058    -0.9079   150.2593
      8  N    Isotropic =  -162.5662   Anisotropy =   672.8305
   XX=  -526.1199   YX=    35.6671   ZX=     0.0288
   XY=    32.3826   YY=  -247.5663   ZY=     0.0078
   XZ=     0.0357   YZ=     0.0113   ZZ=   285.9874
   Eigenvalues:  -530.2158  -243.4704   285.9874
      9  C    Isotropic =     6.0555   Anisotropy =   180.5037
   XX=   -79.5600   YX=    67.7764   ZX=     0.0026
   XY=    40.9416   YY=   -28.6648   ZY=     0.0039
   XZ=    -0.0033   YZ=     0.0062   ZZ=   126.3913
   Eigenvalues:  -114.1331     5.9083   126.3913
     10  C    Isotropic =    30.1469   Anisotropy =   155.7532
   XX=   -57.8016   YX=   -23.5371   ZX=    -0.0061
   XY=   -55.6902   YY=    14.2599   ZY=    -0.0016
   XZ=    -0.0109   YZ=     0.0037   ZZ=   133.9824
   Eigenvalues:   -75.3195    31.7778   133.9824
     11  Br   Isotropic =  2119.7537   Anisotropy =  1078.8675
   XX=  2760.7009   YX=   308.7270   ZX=     0.0685
   XY=   276.9476   YY=  1743.7737   ZY=     0.0334
   XZ=     0.0192   YZ=    -0.0015   ZZ=  1854.7864
   Eigenvalues:  1665.4760  1854.7864  2838.9987
     12  H    Isotropic =    23.4301   Anisotropy =    10.2367
   XX=    25.4041   YX=     4.4267   ZX=    -0.0001
   XY=     5.4793   YY=    25.1969   ZY=     0.0000
   XZ=    -0.0002   YZ=    -0.0001   ZZ=    19.6893
   Eigenvalues:    19.6893    20.3464    30.2546
     13  H    Isotropic =    22.1586   Anisotropy =     7.4925
   XX=    20.5417   YX=    -0.2279   ZX=    -0.0001
   XY=    -0.8069   YY=    27.1132   ZY=     0.0000
   XZ=    -0.0000   YZ=    -0.0000   ZZ=    18.8211
   Eigenvalues:    18.8211    20.5012    27.1536
     14  H    Isotropic =    22.0638   Anisotropy =    12.4183
   XX=    20.5789   YX=     4.7627   ZX=    -0.0002
   XY=     4.6326   YY=    28.0825   ZY=     0.0000
   XZ=     0.0000   YZ=    -0.0002   ZZ=    17.5299
   Eigenvalues:    17.5299    18.3187    30.3427
 End of Minotr F.D. properties file   721 does not exist.
 End of Minotr F.D. properties file   722 does not exist.
 End of Minotr F.D. properties file   788 does not exist.
 Leave Link 1002 at Tue Sep 17 10:27:09 2024, MaxMem=  1342177280 cpu:             486.9 elap:             487.9
 (Enter /groups/ReismanLab/Software/Gaussian16_RevC/Linux_Binary_AVX2-enabled-CPU/g16/l601.exe)
 Copying SCF densities to generalized density rwf, IOpCl= 0 IROHF=0.

 **********************************************************************

            Population analysis using the SCF Density.

 **********************************************************************

 Orbital symmetries:
       Occupied  (A) (A) (A) (A) (A) (A) (A) (A) (A) (A) (A) (A)
                 (A) (A) (A) (A) (A) (A) (A) (A) (A) (A) (A) (A)
                 (A) (A) (A) (A) (A) (A) (A) (A) (A) (A) (A) (A)
                 (A) (A) (A) (A) (A) (A) (A) (A) (A) (A) (A) (A)
                 (A) (A) (A) (A) (A) (A)
       Virtual   (A) (A) (A) (A) (A) (A) (A) (A) (A) (A) (A) (A)
                 (A) (A) (A) (A) (A) (A) (A) (A) (A) (A) (A) (A)
                 (A) (A) (A) (A) (A) (A) (A) (A) (A) (A) (A) (A)
                 (A) (A) (A) (A) (A) (A) (A) (A) (A) (A) (A) (A)
                 (A) (A) (A) (A) (A) (A) (A) (A) (A) (A) (A) (A)
                 (A) (A) (A) (A) (A) (A) (A) (A) (A) (A) (A) (A)
                 (A) (A) (A) (A) (A) (A) (A) (A) (A) (A) (A) (A)
                 (A) (A) (A) (A) (A) (A) (A) (A) (A) (A) (A) (A)
                 (A) (A) (A) (A) (A) (A) (A) (A) (A) (A) (A) (A)
                 (A) (A) (A) (A) (A) (A) (A) (A) (A) (A) (A) (A)
                 (A) (A) (A) (A) (A) (A) (A) (A) (A) (A) (A) (A)
                 (A) (A) (A) (A) (A) (A) (A) (A) (A) (A) (A) (A)
                 (A) (A) (A) (A) (A) (A) (A) (A) (A) (A) (A) (A)
                 (A) (A) (A) (A) (A) (A) (A) (A) (A) (A) (A) (A)
                 (A) (A) (A) (A) (A) (A) (A) (A) (A) (A) (A) (A)
                 (A) (A) (A) (A) (A) (A) (A) (A) (A) (A) (A) (A)
                 (A) (A) (A) (A) (A) (A) (A) (A) (A) (A) (A) (A)
                 (A) (A) (A) (A) (A) (A) (A) (A) (A) (A) (A) (A)
                 (A) (A) (A) (A) (A) (A) (A) (A) (A) (A) (A) (A)
                 (A) (A) (A) (A) (A) (A) (A) (A) (A) (A) (A) (A)
                 (A) (A) (A) (A) (A) (A) (A) (A) (A) (A) (A) (A)
                 (A) (A) (A) (A) (A) (A) (A) (A) (A) (A) (A) (A)
                 (A) (A) (A) (A) (A) (A) (A) (A) (A) (A) (A) (A)
                 (A) (A) (A) (A) (A) (A) (A) (A) (A) (A) (A) (A)
                 (A) (A) (A) (A) (A) (A) (A) (A) (A) (A) (A) (A)
                 (A) (A) (A) (A) (A) (A) (A) (A) (A) (A) (A) (A)
                 (A) (A) (A) (A) (A) (A) (A) (A) (A) (A)
 The electronic state is 1-A.
 Alpha  occ. eigenvalues -- -485.39392 -63.37863 -57.19819 -57.19568 -57.19556
 Alpha  occ. eigenvalues --  -25.29451 -25.29147 -25.29147 -14.77855 -10.81793
 Alpha  occ. eigenvalues --  -10.63223 -10.60882 -10.60541 -10.60000 -10.58163
 Alpha  occ. eigenvalues --   -9.04506  -6.86954  -6.86021  -6.85983  -2.90331
 Alpha  occ. eigenvalues --   -2.89997  -2.89958  -2.89089  -2.89088  -1.47540
 Alpha  occ. eigenvalues --   -1.38624  -1.38454  -1.08291  -0.97175  -0.91967
 Alpha  occ. eigenvalues --   -0.85675  -0.83317  -0.75569  -0.73817  -0.70356
 Alpha  occ. eigenvalues --   -0.70025  -0.67695  -0.59790  -0.58783  -0.58373
 Alpha  occ. eigenvalues --   -0.57743  -0.55446  -0.54872  -0.53797  -0.52782
 Alpha  occ. eigenvalues --   -0.50605  -0.50488  -0.48391  -0.44853  -0.41135
 Alpha  occ. eigenvalues --   -0.37453  -0.37164  -0.34965  -0.32213
 Alpha virt. eigenvalues --   -0.03509  -0.01290   0.02330   0.09599   0.10677
 Alpha virt. eigenvalues --    0.12404   0.12855   0.13619   0.14557   0.17491
 Alpha virt. eigenvalues --    0.17628   0.18956   0.20391   0.21401   0.22467
 Alpha virt. eigenvalues --    0.22762   0.24436   0.25012   0.26056   0.27696
 Alpha virt. eigenvalues --    0.27952   0.28391   0.28608   0.30042   0.30125
 Alpha virt. eigenvalues --    0.31205   0.31505   0.33774   0.34179   0.35438
 Alpha virt. eigenvalues --    0.36982   0.37581   0.38411   0.38688   0.40540
 Alpha virt. eigenvalues --    0.41830   0.44524   0.46003   0.46519   0.46669
 Alpha virt. eigenvalues --    0.47299   0.50109   0.50783   0.53109   0.54288
 Alpha virt. eigenvalues --    0.55183   0.55673   0.57828   0.58498   0.59522
 Alpha virt. eigenvalues --    0.62147   0.63516   0.63997   0.65265   0.65863
 Alpha virt. eigenvalues --    0.67949   0.69001   0.72206   0.72590   0.73165
 Alpha virt. eigenvalues --    0.74765   0.75820   0.78569   0.78721   0.79881
 Alpha virt. eigenvalues --    0.80759   0.82687   0.83512   0.84959   0.87696
 Alpha virt. eigenvalues --    0.88984   0.90117   0.91967   0.93309   0.95662
 Alpha virt. eigenvalues --    0.98908   1.00469   1.02725   1.03006   1.04847
 Alpha virt. eigenvalues --    1.06245   1.06509   1.07863   1.13806   1.16639
 Alpha virt. eigenvalues --    1.18229   1.19220   1.21204   1.22153   1.24518
 Alpha virt. eigenvalues --    1.25130   1.27722   1.28732   1.33796   1.36226
 Alpha virt. eigenvalues --    1.36451   1.37506   1.39735   1.41401   1.43221
 Alpha virt. eigenvalues --    1.44157   1.45393   1.47968   1.48703   1.50003
 Alpha virt. eigenvalues --    1.53438   1.55068   1.55085   1.57552   1.58478
 Alpha virt. eigenvalues --    1.59197   1.60156   1.61913   1.62984   1.65098
 Alpha virt. eigenvalues --    1.65242   1.67541   1.68066   1.71513   1.73224
 Alpha virt. eigenvalues --    1.74426   1.76487   1.76940   1.79075   1.81667
 Alpha virt. eigenvalues --    1.82360   1.82539   1.87359   1.89880   1.92339
 Alpha virt. eigenvalues --    1.92762   1.92857   1.94504   1.96696   1.99179
 Alpha virt. eigenvalues --    1.99749   2.03630   2.04406   2.05227   2.11422
 Alpha virt. eigenvalues --    2.11553   2.15365   2.16605   2.21268   2.22799
 Alpha virt. eigenvalues --    2.24857   2.27307   2.29929   2.33379   2.36475
 Alpha virt. eigenvalues --    2.37181   2.38085   2.39347   2.42281   2.42550
 Alpha virt. eigenvalues --    2.46672   2.49003   2.51533   2.52572   2.54977
 Alpha virt. eigenvalues --    2.56847   2.60131   2.60681   2.62372   2.64235
 Alpha virt. eigenvalues --    2.65726   2.65870   2.74515   2.75139   2.78602
 Alpha virt. eigenvalues --    2.79870   2.80405   2.83145   2.84433   2.85026
 Alpha virt. eigenvalues --    2.85093   2.86847   2.90405   2.91159   2.93743
 Alpha virt. eigenvalues --    2.93923   2.97216   2.97958   3.00804   3.03680
 Alpha virt. eigenvalues --    3.04178   3.05430   3.07343   3.09544   3.11668
 Alpha virt. eigenvalues --    3.11744   3.13820   3.17224   3.18362   3.18497
 Alpha virt. eigenvalues --    3.19152   3.21130   3.23655   3.26959   3.27408
 Alpha virt. eigenvalues --    3.27742   3.28803   3.31932   3.34506   3.36070
 Alpha virt. eigenvalues --    3.36276   3.37039   3.37820   3.41564   3.42698
 Alpha virt. eigenvalues --    3.43976   3.46036   3.46694   3.50707   3.51658
 Alpha virt. eigenvalues --    3.55538   3.61997   3.62582   3.66606   3.67706
 Alpha virt. eigenvalues --    3.72850   3.77476   3.78138   3.79714   3.81677
 Alpha virt. eigenvalues --    3.86346   3.91392   3.91971   3.94500   3.96720
 Alpha virt. eigenvalues --    3.97910   3.99197   4.01507   4.03198   4.03478
 Alpha virt. eigenvalues --    4.08367   4.09142   4.13388   4.13661   4.15155
 Alpha virt. eigenvalues --    4.16699   4.17189   4.23290   4.25110   4.26665
 Alpha virt. eigenvalues --    4.28088   4.35839   4.38868   4.42324   4.42501
 Alpha virt. eigenvalues --    4.45933   4.48593   4.49924   4.58744   4.68875
 Alpha virt. eigenvalues --    4.70421   4.79975   4.80253   4.88240   4.88574
 Alpha virt. eigenvalues --    4.95415   4.99389   5.01027   5.08905   5.15466
 Alpha virt. eigenvalues --    5.17008   5.23494   5.30599   5.32249   5.36200
 Alpha virt. eigenvalues --    5.47024   5.53515   5.55329   5.68608   5.91383
 Alpha virt. eigenvalues --    6.82060   6.86613   6.86952   6.87350   6.87804
 Alpha virt. eigenvalues --    6.88120   6.88232   6.89063   6.90077   6.97736
 Alpha virt. eigenvalues --    6.98776   7.01209   7.04889   7.06421   7.12771
 Alpha virt. eigenvalues --    7.34094   7.34980   7.37773   7.48407   7.54689
 Alpha virt. eigenvalues --    7.57117   7.85177   8.28119   8.30746   8.31369
 Alpha virt. eigenvalues --    8.44316   8.46554   8.55150   8.67198   8.74770
 Alpha virt. eigenvalues --    8.76351   8.86582   8.92082   8.97420   8.99318
 Alpha virt. eigenvalues --    9.05262   9.10419  22.34843  22.77822  22.83552
 Alpha virt. eigenvalues --   22.85295  22.92002  23.26073  32.48221  57.29203
 Alpha virt. eigenvalues --   57.40499  57.57168
          Condensed to atoms (all electrons):
               1          2          3          4          5          6
     1  F    8.993221   0.335011  -0.046730  -0.046759  -0.057623   0.005643
     2  C    0.335011   4.143646   0.330575   0.335001   0.444781  -0.061528
     3  F   -0.046730   0.330575   8.998008  -0.046726  -0.076810   0.010607
     4  F   -0.046759   0.335001  -0.046726   8.993230  -0.057614   0.005645
     5  C   -0.057623   0.444781  -0.076810  -0.057614   5.477698   0.255551
     6  C    0.005643  -0.061528   0.010607   0.005645   0.255551   5.168812
     7  C   -0.000200   0.003631   0.000991  -0.000200   0.013631   0.450641
     8  N    0.000028  -0.003079   0.000016   0.000028  -0.084023  -0.035688
     9  C    0.000223   0.010123  -0.000360   0.000223  -0.015105  -0.042731
    10  C   -0.004024  -0.064861   0.003467  -0.004031   0.297760   0.003086
    11  Br  -0.008264   0.011747  -0.000477  -0.008277  -0.142792   0.024404
    12  H    0.000222  -0.013743   0.006647   0.000222  -0.047351   0.414303
    13  H    0.000002  -0.000247  -0.000029   0.000002   0.003317  -0.060371
    14  H    0.000015   0.000196   0.000003   0.000015   0.010106  -0.002827
               7          8          9         10         11         12
     1  F   -0.000200   0.000028   0.000223  -0.004024  -0.008264   0.000222
     2  C    0.003631  -0.003079   0.010123  -0.064861   0.011747  -0.013743
     3  F    0.000991   0.000016  -0.000360   0.003467  -0.000477   0.006647
     4  F   -0.000200   0.000028   0.000223  -0.004031  -0.008277   0.000222
     5  C    0.013631  -0.084023  -0.015105   0.297760  -0.142792  -0.047351
     6  C    0.450641  -0.035688  -0.042731   0.003086   0.024404   0.414303
     7  C    4.849108   0.482108  -0.107430  -0.051198  -0.001425  -0.029985
     8  N    0.482108   6.444121   0.478776  -0.008463   0.007781   0.006362
     9  C   -0.107430   0.478776   4.932436   0.437249  -0.070207  -0.001483
    10  C   -0.051198  -0.008463   0.437249   5.050684   0.401293   0.013962
    11  Br  -0.001425   0.007781  -0.070207   0.401293  34.833417  -0.000010
    12  H   -0.029985   0.006362  -0.001483   0.013962  -0.000010   0.468403
    13  H    0.432430  -0.030921   0.004998   0.000382   0.000055  -0.000188
    14  H    0.007156  -0.030878   0.440197  -0.073628  -0.001258   0.000057
              13         14
     1  F    0.000002   0.000015
     2  C   -0.000247   0.000196
     3  F   -0.000029   0.000003
     4  F    0.000002   0.000015
     5  C    0.003317   0.010106
     6  C   -0.060371  -0.002827
     7  C    0.432430   0.007156
     8  N   -0.030921  -0.030878
     9  C    0.004998   0.440197
    10  C    0.000382  -0.073628
    11  Br   0.000055  -0.001258
    12  H   -0.000188   0.000057
    13  H    0.476635  -0.000050
    14  H   -0.000050   0.468439
 Mulliken charges:
               1
     1  F   -0.170765
     2  C    0.528749
     3  F   -0.179181
     4  F   -0.170758
     5  C   -0.021525
     6  C   -0.135547
     7  C   -0.049258
     8  N   -0.226168
     9  C   -0.066911
    10  C   -0.001676
    11  Br  -0.045987
    12  H    0.182582
    13  H    0.173988
    14  H    0.182459
 Sum of Mulliken charges =  -0.00000
 Mulliken charges with hydrogens summed into heavy atoms:
               1
     1  F   -0.170765
     2  C    0.528749
     3  F   -0.179181
     4  F   -0.170758
     5  C   -0.021525
     6  C    0.047035
     7  C    0.124730
     8  N   -0.226168
     9  C    0.115548
    10  C   -0.001676
    11  Br  -0.045987
 Electronic spatial extent (au):  <R**2>=           2109.1835
 Charge=              0.0000 electrons
 Dipole moment (field-independent basis, Debye):
    X=             -1.5076    Y=             -0.7287    Z=              0.0001  Tot=              1.6745
 Quadrupole moment (field-independent basis, Debye-Ang):
   XX=            -64.6551   YY=            -80.6627   ZZ=            -75.4828
   XY=             -0.9909   XZ=             -0.0000   YZ=              0.0001
 Traceless Quadrupole moment (field-independent basis, Debye-Ang):
   XX=              8.9451   YY=             -7.0625   ZZ=             -1.8826
   XY=             -0.9909   XZ=             -0.0000   YZ=              0.0001
 Octapole moment (field-independent basis, Debye-Ang**2):
  XXX=             26.5651  YYY=             49.5905  ZZZ=              0.0018  XYY=             31.4728
  XXY=              4.2907  XXZ=              0.0013  XZZ=             17.8086  YZZ=             11.7249
  YYZ=              0.0007  XYZ=              0.0006
 Hexadecapole moment (field-independent basis, Debye-Ang**3):
 XXXX=           -970.4578 YYYY=          -1231.1159 ZZZZ=           -144.9224 XXXY=              3.6482
 XXXZ=              0.0009 YYYX=            -91.4493 YYYZ=              0.0006 ZZZX=              0.0005
 ZZZY=              0.0006 XXYY=           -370.3612 XXZZ=           -216.9402 YYZZ=           -220.5120
 XXYZ=             -0.0026 YYXZ=             -0.0000 ZZXY=            -17.7374
 N-N= 9.216135791526D+02 E-N=-9.372037646985D+03  KE= 3.153004557831D+03
 Calculating spin-rotation constants.
 Leave Link  601 at Tue Sep 17 10:27:11 2024, MaxMem=  1342177280 cpu:               2.0 elap:               2.0
 (Enter /groups/ReismanLab/Software/Gaussian16_RevC/Linux_Binary_AVX2-enabled-CPU/g16/l9999.exe)
 Unable to Open any file for archive entry.
 1\1\GINC-HPC-53-06\SP\RM062X\def2TZVP\C6H3Br1F3N1\MANTIND\17-Sep-2024\
 0\\#p M062X/def2tzvp geom=check guess=read scf(xqc,tight) integral(gri
 d=ultrafine) scrf(SMD, solvent=1,4-Dioxane) nmr=giao\\spe\\0,1\F,0,0.4
 602043045,1.8687648587,1.0883494503\C,0,1.0613772506,1.3501457716,0.00
 00315412\F,0,2.339334562,1.7830228615,0.00014388\F,0,0.4604055879,1.86
 86689329,-1.0884316774\C,0,0.9955408782,-0.1600258067,0.0000712605\C,0
 ,2.1696738761,-0.9119542465,0.0003607706\C,0,2.0825147188,-2.302592142
 7,0.0003365697\N,0,0.9214014328,-2.9664626922,0.0000093111\C,0,-0.2034
 934511,-2.2491701361,-0.0002990676\C,0,-0.2181958063,-0.8519123823,-0.
 0002831089\Br,0,-1.8969532664,0.0344953512,-0.0009050029\H,0,3.1313374
 281,-0.4144826938,0.0006219393\H,0,2.985198802,-2.9078467212,0.0005787
 822\H,0,-1.1430807978,-2.7943990956,-0.0006062631\\Version=ES64L-G16Re
 vC.02\State=1-A\HF=-3158.9510372\RMSD=3.356e-09\Dipole=0.5326502,-0.38
 7679,0.0001224\Quadrupole=6.5315074,-5.1318466,-1.3996608,-1.3942916,0
 .0024496,-0.0005155\PG=C01 [X(C6H3Br1F3N1)]\\@
 The archive entry for this job was punched.


 IT IS UNWORTHY OF EXCELLENT MEN TO LOSE HOURS LIKE SLAVES IN THE LABOR
 OF CALCULATION WHICH COULD BE SAFELY RELEGATED TO ANYONE ELSE
 IF A MACHINE WERE USED.
    -- G.W. VON LEIBNIZ
 Job cpu time:       0 days  0 hours  8 minutes 55.1 seconds.
 Elapsed time:       0 days  0 hours  8 minutes 57.5 seconds.
 File lengths (MBytes):  RWF=    224 Int=      0 D2E=      0 Chk=     24 Scr=     16
 Normal termination of Gaussian 16 at Tue Sep 17 10:27:11 2024.
