 Entering Gaussian System, Link 0=g16
 Input=smiles_00123_conf_0.gjf
 Output=smiles_00123_conf_0.log
 Initial command:
 /groups/ReismanLab/Software/Gaussian16_RevC/Linux_Binary_AVX2-enabled-CPU/g16/l1.exe "/central/groups/ReismanLab/DM/dft_final/smiles_00123/Gau-1053405.inp" -scrdir="/central/groups/ReismanLab/DM/dft_final/smiles_00123/"
 Entering Link 1 = /groups/ReismanLab/Software/Gaussian16_RevC/Linux_Binary_AVX2-enabled-CPU/g16/l1.exe PID=   1053407.
  
 Copyright (c) 1988-2021, Gaussian, Inc.  All Rights Reserved.
  
 This is part of the Gaussian(R) 16 program.  It is based on
 the Gaussian(R) 09 system (copyright 2009, Gaussian, Inc.),
 the Gaussian(R) 03 system (copyright 2003, Gaussian, Inc.),
 the Gaussian(R) 98 system (copyright 1998, Gaussian, Inc.),
 the Gaussian(R) 94 system (copyright 1995, Gaussian, Inc.),
 the Gaussian 92(TM) system (copyright 1992, Gaussian, Inc.),
 the Gaussian 90(TM) system (copyright 1990, Gaussian, Inc.),
 the Gaussian 88(TM) system (copyright 1988, Gaussian, Inc.),
 the Gaussian 86(TM) system (copyright 1986, Carnegie Mellon
 University), and the Gaussian 82(TM) system (copyright 1983,
 Carnegie Mellon University). Gaussian is a federally registered
 trademark of Gaussian, Inc.
  
 This software contains proprietary and confidential information,
 including trade secrets, belonging to Gaussian, Inc.
  
 This software is provided under written license and may be
 used, copied, transmitted, or stored only in accord with that
 written license.
  
 The following legend is applicable only to US Government
 contracts under FAR:
  
                    RESTRICTED RIGHTS LEGEND
  
 Use, reproduction and disclosure by the US Government is
 subject to restrictions as set forth in subparagraphs (a)
 and (c) of the Commercial Computer Software - Restricted
 Rights clause in FAR 52.227-19.
  
 Gaussian, Inc.
 340 Quinnipiac St., Bldg. 40, Wallingford CT 06492
  
  
 ---------------------------------------------------------------
 Warning -- This program may not be used in any manner that
 competes with the business of Gaussian, Inc. or will provide
 assistance to any competitor of Gaussian, Inc.  The licensee
 of this program is prohibited from giving any competitor of
 Gaussian, Inc. access to this program.  By using this program,
 the user acknowledges that Gaussian, Inc. is engaged in the
 business of creating and licensing software in the field of
 computational chemistry and represents and warrants to the
 licensee that it is not a competitor of Gaussian, Inc. and that
 it will not use this program in any manner prohibited above.
 ---------------------------------------------------------------
  

 Cite this work as:
 Gaussian 16, Revision C.02,
 M. J. Frisch, G. W. Trucks, H. B. Schlegel, G. E. Scuseria, 
 M. A. Robb, J. R. Cheeseman, G. Scalmani, V. Barone, 
 G. A. Petersson, H. Nakatsuji, X. Li, M. Caricato, A. V. Marenich, 
 J. Bloino, B. G. Janesko, R. Gomperts, B. Mennucci, H. P. Hratchian, 
 J. V. Ortiz, A. F. Izmaylov, J. L. Sonnenberg, D. Williams-Young, 
 F. Ding, F. Lipparini, F. Egidi, J. Goings, B. Peng, A. Petrone, 
 T. Henderson, D. Ranasinghe, V. G. Zakrzewski, J. Gao, N. Rega, 
 G. Zheng, W. Liang, M. Hada, M. Ehara, K. Toyota, R. Fukuda, 
 J. Hasegawa, M. Ishida, T. Nakajima, Y. Honda, O. Kitao, H. Nakai, 
 T. Vreven, K. Throssell, J. A. Montgomery, Jr., J. E. Peralta, 
 F. Ogliaro, M. J. Bearpark, J. J. Heyd, E. N. Brothers, K. N. Kudin, 
 V. N. Staroverov, T. A. Keith, R. Kobayashi, J. Normand, 
 K. Raghavachari, A. P. Rendell, J. C. Burant, S. S. Iyengar, 
 J. Tomasi, M. Cossi, J. M. Millam, M. Klene, C. Adamo, R. Cammi, 
 J. W. Ochterski, R. L. Martin, K. Morokuma, O. Farkas, 
 J. B. Foresman, and D. J. Fox, Gaussian, Inc., Wallingford CT, 2019.
 
 ******************************************
 Gaussian 16:  ES64L-G16RevC.02  7-Dec-2021
                17-Sep-2024 
 ******************************************
 %nprocshared=8
 Will use up to    8 processors via shared memory.
 %Mem=10GB
 %Chk=smiles_00123_conf_0.chk
 ----------------------------------------------------------------------
 #p B3LYP/6-31G(d,p) EmpiricalDispersion=GD3BJ opt freq scf(xqc,tight) 
 integral(grid=ultrafine)
 ----------------------------------------------------------------------
 1/18=20,19=15,26=4,38=1/1,3;
 2/9=110,12=2,17=6,18=5,40=1/2;
 3/5=1,6=6,7=101,11=2,25=1,30=1,71=1,74=-5,75=-5,124=41/1,2,3;
 4//1;
 5/5=2,8=3,13=1,32=2,38=5/2,8;
 6/7=2,8=2,9=2,10=2,28=1/1;
 7//1,2,3,16;
 1/18=20,19=15,26=4/3(2);
 2/9=110/2;
 99//99;
 2/9=110/2;
 3/5=1,6=6,7=101,11=2,25=1,30=1,71=1,74=-5,75=-5,124=41/1,2,3;
 4/5=5,16=3,69=1/1;
 5/5=2,8=3,13=1,32=2,38=5/2,8;
 7//1,2,3,16;
 1/18=20,19=15,26=4/3(-5);
 2/9=110/2;
 6/7=2,8=2,9=2,10=2,19=2,28=1/1;
 99/9=1/99;
 Leave Link    1 at Tue Sep 17 09:48:44 2024, MaxMem=  1342177280 cpu:               0.1 elap:               0.8
 (Enter /groups/ReismanLab/Software/Gaussian16_RevC/Linux_Binary_AVX2-enabled-CPU/g16/l101.exe)
 ----------------------------------
 opt-freq conformers_unique/conf_aa
 ----------------------------------
 Symbolic Z-matrix:
 Charge =  0 Multiplicity = 1
 N                     4.02295   1.63164  -0.00014 
 C                     3.14206   0.90117   0.00008 
 C                     2.01645   0.02936   0.00012 
 C                     0.73346   0.58246   0.00004 
 C                    -0.33432  -0.29901  -0.00002 
 Br                   -2.11752   0.3698   0. 
 C                    -0.1023   -1.66604  -0.00007 
 C                     1.21963  -2.09508  -0.00001 
 N                     2.25158  -1.2786    0.00005 
 H                     0.5901    1.65155   0.00001 
 H                    -0.91752  -2.37115  -0.00002 
 H                     1.45856  -3.14952  -0.0003 
 
 ITRead=  0  0  0  0  0  0  0  0  0  0  0  0
 MicOpt= -1 -1 -1 -1 -1 -1 -1 -1 -1 -1 -1 -1
 NAtoms=     12 NQM=       12 NQMF=       0 NMMI=      0 NMMIF=      0
                NMic=       0 NMicF=      0.
                    Isotopes and Nuclear Properties:
 (Nuclear quadrupole moments (NQMom) in fm**2, nuclear magnetic moments (NMagM)
  in nuclear magnetons)

  Atom         1           2           3           4           5           6           7           8           9          10
 IAtWgt=          14          12          12          12          12          79          12          12          14           1
 AtmWgt=  14.0030740  12.0000000  12.0000000  12.0000000  12.0000000  78.9183361  12.0000000  12.0000000  14.0030740   1.0078250
 NucSpn=           2           0           0           0           0           3           0           0           2           1
 AtZEff=  -0.0000000  -0.0000000  -0.0000000  -0.0000000  -0.0000000  -0.0000000  -0.0000000  -0.0000000  -0.0000000  -0.0000000
 NQMom=    2.0440000   0.0000000   0.0000000   0.0000000   0.0000000  31.3000000   0.0000000   0.0000000   2.0440000   0.0000000
 NMagM=    0.4037610   0.0000000   0.0000000   0.0000000   0.0000000   2.1063990   0.0000000   0.0000000   0.4037610   2.7928460
 AtZNuc=   7.0000000   6.0000000   6.0000000   6.0000000   6.0000000  35.0000000   6.0000000   6.0000000   7.0000000   1.0000000

  Atom        11          12
 IAtWgt=           1           1
 AtmWgt=   1.0078250   1.0078250
 NucSpn=           1           1
 AtZEff=  -0.0000000  -0.0000000
 NQMom=    0.0000000   0.0000000
 NMagM=    2.7928460   2.7928460
 AtZNuc=   1.0000000   1.0000000
 Leave Link  101 at Tue Sep 17 09:48:45 2024, MaxMem=  1342177280 cpu:               0.2 elap:               0.3
 (Enter /groups/ReismanLab/Software/Gaussian16_RevC/Linux_Binary_AVX2-enabled-CPU/g16/l103.exe)

 GradGradGradGradGradGradGradGradGradGradGradGradGradGradGradGradGradGrad
 Berny optimization.
 Initialization pass.
                           ----------------------------
                           !    Initial Parameters    !
                           ! (Angstroms and Degrees)  !
 --------------------------                            --------------------------
 ! Name  Definition              Value          Derivative Info.                !
 --------------------------------------------------------------------------------
 ! R1    R(1,2)                  1.1444         estimate D2E/DX2                !
 ! R2    R(2,3)                  1.4237         estimate D2E/DX2                !
 ! R3    R(3,4)                  1.3971         estimate D2E/DX2                !
 ! R4    R(3,9)                  1.3289         estimate D2E/DX2                !
 ! R5    R(4,5)                  1.3846         estimate D2E/DX2                !
 ! R6    R(4,10)                 1.0787         estimate D2E/DX2                !
 ! R7    R(5,6)                  1.9045         estimate D2E/DX2                !
 ! R8    R(5,7)                  1.3866         estimate D2E/DX2                !
 ! R9    R(7,8)                  1.3898         estimate D2E/DX2                !
 ! R10   R(7,11)                 1.0779         estimate D2E/DX2                !
 ! R11   R(8,9)                  1.3159         estimate D2E/DX2                !
 ! R12   R(8,12)                 1.0812         estimate D2E/DX2                !
 ! A1    A(2,3,4)              118.9201         estimate D2E/DX2                !
 ! A2    A(2,3,9)              117.5675         estimate D2E/DX2                !
 ! A3    A(4,3,9)              123.5124         estimate D2E/DX2                !
 ! A4    A(3,4,5)              117.1384         estimate D2E/DX2                !
 ! A5    A(3,4,10)             120.9588         estimate D2E/DX2                !
 ! A6    A(5,4,10)             121.9028         estimate D2E/DX2                !
 ! A7    A(4,5,6)              119.9007         estimate D2E/DX2                !
 ! A8    A(4,5,7)              119.9075         estimate D2E/DX2                !
 ! A9    A(6,5,7)              120.1918         estimate D2E/DX2                !
 ! A10   A(5,7,8)              117.6141         estimate D2E/DX2                !
 ! A11   A(5,7,11)             121.2247         estimate D2E/DX2                !
 ! A12   A(8,7,11)             121.1612         estimate D2E/DX2                !
 ! A13   A(7,8,9)              123.6674         estimate D2E/DX2                !
 ! A14   A(7,8,12)             120.7486         estimate D2E/DX2                !
 ! A15   A(9,8,12)             115.5841         estimate D2E/DX2                !
 ! A16   A(3,9,8)              118.1602         estimate D2E/DX2                !
 ! A17   L(1,2,3,10,-1)        178.0918         estimate D2E/DX2                !
 ! A18   L(1,2,3,10,-2)        179.9891         estimate D2E/DX2                !
 ! D1    D(2,3,4,5)            179.9951         estimate D2E/DX2                !
 ! D2    D(2,3,4,10)            -0.0039         estimate D2E/DX2                !
 ! D3    D(9,3,4,5)              0.0046         estimate D2E/DX2                !
 ! D4    D(9,3,4,10)          -179.9944         estimate D2E/DX2                !
 ! D5    D(2,3,9,8)           -179.9949         estimate D2E/DX2                !
 ! D6    D(4,3,9,8)             -0.0043         estimate D2E/DX2                !
 ! D7    D(3,4,5,6)            179.9952         estimate D2E/DX2                !
 ! D8    D(3,4,5,7)             -0.0032         estimate D2E/DX2                !
 ! D9    D(10,4,5,6)            -0.0059         estimate D2E/DX2                !
 ! D10   D(10,4,5,7)           179.9958         estimate D2E/DX2                !
 ! D11   D(4,5,7,8)              0.0017         estimate D2E/DX2                !
 ! D12   D(4,5,7,11)           179.9935         estimate D2E/DX2                !
 ! D13   D(6,5,7,8)           -179.9967         estimate D2E/DX2                !
 ! D14   D(6,5,7,11)            -0.0049         estimate D2E/DX2                !
 ! D15   D(5,7,8,9)             -0.0014         estimate D2E/DX2                !
 ! D16   D(5,7,8,12)          -179.9843         estimate D2E/DX2                !
 ! D17   D(11,7,8,9)          -179.9932         estimate D2E/DX2                !
 ! D18   D(11,7,8,12)            0.0238         estimate D2E/DX2                !
 ! D19   D(7,8,9,3)              0.0026         estimate D2E/DX2                !
 ! D20   D(12,8,9,3)           179.9864         estimate D2E/DX2                !
 --------------------------------------------------------------------------------
 Trust Radius=3.00D-01 FncErr=1.00D-07 GrdErr=1.00D-06 EigMax=2.50D+02 EigMin=1.00D-04
 Number of steps in this run=     60 maximum allowed number of steps=    100.
 GradGradGradGradGradGradGradGradGradGradGradGradGradGradGradGradGradGrad

 Leave Link  103 at Tue Sep 17 09:48:45 2024, MaxMem=  1342177280 cpu:               0.0 elap:               0.0
 (Enter /groups/ReismanLab/Software/Gaussian16_RevC/Linux_Binary_AVX2-enabled-CPU/g16/l202.exe)
                          Input orientation:                          
 ---------------------------------------------------------------------
 Center     Atomic      Atomic             Coordinates (Angstroms)
 Number     Number       Type             X           Y           Z
 ---------------------------------------------------------------------
      1          7           0        4.022950    1.631639   -0.000135
      2          6           0        3.142058    0.901169    0.000080
      3          6           0        2.016447    0.029355    0.000120
      4          6           0        0.733456    0.582463    0.000038
      5          6           0       -0.334318   -0.299006   -0.000025
      6         35           0       -2.117525    0.369801   -0.000001
      7          6           0       -0.102295   -1.666042   -0.000071
      8          6           0        1.219634   -2.095085   -0.000015
      9          7           0        2.251577   -1.278602    0.000052
     10          1           0        0.590095    1.651554    0.000007
     11          1           0       -0.917515   -2.371151   -0.000015
     12          1           0        1.458564   -3.149523   -0.000301
 ---------------------------------------------------------------------
                    Distance matrix (angstroms):
                    1          2          3          4          5
     1  N    0.000000
     2  C    1.144359   0.000000
     3  C    2.567755   1.423748   0.000000
     4  C    3.452759   2.429596   1.397138   0.000000
     5  C    4.765834   3.677718   2.373588   1.384604   0.000000
     6  Br   6.268785   5.286356   4.147966   2.858901   1.904502
     7  C    5.281320   4.137197   2.713566   2.398802   1.386586
     8  C    4.663373   3.559950   2.268955   2.721329   2.375009
     9  N    3.406944   2.354646   1.328924   2.401719   2.765224
    10  H    3.432912   2.659998   2.160094   1.078661   2.158524
    11  H    6.358500   5.214232   3.790853   3.383717   2.152651
    12  H    5.425457   4.386599   3.227460   3.801776   3.367473
                    6          7          8          9         10
     6  Br   0.000000
     7  C    2.864577   0.000000
     8  C    4.148770   1.389812   0.000000
     9  N    4.669720   2.385544   1.315883   0.000000
    10  H    2.995680   3.389077   3.799161   3.368432   0.000000
    11  H    2.992130   1.077851   2.154906   3.352135   4.295934
    12  H    5.017375   2.153369   1.081169   2.032047   4.878993
                   11         12
    11  H    0.000000
    12  H    2.500323   0.000000
 Stoichiometry    C6H3BrN2
 Framework group  C1[X(C6H3BrN2)]
 Deg. of freedom    30
 Full point group                 C1      NOp   1
 Largest Abelian subgroup         C1      NOp   1
 Largest concise Abelian subgroup C1      NOp   1
                         Standard orientation:                         
 ---------------------------------------------------------------------
 Center     Atomic      Atomic             Coordinates (Angstroms)
 Number     Number       Type             X           Y           Z
 ---------------------------------------------------------------------
      1          7           0        3.917882   -1.627210    0.000133
      2          6           0        3.028287   -0.907364   -0.000082
      3          6           0        1.892294   -0.049122   -0.000122
      4          6           0        0.616033   -0.617588   -0.000040
      5          6           0       -0.462243    0.251002    0.000023
      6         35           0       -2.237294   -0.439157   -0.000001
      7          6           0       -0.246643    1.620724    0.000069
      8          6           0        1.070042    2.065602    0.000013
      9          7           0        2.111709    1.261563   -0.000054
     10          1           0        0.485514   -1.688323   -0.000009
     11          1           0       -1.070267    2.315999    0.000014
     12          1           0        1.296300    3.122832    0.000299
 ---------------------------------------------------------------------
 Rotational constants (GHZ):           2.6563112           0.5960796           0.4868335
 Leave Link  202 at Tue Sep 17 09:48:45 2024, MaxMem=  1342177280 cpu:               0.0 elap:               0.0
 (Enter /groups/ReismanLab/Software/Gaussian16_RevC/Linux_Binary_AVX2-enabled-CPU/g16/l301.exe)
 Standard basis: 6-31G(d,p) (6D, 7F)
 Ernie: Thresh=  0.10000D-02 Tol=  0.10000D-05 Strict=F.
 There are   165 symmetry adapted cartesian basis functions of A   symmetry.
 There are   165 symmetry adapted basis functions of A   symmetry.
   165 basis functions,   328 primitive gaussians,   165 cartesian basis functions
    44 alpha electrons       44 beta electrons
       nuclear repulsion energy       569.9904286688 Hartrees.
 IExCor=  402 DFT=T Ex+Corr=B3LYP ExCW=0 ScaHFX=  0.200000
 ScaDFX=  0.800000  0.720000  1.000000  0.810000 ScalE2=  1.000000  1.000000
 IRadAn=      5 IRanWt=     -1 IRanGd=            0 ICorTp=0 IEmpDi=141
 NAtoms=   12 NActive=   12 NUniq=   12 SFac= 1.00D+00 NAtFMM=   60 NAOKFM=F Big=F
 Integral buffers will be    131072 words long.
 Raffenetti 2 integral format.
 Two-electron integral symmetry is turned on.
 R6Disp:  Grimme-D3(BJ) Dispersion energy=       -0.0261477648 Hartrees.
 Nuclear repulsion after empirical dispersion term =      569.9642809040 Hartrees.
 Leave Link  301 at Tue Sep 17 09:48:45 2024, MaxMem=  1342177280 cpu:               0.1 elap:               0.1
 (Enter /groups/ReismanLab/Software/Gaussian16_RevC/Linux_Binary_AVX2-enabled-CPU/g16/l302.exe)
 NPDir=0 NMtPBC=     1 NCelOv=     1 NCel=       1 NClECP=     1 NCelD=      1
         NCelK=      1 NCelE2=     1 NClLst=     1 CellRange=     0.0.
 One-electron integrals computed using PRISM.
 One-electron integral symmetry used in STVInt
 NBasis=   165 RedAO= T EigKep=  7.38D-04  NBF=   165
 NBsUse=   165 1.00D-06 EigRej= -1.00D+00 NBFU=   165
 Precomputing XC quadrature grid using
 IXCGrd= 4 IRadAn=           5 IRanWt=          -1 IRanGd=           0 AccXCQ= 0.00D+00.
 Generated NRdTot=       0 NPtTot=           0 NUsed=           0 NTot=          32
 NSgBfM=   165   165   165   165   165 MxSgAt=    12 MxSgA2=    12.
 Leave Link  302 at Tue Sep 17 09:48:45 2024, MaxMem=  1342177280 cpu:               0.8 elap:               0.2
 (Enter /groups/ReismanLab/Software/Gaussian16_RevC/Linux_Binary_AVX2-enabled-CPU/g16/l303.exe)
 DipDrv:  MaxL=1.
 Leave Link  303 at Tue Sep 17 09:48:45 2024, MaxMem=  1342177280 cpu:               0.1 elap:               0.0
 (Enter /groups/ReismanLab/Software/Gaussian16_RevC/Linux_Binary_AVX2-enabled-CPU/g16/l401.exe)
 ExpMin= 1.43D-01 ExpMax= 5.74D+05 ExpMxC= 5.74D+03 IAcc=3 IRadAn=         5 AccDes= 0.00D+00
 Harris functional with IExCor=  402 and IRadAn=       5 diagonalized for initial guess.
 HarFok:  IExCor=  402 AccDes= 0.00D+00 IRadAn=         5 IDoV= 1 UseB2=F ITyADJ=14
 ICtDFT=  3500011 ScaDFX=  1.000000  1.000000  1.000000  1.000000
 FoFCou: FMM=F IPFlag=           0 FMFlag=      100000 FMFlg1=           0
         NFxFlg=           0 DoJE=T BraDBF=F KetDBF=T FulRan=T
         wScrn=  0.000000 ICntrl=       500 IOpCl=  0 I1Cent=   200000004 NGrid=           0
         NMat0=    1 NMatS0=      1 NMatT0=    0 NMatD0=    1 NMtDS0=    0 NMtDT0=    0
 Petite list used in FoFCou.
 Harris En= -2911.73459702259    
 JPrj=0 DoOrth=F DoCkMO=F.
 Leave Link  401 at Tue Sep 17 09:48:45 2024, MaxMem=  1342177280 cpu:               3.8 elap:               0.5
 (Enter /groups/ReismanLab/Software/Gaussian16_RevC/Linux_Binary_AVX2-enabled-CPU/g16/l502.exe)
 Keep R1 ints in memory in canonical form, NReq=101728314.
 FoFCou: FMM=F IPFlag=           0 FMFlag=           0 FMFlg1=           0
         NFxFlg=           0 DoJE=F BraDBF=F KetDBF=F FulRan=T
         wScrn=  0.000000 ICntrl=       600 IOpCl=  0 I1Cent=           0 NGrid=           0
         NMat0=    1 NMatS0=  13695 NMatT0=    0 NMatD0=    1 NMtDS0=    0 NMtDT0=    0
 Symmetry not used in FoFCou.
 Two-electron integral symmetry not used.
 Closed shell SCF:
 Using DIIS extrapolation, IDIIS=  1040.
 NGot=  1342177280 LenX=  1248336152 LenY=  1248308486
 Requested convergence on RMS density matrix=1.00D-08 within  32 cycles.
 Requested convergence on MAX density matrix=1.00D-06.
 Requested convergence on             energy=1.00D-06.
 No special actions if energy rises.
 Integral accuracy reduced to 1.0D-05 until final iterations.

 Cycle   1  Pass 0  IDiag  1:
 E= -2911.51974155296    
 DIIS: error= 2.05D-01 at cycle   1 NSaved=   1.
 NSaved= 1 IEnMin= 1 EnMin= -2911.51974155296     IErMin= 1 ErrMin= 2.05D-01
 ErrMax= 2.05D-01  0.00D+00 EMaxC= 1.00D-01 BMatC= 4.91D-01 BMatP= 4.91D-01
 IDIUse=3 WtCom= 0.00D+00 WtEn= 1.00D+00
 Coeff-Com:  0.100D+01
 Coeff-En:   0.100D+01
 Coeff:      0.100D+01
 Gap=     0.261 Goal=   None    Shift=    0.000
 GapD=    0.261 DampG=1.000 DampE=0.250 DampFc=0.2500 IDamp=-1.
 Damping current iteration by 2.50D-01
 RMSDP=6.33D-03 MaxDP=2.29D-01              OVMax= 1.83D-01

 Cycle   2  Pass 0  IDiag  1:
 E= -2911.56574355583     Delta-E=       -0.046002002877 Rises=F Damp=T
 DIIS: error= 1.51D-01 at cycle   2 NSaved=   2.
 NSaved= 2 IEnMin= 2 EnMin= -2911.56574355583     IErMin= 2 ErrMin= 1.51D-01
 ErrMax= 1.51D-01  0.00D+00 EMaxC= 1.00D-01 BMatC= 2.28D-01 BMatP= 4.91D-01
 IDIUse=3 WtCom= 0.00D+00 WtEn= 1.00D+00
 Coeff-Com: -0.142D+01 0.242D+01
 Coeff-En:   0.000D+00 0.100D+01
 Coeff:      0.000D+00 0.100D+01
 Gap=     0.206 Goal=   None    Shift=    0.000
 RMSDP=3.15D-03 MaxDP=1.09D-01 DE=-4.60D-02 OVMax= 1.01D-01

 Cycle   3  Pass 0  IDiag  1:
 E= -2911.63260685429     Delta-E=       -0.066863298461 Rises=F Damp=F
 DIIS: error= 1.16D-02 at cycle   3 NSaved=   3.
 NSaved= 3 IEnMin= 3 EnMin= -2911.63260685429     IErMin= 3 ErrMin= 1.16D-02
 ErrMax= 1.16D-02  0.00D+00 EMaxC= 1.00D-01 BMatC= 2.32D-02 BMatP= 2.28D-01
 IDIUse=3 WtCom= 8.84D-01 WtEn= 1.16D-01
 Coeff-Com:  0.616D+00-0.697D+00 0.108D+01
 Coeff-En:   0.331D-01 0.000D+00 0.967D+00
 Coeff:      0.548D+00-0.616D+00 0.107D+01
 Gap=     0.226 Goal=   None    Shift=    0.000
 RMSDP=1.84D-03 MaxDP=3.95D-02 DE=-6.69D-02 OVMax= 7.14D-02

 Cycle   4  Pass 0  IDiag  1:
 E= -2911.64014186284     Delta-E=       -0.007535008544 Rises=F Damp=F
 DIIS: error= 9.43D-03 at cycle   4 NSaved=   4.
 NSaved= 4 IEnMin= 4 EnMin= -2911.64014186284     IErMin= 4 ErrMin= 9.43D-03
 ErrMax= 9.43D-03  0.00D+00 EMaxC= 1.00D-01 BMatC= 1.40D-02 BMatP= 2.32D-02
 IDIUse=3 WtCom= 9.06D-01 WtEn= 9.43D-02
 Coeff-Com:  0.466D+00-0.597D+00 0.673D+00 0.458D+00
 Coeff-En:   0.000D+00 0.000D+00 0.382D+00 0.618D+00
 Coeff:      0.422D+00-0.540D+00 0.646D+00 0.473D+00
 Gap=     0.218 Goal=   None    Shift=    0.000
 RMSDP=9.82D-04 MaxDP=2.13D-02 DE=-7.54D-03 OVMax= 4.44D-02

 Cycle   5  Pass 0  IDiag  1:
 E= -2911.65399310532     Delta-E=       -0.013851242486 Rises=F Damp=F
 DIIS: error= 2.40D-03 at cycle   5 NSaved=   5.
 NSaved= 5 IEnMin= 5 EnMin= -2911.65399310532     IErMin= 5 ErrMin= 2.40D-03
 ErrMax= 2.40D-03  0.00D+00 EMaxC= 1.00D-01 BMatC= 9.26D-04 BMatP= 1.40D-02
 IDIUse=3 WtCom= 9.76D-01 WtEn= 2.40D-02
 Coeff-Com:  0.149D+00-0.192D+00 0.265D+00 0.267D+00 0.511D+00
 Coeff-En:   0.000D+00 0.000D+00 0.000D+00 0.000D+00 0.100D+01
 Coeff:      0.146D+00-0.187D+00 0.258D+00 0.260D+00 0.523D+00
 Gap=     0.216 Goal=   None    Shift=    0.000
 RMSDP=2.27D-04 MaxDP=1.00D-02 DE=-1.39D-02 OVMax= 8.76D-03

 Cycle   6  Pass 0  IDiag  1:
 E= -2911.65481755297     Delta-E=       -0.000824447643 Rises=F Damp=F
 DIIS: error= 3.75D-04 at cycle   6 NSaved=   6.
 NSaved= 6 IEnMin= 6 EnMin= -2911.65481755297     IErMin= 6 ErrMin= 3.75D-04
 ErrMax= 3.75D-04  0.00D+00 EMaxC= 1.00D-01 BMatC= 3.45D-05 BMatP= 9.26D-04
 IDIUse=3 WtCom= 9.96D-01 WtEn= 3.75D-03
 Coeff-Com:  0.440D-01-0.565D-01 0.907D-01 0.108D+00 0.279D+00 0.534D+00
 Coeff-En:   0.000D+00 0.000D+00 0.000D+00 0.000D+00 0.000D+00 0.100D+01
 Coeff:      0.438D-01-0.562D-01 0.903D-01 0.108D+00 0.278D+00 0.536D+00
 Gap=     0.212 Goal=   None    Shift=    0.000
 RMSDP=4.71D-05 MaxDP=1.10D-03 DE=-8.24D-04 OVMax= 2.22D-03

 Cycle   7  Pass 0  IDiag  1:
 E= -2911.65484993792     Delta-E=       -0.000032384957 Rises=F Damp=F
 DIIS: error= 1.23D-04 at cycle   7 NSaved=   7.
 NSaved= 7 IEnMin= 7 EnMin= -2911.65484993792     IErMin= 7 ErrMin= 1.23D-04
 ErrMax= 1.23D-04  0.00D+00 EMaxC= 1.00D-01 BMatC= 2.63D-06 BMatP= 3.45D-05
 IDIUse=3 WtCom= 9.99D-01 WtEn= 1.23D-03
 Coeff-Com:  0.581D-02-0.743D-02 0.188D-01 0.293D-01 0.910D-01 0.273D+00
 Coeff-Com:  0.590D+00
 Coeff-En:   0.000D+00 0.000D+00 0.000D+00 0.000D+00 0.000D+00 0.000D+00
 Coeff-En:   0.100D+01
 Coeff:      0.580D-02-0.742D-02 0.188D-01 0.293D-01 0.909D-01 0.272D+00
 Coeff:      0.590D+00
 Gap=     0.212 Goal=   None    Shift=    0.000
 RMSDP=1.06D-05 MaxDP=3.02D-04 DE=-3.24D-05 OVMax= 5.65D-04

 Cycle   8  Pass 0  IDiag  1:
 E= -2911.65485219099     Delta-E=       -0.000002253067 Rises=F Damp=F
 DIIS: error= 4.47D-05 at cycle   8 NSaved=   8.
 NSaved= 8 IEnMin= 8 EnMin= -2911.65485219099     IErMin= 8 ErrMin= 4.47D-05
 ErrMax= 4.47D-05  0.00D+00 EMaxC= 1.00D-01 BMatC= 2.69D-07 BMatP= 2.63D-06
 IDIUse=1 WtCom= 1.00D+00 WtEn= 0.00D+00
 Coeff-Com:  0.796D-03-0.102D-02 0.548D-02 0.102D-01 0.330D-01 0.117D+00
 Coeff-Com:  0.322D+00 0.512D+00
 Coeff:      0.796D-03-0.102D-02 0.548D-02 0.102D-01 0.330D-01 0.117D+00
 Coeff:      0.322D+00 0.512D+00
 Gap=     0.212 Goal=   None    Shift=    0.000
 RMSDP=4.26D-06 MaxDP=9.25D-05 DE=-2.25D-06 OVMax= 1.93D-04

 Initial convergence to 1.0D-05 achieved.  Increase integral accuracy.
 Cycle   9  Pass 1  IDiag  1:
 E= -2911.65487371643     Delta-E=       -0.000021525439 Rises=F Damp=F
 DIIS: error= 2.37D-05 at cycle   1 NSaved=   1.
 NSaved= 1 IEnMin= 1 EnMin= -2911.65487371643     IErMin= 1 ErrMin= 2.37D-05
 ErrMax= 2.37D-05  0.00D+00 EMaxC= 1.00D-01 BMatC= 4.02D-08 BMatP= 4.02D-08
 IDIUse=1 WtCom= 1.00D+00 WtEn= 0.00D+00
 Coeff-Com:  0.100D+01
 Coeff:      0.100D+01
 Gap=     0.212 Goal=   None    Shift=    0.000
 RMSDP=4.26D-06 MaxDP=9.25D-05 DE=-2.15D-05 OVMax= 1.81D-04

 Cycle  10  Pass 1  IDiag  1:
 E= -2911.65487365362     Delta-E=        0.000000062812 Rises=F Damp=F
 DIIS: error= 3.00D-05 at cycle   2 NSaved=   2.
 NSaved= 2 IEnMin= 1 EnMin= -2911.65487371643     IErMin= 1 ErrMin= 2.37D-05
 ErrMax= 3.00D-05  0.00D+00 EMaxC= 1.00D-01 BMatC= 9.80D-08 BMatP= 4.02D-08
 IDIUse=1 WtCom= 1.00D+00 WtEn= 0.00D+00
 Coeff-Com:  0.622D+00 0.378D+00
 Coeff:      0.622D+00 0.378D+00
 Gap=     0.212 Goal=   None    Shift=    0.000
 RMSDP=2.33D-06 MaxDP=5.72D-05 DE= 6.28D-08 OVMax= 1.28D-04

 Cycle  11  Pass 1  IDiag  1:
 E= -2911.65487375422     Delta-E=       -0.000000100605 Rises=F Damp=F
 DIIS: error= 3.64D-06 at cycle   3 NSaved=   3.
 NSaved= 3 IEnMin= 3 EnMin= -2911.65487375422     IErMin= 3 ErrMin= 3.64D-06
 ErrMax= 3.64D-06  0.00D+00 EMaxC= 1.00D-01 BMatC= 2.85D-09 BMatP= 4.02D-08
 IDIUse=1 WtCom= 1.00D+00 WtEn= 0.00D+00
 Coeff-Com:  0.115D+00 0.160D+00 0.726D+00
 Coeff:      0.115D+00 0.160D+00 0.726D+00
 Gap=     0.212 Goal=   None    Shift=    0.000
 RMSDP=4.27D-07 MaxDP=1.09D-05 DE=-1.01D-07 OVMax= 2.01D-05

 Cycle  12  Pass 1  IDiag  1:
 E= -2911.65487375595     Delta-E=       -0.000000001728 Rises=F Damp=F
 DIIS: error= 3.02D-06 at cycle   4 NSaved=   4.
 NSaved= 4 IEnMin= 4 EnMin= -2911.65487375595     IErMin= 4 ErrMin= 3.02D-06
 ErrMax= 3.02D-06  0.00D+00 EMaxC= 1.00D-01 BMatC= 1.07D-09 BMatP= 2.85D-09
 IDIUse=1 WtCom= 1.00D+00 WtEn= 0.00D+00
 Coeff-Com:  0.101D-01 0.634D-01 0.460D+00 0.467D+00
 Coeff:      0.101D-01 0.634D-01 0.460D+00 0.467D+00
 Gap=     0.212 Goal=   None    Shift=    0.000
 RMSDP=2.29D-07 MaxDP=5.10D-06 DE=-1.73D-09 OVMax= 1.23D-05

 Cycle  13  Pass 1  IDiag  1:
 E= -2911.65487375691     Delta-E=       -0.000000000959 Rises=F Damp=F
 DIIS: error= 1.12D-06 at cycle   5 NSaved=   5.
 NSaved= 5 IEnMin= 5 EnMin= -2911.65487375691     IErMin= 5 ErrMin= 1.12D-06
 ErrMax= 1.12D-06  0.00D+00 EMaxC= 1.00D-01 BMatC= 1.23D-10 BMatP= 1.07D-09
 IDIUse=1 WtCom= 1.00D+00 WtEn= 0.00D+00
 Coeff-Com: -0.352D-02 0.290D-01 0.242D+00 0.309D+00 0.424D+00
 Coeff:     -0.352D-02 0.290D-01 0.242D+00 0.309D+00 0.424D+00
 Gap=     0.212 Goal=   None    Shift=    0.000
 RMSDP=7.72D-08 MaxDP=2.70D-06 DE=-9.59D-10 OVMax= 3.56D-06

 Cycle  14  Pass 1  IDiag  1:
 E= -2911.65487375703     Delta-E=       -0.000000000117 Rises=F Damp=F
 DIIS: error= 2.55D-07 at cycle   6 NSaved=   6.
 NSaved= 6 IEnMin= 6 EnMin= -2911.65487375703     IErMin= 6 ErrMin= 2.55D-07
 ErrMax= 2.55D-07  0.00D+00 EMaxC= 1.00D-01 BMatC= 7.71D-12 BMatP= 1.23D-10
 IDIUse=1 WtCom= 1.00D+00 WtEn= 0.00D+00
 Coeff-Com: -0.304D-02 0.139D-01 0.119D+00 0.160D+00 0.267D+00 0.442D+00
 Coeff:     -0.304D-02 0.139D-01 0.119D+00 0.160D+00 0.267D+00 0.442D+00
 Gap=     0.212 Goal=   None    Shift=    0.000
 RMSDP=2.05D-08 MaxDP=4.72D-07 DE=-1.17D-10 OVMax= 8.88D-07

 Cycle  15  Pass 1  IDiag  1:
 E= -2911.65487375701     Delta-E=        0.000000000016 Rises=F Damp=F
 DIIS: error= 9.39D-08 at cycle   7 NSaved=   7.
 NSaved= 7 IEnMin= 6 EnMin= -2911.65487375703     IErMin= 7 ErrMin= 9.39D-08
 ErrMax= 9.39D-08  0.00D+00 EMaxC= 1.00D-01 BMatC= 1.08D-12 BMatP= 7.71D-12
 IDIUse=1 WtCom= 1.00D+00 WtEn= 0.00D+00
 Coeff-Com: -0.134D-02 0.442D-02 0.383D-01 0.537D-01 0.106D+00 0.297D+00
 Coeff-Com:  0.502D+00
 Coeff:     -0.134D-02 0.442D-02 0.383D-01 0.537D-01 0.106D+00 0.297D+00
 Coeff:      0.502D+00
 Gap=     0.212 Goal=   None    Shift=    0.000
 RMSDP=7.26D-09 MaxDP=1.76D-07 DE= 1.64D-11 OVMax= 3.06D-07

 SCF Done:  E(RB3LYP) =  -2911.65487376     A.U. after   15 cycles
            NFock= 15  Conv=0.73D-08     -V/T= 2.0064
 KE= 2.893019704327D+03 PE=-8.061529890086D+03 EE= 1.686891031098D+03
 Leave Link  502 at Tue Sep 17 09:48:53 2024, MaxMem=  1342177280 cpu:              43.3 elap:               7.9
 (Enter /groups/ReismanLab/Software/Gaussian16_RevC/Linux_Binary_AVX2-enabled-CPU/g16/l508.exe)
 QCSCF skips out because SCF is already converged.
 Leave Link  508 at Tue Sep 17 09:48:53 2024, MaxMem=  1342177280 cpu:               0.0 elap:               0.0
 (Enter /groups/ReismanLab/Software/Gaussian16_RevC/Linux_Binary_AVX2-enabled-CPU/g16/l601.exe)
 Copying SCF densities to generalized density rwf, IOpCl= 0 IROHF=0.

 **********************************************************************

            Population analysis using the SCF Density.

 **********************************************************************

 Orbital symmetries:
       Occupied  (A) (A) (A) (A) (A) (A) (A) (A) (A) (A) (A) (A)
                 (A) (A) (A) (A) (A) (A) (A) (A) (A) (A) (A) (A)
                 (A) (A) (A) (A) (A) (A) (A) (A) (A) (A) (A) (A)
                 (A) (A) (A) (A) (A) (A) (A) (A)
       Virtual   (A) (A) (A) (A) (A) (A) (A) (A) (A) (A) (A) (A)
                 (A) (A) (A) (A) (A) (A) (A) (A) (A) (A) (A) (A)
                 (A) (A) (A) (A) (A) (A) (A) (A) (A) (A) (A) (A)
                 (A) (A) (A) (A) (A) (A) (A) (A) (A) (A) (A) (A)
                 (A) (A) (A) (A) (A) (A) (A) (A) (A) (A) (A) (A)
                 (A) (A) (A) (A) (A) (A) (A) (A) (A) (A) (A) (A)
                 (A) (A) (A) (A) (A) (A) (A) (A) (A) (A) (A) (A)
                 (A) (A) (A) (A) (A) (A) (A) (A) (A) (A) (A) (A)
                 (A) (A) (A) (A) (A) (A) (A) (A) (A) (A) (A) (A)
                 (A) (A) (A) (A) (A) (A) (A) (A) (A) (A) (A) (A)
                 (A)
 The electronic state is 1-A.
 Alpha  occ. eigenvalues -- -482.94088 -61.90263 -56.42404 -56.41976 -56.41975
 Alpha  occ. eigenvalues --  -14.36531 -14.34688 -10.29048 -10.28580 -10.25863
 Alpha  occ. eigenvalues --  -10.24357 -10.23866 -10.23535  -8.61410  -6.56834
 Alpha  occ. eigenvalues --   -6.55530  -6.55476  -2.68401  -2.68036  -2.67995
 Alpha  occ. eigenvalues --   -2.66953  -2.66953  -0.99471  -0.92122  -0.87537
 Alpha  occ. eigenvalues --   -0.81863  -0.78583  -0.69882  -0.66315  -0.57146
 Alpha  occ. eigenvalues --   -0.53921  -0.52758  -0.47987  -0.45455  -0.42800
 Alpha  occ. eigenvalues --   -0.42127  -0.38061  -0.37131  -0.35449  -0.35060
 Alpha  occ. eigenvalues --   -0.31486  -0.29433  -0.29225  -0.28920
 Alpha virt. eigenvalues --   -0.07688  -0.05451  -0.02474   0.03272   0.06129
 Alpha virt. eigenvalues --    0.10874   0.11970   0.14784   0.14835   0.17741
 Alpha virt. eigenvalues --    0.20997   0.24058   0.27113   0.28240   0.31499
 Alpha virt. eigenvalues --    0.36567   0.39788   0.42371   0.43364   0.43628
 Alpha virt. eigenvalues --    0.43680   0.45909   0.46064   0.46901   0.49993
 Alpha virt. eigenvalues --    0.52055   0.52671   0.54557   0.56329   0.57256
 Alpha virt. eigenvalues --    0.60289   0.60599   0.62782   0.64028   0.66050
 Alpha virt. eigenvalues --    0.67524   0.69998   0.71703   0.72680   0.75339
 Alpha virt. eigenvalues --    0.77636   0.79870   0.81642   0.83186   0.83566
 Alpha virt. eigenvalues --    0.85596   0.86637   0.87973   0.91816   0.96941
 Alpha virt. eigenvalues --    0.97969   1.05983   1.12075   1.17633   1.19706
 Alpha virt. eigenvalues --    1.19959   1.24633   1.27646   1.29149   1.33854
 Alpha virt. eigenvalues --    1.37072   1.38741   1.42914   1.44325   1.49146
 Alpha virt. eigenvalues --    1.51958   1.53550   1.54760   1.58817   1.67705
 Alpha virt. eigenvalues --    1.72798   1.77488   1.79200   1.81244   1.85367
 Alpha virt. eigenvalues --    1.89193   1.95351   1.95837   1.96362   1.99030
 Alpha virt. eigenvalues --    1.99280   2.03163   2.04112   2.13548   2.14946
 Alpha virt. eigenvalues --    2.15048   2.27901   2.29782   2.32014   2.39493
 Alpha virt. eigenvalues --    2.40524   2.42108   2.47441   2.49946   2.52366
 Alpha virt. eigenvalues --    2.57179   2.61798   2.65903   2.67520   2.68415
 Alpha virt. eigenvalues --    2.79329   2.82876   2.84969   2.91352   3.03902
 Alpha virt. eigenvalues --    3.18409   3.22725   3.25593   3.32447   3.46358
 Alpha virt. eigenvalues --    3.71970   4.04277   4.05757   4.13582   4.18487
 Alpha virt. eigenvalues --    4.26448   4.35473   4.54885   4.74395   8.57760
 Alpha virt. eigenvalues --   72.78493
          Condensed to atoms (all electrons):
               1          2          3          4          5          6
     1  N    6.669059   0.897955  -0.105152  -0.002010  -0.000086  -0.000000
     2  C    0.897955   4.752283   0.204839  -0.074517   0.003130  -0.000192
     3  C   -0.105152   0.204839   4.814258   0.472176  -0.024077   0.005217
     4  C   -0.002010  -0.074517   0.472176   4.995693   0.500441  -0.060285
     5  C   -0.000086   0.003130  -0.024077   0.500441   4.783269   0.277054
     6  Br  -0.000000  -0.000192   0.005217  -0.060285   0.277054  34.921770
     7  C    0.000009   0.001150  -0.039759  -0.039559   0.521665  -0.061857
     8  C   -0.000082   0.005387  -0.052516  -0.047107  -0.024560   0.004939
     9  N   -0.002222  -0.080107   0.469465  -0.043523  -0.043888  -0.000069
    10  H    0.000512  -0.002791  -0.033059   0.368137  -0.038413  -0.003420
    11  H   -0.000000   0.000017   0.000195   0.005905  -0.040141  -0.003392
    12  H    0.000001  -0.000263   0.005062   0.000816   0.002908  -0.000140
               7          8          9         10         11         12
     1  N    0.000009  -0.000082  -0.002222   0.000512  -0.000000   0.000001
     2  C    0.001150   0.005387  -0.080107  -0.002791   0.000017  -0.000263
     3  C   -0.039759  -0.052516   0.469465  -0.033059   0.000195   0.005062
     4  C   -0.039559  -0.047107  -0.043523   0.368137   0.005905   0.000816
     5  C    0.521665  -0.024560  -0.043888  -0.038413  -0.040141   0.002908
     6  Br  -0.061857   0.004939  -0.000069  -0.003420  -0.003392  -0.000140
     7  C    4.978578   0.462120  -0.032186   0.005500   0.365539  -0.061439
     8  C    0.462120   4.700929   0.480143  -0.000102  -0.031477   0.389568
     9  N   -0.032186   0.480143   6.742269   0.004507   0.004711  -0.049314
    10  H    0.005500  -0.000102   0.004507   0.557962  -0.000094   0.000027
    11  H    0.365539  -0.031477   0.004711  -0.000094   0.573273  -0.002264
    12  H   -0.061439   0.389568  -0.049314   0.000027  -0.002264   0.592591
 Mulliken charges:
               1
     1  N   -0.457985
     2  C    0.293110
     3  C    0.283351
     4  C   -0.076167
     5  C    0.082698
     6  Br  -0.079626
     7  C   -0.099761
     8  C    0.112755
     9  N   -0.449785
    10  H    0.141233
    11  H    0.127729
    12  H    0.122448
 Sum of Mulliken charges =  -0.00000
 Mulliken charges with hydrogens summed into heavy atoms:
               1
     1  N   -0.457985
     2  C    0.293110
     3  C    0.283351
     4  C    0.065066
     5  C    0.082698
     6  Br  -0.079626
     7  C    0.027968
     8  C    0.235204
     9  N   -0.449785
 Electronic spatial extent (au):  <R**2>=           1964.0480
 Charge=             -0.0000 electrons
 Dipole moment (field-independent basis, Debye):
    X=             -4.0009    Y=              2.1032    Z=             -0.0002  Tot=              4.5200
 Quadrupole moment (field-independent basis, Debye-Ang):
   XX=            -81.3998   YY=            -59.1789   ZZ=            -63.0622
   XY=              5.2608   XZ=             -0.0009   YZ=              0.0011
 Traceless Quadrupole moment (field-independent basis, Debye-Ang):
   XX=            -13.5195   YY=              8.7014   ZZ=              4.8181
   XY=              5.2608   XZ=             -0.0009   YZ=              0.0011
 Octapole moment (field-independent basis, Debye-Ang**2):
  XXX=           -166.6455  YYY=              9.1688  ZZZ=              0.0001  XYY=            -41.7823
  XXY=             21.5563  XXZ=             -0.0045  XZZ=            -22.3005  YZZ=             -5.3748
  YYZ=              0.0013  XYZ=              0.0030
 Hexadecapole moment (field-independent basis, Debye-Ang**3):
 XXXX=          -2057.2491 YYYY=           -498.8521 ZZZZ=            -63.6461 XXXY=            176.9033
 XXXZ=             -0.0172 YYYX=             70.3894 YYYZ=              0.0076 ZZZX=              0.0001
 ZZZY=             -0.0013 XXYY=           -452.2586 XXZZ=           -298.7310 YYZZ=           -105.1956
 XXYZ=              0.0097 YYXZ=              0.0001 ZZXY=             10.2821
 N-N= 5.699642809040D+02 E-N=-8.061529886944D+03  KE= 2.893019704327D+03
 No NMR shielding tensors so no spin-rotation constants.
 Leave Link  601 at Tue Sep 17 09:48:54 2024, MaxMem=  1342177280 cpu:               0.6 elap:               0.1
 (Enter /groups/ReismanLab/Software/Gaussian16_RevC/Linux_Binary_AVX2-enabled-CPU/g16/l701.exe)
 ... and contract with generalized density number  0.
 Compute integral first derivatives.
 R6Disp: Adding Grimme-D3(BJ) dispersion energy 1st derivatives to the gradient.
 Leave Link  701 at Tue Sep 17 09:48:54 2024, MaxMem=  1342177280 cpu:               0.7 elap:               0.1
 (Enter /groups/ReismanLab/Software/Gaussian16_RevC/Linux_Binary_AVX2-enabled-CPU/g16/l702.exe)
 L702 exits ... SP integral derivatives will be done elsewhere.
 Leave Link  702 at Tue Sep 17 09:48:54 2024, MaxMem=  1342177280 cpu:               0.1 elap:               0.1
 (Enter /groups/ReismanLab/Software/Gaussian16_RevC/Linux_Binary_AVX2-enabled-CPU/g16/l703.exe)
 Integral derivatives from FoFJK, PRISM(SPDF).
 Compute integral first derivatives, UseDBF=F ICtDFT=           0.
 Calling FoFJK, ICntrl=      2127 FMM=F ISym2X=0 I1Cent= 0 IOpClX= 0 NMat=1 NMatS=1 NMatT=0.
 FoFJK:  IHMeth= 1 ICntrl=    2127 DoSepK=F KAlg= 0 I1Cent=           0 FoldK=F
 IRaf=         0 NMat=       1 IRICut=       1 DoRegI=T DoRafI=F ISym2E= 0 IDoP0=0 IntGTp=1.
 FoFCou: FMM=F IPFlag=           0 FMFlag=      100000 FMFlg1=         800
         NFxFlg=           0 DoJE=F BraDBF=F KetDBF=F FulRan=T
         wScrn=  0.000000 ICntrl=      2127 IOpCl=  0 I1Cent=           0 NGrid=           0
         NMat0=    1 NMatS0=      1 NMatT0=    0 NMatD0=    1 NMtDS0=    0 NMtDT0=    0
 Symmetry not used in FoFCou.
 Leave Link  703 at Tue Sep 17 09:48:56 2024, MaxMem=  1342177280 cpu:              19.3 elap:               2.5
 (Enter /groups/ReismanLab/Software/Gaussian16_RevC/Linux_Binary_AVX2-enabled-CPU/g16/l716.exe)
 Dipole        =-1.57407933D+00 8.27443423D-01-6.69609338D-05
 ***** Axes restored to original set *****
 -------------------------------------------------------------------
 Center     Atomic                   Forces (Hartrees/Bohr)
 Number     Number              X              Y              Z
 -------------------------------------------------------------------
      1        7           0.033750830    0.027868620   -0.000002044
      2        6          -0.022106979   -0.019396407    0.000000766
      3        6          -0.011456381    0.002082628   -0.000005235
      4        6          -0.000264983    0.003929079    0.000001691
      5        6          -0.006483597    0.001389017    0.000003631
      6       35           0.001742893   -0.000649457   -0.000001709
      7        6          -0.004964650   -0.001093268    0.000013834
      8        6          -0.006552108   -0.007466592   -0.000024172
      9        7           0.021234126   -0.002135747    0.000005764
     10        1          -0.000694777    0.002735883    0.000001804
     11        1          -0.002878315   -0.002346420   -0.000006627
     12        1          -0.001326060   -0.004917337    0.000012296
 -------------------------------------------------------------------
 Cartesian Forces:  Max     0.033750830 RMS     0.010009590
 Leave Link  716 at Tue Sep 17 09:48:56 2024, MaxMem=  1342177280 cpu:               0.1 elap:               0.0
 (Enter /groups/ReismanLab/Software/Gaussian16_RevC/Linux_Binary_AVX2-enabled-CPU/g16/l103.exe)

 GradGradGradGradGradGradGradGradGradGradGradGradGradGradGradGradGradGrad
 Berny optimization.
 FormGI is forming the generalized inverse of G from B-inverse, IUseBI=4.
 Internal  Forces:  Max     0.043769455 RMS     0.007662671
 Search for a local minimum.
 Step number   1 out of a maximum of   60
 All quantities printed in internal units (Hartrees-Bohrs-Radians)
 RMS Force = .76627D-02 SwitMx=.10000D-02 MixMth= 1
 Mixed Optimization -- RFO/linear search
 Second derivative matrix not updated -- first step.
 ITU=  0
     Eigenvalues ---    0.01775   0.01775   0.02196   0.02237   0.02245
     Eigenvalues ---    0.02268   0.02280   0.02312   0.02408   0.02614
     Eigenvalues ---    0.16000   0.16000   0.16000   0.18033   0.22324
     Eigenvalues ---    0.23504   0.24561   0.25000   0.25000   0.35853
     Eigenvalues ---    0.36157   0.36255   0.41901   0.42815   0.45742
     Eigenvalues ---    0.46750   0.47928   0.57972   0.61298   1.38601
 RFO step:  Lambda=-3.43259971D-03 EMin= 1.77461475D-02
 Linear search not attempted -- first point.
 Iteration  1 RMS(Cart)=  0.01705881 RMS(Int)=  0.00006023
 Iteration  2 RMS(Cart)=  0.00007660 RMS(Int)=  0.00001182
 Iteration  3 RMS(Cart)=  0.00000000 RMS(Int)=  0.00001182
 ITry= 1 IFail=0 DXMaxC= 6.09D-02 DCOld= 1.00D+10 DXMaxT= 3.00D-01 DXLimC= 3.00D+00 Rises=F
 Variable       Old X    -DE/DX   Delta X   Delta X   Delta X     New X
                                 (Linear)    (Quad)   (Total)
    R1        2.16253   0.04377   0.00000   0.03150   0.03150   2.19403
    R2        2.69049   0.01439   0.00000   0.03407   0.03407   2.72457
    R3        2.64021   0.00616   0.00000   0.01300   0.01300   2.65321
    R4        2.51130   0.01368   0.00000   0.02363   0.02365   2.53495
    R5        2.61652   0.00639   0.00000   0.01174   0.01172   2.62824
    R6        2.03837   0.00280   0.00000   0.00768   0.00768   2.04606
    R7        3.59899  -0.00186   0.00000  -0.01012  -0.01012   3.58887
    R8        2.62027   0.00498   0.00000   0.00922   0.00920   2.62947
    R9        2.62636   0.00797   0.00000   0.01709   0.01709   2.64345
   R10        2.03684   0.00371   0.00000   0.01014   0.01014   2.04699
   R11        2.48666   0.01902   0.00000   0.03112   0.03114   2.51780
   R12        2.04311   0.00450   0.00000   0.01244   0.01244   2.05555
    A1        2.07555   0.00003   0.00000  -0.00042  -0.00042   2.07512
    A2        2.05194  -0.00133   0.00000  -0.00580  -0.00581   2.04613
    A3        2.15570   0.00129   0.00000   0.00622   0.00623   2.16193
    A4        2.04445   0.00122   0.00000   0.00112   0.00110   2.04555
    A5        2.11113  -0.00028   0.00000   0.00146   0.00147   2.11260
    A6        2.12761  -0.00094   0.00000  -0.00258  -0.00258   2.12503
    A7        2.09266  -0.00100   0.00000  -0.00128  -0.00126   2.09140
    A8        2.09278   0.00197   0.00000   0.00249   0.00245   2.09523
    A9        2.09774  -0.00098   0.00000  -0.00121  -0.00119   2.09655
   A10        2.05275   0.00044   0.00000  -0.00027  -0.00029   2.05247
   A11        2.11577  -0.00033   0.00000  -0.00054  -0.00053   2.11524
   A12        2.11466  -0.00011   0.00000   0.00081   0.00082   2.11548
   A13        2.15840   0.00031   0.00000   0.00459   0.00460   2.16300
   A14        2.10746  -0.00259   0.00000  -0.01717  -0.01718   2.09028
   A15        2.01732   0.00228   0.00000   0.01259   0.01258   2.02990
   A16        2.06229  -0.00523   0.00000  -0.01414  -0.01410   2.04819
   A17        3.10829   0.00020   0.00000   0.00941   0.00941   3.11770
   A18        3.14140   0.00001   0.00000   0.00052   0.00052   3.14192
    D1        3.14151   0.00000   0.00000   0.00015   0.00015  -3.14153
    D2       -0.00007   0.00000   0.00000   0.00012   0.00012   0.00006
    D3        0.00008  -0.00000   0.00000  -0.00008  -0.00008  -0.00000
    D4       -3.14149  -0.00000   0.00000  -0.00010  -0.00010   3.14159
    D5       -3.14150  -0.00000   0.00000  -0.00010  -0.00010   3.14158
    D6       -0.00007   0.00000   0.00000   0.00012   0.00012   0.00005
    D7        3.14151   0.00000   0.00000   0.00007   0.00007   3.14158
    D8       -0.00006   0.00000   0.00000   0.00004   0.00004  -0.00002
    D9       -0.00010   0.00000   0.00000   0.00009   0.00009  -0.00001
   D10        3.14152   0.00000   0.00000   0.00006   0.00006   3.14158
   D11        0.00003  -0.00000   0.00000  -0.00004  -0.00004  -0.00001
   D12        3.14148   0.00000   0.00000   0.00005   0.00005   3.14153
   D13       -3.14153  -0.00000   0.00000  -0.00007  -0.00007   3.14158
   D14       -0.00008   0.00000   0.00000   0.00002   0.00002  -0.00006
   D15       -0.00002   0.00000   0.00000   0.00008   0.00008   0.00006
   D16       -3.14132  -0.00001   0.00000  -0.00029  -0.00029   3.14158
   D17       -3.14147  -0.00000   0.00000  -0.00001  -0.00001  -3.14148
   D18        0.00042  -0.00001   0.00000  -0.00038  -0.00038   0.00004
   D19        0.00005  -0.00000   0.00000  -0.00012  -0.00012  -0.00008
   D20        3.14135   0.00001   0.00000   0.00023   0.00023   3.14159
         Item               Value     Threshold  Converged?
 Maximum Force            0.043769     0.000450     NO 
 RMS     Force            0.007663     0.000300     NO 
 Maximum Displacement     0.060943     0.001800     NO 
 RMS     Displacement     0.017036     0.001200     NO 
 Predicted change in Energy=-1.725726D-03
 Lowest energy point so far.  Saving SCF results.
 GradGradGradGradGradGradGradGradGradGradGradGradGradGradGradGradGradGrad

 Leave Link  103 at Tue Sep 17 09:48:57 2024, MaxMem=  1342177280 cpu:               0.1 elap:               0.0
 (Enter /groups/ReismanLab/Software/Gaussian16_RevC/Linux_Binary_AVX2-enabled-CPU/g16/l202.exe)
                          Input orientation:                          
 ---------------------------------------------------------------------
 Center     Atomic      Atomic             Coordinates (Angstroms)
 Number     Number       Type             X           Y           Z
 ---------------------------------------------------------------------
      1          7           0        4.055200    1.655378    0.000259
      2          6           0        3.156724    0.920035   -0.000080
      3          6           0        2.019492    0.033791   -0.000107
      4          6           0        0.728767    0.586329   -0.000054
      5          6           0       -0.342505   -0.300643   -0.000006
      6         35           0       -2.120825    0.365938    0.000095
      7          6           0       -0.111038   -1.672713   -0.000032
      8          6           0        1.219187   -2.105495   -0.000117
      9          7           0        2.268426   -1.284348   -0.000110
     10          1           0        0.580547    1.658861   -0.000047
     11          1           0       -0.931402   -2.380077    0.000061
     12          1           0        1.440555   -3.170483   -0.000126
 ---------------------------------------------------------------------
                    Distance matrix (angstroms):
                    1          2          3          4          5
     1  N    0.000000
     2  C    1.161029   0.000000
     3  C    2.602623   1.441778   0.000000
     4  C    3.493998   2.450782   1.404019   0.000000
     5  C    4.813089   3.706030   2.385556   1.390807   0.000000
     6  Br   6.309195   5.306557   4.153619   2.858102   1.899146
     7  C    5.332328   4.171404   2.729709   2.410092   1.391457
     8  C    4.710321   3.592753   2.284082   2.736133   2.386707
     9  N    3.440138   2.376632   1.341439   2.422805   2.790096
    10  H    3.474655   2.680028   2.170580   1.082726   2.166029
    11  H    6.414912   5.253905   3.812419   3.399371   2.161214
    12  H    5.488652   4.435941   3.256154   3.823647   3.378651
                    6          7          8          9         10
     6  Br   0.000000
     7  C    2.862751   0.000000
     8  C    4.154957   1.398856   0.000000
     9  N    4.689240   2.410949   1.332360   0.000000
    10  H    2.994839   3.402598   3.818146   3.392848   0.000000
    11  H    2.992545   1.083218   2.168048   3.382236   4.312657
    12  H    5.018935   2.156561   1.087752   2.059824   4.905322
                   11         12
    11  H    0.000000
    12  H    2.500185   0.000000
 Stoichiometry    C6H3BrN2
 Framework group  C1[X(C6H3BrN2)]
 Deg. of freedom    30
 Full point group                 C1      NOp   1
 RotChk:  IX=0 Diff= 7.52D-03
 Largest Abelian subgroup         C1      NOp   1
 Largest concise Abelian subgroup C1      NOp   1
                         Standard orientation:                         
 ---------------------------------------------------------------------
 Center     Atomic      Atomic             Coordinates (Angstroms)
 Number     Number       Type             X           Y           Z
 ---------------------------------------------------------------------
      1          7           0        3.957308   -1.629345   -0.000238
      2          6           0        3.046231   -0.909673    0.000101
      3          6           0        1.893821   -0.043258    0.000128
      4          6           0        0.612859   -0.618067    0.000075
      5          6           0       -0.473614    0.250219    0.000027
      6         35           0       -2.240123   -0.447062   -0.000074
      7          6           0       -0.265944    1.626092    0.000053
      8          6           0        1.056586    2.081846    0.000139
      9          7           0        2.119889    1.278995    0.000132
     10          1           0        0.483237   -1.693005    0.000068
     11          1           0       -1.098436    2.319142   -0.000040
     12          1           0        1.259476    3.150509    0.000147
 ---------------------------------------------------------------------
 Rotational constants (GHZ):           2.6215133           0.5911668           0.4823859
 Leave Link  202 at Tue Sep 17 09:48:57 2024, MaxMem=  1342177280 cpu:               0.0 elap:               0.0
 (Enter /groups/ReismanLab/Software/Gaussian16_RevC/Linux_Binary_AVX2-enabled-CPU/g16/l301.exe)
 Standard basis: 6-31G(d,p) (6D, 7F)
 Ernie: Thresh=  0.10000D-02 Tol=  0.10000D-05 Strict=F.
 There are   165 symmetry adapted cartesian basis functions of A   symmetry.
 There are   165 symmetry adapted basis functions of A   symmetry.
   165 basis functions,   328 primitive gaussians,   165 cartesian basis functions
    44 alpha electrons       44 beta electrons
       nuclear repulsion energy       567.3305942699 Hartrees.
 IExCor=  402 DFT=T Ex+Corr=B3LYP ExCW=0 ScaHFX=  0.200000
 ScaDFX=  0.800000  0.720000  1.000000  0.810000 ScalE2=  1.000000  1.000000
 IRadAn=      5 IRanWt=     -1 IRanGd=            0 ICorTp=0 IEmpDi=141
 NAtoms=   12 NActive=   12 NUniq=   12 SFac= 1.00D+00 NAtFMM=   60 NAOKFM=F Big=F
 Integral buffers will be    131072 words long.
 Raffenetti 2 integral format.
 Two-electron integral symmetry is turned on.
 R6Disp:  Grimme-D3(BJ) Dispersion energy=       -0.0260453308 Hartrees.
 Nuclear repulsion after empirical dispersion term =      567.3045489392 Hartrees.
 Leave Link  301 at Tue Sep 17 09:48:57 2024, MaxMem=  1342177280 cpu:               0.1 elap:               0.1
 (Enter /groups/ReismanLab/Software/Gaussian16_RevC/Linux_Binary_AVX2-enabled-CPU/g16/l302.exe)
 NPDir=0 NMtPBC=     1 NCelOv=     1 NCel=       1 NClECP=     1 NCelD=      1
         NCelK=      1 NCelE2=     1 NClLst=     1 CellRange=     0.0.
 One-electron integrals computed using PRISM.
 One-electron integral symmetry used in STVInt
 NBasis=   165 RedAO= T EigKep=  7.52D-04  NBF=   165
 NBsUse=   165 1.00D-06 EigRej= -1.00D+00 NBFU=   165
 Precomputing XC quadrature grid using
 IXCGrd= 4 IRadAn=           5 IRanWt=          -1 IRanGd=           0 AccXCQ= 0.00D+00.
 Generated NRdTot=       0 NPtTot=           0 NUsed=           0 NTot=          32
 NSgBfM=   165   165   165   165   165 MxSgAt=    12 MxSgA2=    12.
 Leave Link  302 at Tue Sep 17 09:48:57 2024, MaxMem=  1342177280 cpu:               0.8 elap:               0.4
 (Enter /groups/ReismanLab/Software/Gaussian16_RevC/Linux_Binary_AVX2-enabled-CPU/g16/l303.exe)
 DipDrv:  MaxL=1.
 Leave Link  303 at Tue Sep 17 09:48:57 2024, MaxMem=  1342177280 cpu:               0.1 elap:               0.0
 (Enter /groups/ReismanLab/Software/Gaussian16_RevC/Linux_Binary_AVX2-enabled-CPU/g16/l401.exe)
 Initial guess from the checkpoint file:  "smiles_00123_conf_0.chk"
 B after Tr=    -0.000000    0.000000    0.000000
         Rot=    0.999998   -0.000030    0.000007   -0.001900 Ang=  -0.22 deg.
 Guess basis will be translated and rotated to current coordinates.
 JPrj=2 DoOrth=T DoCkMO=T.
 Generating alternative initial guess.
 ExpMin= 1.43D-01 ExpMax= 5.74D+05 ExpMxC= 5.74D+03 IAcc=3 IRadAn=         5 AccDes= 0.00D+00
 Harris functional with IExCor=  402 and IRadAn=       5 diagonalized for initial guess.
 HarFok:  IExCor=  402 AccDes= 0.00D+00 IRadAn=         5 IDoV= 1 UseB2=F ITyADJ=14
 ICtDFT=  3500011 ScaDFX=  1.000000  1.000000  1.000000  1.000000
 FoFCou: FMM=F IPFlag=           0 FMFlag=      100000 FMFlg1=           0
         NFxFlg=           0 DoJE=T BraDBF=F KetDBF=T FulRan=T
         wScrn=  0.000000 ICntrl=       500 IOpCl=  0 I1Cent=   200000004 NGrid=           0
         NMat0=    1 NMatS0=      1 NMatT0=    0 NMatD0=    1 NMtDS0=    0 NMtDT0=    0
 Petite list used in FoFCou.
 Harris En= -2911.73076689210    
 Leave Link  401 at Tue Sep 17 09:48:58 2024, MaxMem=  1342177280 cpu:               3.6 elap:               0.5
 (Enter /groups/ReismanLab/Software/Gaussian16_RevC/Linux_Binary_AVX2-enabled-CPU/g16/l502.exe)
 Keep R1 ints in memory in canonical form, NReq=101728314.
 FoFCou: FMM=F IPFlag=           0 FMFlag=           0 FMFlg1=           0
         NFxFlg=           0 DoJE=F BraDBF=F KetDBF=F FulRan=T
         wScrn=  0.000000 ICntrl=       600 IOpCl=  0 I1Cent=           0 NGrid=           0
         NMat0=    1 NMatS0=  13695 NMatT0=    0 NMatD0=    1 NMtDS0=    0 NMtDT0=    0
 Symmetry not used in FoFCou.
 Two-electron integral symmetry not used.
 Closed shell SCF:
 Using DIIS extrapolation, IDIIS=  1040.
 NGot=  1342177280 LenX=  1248336152 LenY=  1248308486
 Requested convergence on RMS density matrix=1.00D-08 within  32 cycles.
 Requested convergence on MAX density matrix=1.00D-06.
 Requested convergence on             energy=1.00D-06.
 No special actions if energy rises.
 Integral accuracy reduced to 1.0D-05 until final iterations.

 Cycle   1  Pass 0  IDiag  1:
 E= -2911.65602546458    
 DIIS: error= 1.42D-03 at cycle   1 NSaved=   1.
 NSaved= 1 IEnMin= 1 EnMin= -2911.65602546458     IErMin= 1 ErrMin= 1.42D-03
 ErrMax= 1.42D-03  0.00D+00 EMaxC= 1.00D-01 BMatC= 5.62D-04 BMatP= 5.62D-04
 IDIUse=3 WtCom= 9.86D-01 WtEn= 1.42D-02
 Coeff-Com:  0.100D+01
 Coeff-En:   0.100D+01
 Coeff:      0.100D+01
 Gap=     1.637 Goal=   None    Shift=    0.000
 GapD=    1.637 DampG=2.000 DampE=1.000 DampFc=2.0000 IDamp=-1.
 RMSDP=3.07D-04 MaxDP=8.25D-03              OVMax= 6.13D-03

 Cycle   2  Pass 0  IDiag  1:
 E= -2911.65649139907     Delta-E=       -0.000465934490 Rises=F Damp=F
 DIIS: error= 7.37D-04 at cycle   2 NSaved=   2.
 NSaved= 2 IEnMin= 2 EnMin= -2911.65649139907     IErMin= 2 ErrMin= 7.37D-04
 ErrMax= 7.37D-04  0.00D+00 EMaxC= 1.00D-01 BMatC= 8.26D-05 BMatP= 5.62D-04
 IDIUse=3 WtCom= 9.93D-01 WtEn= 7.37D-03
 Coeff-Com:  0.205D+00 0.795D+00
 Coeff-En:   0.000D+00 0.100D+01
 Coeff:      0.203D+00 0.797D+00
 Gap=     0.209 Goal=   None    Shift=    0.000
 RMSDP=1.30D-04 MaxDP=5.21D-03 DE=-4.66D-04 OVMax= 6.10D-03

 Cycle   3  Pass 0  IDiag  1:
 E= -2911.65651538945     Delta-E=       -0.000023990386 Rises=F Damp=F
 DIIS: error= 6.38D-04 at cycle   3 NSaved=   3.
 NSaved= 3 IEnMin= 3 EnMin= -2911.65651538945     IErMin= 3 ErrMin= 6.38D-04
 ErrMax= 6.38D-04  0.00D+00 EMaxC= 1.00D-01 BMatC= 5.42D-05 BMatP= 8.26D-05
 IDIUse=3 WtCom= 9.94D-01 WtEn= 6.38D-03
 Coeff-Com:  0.249D-01 0.445D+00 0.530D+00
 Coeff-En:   0.000D+00 0.419D+00 0.581D+00
 Coeff:      0.248D-01 0.445D+00 0.530D+00
 Gap=     0.210 Goal=   None    Shift=    0.000
 RMSDP=6.98D-05 MaxDP=1.81D-03 DE=-2.40D-05 OVMax= 4.50D-03

 Cycle   4  Pass 0  IDiag  1:
 E= -2911.65656240590     Delta-E=       -0.000047016449 Rises=F Damp=F
 DIIS: error= 2.86D-04 at cycle   4 NSaved=   4.
 NSaved= 4 IEnMin= 4 EnMin= -2911.65656240590     IErMin= 4 ErrMin= 2.86D-04
 ErrMax= 2.86D-04  0.00D+00 EMaxC= 1.00D-01 BMatC= 1.33D-05 BMatP= 5.42D-05
 IDIUse=3 WtCom= 9.97D-01 WtEn= 2.86D-03
 Coeff-Com: -0.655D-02 0.200D+00 0.369D+00 0.438D+00
 Coeff-En:   0.000D+00 0.000D+00 0.199D+00 0.801D+00
 Coeff:     -0.653D-02 0.199D+00 0.368D+00 0.439D+00
 Gap=     0.210 Goal=   None    Shift=    0.000
 RMSDP=2.36D-05 MaxDP=6.49D-04 DE=-4.70D-05 OVMax= 1.09D-03

 Cycle   5  Pass 0  IDiag  1:
 E= -2911.65657625256     Delta-E=       -0.000013846653 Rises=F Damp=F
 DIIS: error= 2.98D-05 at cycle   5 NSaved=   5.
 NSaved= 5 IEnMin= 5 EnMin= -2911.65657625256     IErMin= 5 ErrMin= 2.98D-05
 ErrMax= 2.98D-05  0.00D+00 EMaxC= 1.00D-01 BMatC= 2.92D-07 BMatP= 1.33D-05
 IDIUse=1 WtCom= 1.00D+00 WtEn= 0.00D+00
 Coeff-Com: -0.419D-02 0.687D-01 0.154D+00 0.210D+00 0.571D+00
 Coeff:     -0.419D-02 0.687D-01 0.154D+00 0.210D+00 0.571D+00
 Gap=     0.210 Goal=   None    Shift=    0.000
 RMSDP=5.20D-06 MaxDP=1.57D-04 DE=-1.38D-05 OVMax= 1.89D-04

 Initial convergence to 1.0D-05 achieved.  Increase integral accuracy.
 Cycle   6  Pass 1  IDiag  1:
 E= -2911.65659451614     Delta-E=       -0.000018263585 Rises=F Damp=F
 DIIS: error= 2.35D-05 at cycle   1 NSaved=   1.
 NSaved= 1 IEnMin= 1 EnMin= -2911.65659451614     IErMin= 1 ErrMin= 2.35D-05
 ErrMax= 2.35D-05  0.00D+00 EMaxC= 1.00D-01 BMatC= 3.51D-08 BMatP= 3.51D-08
 IDIUse=1 WtCom= 1.00D+00 WtEn= 0.00D+00
 Coeff-Com:  0.100D+01
 Coeff:      0.100D+01
 Gap=     0.210 Goal=   None    Shift=    0.000
 RMSDP=5.20D-06 MaxDP=1.57D-04 DE=-1.83D-05 OVMax= 9.52D-05

 Cycle   7  Pass 1  IDiag  1:
 E= -2911.65659450243     Delta-E=        0.000000013708 Rises=F Damp=F
 DIIS: error= 1.80D-05 at cycle   2 NSaved=   2.
 NSaved= 2 IEnMin= 1 EnMin= -2911.65659451614     IErMin= 2 ErrMin= 1.80D-05
 ErrMax= 1.80D-05  0.00D+00 EMaxC= 1.00D-01 BMatC= 4.78D-08 BMatP= 3.51D-08
 IDIUse=1 WtCom= 1.00D+00 WtEn= 0.00D+00
 Coeff-Com:  0.544D+00 0.456D+00
 Coeff:      0.544D+00 0.456D+00
 Gap=     0.210 Goal=   None    Shift=    0.000
 RMSDP=1.62D-06 MaxDP=4.78D-05 DE= 1.37D-08 OVMax= 7.56D-05

 Cycle   8  Pass 1  IDiag  1:
 E= -2911.65659454123     Delta-E=       -0.000000038800 Rises=F Damp=F
 DIIS: error= 8.71D-06 at cycle   3 NSaved=   3.
 NSaved= 3 IEnMin= 3 EnMin= -2911.65659454123     IErMin= 3 ErrMin= 8.71D-06
 ErrMax= 8.71D-06  0.00D+00 EMaxC= 1.00D-01 BMatC= 7.26D-09 BMatP= 3.51D-08
 IDIUse=1 WtCom= 1.00D+00 WtEn= 0.00D+00
 Coeff-Com:  0.203D+00 0.289D+00 0.509D+00
 Coeff:      0.203D+00 0.289D+00 0.509D+00
 Gap=     0.210 Goal=   None    Shift=    0.000
 RMSDP=6.44D-07 MaxDP=1.98D-05 DE=-3.88D-08 OVMax= 3.70D-05

 Cycle   9  Pass 1  IDiag  1:
 E= -2911.65659454623     Delta-E=       -0.000000004991 Rises=F Damp=F
 DIIS: error= 5.42D-06 at cycle   4 NSaved=   4.
 NSaved= 4 IEnMin= 4 EnMin= -2911.65659454623     IErMin= 4 ErrMin= 5.42D-06
 ErrMax= 5.42D-06  0.00D+00 EMaxC= 1.00D-01 BMatC= 2.13D-09 BMatP= 7.26D-09
 IDIUse=1 WtCom= 1.00D+00 WtEn= 0.00D+00
 Coeff-Com:  0.187D-01 0.106D+00 0.381D+00 0.494D+00
 Coeff:      0.187D-01 0.106D+00 0.381D+00 0.494D+00
 Gap=     0.210 Goal=   None    Shift=    0.000
 RMSDP=2.74D-07 MaxDP=1.03D-05 DE=-4.99D-09 OVMax= 1.68D-05

 Cycle  10  Pass 1  IDiag  1:
 E= -2911.65659454793     Delta-E=       -0.000000001707 Rises=F Damp=F
 DIIS: error= 9.41D-07 at cycle   5 NSaved=   5.
 NSaved= 5 IEnMin= 5 EnMin= -2911.65659454793     IErMin= 5 ErrMin= 9.41D-07
 ErrMax= 9.41D-07  0.00D+00 EMaxC= 1.00D-01 BMatC= 1.51D-10 BMatP= 2.13D-09
 IDIUse=1 WtCom= 1.00D+00 WtEn= 0.00D+00
 Coeff-Com: -0.375D-02 0.441D-01 0.205D+00 0.313D+00 0.442D+00
 Coeff:     -0.375D-02 0.441D-01 0.205D+00 0.313D+00 0.442D+00
 Gap=     0.210 Goal=   None    Shift=    0.000
 RMSDP=9.45D-08 MaxDP=3.19D-06 DE=-1.71D-09 OVMax= 5.38D-06

 Cycle  11  Pass 1  IDiag  1:
 E= -2911.65659454811     Delta-E=       -0.000000000174 Rises=F Damp=F
 DIIS: error= 3.09D-07 at cycle   6 NSaved=   6.
 NSaved= 6 IEnMin= 6 EnMin= -2911.65659454811     IErMin= 6 ErrMin= 3.09D-07
 ErrMax= 3.09D-07  0.00D+00 EMaxC= 1.00D-01 BMatC= 1.39D-11 BMatP= 1.51D-10
 IDIUse=1 WtCom= 1.00D+00 WtEn= 0.00D+00
 Coeff-Com: -0.363D-02 0.193D-01 0.989D-01 0.157D+00 0.290D+00 0.438D+00
 Coeff:     -0.363D-02 0.193D-01 0.989D-01 0.157D+00 0.290D+00 0.438D+00
 Gap=     0.210 Goal=   None    Shift=    0.000
 RMSDP=2.69D-08 MaxDP=6.09D-07 DE=-1.74D-10 OVMax= 1.66D-06

 Cycle  12  Pass 1  IDiag  1:
 E= -2911.65659454812     Delta-E=       -0.000000000010 Rises=F Damp=F
 DIIS: error= 7.44D-08 at cycle   7 NSaved=   7.
 NSaved= 7 IEnMin= 7 EnMin= -2911.65659454812     IErMin= 7 ErrMin= 7.44D-08
 ErrMax= 7.44D-08  0.00D+00 EMaxC= 1.00D-01 BMatC= 3.30D-13 BMatP= 1.39D-11
 IDIUse=1 WtCom= 1.00D+00 WtEn= 0.00D+00
 Coeff-Com: -0.131D-02 0.485D-02 0.273D-01 0.437D-01 0.927D-01 0.180D+00
 Coeff-Com:  0.653D+00
 Coeff:     -0.131D-02 0.485D-02 0.273D-01 0.437D-01 0.927D-01 0.180D+00
 Coeff:      0.653D+00
 Gap=     0.210 Goal=   None    Shift=    0.000
 RMSDP=6.46D-09 MaxDP=1.98D-07 DE=-1.00D-11 OVMax= 4.00D-07

 SCF Done:  E(RB3LYP) =  -2911.65659455     A.U. after   12 cycles
            NFock= 12  Conv=0.65D-08     -V/T= 2.0065
 KE= 2.892732025643D+03 PE=-8.055967058186D+03 EE= 1.684273889055D+03
 Leave Link  502 at Tue Sep 17 09:49:04 2024, MaxMem=  1342177280 cpu:              37.2 elap:               6.3
 (Enter /groups/ReismanLab/Software/Gaussian16_RevC/Linux_Binary_AVX2-enabled-CPU/g16/l508.exe)
 QCSCF skips out because SCF is already converged.
 Leave Link  508 at Tue Sep 17 09:49:04 2024, MaxMem=  1342177280 cpu:               0.0 elap:               0.0
 (Enter /groups/ReismanLab/Software/Gaussian16_RevC/Linux_Binary_AVX2-enabled-CPU/g16/l701.exe)
 ... and contract with generalized density number  0.
 Compute integral first derivatives.
 R6Disp: Adding Grimme-D3(BJ) dispersion energy 1st derivatives to the gradient.
 Leave Link  701 at Tue Sep 17 09:49:04 2024, MaxMem=  1342177280 cpu:               0.5 elap:               0.1
 (Enter /groups/ReismanLab/Software/Gaussian16_RevC/Linux_Binary_AVX2-enabled-CPU/g16/l702.exe)
 L702 exits ... SP integral derivatives will be done elsewhere.
 Leave Link  702 at Tue Sep 17 09:49:04 2024, MaxMem=  1342177280 cpu:               0.0 elap:               0.0
 (Enter /groups/ReismanLab/Software/Gaussian16_RevC/Linux_Binary_AVX2-enabled-CPU/g16/l703.exe)
 Integral derivatives from FoFJK, PRISM(SPDF).
 Compute integral first derivatives, UseDBF=F ICtDFT=           0.
 Calling FoFJK, ICntrl=      2127 FMM=F ISym2X=0 I1Cent= 0 IOpClX= 0 NMat=1 NMatS=1 NMatT=0.
 FoFJK:  IHMeth= 1 ICntrl=    2127 DoSepK=F KAlg= 0 I1Cent=           0 FoldK=F
 IRaf=         0 NMat=       1 IRICut=       1 DoRegI=T DoRafI=F ISym2E= 0 IDoP0=0 IntGTp=1.
 FoFCou: FMM=F IPFlag=           0 FMFlag=      100000 FMFlg1=         800
         NFxFlg=           0 DoJE=F BraDBF=F KetDBF=F FulRan=T
         wScrn=  0.000000 ICntrl=      2127 IOpCl=  0 I1Cent=           0 NGrid=           0
         NMat0=    1 NMatS0=      1 NMatT0=    0 NMatD0=    1 NMtDS0=    0 NMtDT0=    0
 Symmetry not used in FoFCou.
 Leave Link  703 at Tue Sep 17 09:49:06 2024, MaxMem=  1342177280 cpu:              17.6 elap:               2.3
 (Enter /groups/ReismanLab/Software/Gaussian16_RevC/Linux_Binary_AVX2-enabled-CPU/g16/l716.exe)
 Dipole        =-1.62043513D+00 8.22755454D-01 1.76913152D-04
 ***** Axes restored to original set *****
 -------------------------------------------------------------------
 Center     Atomic                   Forces (Hartrees/Bohr)
 Number     Number              X              Y              Z
 -------------------------------------------------------------------
      1        7           0.000918013    0.001108308   -0.000010351
      2        6          -0.000471442   -0.001742311    0.000018881
      3        6          -0.005087005    0.000416042   -0.000003707
      4        6           0.002006933   -0.000262439   -0.000002580
      5        6          -0.000435802    0.000004369    0.000000095
      6       35           0.000261824   -0.000027089    0.000000345
      7        6           0.001211160    0.000027783    0.000001148
      8        6          -0.002820128    0.000498619    0.000008375
      9        7           0.004032370   -0.000419559   -0.000008385
     10        1          -0.000012748   -0.000177884    0.000000177
     11        1           0.000250475    0.000040808   -0.000003224
     12        1           0.000146350    0.000533353   -0.000000773
 -------------------------------------------------------------------
 Cartesian Forces:  Max     0.005087005 RMS     0.001314912
 Leave Link  716 at Tue Sep 17 09:49:07 2024, MaxMem=  1342177280 cpu:               0.1 elap:               0.0
 (Enter /groups/ReismanLab/Software/Gaussian16_RevC/Linux_Binary_AVX2-enabled-CPU/g16/l103.exe)

 GradGradGradGradGradGradGradGradGradGradGradGradGradGradGradGradGradGrad
 Berny optimization.
 Using GEDIIS/GDIIS optimizer.
 FormGI is forming the generalized inverse of G from B-inverse, IUseBI=4.
 Internal  Forces:  Max     0.002385202 RMS     0.000688226
 Search for a local minimum.
 Step number   2 out of a maximum of   60
 All quantities printed in internal units (Hartrees-Bohrs-Radians)
 RMS Force = .68823D-03 SwitMx=.10000D-02 MixMth= 2
 Mixed Optimization -- En-DIIS/RFO-DIIS
 Update second derivatives using D2CorX and points    1    2
 DE= -1.72D-03 DEPred=-1.73D-03 R= 9.97D-01
 TightC=F SS=  1.41D+00  RLast= 7.51D-02 DXNew= 5.0454D-01 2.2530D-01
 Trust test= 9.97D-01 RLast= 7.51D-02 DXMaxT set to 3.00D-01
 ITU=  1  0
 Use linear search instead of GDIIS.
     Eigenvalues ---    0.01775   0.01781   0.02196   0.02237   0.02245
     Eigenvalues ---    0.02268   0.02280   0.02311   0.02412   0.02612
     Eigenvalues ---    0.15994   0.16000   0.16080   0.18001   0.22246
     Eigenvalues ---    0.23453   0.23771   0.24975   0.25000   0.35947
     Eigenvalues ---    0.36181   0.36350   0.41838   0.42976   0.45812
     Eigenvalues ---    0.47729   0.48538   0.58139   0.60922   1.36301
 RFO step:  Lambda=-9.69162347D-05 EMin= 1.77461394D-02
 Quartic linear search produced a step of  0.01879.
 Iteration  1 RMS(Cart)=  0.00868917 RMS(Int)=  0.00014635
 Iteration  2 RMS(Cart)=  0.00014776 RMS(Int)=  0.00000256
 Iteration  3 RMS(Cart)=  0.00000001 RMS(Int)=  0.00000256
 ITry= 1 IFail=0 DXMaxC= 3.66D-02 DCOld= 1.00D+10 DXMaxT= 3.00D-01 DXLimC= 3.00D+00 Rises=F
 Variable       Old X    -DE/DX   Delta X   Delta X   Delta X     New X
                                 (Linear)    (Quad)   (Total)
    R1        2.19403   0.00141   0.00059   0.00136   0.00195   2.19598
    R2        2.72457  -0.00004   0.00064   0.00028   0.00092   2.72549
    R3        2.65321  -0.00207   0.00024  -0.00446  -0.00421   2.64900
    R4        2.53495   0.00024   0.00044   0.00072   0.00117   2.53612
    R5        2.62824  -0.00049   0.00022  -0.00102  -0.00080   2.62744
    R6        2.04606  -0.00017   0.00014  -0.00041  -0.00026   2.04579
    R7        3.58887  -0.00025  -0.00019  -0.00156  -0.00175   3.58711
    R8        2.62947  -0.00040   0.00017  -0.00082  -0.00065   2.62882
    R9        2.64345  -0.00110   0.00032  -0.00215  -0.00183   2.64163
   R10        2.04699  -0.00022   0.00019  -0.00050  -0.00031   2.04668
   R11        2.51780   0.00092   0.00059   0.00189   0.00247   2.52027
   R12        2.05555  -0.00049   0.00023  -0.00126  -0.00103   2.05453
    A1        2.07512  -0.00021  -0.00001  -0.00084  -0.00085   2.07427
    A2        2.04613  -0.00172  -0.00011  -0.00705  -0.00716   2.03897
    A3        2.16193   0.00193   0.00012   0.00790   0.00802   2.16995
    A4        2.04555  -0.00015   0.00002  -0.00110  -0.00108   2.04448
    A5        2.11260   0.00011   0.00003   0.00081   0.00084   2.11344
    A6        2.12503   0.00004  -0.00005   0.00028   0.00024   2.12527
    A7        2.09140   0.00014  -0.00002   0.00079   0.00077   2.09218
    A8        2.09523  -0.00053   0.00005  -0.00256  -0.00252   2.09271
    A9        2.09655   0.00039  -0.00002   0.00177   0.00175   2.09830
   A10        2.05247   0.00037  -0.00001   0.00153   0.00152   2.05398
   A11        2.11524  -0.00005  -0.00001   0.00009   0.00008   2.11532
   A12        2.11548  -0.00032   0.00002  -0.00162  -0.00160   2.11388
   A13        2.16300   0.00076   0.00009   0.00377   0.00386   2.16686
   A14        2.09028  -0.00012  -0.00032  -0.00043  -0.00075   2.08953
   A15        2.02990  -0.00064   0.00024  -0.00334  -0.00311   2.02680
   A16        2.04819  -0.00239  -0.00026  -0.00954  -0.00979   2.03840
   A17        3.11770  -0.00060   0.00018  -0.03420  -0.03402   3.08368
   A18        3.14192  -0.00002   0.00001  -0.00110  -0.00109   3.14084
    D1       -3.14153  -0.00000   0.00000  -0.00002  -0.00002  -3.14155
    D2        0.00006  -0.00000   0.00000  -0.00002  -0.00002   0.00004
    D3       -0.00000   0.00000  -0.00000   0.00004   0.00003   0.00003
    D4        3.14159   0.00000  -0.00000   0.00004   0.00004  -3.14156
    D5        3.14158  -0.00000  -0.00000  -0.00003  -0.00004   3.14154
    D6        0.00005  -0.00000   0.00000  -0.00009  -0.00009  -0.00004
    D7        3.14158   0.00000   0.00000   0.00001   0.00001   3.14159
    D8       -0.00002   0.00000   0.00000   0.00001   0.00001  -0.00001
    D9       -0.00001   0.00000   0.00000   0.00001   0.00001  -0.00000
   D10        3.14158   0.00000   0.00000   0.00001   0.00001   3.14159
   D11       -0.00001   0.00000  -0.00000   0.00001   0.00001  -0.00000
   D12        3.14153   0.00000   0.00000   0.00007   0.00007  -3.14159
   D13        3.14158   0.00000  -0.00000   0.00000   0.00000   3.14159
   D14       -0.00006   0.00000   0.00000   0.00006   0.00006   0.00000
   D15        0.00006  -0.00000   0.00000  -0.00007  -0.00007  -0.00001
   D16        3.14158   0.00000  -0.00001   0.00005   0.00004  -3.14157
   D17       -3.14148  -0.00000  -0.00000  -0.00013  -0.00013   3.14158
   D18        0.00004   0.00000  -0.00001  -0.00001  -0.00002   0.00002
   D19       -0.00008   0.00000  -0.00000   0.00011   0.00011   0.00003
   D20        3.14159  -0.00000   0.00000  -0.00000   0.00000   3.14159
         Item               Value     Threshold  Converged?
 Maximum Force            0.002385     0.000450     NO 
 RMS     Force            0.000688     0.000300     NO 
 Maximum Displacement     0.036614     0.001800     NO 
 RMS     Displacement     0.008720     0.001200     NO 
 Predicted change in Energy=-4.912939D-05
 Lowest energy point so far.  Saving SCF results.
 GradGradGradGradGradGradGradGradGradGradGradGradGradGradGradGradGradGrad

 Leave Link  103 at Tue Sep 17 09:49:07 2024, MaxMem=  1342177280 cpu:               0.1 elap:               0.0
 (Enter /groups/ReismanLab/Software/Gaussian16_RevC/Linux_Binary_AVX2-enabled-CPU/g16/l202.exe)
                          Input orientation:                          
 ---------------------------------------------------------------------
 Center     Atomic      Atomic             Coordinates (Angstroms)
 Number     Number       Type             X           Y           Z
 ---------------------------------------------------------------------
      1          7           0        4.035824    1.673210   -0.000365
      2          6           0        3.159569    0.909954    0.000254
      3          6           0        2.019020    0.027188    0.000108
      4          6           0        0.732656    0.584219    0.000084
      5          6           0       -0.341028   -0.299166   -0.000008
      6         35           0       -2.116928    0.371216   -0.000041
      7          6           0       -0.110399   -1.671027   -0.000083
      8          6           0        1.218000   -2.106284   -0.000062
      9          7           0        2.273139   -1.290591    0.000013
     10          1           0        0.588027    1.657101    0.000138
     11          1           0       -0.930986   -2.377885   -0.000161
     12          1           0        1.436233   -3.171364   -0.000142
 ---------------------------------------------------------------------
                    Distance matrix (angstroms):
                    1          2          3          4          5
     1  N    0.000000
     2  C    1.162060   0.000000
     3  C    2.603246   1.442265   0.000000
     4  C    3.478049   2.448675   1.401790   0.000000
     5  C    4.800740   3.703532   2.382506   1.390383   0.000000
     6  Br   6.289002   5.303929   4.150231   2.857534   1.898218
     7  C    5.326827   4.165831   2.723666   2.407670   1.391112
     8  C    4.714309   3.587113   2.278889   2.733928   2.386680
     9  N    3.448358   2.372373   1.342057   2.426520   2.795853
    10  H    3.447835   2.677883   2.168953   1.082587   2.165670
    11  H    6.409413   5.248097   3.806168   3.397317   2.160815
    12  H    5.497979   4.430242   3.251212   3.820919   3.377600
                    6          7          8          9         10
     6  Br   0.000000
     7  C    2.863026   0.000000
     8  C    4.154486   1.397888   0.000000
     9  N    4.694070   2.413708   1.333669   0.000000
    10  H    2.995043   3.400623   3.815748   3.395363   0.000000
    11  H    2.993996   1.083057   2.166082   3.383582   4.311440
    12  H    5.017452   2.154781   1.087208   2.058573   4.902401
                   11         12
    11  H    0.000000
    12  H    2.496665   0.000000
 Stoichiometry    C6H3BrN2
 Framework group  C1[X(C6H3BrN2)]
 Deg. of freedom    30
 Full point group                 C1      NOp   1
 RotChk:  IX=2 Diff= 1.98D-03
 Largest Abelian subgroup         C1      NOp   1
 Largest concise Abelian subgroup C1      NOp   1
                         Standard orientation:                         
 ---------------------------------------------------------------------
 Center     Atomic      Atomic             Coordinates (Angstroms)
 Number     Number       Type             X           Y           Z
 ---------------------------------------------------------------------
      1          7           0        3.934988   -1.651142    0.000338
      2          6           0        3.046694   -0.901931   -0.000280
      3          6           0        1.892237   -0.037434   -0.000134
      4          6           0        0.614903   -0.614871   -0.000110
      5          6           0       -0.472707    0.251310   -0.000018
      6         35           0       -2.237710   -0.447257    0.000015
      7          6           0       -0.263945    1.626668    0.000057
      8          6           0        1.057357    2.083016    0.000035
      9          7           0        2.125347    1.284223   -0.000039
     10          1           0        0.487371   -1.689920   -0.000164
     11          1           0       -1.095681    2.320374    0.000135
     12          1           0        1.258607    3.151436    0.000116
 ---------------------------------------------------------------------
 Rotational constants (GHZ):           2.6070536           0.5932533           0.4832796
 Leave Link  202 at Tue Sep 17 09:49:07 2024, MaxMem=  1342177280 cpu:               0.0 elap:               0.0
 (Enter /groups/ReismanLab/Software/Gaussian16_RevC/Linux_Binary_AVX2-enabled-CPU/g16/l301.exe)
 Standard basis: 6-31G(d,p) (6D, 7F)
 Ernie: Thresh=  0.10000D-02 Tol=  0.10000D-05 Strict=F.
 There are   165 symmetry adapted cartesian basis functions of A   symmetry.
 There are   165 symmetry adapted basis functions of A   symmetry.
   165 basis functions,   328 primitive gaussians,   165 cartesian basis functions
    44 alpha electrons       44 beta electrons
       nuclear repulsion energy       567.5291195438 Hartrees.
 IExCor=  402 DFT=T Ex+Corr=B3LYP ExCW=0 ScaHFX=  0.200000
 ScaDFX=  0.800000  0.720000  1.000000  0.810000 ScalE2=  1.000000  1.000000
 IRadAn=      5 IRanWt=     -1 IRanGd=            0 ICorTp=0 IEmpDi=141
 NAtoms=   12 NActive=   12 NUniq=   12 SFac= 1.00D+00 NAtFMM=   60 NAOKFM=F Big=F
 Integral buffers will be    131072 words long.
 Raffenetti 2 integral format.
 Two-electron integral symmetry is turned on.
 R6Disp:  Grimme-D3(BJ) Dispersion energy=       -0.0260561896 Hartrees.
 Nuclear repulsion after empirical dispersion term =      567.5030633542 Hartrees.
 Leave Link  301 at Tue Sep 17 09:49:07 2024, MaxMem=  1342177280 cpu:               0.1 elap:               0.1
 (Enter /groups/ReismanLab/Software/Gaussian16_RevC/Linux_Binary_AVX2-enabled-CPU/g16/l302.exe)
 NPDir=0 NMtPBC=     1 NCelOv=     1 NCel=       1 NClECP=     1 NCelD=      1
         NCelK=      1 NCelE2=     1 NClLst=     1 CellRange=     0.0.
 One-electron integrals computed using PRISM.
 One-electron integral symmetry used in STVInt
 NBasis=   165 RedAO= T EigKep=  7.53D-04  NBF=   165
 NBsUse=   165 1.00D-06 EigRej= -1.00D+00 NBFU=   165
 Precomputing XC quadrature grid using
 IXCGrd= 4 IRadAn=           5 IRanWt=          -1 IRanGd=           0 AccXCQ= 0.00D+00.
 Generated NRdTot=       0 NPtTot=           0 NUsed=           0 NTot=          32
 NSgBfM=   165   165   165   165   165 MxSgAt=    12 MxSgA2=    12.
 Leave Link  302 at Tue Sep 17 09:49:07 2024, MaxMem=  1342177280 cpu:               0.8 elap:               0.1
[...]
 Leave Link  502 at Tue Sep 17 10:00:09 2024, MaxMem=  1342177280 cpu:              48.6 elap:              48.8
 (Enter /groups/ReismanLab/Software/Gaussian16_RevC/Linux_Binary_AVX2-enabled-CPU/g16/l508.exe)
 QCSCF skips out because SCF is already converged.
 Leave Link  508 at Tue Sep 17 10:00:09 2024, MaxMem=  1342177280 cpu:               0.0 elap:               0.0
 (Enter /groups/ReismanLab/Software/Gaussian16_RevC/Linux_Binary_AVX2-enabled-CPU/g16/l801.exe)
 DoSCS=F DFT=T ScalE2(SS,OS)=  1.000000  1.000000
 Range of M.O.s used for correlation:     1   314
 NBasis=   314 NAE=    44 NBE=    44 NFC=     0 NFV=     0
 NROrb=    314 NOA=    44 NOB=    44 NVA=   270 NVB=   270

 **** Warning!!: The largest alpha MO coefficient is  0.31422835D+02

 Leave Link  801 at Tue Sep 17 10:00:09 2024, MaxMem=  1342177280 cpu:               0.0 elap:               0.0
 (Enter /groups/ReismanLab/Software/Gaussian16_RevC/Linux_Binary_AVX2-enabled-CPU/g16/l1002.exe)
 Minotr:  Closed shell wavefunction.
 NEqPCM:  Using equilibrium solvation (IEInf=0, Eps=   2.2099, EpsInf=   2.0232)
          Direct CPHF calculation.
          Differentiating once with respect to magnetic field using GIAOs.
          Electric field/nuclear overlap derivatives assumed to be zero.
          Requested convergence is 1.0D-08 RMS, and 1.0D-07 maximum.
          Secondary convergence is 1.0D-12 RMS, and 1.0D-12 maximum.
          NewPWx=T KeepS1=F KeepF1=F KeepIn=T MapXYZ=F SortEE=F KeepMc=T.
         3570 words used for storage of precomputed grid.
 Keep R3 ints in memory in canonical form, NReq=1246649285.
 FoFCou: FMM=F IPFlag=           0 FMFlag=           0 FMFlg1=           0
         NFxFlg=           0 DoJE=F BraDBF=F KetDBF=F FulRan=T
         wScrn=  0.000000 ICntrl=       600 IOpCl=  0 I1Cent=           0 NGrid=           0
         NMat0=    1 NMatS0=  49455 NMatT0=    0 NMatD0=    1 NMtDS0=    0 NMtDT0=    0
 Symmetry not used in FoFCou.
 Two-electron integral symmetry not used.
          MDV=    1342177280 using IRadAn=       1.
          Solving linear equations simultaneously, MaxMat=       0.
   1 Symmetry operations used in ECPInt.
 ECPInt:  NShTT=    6786 NPrTT=   23904 LenC2=    6787 LenP2D=   23904.
 LDataN:  DoStor=T MaxTD1= 7 Len=  274
 FoFJK:  IHMeth= 1 ICntrl=    6127 DoSepK=F KAlg= 0 I1Cent=           0 FoldK=F
 IRaf=         1 NMat=       1 IRICut=       1 DoRegI=T DoRafI=F ISym2E= 0 IDoP0=0 IntGTp=1.
          There are     3 degrees of freedom in the 1st order CPHF.  IDoFFX=0 NUNeed=     3.
      3 vectors produced by pass  0 Test12= 3.96D-13 3.33D-08 XBig12= 7.99D+00 7.06D-01.
 AX will form     3 AO Fock derivatives at one time.
      3 vectors produced by pass  1 Test12= 3.96D-13 3.33D-08 XBig12= 8.19D-02 9.10D-02.
      3 vectors produced by pass  2 Test12= 3.96D-13 3.33D-08 XBig12= 1.20D-03 8.61D-03.
      3 vectors produced by pass  3 Test12= 3.96D-13 3.33D-08 XBig12= 1.33D-05 8.92D-04.
      3 vectors produced by pass  4 Test12= 3.96D-13 3.33D-08 XBig12= 2.08D-07 1.86D-04.
      3 vectors produced by pass  5 Test12= 3.96D-13 3.33D-08 XBig12= 5.07D-09 2.90D-05.
      3 vectors produced by pass  6 Test12= 3.96D-13 3.33D-08 XBig12= 6.38D-11 2.18D-06.
      3 vectors produced by pass  7 Test12= 3.96D-13 3.33D-08 XBig12= 6.82D-13 1.82D-07.
 InvSVY:  IOpt=1 It=  1 EMax= 1.33D-15
 Solved reduced A of dimension    24 with     3 vectors.
 Calculating GIAO nuclear magnetic shielding tensors.
 SCF GIAO Magnetic shielding tensor (ppm):
      1  N    Isotropic =   -79.0507   Anisotropy =   478.5728
   XX=    53.9380   YX=  -238.3204   ZX=    -0.0953
   XY=  -225.0671   YY=   -48.5221   ZY=     0.0766
   XZ=    -0.0307   YZ=     0.0291   ZZ=  -242.5679
   Eigenvalues:  -242.5679  -234.5820   239.9979
      2  C    Isotropic =    50.8933   Anisotropy =   371.1843
   XX=   157.0395   YX=  -176.0777   ZX=    -0.0635
   XY=  -177.9368   YY=    76.6272   ZY=     0.0512
   XZ=    -0.1034   YZ=     0.0793   ZZ=   -80.9867
   Eigenvalues:   -80.9868   -64.6828   298.3495
      3  C    Isotropic =    26.2426   Anisotropy =   163.5699
   XX=   -39.4080   YX=    62.2827   ZX=    -0.0164
   XY=    93.9980   YY=   -17.1533   ZY=     0.0120
   XZ=    -0.0084   YZ=     0.0028   ZZ=   135.2893
   Eigenvalues:  -107.2093    50.6480   135.2893
      4  C    Isotropic =    29.3808   Anisotropy =   187.1094
   XX=    23.6127   YX=   -17.7828   ZX=    -0.0065
   XY=   -16.1945   YY=   -89.5908   ZY=    -0.0043
   XZ=    -0.0108   YZ=     0.0002   ZZ=   154.1203
   Eigenvalues:   -92.0853    26.1073   154.1203
      5  C    Isotropic =     9.2502   Anisotropy =   186.0733
   XX=   -92.4432   YX=   -34.4931   ZX=    -0.0078
   XY=   -38.7552   YY=   -13.1053   ZY=    -0.0039
   XZ=    -0.0069   YZ=    -0.0018   ZZ=   133.2990
   Eigenvalues:  -106.7646     1.2161   133.2990
      6  Br   Isotropic =  2016.5830   Anisotropy =  1286.3760
   XX=  2702.9469   YX=   438.0718   ZX=     0.0484
   XY=   436.5109   YY=  1757.3376   ZY=     0.0195
   XZ=     0.0473   YZ=     0.0320   ZZ=  1589.4646
   Eigenvalues:  1586.1174  1589.4646  2874.1670
      7  C    Isotropic =    32.8080   Anisotropy =   186.8711
   XX=   -51.7411   YX=    64.8484   ZX=    -0.0064
   XY=    47.7843   YY=    -7.2236   ZY=    -0.0009
   XZ=    -0.0047   YZ=    -0.0007   ZZ=   157.3887
   Eigenvalues:   -90.0380    31.0733   157.3887
      8  C    Isotropic =     9.7805   Anisotropy =   206.3811
   XX=    -3.4311   YX=     6.9279   ZX=    -0.0052
   XY=   -11.7627   YY=  -114.5953   ZY=    -0.0052
   XZ=    -0.0086   YZ=    -0.0076   ZZ=   147.3678
   Eigenvalues:  -114.6478    -3.3786   147.3678
      9  N    Isotropic =  -145.8341   Anisotropy =   665.5935
   XX=  -271.1516   YX=    98.3670   ZX=    -0.0270
   XY=   107.1311   YY=  -464.2456   ZY=    -0.0004
   XZ=    -0.0265   YZ=    -0.0066   ZZ=   297.8950
   Eigenvalues:  -508.6904  -226.7068   297.8950
     10  H    Isotropic =    23.2159   Anisotropy =    12.2245
   XX=    30.8155   YX=    -2.7004   ZX=     0.0004
   XY=    -2.4260   YY=    19.4214   ZY=    -0.0001
   XZ=     0.0002   YZ=    -0.0001   ZZ=    19.4107
   Eigenvalues:    18.8713    19.4107    31.3655
     11  H    Isotropic =    23.4493   Anisotropy =    10.9137
   XX=    22.3041   YX=     5.5051   ZX=     0.0002
   XY=     4.0558   YY=    28.0113   ZY=     0.0003
   XZ=     0.0001   YZ=     0.0004   ZZ=    20.0325
   Eigenvalues:    19.5903    20.0325    30.7251
     12  H    Isotropic =    22.3412   Anisotropy =     7.1913
   XX=    27.0746   YX=     0.2504   ZX=     0.0004
   XY=     0.9796   YY=    20.9162   ZY=     0.0000
   XZ=     0.0002   YZ=    -0.0001   ZZ=    19.0328
   Eigenvalues:    19.0328    20.8554    27.1354
 End of Minotr F.D. properties file   721 does not exist.
 End of Minotr F.D. properties file   722 does not exist.
 End of Minotr F.D. properties file   788 does not exist.
 Leave Link 1002 at Tue Sep 17 10:03:38 2024, MaxMem=  1342177280 cpu:             208.9 elap:             209.4
 (Enter /groups/ReismanLab/Software/Gaussian16_RevC/Linux_Binary_AVX2-enabled-CPU/g16/l601.exe)
 Copying SCF densities to generalized density rwf, IOpCl= 0 IROHF=0.

 **********************************************************************

            Population analysis using the SCF Density.

 **********************************************************************

 Orbital symmetries:
       Occupied  (A) (A) (A) (A) (A) (A) (A) (A) (A) (A) (A) (A)
                 (A) (A) (A) (A) (A) (A) (A) (A) (A) (A) (A) (A)
                 (A) (A) (A) (A) (A) (A) (A) (A) (A) (A) (A) (A)
                 (A) (A) (A) (A) (A) (A) (A) (A)
       Virtual   (A) (A) (A) (A) (A) (A) (A) (A) (A) (A) (A) (A)
                 (A) (A) (A) (A) (A) (A) (A) (A) (A) (A) (A) (A)
                 (A) (A) (A) (A) (A) (A) (A) (A) (A) (A) (A) (A)
                 (A) (A) (A) (A) (A) (A) (A) (A) (A) (A) (A) (A)
                 (A) (A) (A) (A) (A) (A) (A) (A) (A) (A) (A) (A)
                 (A) (A) (A) (A) (A) (A) (A) (A) (A) (A) (A) (A)
                 (A) (A) (A) (A) (A) (A) (A) (A) (A) (A) (A) (A)
                 (A) (A) (A) (A) (A) (A) (A) (A) (A) (A) (A) (A)
                 (A) (A) (A) (A) (A) (A) (A) (A) (A) (A) (A) (A)
                 (A) (A) (A) (A) (A) (A) (A) (A) (A) (A) (A) (A)
                 (A) (A) (A) (A) (A) (A) (A) (A) (A) (A) (A) (A)
                 (A) (A) (A) (A) (A) (A) (A) (A) (A) (A) (A) (A)
                 (A) (A) (A) (A) (A) (A) (A) (A) (A) (A) (A) (A)
                 (A) (A) (A) (A) (A) (A) (A) (A) (A) (A) (A) (A)
                 (A) (A) (A) (A) (A) (A) (A) (A) (A) (A) (A) (A)
                 (A) (A) (A) (A) (A) (A) (A) (A) (A) (A) (A) (A)
                 (A) (A) (A) (A) (A) (A) (A) (A) (A) (A) (A) (A)
                 (A) (A) (A) (A) (A) (A) (A) (A) (A) (A) (A) (A)
                 (A) (A) (A) (A) (A) (A) (A) (A) (A) (A) (A) (A)
                 (A) (A) (A) (A) (A) (A) (A) (A) (A) (A) (A) (A)
                 (A) (A) (A) (A) (A) (A) (A) (A) (A) (A) (A) (A)
                 (A) (A) (A) (A) (A) (A) (A) (A) (A) (A) (A) (A)
                 (A) (A) (A) (A) (A) (A)
 The electronic state is 1-A.
 Alpha  occ. eigenvalues -- -485.39980 -63.38455 -57.20405 -57.20162 -57.20149
 Alpha  occ. eigenvalues --  -14.78714 -14.77418 -10.64195 -10.64146 -10.60925
 Alpha  occ. eigenvalues --  -10.59703 -10.59347 -10.58666  -9.05102  -6.87532
 Alpha  occ. eigenvalues --   -6.86629  -6.86586  -2.90910  -2.90588  -2.90543
 Alpha  occ. eigenvalues --   -2.89702  -2.89701  -1.09631  -1.02783  -0.97086
 Alpha  occ. eigenvalues --   -0.90901  -0.87432  -0.77821  -0.74031  -0.64237
 Alpha  occ. eigenvalues --   -0.60434  -0.59413  -0.54038  -0.52556  -0.48597
 Alpha  occ. eigenvalues --   -0.47915  -0.45939  -0.44767  -0.42258  -0.41808
 Alpha  occ. eigenvalues --   -0.37438  -0.36642  -0.34652  -0.34200
 Alpha virt. eigenvalues --   -0.04945  -0.02557   0.01296   0.06256   0.08324
 Alpha virt. eigenvalues --    0.09397   0.09904   0.11378   0.12689   0.13484
 Alpha virt. eigenvalues --    0.16623   0.18212   0.19060   0.21491   0.21891
 Alpha virt. eigenvalues --    0.22362   0.23949   0.24589   0.25222   0.26330
 Alpha virt. eigenvalues --    0.26542   0.27086   0.29215   0.29655   0.30111
 Alpha virt. eigenvalues --    0.32377   0.32788   0.33314   0.34536   0.36299
 Alpha virt. eigenvalues --    0.37456   0.38637   0.38843   0.40568   0.41023
 Alpha virt. eigenvalues --    0.42137   0.42641   0.44235   0.44591   0.48089
 Alpha virt. eigenvalues --    0.48747   0.49987   0.52291   0.52836   0.54277
 Alpha virt. eigenvalues --    0.55023   0.56368   0.57540   0.60409   0.62228
 Alpha virt. eigenvalues --    0.62343   0.63261   0.64309   0.65538   0.67867
 Alpha virt. eigenvalues --    0.68515   0.71006   0.71510   0.73475   0.74673
 Alpha virt. eigenvalues --    0.75823   0.76108   0.77615   0.83130   0.84517
 Alpha virt. eigenvalues --    0.84584   0.91492   0.91514   0.91996   0.93924
 Alpha virt. eigenvalues --    0.97289   0.99061   1.02900   1.06082   1.07883
 Alpha virt. eigenvalues --    1.09397   1.12281   1.13266   1.15740   1.20306
 Alpha virt. eigenvalues --    1.20701   1.22078   1.23521   1.25328   1.26898
 Alpha virt. eigenvalues --    1.27129   1.27826   1.31476   1.31891   1.34430
 Alpha virt. eigenvalues --    1.38302   1.38548   1.38909   1.38942   1.41163
 Alpha virt. eigenvalues --    1.43844   1.45089   1.47154   1.48009   1.48449
 Alpha virt. eigenvalues --    1.49701   1.51989   1.54750   1.55242   1.55821
 Alpha virt. eigenvalues --    1.55910   1.58602   1.60993   1.61146   1.61817
 Alpha virt. eigenvalues --    1.64499   1.64839   1.69334   1.70978   1.71718
 Alpha virt. eigenvalues --    1.72070   1.73583   1.73598   1.81138   1.81856
 Alpha virt. eigenvalues --    1.82507   1.83489   1.85456   1.87504   1.89611
 Alpha virt. eigenvalues --    1.90524   1.93382   1.93720   1.97120   2.01197
 Alpha virt. eigenvalues --    2.03252   2.06527   2.10104   2.12629   2.16017
 Alpha virt. eigenvalues --    2.17497   2.25291   2.26278   2.29876   2.32425
 Alpha virt. eigenvalues --    2.34203   2.39542   2.42479   2.43231   2.45921
 Alpha virt. eigenvalues --    2.46448   2.48695   2.55328   2.55669   2.57896
 Alpha virt. eigenvalues --    2.59959   2.63697   2.63762   2.64285   2.67037
 Alpha virt. eigenvalues --    2.69508   2.71020   2.72944   2.74789   2.75649
 Alpha virt. eigenvalues --    2.77452   2.79342   2.85084   2.85839   2.86001
 Alpha virt. eigenvalues --    2.88562   2.90369   2.93572   2.94933   2.97624
 Alpha virt. eigenvalues --    2.99275   3.01276   3.02417   3.02484   3.04927
 Alpha virt. eigenvalues --    3.05259   3.07208   3.09290   3.10222   3.12903
 Alpha virt. eigenvalues --    3.13871   3.15790   3.18794   3.21492   3.23476
 Alpha virt. eigenvalues --    3.23584   3.26509   3.30046   3.31950   3.32375
 Alpha virt. eigenvalues --    3.33328   3.35417   3.35672   3.38790   3.39731
 Alpha virt. eigenvalues --    3.43126   3.45706   3.48558   3.48791   3.53981
 Alpha virt. eigenvalues --    3.54605   3.60733   3.67056   3.69235   3.73769
 Alpha virt. eigenvalues --    3.79642   3.82142   3.86253   3.88152   3.92246
 Alpha virt. eigenvalues --    3.96117   3.96634   4.00040   4.02620   4.04328
 Alpha virt. eigenvalues --    4.04424   4.07095   4.08288   4.10622   4.12020
 Alpha virt. eigenvalues --    4.14396   4.20247   4.22640   4.26055   4.29996
 Alpha virt. eigenvalues --    4.31941   4.33981   4.40149   4.40431   4.42457
 Alpha virt. eigenvalues --    4.44255   4.54686   4.55613   4.56467   4.60734
 Alpha virt. eigenvalues --    4.65890   4.65903   4.69167   4.74975   4.84151
 Alpha virt. eigenvalues --    4.86338   4.89083   4.89660   4.94419   4.99043
 Alpha virt. eigenvalues --    5.06242   5.11494   5.12672   5.15980   5.20316
 Alpha virt. eigenvalues --    5.24662   5.33095   5.35647   5.48577   5.52987
 Alpha virt. eigenvalues --    5.61130   5.61586   5.70313   5.78849   6.00990
 Alpha virt. eigenvalues --    6.12898   7.85253  22.35623  22.70745  22.78463
 Alpha virt. eigenvalues --   22.96710  23.13508  23.57948  32.19574  32.59172
          Condensed to atoms (all electrons):
               1          2          3          4          5          6
     1  N    6.137561   0.923513  -0.039972   0.001464   0.000097   0.000002
     2  C    0.923513   5.147269   0.205951  -0.023690  -0.008473  -0.001210
     3  C   -0.039972   0.205951   4.794628   0.466702  -0.015602   0.016390
     4  C    0.001464  -0.023690   0.466702   5.151598   0.409675  -0.106580
     5  C    0.000097  -0.008473  -0.015602   0.409675   4.837076   0.405923
     6  Br   0.000002  -0.001210   0.016390  -0.106580   0.405923  34.842712
     7  C   -0.000082   0.003262  -0.039973  -0.035197   0.450816  -0.097891
     8  C   -0.000119  -0.003660  -0.085793  -0.042956  -0.002152   0.012820
     9  N   -0.000782  -0.045427   0.448371  -0.056000  -0.036017  -0.000711
    10  H    0.000905   0.004872  -0.022422   0.398962  -0.041212  -0.008157
    11  H   -0.000001   0.000112  -0.003051   0.015538  -0.055880  -0.005941
    12  H    0.000007  -0.000299   0.006123   0.000416   0.001810  -0.000317
               7          8          9         10         11         12
     1  N   -0.000082  -0.000119  -0.000782   0.000905  -0.000001   0.000007
     2  C    0.003262  -0.003660  -0.045427   0.004872   0.000112  -0.000299
     3  C   -0.039973  -0.085793   0.448371  -0.022422  -0.003051   0.006123
     4  C   -0.035197  -0.042956  -0.056000   0.398962   0.015538   0.000416
     5  C    0.450816  -0.002152  -0.036017  -0.041212  -0.055880   0.001810
     6  Br  -0.097891   0.012820  -0.000711  -0.008157  -0.005941  -0.000317
     7  C    5.080501   0.454633  -0.056216   0.011233   0.414748  -0.060518
     8  C    0.454633   4.811359   0.517701  -0.002764  -0.027468   0.429842
     9  N   -0.056216   0.517701   6.497908   0.004922   0.005328  -0.031528
    10  H    0.011233  -0.002764   0.004922   0.445960   0.000214   0.000080
    11  H    0.414748  -0.027468   0.005328   0.000214   0.467555  -0.000282
    12  H   -0.060518   0.429842  -0.031528   0.000080  -0.000282   0.477695
 Mulliken charges:
               1
     1  N   -0.022593
     2  C   -0.202220
     3  C    0.268648
     4  C   -0.179934
     5  C    0.053939
     6  Br  -0.057041
     7  C   -0.125315
     8  C   -0.061442
     9  N   -0.247551
    10  H    0.207408
    11  H    0.189128
    12  H    0.176971
 Sum of Mulliken charges =  -0.00000
 Mulliken charges with hydrogens summed into heavy atoms:
               1
     1  N   -0.022593
     2  C   -0.202220
     3  C    0.268648
     4  C    0.027474
     5  C    0.053939
     6  Br  -0.057041
     7  C    0.063813
     8  C    0.115529
     9  N   -0.247551
 Electronic spatial extent (au):  <R**2>=           1984.9740
 Charge=             -0.0000 electrons
 Dipole moment (field-independent basis, Debye):
    X=             -4.8702    Y=              2.5902    Z=              0.0005  Tot=              5.5162
 Quadrupole moment (field-independent basis, Debye-Ang):
   XX=            -86.5865   YY=            -59.3746   ZZ=            -64.8511
   XY=              5.8718   XZ=              0.0017   YZ=             -0.0007
 Traceless Quadrupole moment (field-independent basis, Debye-Ang):
   XX=            -16.3158   YY=             10.8962   ZZ=              5.4197
   XY=              5.8718   XZ=              0.0017   YZ=             -0.0007
 Octapole moment (field-independent basis, Debye-Ang**2):
  XXX=           -186.5273  YYY=             15.6194  ZZZ=             -0.0023  XYY=            -45.6906
  XXY=             26.2529  XXZ=              0.0054  XZZ=            -24.5513  YZZ=             -5.3392
  YYZ=              0.0010  XYZ=             -0.0035
 Hexadecapole moment (field-independent basis, Debye-Ang**3):
 XXXX=          -2204.8096 YYYY=           -503.4673 ZZZZ=            -71.7623 XXXY=            197.3762
 XXXZ=              0.0188 YYYX=             80.2365 YYYZ=             -0.0129 ZZZX=             -0.0093
 ZZZY=             -0.0133 XXYY=           -478.0886 XXZZ=           -315.1393 YYZZ=           -111.4324
 XXYZ=             -0.0173 YYXZ=              0.0021 ZZXY=             12.1588
 N-N= 5.674891357326D+02 E-N=-8.076506962714D+03  KE= 2.908967019356D+03
 Calculating spin-rotation constants.
 Leave Link  601 at Tue Sep 17 10:03:40 2024, MaxMem=  1342177280 cpu:               1.5 elap:               1.5
 (Enter /groups/ReismanLab/Software/Gaussian16_RevC/Linux_Binary_AVX2-enabled-CPU/g16/l9999.exe)
 Unable to Open any file for archive entry.
 1\1\GINC-HPC-19-23\SP\RM062X\def2TZVP\C6H3Br1N2\MANTIND\17-Sep-2024\0\
 \#p M062X/def2tzvp geom=check guess=read scf(xqc,tight) integral(grid=
 ultrafine) scrf(SMD, solvent=1,4-Dioxane) nmr=giao\\spe\\0,1\N,0,4.050
 4782832,1.6563759695,0.0002250838\C,0,3.1549214268,0.9164169059,-0.000
 1307073\C,0,2.0157567353,0.0315501913,-0.0000806\C,0,0.7291255424,0.58
 58051471,-0.0000208111\C,0,-0.3433692911,-0.2995957686,0.0000015306\Br
 ,0,-2.120273367,0.3672240052,0.0000767504\C,0,-0.10960114,-1.670993389
 9,-0.0000290965\C,0,1.2187687186,-2.1039420144,-0.000085854\N,0,2.2730
 572882,-1.2861771275,-0.0001049444\H,0,0.5832523791,1.6583275488,-0.00
 00000384\H,0,-0.9281463828,-2.3800003964,-0.0000086053\H,0,1.439157276
 ,-3.1684190715,-0.0001068294\\Version=ES64L-G16RevC.02\State=1-A\HF=-2
 914.1114704\RMSD=1.116e-09\Dipole=-1.8991551,-1.0502984,-0.0001877\Qua
 drupole=-11.9820644,7.9526844,4.02938,-4.6943681,-0.0012815,-0.0005585
 \PG=C01 [X(C6H3Br1N2)]\\@
 The archive entry for this job was punched.


 I DON'T EXACTLY UNDERSTAND WHAT YOU ARE SAYING,
 BUT YOU ARE ABSOLUTELY RIGHT.
     M.S.GORDON, IN A NDSU FACULTY MEETING
 Job cpu time:       0 days  0 hours  4 minutes 20.1 seconds.
 Elapsed time:       0 days  0 hours  4 minutes 21.5 seconds.
 File lengths (MBytes):  RWF=    184 Int=      0 D2E=      0 Chk=     24 Scr=     16
 Normal termination of Gaussian 16 at Tue Sep 17 10:03:40 2024.
