 Entering Gaussian System, Link 0=g16
 Input=smiles_00115_conf_1.gjf
 Output=smiles_00115_conf_1.log
 Initial command:
 /groups/ReismanLab/Software/Gaussian16_RevC/Linux_Binary_AVX2-enabled-CPU/g16/l1.exe "/central/groups/ReismanLab/DM/dft_final/smiles_00115/Gau-797190.inp" -scrdir="/central/groups/ReismanLab/DM/dft_final/smiles_00115/"
 Entering Link 1 = /groups/ReismanLab/Software/Gaussian16_RevC/Linux_Binary_AVX2-enabled-CPU/g16/l1.exe PID=    797194.
  
 Copyright (c) 1988-2021, Gaussian, Inc.  All Rights Reserved.
  
 This is part of the Gaussian(R) 16 program.  It is based on
 the Gaussian(R) 09 system (copyright 2009, Gaussian, Inc.),
 the Gaussian(R) 03 system (copyright 2003, Gaussian, Inc.),
 the Gaussian(R) 98 system (copyright 1998, Gaussian, Inc.),
 the Gaussian(R) 94 system (copyright 1995, Gaussian, Inc.),
 the Gaussian 92(TM) system (copyright 1992, Gaussian, Inc.),
 the Gaussian 90(TM) system (copyright 1990, Gaussian, Inc.),
 the Gaussian 88(TM) system (copyright 1988, Gaussian, Inc.),
 the Gaussian 86(TM) system (copyright 1986, Carnegie Mellon
 University), and the Gaussian 82(TM) system (copyright 1983,
 Carnegie Mellon University). Gaussian is a federally registered
 trademark of Gaussian, Inc.
  
 This software contains proprietary and confidential information,
 including trade secrets, belonging to Gaussian, Inc.
  
 This software is provided under written license and may be
 used, copied, transmitted, or stored only in accord with that
 written license.
  
 The following legend is applicable only to US Government
 contracts under FAR:
  
                    RESTRICTED RIGHTS LEGEND
  
 Use, reproduction and disclosure by the US Government is
 subject to restrictions as set forth in subparagraphs (a)
 and (c) of the Commercial Computer Software - Restricted
 Rights clause in FAR 52.227-19.
  
 Gaussian, Inc.
 340 Quinnipiac St., Bldg. 40, Wallingford CT 06492
  
  
 ---------------------------------------------------------------
 Warning -- This program may not be used in any manner that
 competes with the business of Gaussian, Inc. or will provide
 assistance to any competitor of Gaussian, Inc.  The licensee
 of this program is prohibited from giving any competitor of
 Gaussian, Inc. access to this program.  By using this program,
 the user acknowledges that Gaussian, Inc. is engaged in the
 business of creating and licensing software in the field of
 computational chemistry and represents and warrants to the
 licensee that it is not a competitor of Gaussian, Inc. and that
 it will not use this program in any manner prohibited above.
 ---------------------------------------------------------------
  

 Cite this work as:
 Gaussian 16, Revision C.02,
 M. J. Frisch, G. W. Trucks, H. B. Schlegel, G. E. Scuseria, 
 M. A. Robb, J. R. Cheeseman, G. Scalmani, V. Barone, 
 G. A. Petersson, H. Nakatsuji, X. Li, M. Caricato, A. V. Marenich, 
 J. Bloino, B. G. Janesko, R. Gomperts, B. Mennucci, H. P. Hratchian, 
 J. V. Ortiz, A. F. Izmaylov, J. L. Sonnenberg, D. Williams-Young, 
 F. Ding, F. Lipparini, F. Egidi, J. Goings, B. Peng, A. Petrone, 
 T. Henderson, D. Ranasinghe, V. G. Zakrzewski, J. Gao, N. Rega, 
 G. Zheng, W. Liang, M. Hada, M. Ehara, K. Toyota, R. Fukuda, 
 J. Hasegawa, M. Ishida, T. Nakajima, Y. Honda, O. Kitao, H. Nakai, 
 T. Vreven, K. Throssell, J. A. Montgomery, Jr., J. E. Peralta, 
 F. Ogliaro, M. J. Bearpark, J. J. Heyd, E. N. Brothers, K. N. Kudin, 
 V. N. Staroverov, T. A. Keith, R. Kobayashi, J. Normand, 
 K. Raghavachari, A. P. Rendell, J. C. Burant, S. S. Iyengar, 
 J. Tomasi, M. Cossi, J. M. Millam, M. Klene, C. Adamo, R. Cammi, 
 J. W. Ochterski, R. L. Martin, K. Morokuma, O. Farkas, 
 J. B. Foresman, and D. J. Fox, Gaussian, Inc., Wallingford CT, 2019.
 
 ******************************************
 Gaussian 16:  ES64L-G16RevC.02  7-Dec-2021
                17-Sep-2024 
 ******************************************
 %nprocshared=8
 Will use up to    8 processors via shared memory.
 %Mem=10GB
 %Chk=smiles_00115_conf_1.chk
 ----------------------------------------------------------------------
 #p B3LYP/gen pseudo=read EmpiricalDispersion=GD3BJ opt freq scf(xqc,ti
 ght) integral(grid=ultrafine)
 ----------------------------------------------------------------------
 1/18=20,19=15,26=4,38=1/1,3;
 2/9=110,12=2,17=6,18=5,40=1/2;
 3/5=7,11=2,16=1,17=8,25=1,30=1,71=1,74=-5,75=-5,124=41/1,2,3;
 4//1;
 5/5=2,8=3,13=1,32=2,38=5/2,8;
 6/7=2,8=2,9=2,10=2,28=1/1;
 7//1,2,3,16;
 1/18=20,19=15,26=4/3(2);
 2/9=110/2;
 99//99;
 2/9=110/2;
 3/5=7,6=1,11=2,16=1,17=8,25=1,30=1,71=1,74=-5,75=-5,82=7,124=41/1,2,3;
 4/5=5,16=3,69=1/1;
 5/5=2,8=3,13=1,32=2,38=5/2,8;
 7//1,2,3,16;
 1/18=20,19=15,26=4/3(-5);
 2/9=110/2;
 6/7=2,8=2,9=2,10=2,19=2,28=1/1;
 99/9=1/99;
 Leave Link    1 at Tue Sep 17 09:56:38 2024, MaxMem=  1342177280 cpu:               0.1 elap:               0.8
 (Enter /groups/ReismanLab/Software/Gaussian16_RevC/Linux_Binary_AVX2-enabled-CPU/g16/l101.exe)
 ----------------------------------
 opt-freq conformers_unique/conf_ab
 ----------------------------------
 Symbolic Z-matrix:
 Charge =  0 Multiplicity = 1
 C                     0.13424  -3.3934   -0.48988 
 O                    -0.20385  -2.01504  -0.52937 
 C                    -1.2968   -1.61758   0.12078 
 O                    -2.05409  -2.35762   0.69725 
 C                    -1.52308  -0.14928   0.00803 
 C                    -2.85706   0.25839  -0.01819 
 C                    -3.19507   1.59156  -0.13535 
 C                    -2.19291   2.54476  -0.2155 
 C                    -0.86494   2.16023  -0.16591 
 C                    -0.52802   0.82047  -0.05618 
 I                     1.52809   0.36795   0.08544 
 H                     0.42822  -3.6852   -1.49665 
 H                     0.97129  -3.53233   0.19602 
 H                    -0.72364  -3.97757  -0.15224 
 H                    -3.61712  -0.50497   0.0547 
 H                    -4.2326    1.88659  -0.16066 
 H                    -2.43992   3.59162  -0.30681 
 H                    -0.08646   2.9067   -0.2096 
 
 ITRead=  0  0  0  0  0  0  0  0  0  0  0  0  0  0  0  0  0  0
 MicOpt= -1 -1 -1 -1 -1 -1 -1 -1 -1 -1 -1 -1 -1 -1 -1 -1 -1 -1
 NAtoms=     18 NQM=       18 NQMF=       0 NMMI=      0 NMMIF=      0
                NMic=       0 NMicF=      0.
                    Isotopes and Nuclear Properties:
 (Nuclear quadrupole moments (NQMom) in fm**2, nuclear magnetic moments (NMagM)
  in nuclear magnetons)

  Atom         1           2           3           4           5           6           7           8           9          10
 IAtWgt=          12          16          12          16          12          12          12          12          12          12
 AtmWgt=  12.0000000  15.9949146  12.0000000  15.9949146  12.0000000  12.0000000  12.0000000  12.0000000  12.0000000  12.0000000
 NucSpn=           0           0           0           0           0           0           0           0           0           0
 AtZEff=  -0.0000000  -0.0000000  -0.0000000  -0.0000000  -0.0000000  -0.0000000  -0.0000000  -0.0000000  -0.0000000  -0.0000000
 NQMom=    0.0000000   0.0000000   0.0000000   0.0000000   0.0000000   0.0000000   0.0000000   0.0000000   0.0000000   0.0000000
 NMagM=    0.0000000   0.0000000   0.0000000   0.0000000   0.0000000   0.0000000   0.0000000   0.0000000   0.0000000   0.0000000
 AtZNuc=   6.0000000   8.0000000   6.0000000   8.0000000   6.0000000   6.0000000   6.0000000   6.0000000   6.0000000   6.0000000

  Atom        11          12          13          14          15          16          17          18
 IAtWgt=         127           1           1           1           1           1           1           1
 AtmWgt= 126.9004000   1.0078250   1.0078250   1.0078250   1.0078250   1.0078250   1.0078250   1.0078250
 NucSpn=           5           1           1           1           1           1           1           1
 AtZEff=  -0.0000000  -0.0000000  -0.0000000  -0.0000000  -0.0000000  -0.0000000  -0.0000000  -0.0000000
 NQMom=  -71.0000000   0.0000000   0.0000000   0.0000000   0.0000000   0.0000000   0.0000000   0.0000000
 NMagM=    2.8132800   2.7928460   2.7928460   2.7928460   2.7928460   2.7928460   2.7928460   2.7928460
 AtZNuc=  53.0000000   1.0000000   1.0000000   1.0000000   1.0000000   1.0000000   1.0000000   1.0000000
 Leave Link  101 at Tue Sep 17 09:56:39 2024, MaxMem=  1342177280 cpu:               0.4 elap:               0.4
 (Enter /groups/ReismanLab/Software/Gaussian16_RevC/Linux_Binary_AVX2-enabled-CPU/g16/l103.exe)

 GradGradGradGradGradGradGradGradGradGradGradGradGradGradGradGradGradGrad
 Berny optimization.
 Initialization pass.
                           ----------------------------
                           !    Initial Parameters    !
                           ! (Angstroms and Degrees)  !
 --------------------------                            --------------------------
 ! Name  Definition              Value          Derivative Info.                !
 --------------------------------------------------------------------------------
 ! R1    R(1,2)                  1.4198         estimate D2E/DX2                !
 ! R2    R(1,12)                 1.0886         estimate D2E/DX2                !
 ! R3    R(1,13)                 1.0911         estimate D2E/DX2                !
 ! R4    R(1,14)                 1.0914         estimate D2E/DX2                !
 ! R5    R(2,3)                  1.3324         estimate D2E/DX2                !
 ! R6    R(3,4)                  1.2056         estimate D2E/DX2                !
 ! R7    R(3,5)                  1.4899         estimate D2E/DX2                !
 ! R8    R(5,6)                  1.3951         estimate D2E/DX2                !
 ! R9    R(5,10)                 1.3909         estimate D2E/DX2                !
 ! R10   R(6,7)                  1.3803         estimate D2E/DX2                !
 ! R11   R(6,15)                 1.0797         estimate D2E/DX2                !
 ! R12   R(7,8)                  1.3854         estimate D2E/DX2                !
 ! R13   R(7,16)                 1.079          estimate D2E/DX2                !
 ! R14   R(8,9)                  1.3834         estimate D2E/DX2                !
 ! R15   R(8,17)                 1.0795         estimate D2E/DX2                !
 ! R16   R(9,10)                 1.3858         estimate D2E/DX2                !
 ! R17   R(9,18)                 1.0794         estimate D2E/DX2                !
 ! R18   R(10,11)                2.1101         estimate D2E/DX2                !
 ! A1    A(2,1,12)             107.3859         estimate D2E/DX2                !
 ! A2    A(2,1,13)             108.8927         estimate D2E/DX2                !
 ! A3    A(2,1,14)             109.9413         estimate D2E/DX2                !
 ! A4    A(12,1,13)            109.8812         estimate D2E/DX2                !
 ! A5    A(12,1,14)            110.7862         estimate D2E/DX2                !
 ! A6    A(13,1,14)            109.9004         estimate D2E/DX2                !
 ! A7    A(1,2,3)              118.1239         estimate D2E/DX2                !
 ! A8    A(2,3,4)              124.4359         estimate D2E/DX2                !
 ! A9    A(2,3,5)              112.4354         estimate D2E/DX2                !
 ! A10   A(4,3,5)              123.0738         estimate D2E/DX2                !
 ! A11   A(3,5,6)              115.7607         estimate D2E/DX2                !
 ! A12   A(3,5,10)             125.586          estimate D2E/DX2                !
 ! A13   A(6,5,10)             118.6492         estimate D2E/DX2                !
 ! A14   A(5,6,7)              121.1958         estimate D2E/DX2                !
 ! A15   A(5,6,15)             117.7257         estimate D2E/DX2                !
 ! A16   A(7,6,15)             121.0784         estimate D2E/DX2                !
 ! A17   A(6,7,8)              119.4915         estimate D2E/DX2                !
 ! A18   A(6,7,16)             120.1035         estimate D2E/DX2                !
 ! A19   A(8,7,16)             120.4047         estimate D2E/DX2                !
 ! A20   A(7,8,9)              120.0704         estimate D2E/DX2                !
 ! A21   A(7,8,17)             120.4384         estimate D2E/DX2                !
 ! A22   A(9,8,17)             119.4883         estimate D2E/DX2                !
 ! A23   A(8,9,10)             120.3272         estimate D2E/DX2                !
 ! A24   A(8,9,18)             119.9089         estimate D2E/DX2                !
 ! A25   A(10,9,18)            119.7636         estimate D2E/DX2                !
 ! A26   A(5,10,9)             120.248          estimate D2E/DX2                !
 ! A27   A(5,10,11)            122.9895         estimate D2E/DX2                !
 ! A28   A(9,10,11)            116.7145         estimate D2E/DX2                !
 ! D1    D(12,1,2,3)           136.6373         estimate D2E/DX2                !
 ! D2    D(13,1,2,3)          -104.4288         estimate D2E/DX2                !
 ! D3    D(14,1,2,3)            16.0275         estimate D2E/DX2                !
 ! D4    D(1,2,3,4)             -3.2543         estimate D2E/DX2                !
 ! D5    D(1,2,3,5)            179.3749         estimate D2E/DX2                !
 ! D6    D(2,3,5,6)            146.7897         estimate D2E/DX2                !
 ! D7    D(2,3,5,10)           -33.9597         estimate D2E/DX2                !
 ! D8    D(4,3,5,6)            -30.6225         estimate D2E/DX2                !
 ! D9    D(4,3,5,10)           148.628          estimate D2E/DX2                !
 ! D10   D(3,5,6,7)           -179.2594         estimate D2E/DX2                !
 ! D11   D(3,5,6,15)             0.6428         estimate D2E/DX2                !
 ! D12   D(10,5,6,7)             1.4351         estimate D2E/DX2                !
 ! D13   D(10,5,6,15)         -178.6627         estimate D2E/DX2                !
 ! D14   D(3,5,10,9)           179.7295         estimate D2E/DX2                !
 ! D15   D(3,5,10,11)           -2.8763         estimate D2E/DX2                !
 ! D16   D(6,5,10,9)            -1.0396         estimate D2E/DX2                !
 ! D17   D(6,5,10,11)          176.3546         estimate D2E/DX2                !
 ! D18   D(5,6,7,8)             -0.6305         estimate D2E/DX2                !
 ! D19   D(5,6,7,16)           179.5779         estimate D2E/DX2                !
 ! D20   D(15,6,7,8)           179.4706         estimate D2E/DX2                !
 ! D21   D(15,6,7,16)           -0.321          estimate D2E/DX2                !
 ! D22   D(6,7,8,9)             -0.5828         estimate D2E/DX2                !
 ! D23   D(6,7,8,17)          -179.9614         estimate D2E/DX2                !
 ! D24   D(16,7,8,9)           179.2081         estimate D2E/DX2                !
 ! D25   D(16,7,8,17)           -0.1704         estimate D2E/DX2                !
 ! D26   D(7,8,9,10)             0.9691         estimate D2E/DX2                !
 ! D27   D(7,8,9,18)          -178.8334         estimate D2E/DX2                !
 ! D28   D(17,8,9,10)         -179.6464         estimate D2E/DX2                !
 ! D29   D(17,8,9,18)            0.551          estimate D2E/DX2                !
 ! D30   D(8,9,10,5)            -0.1428         estimate D2E/DX2                !
 ! D31   D(8,9,10,11)         -177.6961         estimate D2E/DX2                !
 ! D32   D(18,9,10,5)          179.66           estimate D2E/DX2                !
 ! D33   D(18,9,10,11)           2.1067         estimate D2E/DX2                !
 --------------------------------------------------------------------------------
 Trust Radius=3.00D-01 FncErr=1.00D-07 GrdErr=1.00D-06 EigMax=2.50D+02 EigMin=1.00D-04
 Number of steps in this run=     89 maximum allowed number of steps=    108.
 GradGradGradGradGradGradGradGradGradGradGradGradGradGradGradGradGradGrad

 Leave Link  103 at Tue Sep 17 09:56:39 2024, MaxMem=  1342177280 cpu:               0.1 elap:               0.1
 (Enter /groups/ReismanLab/Software/Gaussian16_RevC/Linux_Binary_AVX2-enabled-CPU/g16/l202.exe)
                          Input orientation:                          
 ---------------------------------------------------------------------
 Center     Atomic      Atomic             Coordinates (Angstroms)
 Number     Number       Type             X           Y           Z
 ---------------------------------------------------------------------
      1          6           0        0.134238   -3.393399   -0.489881
      2          8           0       -0.203852   -2.015039   -0.529366
      3          6           0       -1.296799   -1.617579    0.120784
      4          8           0       -2.054091   -2.357615    0.697245
      5          6           0       -1.523082   -0.149280    0.008028
      6          6           0       -2.857061    0.258388   -0.018192
      7          6           0       -3.195075    1.591558   -0.135349
      8          6           0       -2.192914    2.544758   -0.215500
      9          6           0       -0.864942    2.160227   -0.165907
     10          6           0       -0.528015    0.820468   -0.056184
     11         53           0        1.528094    0.367955    0.085439
     12          1           0        0.428218   -3.685196   -1.496646
     13          1           0        0.971286   -3.532332    0.196023
     14          1           0       -0.723642   -3.977572   -0.152243
     15          1           0       -3.617117   -0.504973    0.054697
     16          1           0       -4.232603    1.886587   -0.160665
     17          1           0       -2.439924    3.591619   -0.306813
     18          1           0       -0.086460    2.906702   -0.209603
 ---------------------------------------------------------------------
                    Distance matrix (angstroms):
                    1          2          3          4          5
     1  C    0.000000
     2  O    1.419768   0.000000
     3  C    2.360999   1.332367   0.000000
     4  O    2.696461   2.246179   1.205592   0.000000
     5  C    3.676809   2.347384   1.489906   2.373549   0.000000
     6  C    4.744039   3.531188   2.443969   2.828442   1.395128
     7  C    6.004982   4.702149   3.737327   4.194166   2.417982
     8  C    6.383778   4.984639   4.270967   4.988550   2.785046
     9  C    5.652086   4.242875   3.813202   4.750790   2.407743
    10  C    4.287581   2.892937   2.562503   3.605104   1.390932
    11  I    4.052358   3.009365   3.453058   4.542586   3.095674
    12  H    1.088643   2.030903   3.141147   3.568962   4.309792
    13  H    1.091063   2.051662   2.969200   3.283914   4.207405
    14  H    1.091428   2.064931   2.443894   2.261855   3.914155
    15  H    4.765735   3.777804   2.574128   2.507628   2.124541
    16  H    6.859733   5.620450   4.580103   4.847182   3.393335
    17  H    7.446495   6.040211   5.350263   6.045691   3.864460
    18  H    6.310193   4.933514   4.695018   5.692713   3.383826
                    6          7          8          9         10
     6  C    0.000000
     7  C    1.380334   0.000000
     8  C    2.389039   1.385403   0.000000
     9  C    2.758142   2.398715   1.383413   0.000000
    10  C    2.396212   2.777418   2.402174   1.385825   0.000000
    11  I    4.387747   4.884083   4.321450   3.000339   2.110074
    12  H    5.341417   6.544120   6.879243   6.132870   4.826005
    13  H    5.391817   6.612308   6.863857   5.992325   4.610681
    14  H    4.744766   6.092904   6.686071   6.139440   4.802987
    15  H    1.079684   2.147016   3.376717   3.837502   3.363277
    16  H    2.136223   1.078957   2.143951   3.378764   3.856358
    17  H    3.371607   2.144737   1.079477   2.132910   3.376016
    18  H    3.837504   3.376182   2.137332   1.079430   2.137962
                   11         12         13         14         15
    11  I    0.000000
    12  H    4.487845   0.000000
    13  H    3.941383   1.784214   0.000000
    14  H    4.900042   1.794347   1.786703   0.000000
    15  H    5.218825   5.374497   5.498938   4.524817   0.000000
    16  H    5.962587   7.385991   7.521461   6.833831   2.478864
    17  H    5.127478   7.911635   7.914536   7.762871   4.277679
    18  H    3.023090   6.736059   6.537929   6.913937   4.916800
                   16         17         18
    16  H    0.000000
    17  H    2.478344   0.000000
    18  H    4.270074   2.453029   0.000000
 Stoichiometry    C8H7IO2
 Framework group  C1[X(C8H7IO2)]
 Deg. of freedom    48
 Full point group                 C1      NOp   1
 Largest Abelian subgroup         C1      NOp   1
 Largest concise Abelian subgroup C1      NOp   1
                         Standard orientation:                         
 ---------------------------------------------------------------------
 Center     Atomic      Atomic             Coordinates (Angstroms)
 Number     Number       Type             X           Y           Z
 ---------------------------------------------------------------------
      1          6           0        1.453399    3.035557    0.452511
      2          8           0        0.653783    1.863318    0.499532
      3          6           0       -0.506583    1.867902   -0.155245
      4          8           0       -0.954424    2.821008   -0.742168
      5          6           0       -1.233265    0.572934   -0.033544
      6          6           0       -2.625621    0.658527   -0.013566
      7          6           0       -3.409642   -0.470705    0.110801
      8          6           0       -2.805163   -1.713741    0.204644
      9          6           0       -1.426446   -1.819114    0.161418
     10          6           0       -0.641165   -0.683262    0.044429
     11         53           0        1.443729   -0.980807   -0.086311
     12          1           0        1.827010    3.215069    1.459156
     13          1           0        2.288768    2.866291   -0.228609
     14          1           0        0.855813    3.880080    0.104824
     15          1           0       -3.069857    1.639032   -0.097127
     16          1           0       -4.484873   -0.383443    0.131106
     17          1           0       -3.403560   -2.606917    0.301745
     18          1           0       -0.958922   -2.790523    0.215793
 ---------------------------------------------------------------------
 Rotational constants (GHZ):           0.8407064           0.6631584           0.3818190
 Leave Link  202 at Tue Sep 17 09:56:39 2024, MaxMem=  1342177280 cpu:               0.1 elap:               0.0
 (Enter /groups/ReismanLab/Software/Gaussian16_RevC/Linux_Binary_AVX2-enabled-CPU/g16/l301.exe)
 General basis read from cards:  (5D, 7F)
 Centers:       1      3      5      6      7      8      9     10     12     13
 Centers:      14     15     16     17     18      2      4
 6-31G(d,p)
 ****
 Centers:      11
 LANL2DZ
 ****
 ======================================================================================================
                                       Pseudopotential Parameters
 ======================================================================================================
  Center     Atomic      Valence      Angular      Power
  Number     Number     Electrons     Momentum     of R      Exponent        Coefficient   SO-Coeffient
 ======================================================================================================
    1          6
                                   No pseudopotential on this center.
    2          8
                                   No pseudopotential on this center.
    3          6
                                   No pseudopotential on this center.
    4          8
                                   No pseudopotential on this center.
    5          6
                                   No pseudopotential on this center.
    6          6
                                   No pseudopotential on this center.
    7          6
                                   No pseudopotential on this center.
    8          6
                                   No pseudopotential on this center.
    9          6
                                   No pseudopotential on this center.
   10          6
                                   No pseudopotential on this center.
   11         53            7
                                      F and up 
                                                     0        1.0715702       -0.07476210    0.00000000
                                                     1       44.1936028      -30.08112240    0.00000000
                                                     2       12.9367609      -75.37227210    0.00000000
                                                     2        3.1956412      -22.05637580    0.00000000
                                                     2        0.8589806       -1.69795850    0.00000000
                                      S - F
                                                     0      127.9202670        2.93800360    0.00000000
                                                     1       78.6211465       41.24712670    0.00000000
                                                     2       36.5146237      287.86800950    0.00000000
                                                     2        9.9065681      114.37585060    0.00000000
                                                     2        1.9420086       37.65477140    0.00000000
                                      P - F
                                                     0       13.0035304        2.22226300    0.00000000
                                                     1       76.0331404       39.40908310    0.00000000
                                                     2       24.1961684      177.40750020    0.00000000
                                                     2        6.4053433       77.98894620    0.00000000
                                                     2        1.5851786       25.75476410    0.00000000
                                      D - F
                                                     0       40.4278108        7.05243600    0.00000000
                                                     1       28.9084375       33.30416350    0.00000000
                                                     2       15.6268936      186.94538750    0.00000000
                                                     2        4.1442856       71.96883610    0.00000000
                                                     2        0.9377235        9.36306570    0.00000000
   12          1
                                   No pseudopotential on this center.
   13          1
                                   No pseudopotential on this center.
   14          1
                                   No pseudopotential on this center.
   15          1
                                   No pseudopotential on this center.
   16          1
                                   No pseudopotential on this center.
   17          1
                                   No pseudopotential on this center.
   18          1
                                   No pseudopotential on this center.
 ======================================================================================================
 Ernie: Thresh=  0.10000D-02 Tol=  0.10000D-05 Strict=F.
 There are   193 symmetry adapted cartesian basis functions of A   symmetry.
 There are   183 symmetry adapted basis functions of A   symmetry.
   183 basis functions,   341 primitive gaussians,   193 cartesian basis functions
    39 alpha electrons       39 beta electrons
       nuclear repulsion energy       550.6992496084 Hartrees.
 IExCor=  402 DFT=T Ex+Corr=B3LYP ExCW=0 ScaHFX=  0.200000
 ScaDFX=  0.800000  0.720000  1.000000  0.810000 ScalE2=  1.000000  1.000000
 IRadAn=      5 IRanWt=     -1 IRanGd=            0 ICorTp=0 IEmpDi=141
 NAtoms=   18 NActive=   18 NUniq=   18 SFac= 1.00D+00 NAtFMM=   60 NAOKFM=F Big=F
 Integral buffers will be    131072 words long.
 Raffenetti 2 integral format.
 Two-electron integral symmetry is turned on.
 R6Disp:  Grimme-D3(BJ) Dispersion energy=       -0.0390822272 Hartrees.
 Nuclear repulsion after empirical dispersion term =      550.6601673812 Hartrees.
 Leave Link  301 at Tue Sep 17 09:56:39 2024, MaxMem=  1342177280 cpu:               0.1 elap:               0.1
 (Enter /groups/ReismanLab/Software/Gaussian16_RevC/Linux_Binary_AVX2-enabled-CPU/g16/l302.exe)
 NPDir=0 NMtPBC=     1 NCelOv=     1 NCel=       1 NClECP=     1 NCelD=      1
         NCelK=      1 NCelE2=     1 NClLst=     1 CellRange=     0.0.
 One-electron integrals computed using PRISM.
 One-electron integral symmetry used in STVInt
   1 Symmetry operations used in ECPInt.
 ECPInt:  NShTT=    2145 NPrTT=   11679 LenC2=    2006 LenP2D=    7584.
 LDataN:  DoStor=T MaxTD1= 5 Len=  102
 NBasis=   183 RedAO= T EigKep=  4.52D-04  NBF=   183
 NBsUse=   183 1.00D-06 EigRej= -1.00D+00 NBFU=   183
 Precomputing XC quadrature grid using
 IXCGrd= 4 IRadAn=           5 IRanWt=          -1 IRanGd=           0 AccXCQ= 0.00D+00.
 Defaulting to unpruned grid for atomic number  53.
 Generated NRdTot=       0 NPtTot=           0 NUsed=           0 NTot=          32
 NSgBfM=   193   193   193   193   193 MxSgAt=    18 MxSgA2=    18.
 Leave Link  302 at Tue Sep 17 09:56:39 2024, MaxMem=  1342177280 cpu:               1.3 elap:               0.3
 (Enter /groups/ReismanLab/Software/Gaussian16_RevC/Linux_Binary_AVX2-enabled-CPU/g16/l303.exe)
 DipDrv:  MaxL=1.
 Leave Link  303 at Tue Sep 17 09:56:39 2024, MaxMem=  1342177280 cpu:               0.1 elap:               0.1
 (Enter /groups/ReismanLab/Software/Gaussian16_RevC/Linux_Binary_AVX2-enabled-CPU/g16/l401.exe)
 ExpMin= 1.05D-01 ExpMax= 5.48D+03 ExpMxC= 8.25D+02 IAcc=3 IRadAn=         5 AccDes= 0.00D+00
 Harris functional with IExCor=  402 and IRadAn=       5 diagonalized for initial guess.
 HarFok:  IExCor=  402 AccDes= 0.00D+00 IRadAn=         5 IDoV= 1 UseB2=F ITyADJ=14
 ICtDFT=  3500011 ScaDFX=  1.000000  1.000000  1.000000  1.000000
 Defaulting to unpruned grid for atomic number  53.
 FoFCou: FMM=F IPFlag=           0 FMFlag=      100000 FMFlg1=           0
         NFxFlg=           0 DoJE=T BraDBF=F KetDBF=T FulRan=T
         wScrn=  0.000000 ICntrl=       500 IOpCl=  0 I1Cent=   200000004 NGrid=           0
         NMat0=    1 NMatS0=      1 NMatT0=    0 NMatD0=    1 NMtDS0=    0 NMtDT0=    0
 Petite list used in FoFCou.
 Harris En= -470.873719904332    
 JPrj=0 DoOrth=F DoCkMO=F.
 Leave Link  401 at Tue Sep 17 09:56:40 2024, MaxMem=  1342177280 cpu:               4.7 elap:               0.7
 (Enter /groups/ReismanLab/Software/Gaussian16_RevC/Linux_Binary_AVX2-enabled-CPU/g16/l502.exe)
 Integral symmetry usage will be decided dynamically.
 Closed shell SCF:
 Using DIIS extrapolation, IDIIS=  1040.
 NGot=  1342177280 LenX=  1342098694 LenY=  1342061004
 Requested convergence on RMS density matrix=1.00D-08 within  32 cycles.
 Requested convergence on MAX density matrix=1.00D-06.
 Requested convergence on             energy=1.00D-06.
 No special actions if energy rises.
 Fock matrices will be formed incrementally for  20 cycles.
 Integral accuracy reduced to 1.0D-05 until final iterations.

 Cycle   1  Pass 0  IDiag  1:
 FoFJK:  IHMeth= 1 ICntrl=       0 DoSepK=F KAlg= 0 I1Cent=           0 FoldK=F
 IRaf= 880000000 NMat=       1 IRICut=       1 DoRegI=T DoRafI=F ISym2E= 0 IDoP0=0 IntGTp=1.
 FoFCou: FMM=F IPFlag=           0 FMFlag=      100000 FMFlg1=           0
         NFxFlg=           0 DoJE=F BraDBF=F KetDBF=F FulRan=T
         wScrn=  0.000000 ICntrl=         0 IOpCl=  0 I1Cent=           0 NGrid=           0
         NMat0=    1 NMatS0=      1 NMatT0=    0 NMatD0=    1 NMtDS0=    0 NMtDT0=    0
 Symmetry not used in FoFCou.
 Defaulting to unpruned grid for atomic number  53.
 Defaulting to unpruned grid for atomic number  53.
 Defaulting to unpruned grid for atomic number  53.
 Defaulting to unpruned grid for atomic number  53.
 Defaulting to unpruned grid for atomic number  53.
 Defaulting to unpruned grid for atomic number  53.
 Defaulting to unpruned grid for atomic number  53.
 Defaulting to unpruned grid for atomic number  53.
 E= -470.689905327974    
 DIIS: error= 2.55D-02 at cycle   1 NSaved=   1.
 NSaved= 1 IEnMin= 1 EnMin= -470.689905327974     IErMin= 1 ErrMin= 2.55D-02
 ErrMax= 2.55D-02  0.00D+00 EMaxC= 1.00D-01 BMatC= 2.41D-01 BMatP= 2.41D-01
 IDIUse=3 WtCom= 7.45D-01 WtEn= 2.55D-01
 Coeff-Com:  0.100D+01
 Coeff-En:   0.100D+01
 Coeff:      0.100D+01
 Gap=     0.326 Goal=   None    Shift=    0.000
 GapD=    0.326 DampG=1.000 DampE=0.500 DampFc=0.5000 IDamp=-1.
 Damping current iteration by 5.00D-01
 RMSDP=6.15D-03 MaxDP=1.82D-01              OVMax= 2.53D-01

 Cycle   2  Pass 0  IDiag  1:
 RMSU=  3.05D-03    CP:  9.84D-01
 E= -470.765176429155     Delta-E=       -0.075271101181 Rises=F Damp=T
 DIIS: error= 6.92D-03 at cycle   2 NSaved=   2.
 NSaved= 2 IEnMin= 2 EnMin= -470.765176429155     IErMin= 2 ErrMin= 6.92D-03
 ErrMax= 6.92D-03  0.00D+00 EMaxC= 1.00D-01 BMatC= 3.39D-02 BMatP= 2.41D-01
 IDIUse=3 WtCom= 9.31D-01 WtEn= 6.92D-02
 Coeff-Com:  0.205D+00 0.795D+00
 Coeff-En:   0.305D+00 0.695D+00
 Coeff:      0.212D+00 0.788D+00
 Gap=     0.253 Goal=   None    Shift=    0.000
 RMSDP=1.91D-03 MaxDP=4.96D-02 DE=-7.53D-02 OVMax= 1.35D-01

 Cycle   3  Pass 0  IDiag  1:
 RMSU=  1.75D-03    CP:  9.77D-01  7.50D-01
 E= -470.899700153696     Delta-E=       -0.134523724541 Rises=F Damp=F
 DIIS: error= 9.06D-03 at cycle   3 NSaved=   3.
 NSaved= 3 IEnMin= 3 EnMin= -470.899700153696     IErMin= 2 ErrMin= 6.92D-03
 ErrMax= 9.06D-03  0.00D+00 EMaxC= 1.00D-01 BMatC= 3.58D-02 BMatP= 3.39D-02
 IDIUse=3 WtCom= 9.09D-01 WtEn= 9.06D-02
 Coeff-Com:  0.661D-01 0.503D+00 0.431D+00
 Coeff-En:   0.000D+00 0.000D+00 0.100D+01
 Coeff:      0.601D-01 0.457D+00 0.483D+00
 Gap=     0.194 Goal=   None    Shift=    0.000
 RMSDP=1.31D-03 MaxDP=4.08D-02 DE=-1.35D-01 OVMax= 8.22D-02

 Cycle   4  Pass 0  IDiag  1:
 RMSU=  1.03D-03    CP:  9.81D-01  7.96D-01  5.43D-01
 E= -470.925595391665     Delta-E=       -0.025895237969 Rises=F Damp=F
 DIIS: error= 3.64D-03 at cycle   4 NSaved=   4.
 NSaved= 4 IEnMin= 4 EnMin= -470.925595391665     IErMin= 4 ErrMin= 3.64D-03
 ErrMax= 3.64D-03  0.00D+00 EMaxC= 1.00D-01 BMatC= 5.99D-03 BMatP= 3.39D-02
 IDIUse=3 WtCom= 9.64D-01 WtEn= 3.64D-02
 Coeff-Com:  0.987D-02 0.131D+00 0.305D+00 0.554D+00
 Coeff-En:   0.000D+00 0.000D+00 0.171D+00 0.829D+00
 Coeff:      0.951D-02 0.126D+00 0.300D+00 0.564D+00
 Gap=     0.196 Goal=   None    Shift=    0.000
 RMSDP=4.66D-04 MaxDP=1.22D-02 DE=-2.59D-02 OVMax= 2.45D-02

 Cycle   5  Pass 0  IDiag  1:
 RMSU=  1.94D-04    CP:  9.80D-01  7.88D-01  6.40D-01  6.23D-01
 E= -470.930393233139     Delta-E=       -0.004797841474 Rises=F Damp=F
 DIIS: error= 6.78D-04 at cycle   5 NSaved=   5.
 NSaved= 5 IEnMin= 5 EnMin= -470.930393233139     IErMin= 5 ErrMin= 6.78D-04
 ErrMax= 6.78D-04  0.00D+00 EMaxC= 1.00D-01 BMatC= 2.83D-04 BMatP= 5.99D-03
 IDIUse=3 WtCom= 9.93D-01 WtEn= 6.78D-03
 Coeff-Com:  0.943D-04 0.258D-01 0.118D+00 0.297D+00 0.559D+00
 Coeff-En:   0.000D+00 0.000D+00 0.000D+00 0.000D+00 0.100D+01
 Coeff:      0.937D-04 0.257D-01 0.118D+00 0.295D+00 0.562D+00
 Gap=     0.198 Goal=   None    Shift=    0.000
 RMSDP=1.13D-04 MaxDP=3.93D-03 DE=-4.80D-03 OVMax= 5.81D-03

 Cycle   6  Pass 0  IDiag  1:
 RMSU=  7.54D-05    CP:  9.80D-01  7.93D-01  6.43D-01  6.58D-01  6.19D-01
 E= -470.930619590278     Delta-E=       -0.000226357140 Rises=F Damp=F
 DIIS: error= 3.18D-04 at cycle   6 NSaved=   6.
 NSaved= 6 IEnMin= 6 EnMin= -470.930619590278     IErMin= 6 ErrMin= 3.18D-04
 ErrMax= 3.18D-04  0.00D+00 EMaxC= 1.00D-01 BMatC= 3.75D-05 BMatP= 2.83D-04
 IDIUse=3 WtCom= 9.97D-01 WtEn= 3.18D-03
 Coeff-Com: -0.777D-03 0.147D-02 0.349D-01 0.106D+00 0.326D+00 0.532D+00
 Coeff-En:   0.000D+00 0.000D+00 0.000D+00 0.000D+00 0.103D+00 0.897D+00
 Coeff:     -0.775D-03 0.147D-02 0.348D-01 0.106D+00 0.325D+00 0.533D+00
 Gap=     0.197 Goal=   None    Shift=    0.000
 RMSDP=4.71D-05 MaxDP=1.56D-03 DE=-2.26D-04 OVMax= 2.58D-03

 Cycle   7  Pass 0  IDiag  1:
 RMSU=  2.58D-05    CP:  9.80D-01  7.91D-01  6.45D-01  6.55D-01  7.03D-01
                    CP:  5.37D-01
 E= -470.930654603055     Delta-E=       -0.000035012776 Rises=F Damp=F
 DIIS: error= 1.25D-04 at cycle   7 NSaved=   7.
 NSaved= 7 IEnMin= 7 EnMin= -470.930654603055     IErMin= 7 ErrMin= 1.25D-04
 ErrMax= 1.25D-04  0.00D+00 EMaxC= 1.00D-01 BMatC= 3.78D-06 BMatP= 3.75D-05
 IDIUse=3 WtCom= 9.99D-01 WtEn= 1.25D-03
 Coeff-Com: -0.433D-03-0.155D-02 0.105D-01 0.372D-01 0.149D+00 0.318D+00
 Coeff-Com:  0.487D+00
 Coeff-En:   0.000D+00 0.000D+00 0.000D+00 0.000D+00 0.000D+00 0.433D-01
 Coeff-En:   0.957D+00
 Coeff:     -0.432D-03-0.155D-02 0.105D-01 0.371D-01 0.148D+00 0.318D+00
 Coeff:      0.488D+00
 Gap=     0.197 Goal=   None    Shift=    0.000
 RMSDP=1.56D-05 MaxDP=3.68D-04 DE=-3.50D-05 OVMax= 8.05D-04

 Cycle   8  Pass 0  IDiag  1:
 RMSU=  5.73D-06    CP:  9.80D-01  7.91D-01  6.45D-01  6.60D-01  6.91D-01
                    CP:  6.16D-01  5.49D-01
 E= -470.930658601418     Delta-E=       -0.000003998364 Rises=F Damp=F
 DIIS: error= 3.57D-05 at cycle   8 NSaved=   8.
 NSaved= 8 IEnMin= 8 EnMin= -470.930658601418     IErMin= 8 ErrMin= 3.57D-05
 ErrMax= 3.57D-05  0.00D+00 EMaxC= 1.00D-01 BMatC= 2.37D-07 BMatP= 3.78D-06
 IDIUse=1 WtCom= 1.00D+00 WtEn= 0.00D+00
 Coeff-Com: -0.132D-03-0.105D-02 0.282D-02 0.108D-01 0.542D-01 0.124D+00
 Coeff-Com:  0.258D+00 0.551D+00
 Coeff:     -0.132D-03-0.105D-02 0.282D-02 0.108D-01 0.542D-01 0.124D+00
 Coeff:      0.258D+00 0.551D+00
 Gap=     0.197 Goal=   None    Shift=    0.000
 RMSDP=3.14D-06 MaxDP=8.05D-05 DE=-4.00D-06 OVMax= 1.86D-04

 Initial convergence to 1.0D-05 achieved.  Increase integral accuracy.
 Cycle   9  Pass 1  IDiag  1:
 E= -470.930696668231     Delta-E=       -0.000038066812 Rises=F Damp=F
 DIIS: error= 1.31D-05 at cycle   1 NSaved=   1.
 NSaved= 1 IEnMin= 1 EnMin= -470.930696668231     IErMin= 1 ErrMin= 1.31D-05
 ErrMax= 1.31D-05  0.00D+00 EMaxC= 1.00D-01 BMatC= 5.18D-08 BMatP= 5.18D-08
 IDIUse=1 WtCom= 1.00D+00 WtEn= 0.00D+00
 Coeff-Com:  0.100D+01
 Coeff:      0.100D+01
 Gap=     0.197 Goal=   None    Shift=    0.000
 RMSDP=3.14D-06 MaxDP=8.05D-05 DE=-3.81D-05 OVMax= 8.63D-05

 Cycle  10  Pass 1  IDiag  1:
 RMSU=  9.84D-06    CP:  1.00D+00
 E= -470.930696661739     Delta-E=        0.000000006492 Rises=F Damp=F
 DIIS: error= 1.19D-05 at cycle   2 NSaved=   2.
 NSaved= 2 IEnMin= 1 EnMin= -470.930696668231     IErMin= 2 ErrMin= 1.19D-05
 ErrMax= 1.19D-05  0.00D+00 EMaxC= 1.00D-01 BMatC= 6.77D-08 BMatP= 5.18D-08
 IDIUse=1 WtCom= 1.00D+00 WtEn= 0.00D+00
 Coeff-Com:  0.541D+00 0.459D+00
 Coeff:      0.541D+00 0.459D+00
 Gap=     0.197 Goal=   None    Shift=    0.000
 RMSDP=1.64D-06 MaxDP=6.03D-05 DE= 6.49D-09 OVMax= 9.09D-05

 Cycle  11  Pass 1  IDiag  1:
 RMSU=  1.61D-06    CP:  1.00D+00  9.69D-01
 E= -470.930696713325     Delta-E=       -0.000000051587 Rises=F Damp=F
 DIIS: error= 4.93D-06 at cycle   3 NSaved=   3.
 NSaved= 3 IEnMin= 3 EnMin= -470.930696713325     IErMin= 3 ErrMin= 4.93D-06
 ErrMax= 4.93D-06  0.00D+00 EMaxC= 1.00D-01 BMatC= 8.82D-09 BMatP= 5.18D-08
 IDIUse=1 WtCom= 1.00D+00 WtEn= 0.00D+00
 Coeff-Com:  0.694D-01 0.265D+00 0.666D+00
 Coeff:      0.694D-01 0.265D+00 0.666D+00
 Gap=     0.197 Goal=   None    Shift=    0.000
 RMSDP=5.96D-07 MaxDP=1.92D-05 DE=-5.16D-08 OVMax= 3.53D-05

 Cycle  12  Pass 1  IDiag  1:
 RMSU=  4.04D-07    CP:  1.00D+00  9.91D-01  7.63D-01
 E= -470.930696719255     Delta-E=       -0.000000005930 Rises=F Damp=F
 DIIS: error= 2.46D-06 at cycle   4 NSaved=   4.
 NSaved= 4 IEnMin= 4 EnMin= -470.930696719255     IErMin= 4 ErrMin= 2.46D-06
 ErrMax= 2.46D-06  0.00D+00 EMaxC= 1.00D-01 BMatC= 1.79D-09 BMatP= 8.82D-09
 IDIUse=1 WtCom= 1.00D+00 WtEn= 0.00D+00
 Coeff-Com: -0.434D-02 0.130D+00 0.429D+00 0.445D+00
 Coeff:     -0.434D-02 0.130D+00 0.429D+00 0.445D+00
 Gap=     0.197 Goal=   None    Shift=    0.000
 RMSDP=2.22D-07 MaxDP=8.67D-06 DE=-5.93D-09 OVMax= 1.07D-05

 Cycle  13  Pass 1  IDiag  1:
 RMSU=  9.47D-08    CP:  1.00D+00  9.91D-01  7.70D-01  5.04D-01
 E= -470.930696720755     Delta-E=       -0.000000001499 Rises=F Damp=F
 DIIS: error= 5.28D-07 at cycle   5 NSaved=   5.
 NSaved= 5 IEnMin= 5 EnMin= -470.930696720755     IErMin= 5 ErrMin= 5.28D-07
 ErrMax= 5.28D-07  0.00D+00 EMaxC= 1.00D-01 BMatC= 6.43D-11 BMatP= 1.79D-09
 IDIUse=1 WtCom= 1.00D+00 WtEn= 0.00D+00
 Coeff-Com: -0.496D-02 0.684D-01 0.232D+00 0.268D+00 0.437D+00
 Coeff:     -0.496D-02 0.684D-01 0.232D+00 0.268D+00 0.437D+00
 Gap=     0.197 Goal=   None    Shift=    0.000
 RMSDP=4.55D-08 MaxDP=1.41D-06 DE=-1.50D-09 OVMax= 1.61D-06

 Cycle  14  Pass 1  IDiag  1:
 RMSU=  3.47D-08    CP:  1.00D+00  9.90D-01  7.74D-01  5.02D-01  7.06D-01
 E= -470.930696720809     Delta-E=       -0.000000000054 Rises=F Damp=F
 DIIS: error= 1.18D-07 at cycle   6 NSaved=   6.
 NSaved= 6 IEnMin= 6 EnMin= -470.930696720809     IErMin= 6 ErrMin= 1.18D-07
 ErrMax= 1.18D-07  0.00D+00 EMaxC= 1.00D-01 BMatC= 4.05D-12 BMatP= 6.43D-11
 IDIUse=1 WtCom= 1.00D+00 WtEn= 0.00D+00
 Coeff-Com: -0.237D-02 0.271D-01 0.917D-01 0.112D+00 0.247D+00 0.524D+00
 Coeff:     -0.237D-02 0.271D-01 0.917D-01 0.112D+00 0.247D+00 0.524D+00
 Gap=     0.197 Goal=   None    Shift=    0.000
 RMSDP=1.84D-08 MaxDP=5.34D-07 DE=-5.41D-11 OVMax= 8.83D-07

 Cycle  15  Pass 1  IDiag  1:
 RMSU=  1.20D-08    CP:  1.00D+00  9.91D-01  7.72D-01  5.12D-01  7.80D-01
                    CP:  7.31D-01
 E= -470.930696720809     Delta-E=       -0.000000000000 Rises=F Damp=F
 DIIS: error= 4.53D-08 at cycle   7 NSaved=   7.
 NSaved= 7 IEnMin= 7 EnMin= -470.930696720809     IErMin= 7 ErrMin= 4.53D-08
 ErrMax= 4.53D-08  0.00D+00 EMaxC= 1.00D-01 BMatC= 7.83D-13 BMatP= 4.05D-12
 IDIUse=1 WtCom= 1.00D+00 WtEn= 0.00D+00
 Coeff-Com: -0.508D-03 0.325D-02 0.103D-01 0.170D-01 0.667D-01 0.331D+00
 Coeff-Com:  0.572D+00
 Coeff:     -0.508D-03 0.325D-02 0.103D-01 0.170D-01 0.667D-01 0.331D+00
 Coeff:      0.572D+00
 Gap=     0.197 Goal=   None    Shift=    0.000
 RMSDP=5.59D-09 MaxDP=1.54D-07 DE=-3.41D-13 OVMax= 2.38D-07

 SCF Done:  E(RB3LYP) =  -470.930696721     A.U. after   15 cycles
            NFock= 15  Conv=0.56D-08     -V/T= 2.0239
 KE= 4.599195146355D+02 PE=-2.194492519894D+03 EE= 7.129821411565D+02
 Leave Link  502 at Tue Sep 17 09:56:50 2024, MaxMem=  1342177280 cpu:              68.7 elap:               9.7
 (Enter /groups/ReismanLab/Software/Gaussian16_RevC/Linux_Binary_AVX2-enabled-CPU/g16/l508.exe)
 QCSCF skips out because SCF is already converged.
 Leave Link  508 at Tue Sep 17 09:56:50 2024, MaxMem=  1342177280 cpu:               0.0 elap:               0.0
 (Enter /groups/ReismanLab/Software/Gaussian16_RevC/Linux_Binary_AVX2-enabled-CPU/g16/l601.exe)
 Copying SCF densities to generalized density rwf, IOpCl= 0 IROHF=0.

 **********************************************************************

            Population analysis using the SCF Density.

 **********************************************************************

 Orbital symmetries:
       Occupied  (A) (A) (A) (A) (A) (A) (A) (A) (A) (A) (A) (A)
                 (A) (A) (A) (A) (A) (A) (A) (A) (A) (A) (A) (A)
                 (A) (A) (A) (A) (A) (A) (A) (A) (A) (A) (A) (A)
                 (A) (A) (A)
       Virtual   (A) (A) (A) (A) (A) (A) (A) (A) (A) (A) (A) (A)
                 (A) (A) (A) (A) (A) (A) (A) (A) (A) (A) (A) (A)
                 (A) (A) (A) (A) (A) (A) (A) (A) (A) (A) (A) (A)
                 (A) (A) (A) (A) (A) (A) (A) (A) (A) (A) (A) (A)
                 (A) (A) (A) (A) (A) (A) (A) (A) (A) (A) (A) (A)
                 (A) (A) (A) (A) (A) (A) (A) (A) (A) (A) (A) (A)
                 (A) (A) (A) (A) (A) (A) (A) (A) (A) (A) (A) (A)
                 (A) (A) (A) (A) (A) (A) (A) (A) (A) (A) (A) (A)
                 (A) (A) (A) (A) (A) (A) (A) (A) (A) (A) (A) (A)
                 (A) (A) (A) (A) (A) (A) (A) (A) (A) (A) (A) (A)
                 (A) (A) (A) (A) (A) (A) (A) (A) (A) (A) (A) (A)
                 (A) (A) (A) (A) (A) (A) (A) (A) (A) (A) (A) (A)
 The electronic state is 1-A.
 Alpha  occ. eigenvalues --  -19.19027 -19.13355 -10.31648 -10.24421 -10.23507
 Alpha  occ. eigenvalues --  -10.21355 -10.20388 -10.20332 -10.20155 -10.19826
 Alpha  occ. eigenvalues --   -1.11358  -1.02220  -0.88309  -0.78922  -0.77566
 Alpha  occ. eigenvalues --   -0.73317  -0.68527  -0.63632  -0.61182  -0.57338
 Alpha  occ. eigenvalues --   -0.53688  -0.49568  -0.49183  -0.48170  -0.46192
 Alpha  occ. eigenvalues --   -0.44936  -0.42792  -0.41711  -0.40831  -0.38302
 Alpha  occ. eigenvalues --   -0.37366  -0.35550  -0.34546  -0.30548  -0.30009
 Alpha  occ. eigenvalues --   -0.28587  -0.26568  -0.25613  -0.24247
 Alpha virt. eigenvalues --   -0.04539  -0.02897  -0.01713   0.04546   0.10031
 Alpha virt. eigenvalues --    0.11813   0.13148   0.14698   0.15660   0.16081
 Alpha virt. eigenvalues --    0.17032   0.17577   0.18301   0.25103   0.27181
 Alpha virt. eigenvalues --    0.28525   0.29145   0.30613   0.34662   0.36573
 Alpha virt. eigenvalues --    0.38435   0.39005   0.42531   0.47410   0.50218
 Alpha virt. eigenvalues --    0.51148   0.52560   0.54206   0.55617   0.56429
 Alpha virt. eigenvalues --    0.57482   0.57914   0.59385   0.60103   0.60497
 Alpha virt. eigenvalues --    0.60761   0.64067   0.64601   0.65519   0.67215
 Alpha virt. eigenvalues --    0.69547   0.71568   0.75702   0.77170   0.80765
 Alpha virt. eigenvalues --    0.81503   0.82522   0.82645   0.84694   0.86488
 Alpha virt. eigenvalues --    0.87467   0.89072   0.92578   0.94043   0.97085
 Alpha virt. eigenvalues --    0.98900   1.00769   1.02534   1.06467   1.07897
 Alpha virt. eigenvalues --    1.09402   1.10344   1.15000   1.16357   1.20852
 Alpha virt. eigenvalues --    1.21757   1.24691   1.30601   1.32314   1.35512
 Alpha virt. eigenvalues --    1.37751   1.39514   1.40744   1.41474   1.45003
 Alpha virt. eigenvalues --    1.46850   1.52015   1.60958   1.64180   1.69354
 Alpha virt. eigenvalues --    1.73743   1.75316   1.76708   1.79337   1.82852
 Alpha virt. eigenvalues --    1.85007   1.88086   1.91639   1.92492   1.94018
 Alpha virt. eigenvalues --    1.95945   1.97585   1.98073   1.98893   2.00189
 Alpha virt. eigenvalues --    2.01218   2.02185   2.05113   2.05898   2.06839
 Alpha virt. eigenvalues --    2.07941   2.12634   2.14793   2.26588   2.29209
 Alpha virt. eigenvalues --    2.30675   2.33853   2.36981   2.37398   2.39826
 Alpha virt. eigenvalues --    2.42854   2.46101   2.47583   2.48244   2.49920
 Alpha virt. eigenvalues --    2.50871   2.52591   2.54317   2.56656   2.61228
 Alpha virt. eigenvalues --    2.62860   2.66077   2.67847   2.72917   2.76159
 Alpha virt. eigenvalues --    2.76813   2.81264   2.86483   2.88527   2.92522
 Alpha virt. eigenvalues --    2.97847   3.00691   3.10709   3.16609   3.20269
 Alpha virt. eigenvalues --    3.21684   3.24019   3.33530   3.34684   3.41430
 Alpha virt. eigenvalues --    3.42926   3.48434   3.87848  10.25277
          Condensed to atoms (all electrons):
               1          2          3          4          5          6
     1  C    4.738021   0.231008  -0.026728  -0.012747   0.006055  -0.000104
     2  O    0.231008   8.207065   0.284845  -0.079044  -0.086436   0.001858
     3  C   -0.026728   0.284845   4.404481   0.610421   0.315564  -0.027588
     4  O   -0.012747  -0.079044   0.610421   7.956102  -0.084920   0.000732
     5  C    0.006055  -0.086436   0.315564  -0.084920   4.955717   0.522911
     6  C   -0.000104   0.001858  -0.027588   0.000732   0.522911   4.865939
     7  C    0.000002  -0.000063   0.007845   0.000691  -0.013571   0.501944
     8  C    0.000000   0.000006   0.000250  -0.000011  -0.039618  -0.026956
     9  C    0.000005   0.000274   0.004194  -0.000054  -0.011773  -0.051662
    10  C   -0.000300   0.001135  -0.039654   0.003130   0.421456  -0.041187
    11  I    0.000277  -0.027879   0.000789  -0.000164  -0.060017   0.000236
    12  H    0.390426  -0.033134   0.002439   0.000480  -0.000162   0.000011
    13  H    0.390062  -0.035098  -0.000542   0.000443  -0.000058  -0.000008
    14  H    0.378571  -0.034163  -0.007698   0.023318   0.000730   0.000002
    15  H   -0.000017   0.000312  -0.012469   0.012146  -0.044086   0.368531
    16  H   -0.000000   0.000000  -0.000174   0.000001   0.004632  -0.037523
    17  H    0.000000   0.000000   0.000003   0.000000   0.000436   0.005059
    18  H   -0.000000   0.000002  -0.000141   0.000000   0.002891   0.001056
               7          8          9         10         11         12
     1  C    0.000002   0.000000   0.000005  -0.000300   0.000277   0.390426
     2  O   -0.000063   0.000006   0.000274   0.001135  -0.027879  -0.033134
     3  C    0.007845   0.000250   0.004194  -0.039654   0.000789   0.002439
     4  O    0.000691  -0.000011  -0.000054   0.003130  -0.000164   0.000480
     5  C   -0.013571  -0.039618  -0.011773   0.421456  -0.060017  -0.000162
     6  C    0.501944  -0.026956  -0.051662  -0.041187   0.000236   0.000011
     7  C    4.848136   0.532885  -0.012834  -0.065303   0.001482  -0.000000
     8  C    0.532885   4.778069   0.546048  -0.026793   0.001626  -0.000000
     9  C   -0.012834   0.546048   4.812792   0.468883  -0.076005   0.000000
    10  C   -0.065303  -0.026793   0.468883   5.431445   0.264313  -0.000003
    11  I    0.001482   0.001626  -0.076005   0.264313   6.705883  -0.000058
    12  H   -0.000000  -0.000000   0.000000  -0.000003  -0.000058   0.581503
    13  H   -0.000000  -0.000000  -0.000001  -0.000019   0.002207  -0.036847
    14  H    0.000000   0.000000   0.000001   0.000021  -0.000135  -0.028493
    15  H   -0.041877   0.004800   0.000175   0.008722  -0.000255   0.000001
    16  H    0.369186  -0.042174   0.005098   0.000737   0.000032   0.000000
    17  H   -0.042835   0.371746  -0.043108   0.006856  -0.000299  -0.000000
    18  H    0.004494  -0.031954   0.371108  -0.037733  -0.002282  -0.000000
              13         14         15         16         17         18
     1  C    0.390062   0.378571  -0.000017  -0.000000   0.000000  -0.000000
     2  O   -0.035098  -0.034163   0.000312   0.000000   0.000000   0.000002
     3  C   -0.000542  -0.007698  -0.012469  -0.000174   0.000003  -0.000141
     4  O    0.000443   0.023318   0.012146   0.000001   0.000000   0.000000
     5  C   -0.000058   0.000730  -0.044086   0.004632   0.000436   0.002891
     6  C   -0.000008   0.000002   0.368531  -0.037523   0.005059   0.001056
     7  C   -0.000000   0.000000  -0.041877   0.369186  -0.042835   0.004494
     8  C   -0.000000   0.000000   0.004800  -0.042174   0.371746  -0.031954
     9  C   -0.000001   0.000001   0.000175   0.005098  -0.043108   0.371108
    10  C   -0.000019   0.000021   0.008722   0.000737   0.006856  -0.037733
    11  I    0.002207  -0.000135  -0.000255   0.000032  -0.000299  -0.002282
    12  H   -0.036847  -0.028493   0.000001   0.000000  -0.000000  -0.000000
    13  H    0.586018  -0.032421  -0.000000   0.000000   0.000000   0.000000
    14  H   -0.032421   0.554939  -0.000012  -0.000000   0.000000  -0.000000
    15  H   -0.000000  -0.000012   0.589669  -0.005908  -0.000178   0.000016
    16  H    0.000000  -0.000000  -0.005908   0.613875  -0.006340  -0.000191
    17  H    0.000000   0.000000  -0.000178  -0.006340   0.616014  -0.006665
    18  H    0.000000  -0.000000   0.000016  -0.000191  -0.006665   0.592039
 Mulliken charges:
               1
     1  C   -0.094531
     2  O   -0.430689
     3  C    0.484161
     4  O   -0.430525
     5  C    0.110249
     6  C   -0.083250
     7  C   -0.090182
     8  C   -0.067924
     9  C   -0.013142
    10  C   -0.395707
    11  I    0.190250
    12  H    0.123837
    13  H    0.126264
    14  H    0.145340
    15  H    0.120431
    16  H    0.098748
    17  H    0.099311
    18  H    0.107358
 Sum of Mulliken charges =  -0.00000
 Mulliken charges with hydrogens summed into heavy atoms:
               1
     1  C    0.300910
     2  O   -0.430689
     3  C    0.484161
     4  O   -0.430525
     5  C    0.110249
     6  C    0.037182
     7  C    0.008566
     8  C    0.031387
     9  C    0.094216
    10  C   -0.395707
    11  I    0.190250
 Electronic spatial extent (au):  <R**2>=           2146.5530
 Charge=             -0.0000 electrons
 Dipole moment (field-independent basis, Debye):
    X=             -0.4160    Y=             -0.8367    Z=              1.0890  Tot=              1.4349
 Quadrupole moment (field-independent basis, Debye-Ang):
   XX=            -66.0467   YY=            -73.8861   ZZ=            -80.1418
   XY=              8.5592   XZ=             -1.6561   YZ=              3.6469
 Traceless Quadrupole moment (field-independent basis, Debye-Ang):
   XX=              7.3115   YY=             -0.5279   ZZ=             -6.7836
   XY=              8.5592   XZ=             -1.6561   YZ=              3.6469
 Octapole moment (field-independent basis, Debye-Ang**2):
  XXX=             81.5129  YYY=            -59.8830  ZZZ=             -5.4747  XYY=             47.5806
  XXY=            -19.0972  XXZ=              0.6692  XZZ=             41.0229  YZZ=            -14.8159
  YYZ=             14.0154  XYZ=             -0.7976
 Hexadecapole moment (field-independent basis, Debye-Ang**3):
 XXXX=          -1391.8093 YYYY=          -1368.4532 ZZZZ=           -138.6579 XXXY=            -78.6077
 XXXZ=            -13.7391 YYYX=             -1.1010 YYYZ=             44.2560 ZZZX=             -1.2106
 ZZZY=              9.4531 XXYY=           -452.8361 XXZZ=           -304.7932 YYZZ=           -265.6209
 XXYZ=              4.7646 YYXZ=            -10.7912 ZZXY=            -29.0408
 N-N= 5.506601673812D+02 E-N=-2.194492514539D+03  KE= 4.599195146355D+02
 No NMR shielding tensors so no spin-rotation constants.
 Leave Link  601 at Tue Sep 17 09:56:50 2024, MaxMem=  1342177280 cpu:               0.6 elap:               0.1
 (Enter /groups/ReismanLab/Software/Gaussian16_RevC/Linux_Binary_AVX2-enabled-CPU/g16/l701.exe)
 ... and contract with generalized density number  0.
 Compute integral first derivatives.
 R6Disp: Adding Grimme-D3(BJ) dispersion energy 1st derivatives to the gradient.
   1 Symmetry operations used in ECPInt.
 ECPInt:  NShTT=    2145 NPrTT=   11679 LenC2=    2006 LenP2D=    7584.
 LDataN:  DoStor=T MaxTD1= 6 Len=  172
 Leave Link  701 at Tue Sep 17 09:56:50 2024, MaxMem=  1342177280 cpu:               1.1 elap:               0.2
 (Enter /groups/ReismanLab/Software/Gaussian16_RevC/Linux_Binary_AVX2-enabled-CPU/g16/l702.exe)
 L702 exits ... SP integral derivatives will be done elsewhere.
 Leave Link  702 at Tue Sep 17 09:56:50 2024, MaxMem=  1342177280 cpu:               0.0 elap:               0.0
 (Enter /groups/ReismanLab/Software/Gaussian16_RevC/Linux_Binary_AVX2-enabled-CPU/g16/l703.exe)
 Integral derivatives from FoFJK, PRISM(SPDF).
 Compute integral first derivatives, UseDBF=F ICtDFT=           0.
 Calling FoFJK, ICntrl=      2127 FMM=F ISym2X=0 I1Cent= 0 IOpClX= 0 NMat=1 NMatS=1 NMatT=0.
 FoFJK:  IHMeth= 1 ICntrl=    2127 DoSepK=F KAlg= 0 I1Cent=           0 FoldK=F
 IRaf=         0 NMat=       1 IRICut=       1 DoRegI=T DoRafI=F ISym2E= 0 IDoP0=0 IntGTp=1.
 FoFCou: FMM=F IPFlag=           0 FMFlag=      100000 FMFlg1=         800
         NFxFlg=           0 DoJE=F BraDBF=F KetDBF=F FulRan=T
         wScrn=  0.000000 ICntrl=      2127 IOpCl=  0 I1Cent=           0 NGrid=           0
         NMat0=    1 NMatS0=      1 NMatT0=    0 NMatD0=    1 NMtDS0=    0 NMtDT0=    0
 Symmetry not used in FoFCou.
 Defaulting to unpruned grid for atomic number  53.
 Defaulting to unpruned grid for atomic number  53.
 Defaulting to unpruned grid for atomic number  53.
 Defaulting to unpruned grid for atomic number  53.
 Defaulting to unpruned grid for atomic number  53.
 Defaulting to unpruned grid for atomic number  53.
 Defaulting to unpruned grid for atomic number  53.
 Defaulting to unpruned grid for atomic number  53.
 Leave Link  703 at Tue Sep 17 09:56:53 2024, MaxMem=  1342177280 cpu:              19.3 elap:               2.5
 (Enter /groups/ReismanLab/Software/Gaussian16_RevC/Linux_Binary_AVX2-enabled-CPU/g16/l716.exe)
 Dipole        =-1.63675033D-01-3.29186208D-01 4.28439389D-01
 ***** Axes restored to original set *****
 -------------------------------------------------------------------
 Center     Atomic                   Forces (Hartrees/Bohr)
 Number     Number              X              Y              Z
 -------------------------------------------------------------------
      1        6          -0.001923412   -0.008149412    0.002273166
      2        8           0.003750242    0.003581119   -0.008223122
      3        6           0.001210968    0.006323129   -0.002346136
      4        8          -0.011851695   -0.009992679    0.008235169
      5        6           0.000394956   -0.006124910    0.000186007
      6        6          -0.003746364   -0.003961386    0.001011999
      7        6          -0.005650608    0.001205495   -0.000375777
      8        6          -0.001953993    0.004617414   -0.000186928
      9        6           0.005827244    0.006594401   -0.000418470
     10        6           0.001626914   -0.001599377   -0.001403816
     11       53           0.013840502    0.003597397    0.002109159
     12        1           0.000971661   -0.000051476   -0.001501134
     13        1           0.001630562   -0.000284660    0.000962171
     14        1           0.001014542   -0.000847058   -0.000260488
     15        1          -0.002216798   -0.002525238    0.000586422
     16        1          -0.004331957    0.001044813   -0.000260415
     17        1          -0.000905165    0.004354767   -0.000385277
     18        1           0.002312402    0.002217661   -0.000002529
 -------------------------------------------------------------------
 Cartesian Forces:  Max     0.013840502 RMS     0.004338053
 Leave Link  716 at Tue Sep 17 09:56:53 2024, MaxMem=  1342177280 cpu:               0.0 elap:               0.0
 (Enter /groups/ReismanLab/Software/Gaussian16_RevC/Linux_Binary_AVX2-enabled-CPU/g16/l103.exe)

 GradGradGradGradGradGradGradGradGradGradGradGradGradGradGradGradGradGrad
 Berny optimization.
 FormGI is forming the generalized inverse of G from B-inverse, IUseBI=4.
 Internal  Forces:  Max     0.020320888 RMS     0.005601303
 Search for a local minimum.
 Step number   1 out of a maximum of   89
 All quantities printed in internal units (Hartrees-Bohrs-Radians)
 RMS Force = .56013D-02 SwitMx=.10000D-02 MixMth= 1
 Mixed Optimization -- RFO/linear search
 Second derivative matrix not updated -- first step.
 ITU=  0
     Eigenvalues ---    0.00899   0.01430   0.01483   0.01786   0.02195
     Eigenvalues ---    0.02242   0.02256   0.02278   0.02289   0.02297
     Eigenvalues ---    0.02305   0.02321   0.02586   0.10407   0.10636
     Eigenvalues ---    0.13663   0.15999   0.16000   0.16000   0.16000
     Eigenvalues ---    0.16000   0.16000   0.16000   0.21999   0.22488
     Eigenvalues ---    0.24479   0.24975   0.24986   0.24998   0.25000
     Eigenvalues ---    0.25000   0.33460   0.34648   0.34690   0.34970
     Eigenvalues ---    0.36033   0.36058   0.36063   0.36121   0.42495
     Eigenvalues ---    0.43027   0.43589   0.47112   0.47676   0.48238
     Eigenvalues ---    0.48751   0.58950   1.02063
 RFO step:  Lambda=-8.29670840D-03 EMin= 8.99476019D-03
 Linear search not attempted -- first point.
 Iteration  1 RMS(Cart)=  0.11816229 RMS(Int)=  0.00377788
 Iteration  2 RMS(Cart)=  0.00794786 RMS(Int)=  0.00038340
 Iteration  3 RMS(Cart)=  0.00003943 RMS(Int)=  0.00038285
 Iteration  4 RMS(Cart)=  0.00000003 RMS(Int)=  0.00038285
 ITry= 1 IFail=0 DXMaxC= 5.32D-01 DCOld= 1.00D+10 DXMaxT= 3.00D-01 DXLimC= 3.00D+00 Rises=F
 Variable       Old X    -DE/DX   Delta X   Delta X   Delta X     New X
                                 (Linear)    (Quad)   (Total)
    R1        2.68297   0.00950   0.00000   0.02194   0.02194   2.70491
    R2        2.05724   0.00166   0.00000   0.00465   0.00465   2.06189
    R3        2.06181   0.00189   0.00000   0.00533   0.00533   2.06714
    R4        2.06250  -0.00042   0.00000  -0.00120  -0.00120   2.06130
    R5        2.51781   0.00947   0.00000   0.01585   0.01585   2.53366
    R6        2.27824   0.01752   0.00000   0.01702   0.01702   2.29526
    R7        2.81551   0.00843   0.00000   0.02459   0.02459   2.84010
    R8        2.63641   0.00965   0.00000   0.02058   0.02059   2.65700
    R9        2.62848   0.02032   0.00000   0.04318   0.04325   2.67173
   R10        2.60845   0.00852   0.00000   0.01645   0.01638   2.62483
   R11        2.04031   0.00339   0.00000   0.00918   0.00918   2.04949
   R12        2.61803   0.00833   0.00000   0.01621   0.01614   2.63417
   R13        2.03893   0.00446   0.00000   0.01206   0.01206   2.05100
   R14        2.61427   0.00969   0.00000   0.01948   0.01948   2.63375
   R15        2.03992   0.00446   0.00000   0.01210   0.01210   2.05201
   R16        2.61883   0.01213   0.00000   0.02546   0.02552   2.64435
   R17        2.03983   0.00320   0.00000   0.00868   0.00868   2.04851
   R18        3.98746   0.01286   0.00000   0.08871   0.08871   4.07617
    A1        1.87424  -0.00090   0.00000  -0.00598  -0.00599   1.86825
    A2        1.90054  -0.00030   0.00000  -0.00226  -0.00228   1.89825
    A3        1.91884   0.00234   0.00000   0.01508   0.01506   1.93390
    A4        1.91779  -0.00054   0.00000  -0.00574  -0.00577   1.91202
    A5        1.93358  -0.00017   0.00000   0.00009   0.00008   1.93366
    A6        1.91812  -0.00043   0.00000  -0.00126  -0.00129   1.91684
    A7        2.06165   0.00021   0.00000   0.00081   0.00081   2.06246
    A8        2.17182  -0.00136   0.00000  -0.00646  -0.00771   2.16411
    A9        1.96237   0.00493   0.00000   0.01793   0.01671   1.97907
   A10        2.14804  -0.00366   0.00000  -0.01524  -0.01646   2.13159
   A11        2.02041  -0.01203   0.00000  -0.04740  -0.04747   1.97293
   A12        2.19189   0.01463   0.00000   0.05582   0.05574   2.24763
   A13        2.07082  -0.00261   0.00000  -0.00856  -0.00847   2.06235
   A14        2.11527   0.00323   0.00000   0.01274   0.01272   2.12799
   A15        2.05470  -0.00185   0.00000  -0.00778  -0.00778   2.04692
   A16        2.11322  -0.00138   0.00000  -0.00498  -0.00498   2.10824
   A17        2.08552  -0.00002   0.00000  -0.00360  -0.00370   2.08182
   A18        2.09620  -0.00016   0.00000   0.00079   0.00084   2.09704
   A19        2.10146   0.00018   0.00000   0.00280   0.00284   2.10430
   A20        2.09562   0.00045   0.00000  -0.00049  -0.00053   2.09510
   A21        2.10205  -0.00011   0.00000   0.00092   0.00092   2.10297
   A22        2.08546  -0.00035   0.00000  -0.00050  -0.00051   2.08496
   A23        2.10011   0.00188   0.00000   0.00894   0.00903   2.10914
   A24        2.09281  -0.00093   0.00000  -0.00444  -0.00450   2.08830
   A25        2.09027  -0.00095   0.00000  -0.00453  -0.00460   2.08567
   A26        2.09872  -0.00294   0.00000  -0.00946  -0.00964   2.08909
   A27        2.14657   0.01412   0.00000   0.05291   0.05232   2.19889
   A28        2.03705  -0.01124   0.00000  -0.04537  -0.04572   1.99133
    D1        2.38477   0.00086   0.00000   0.01555   0.01553   2.40030
    D2       -1.82263  -0.00045   0.00000   0.00411   0.00411  -1.81851
    D3        0.27973   0.00026   0.00000   0.01035   0.01036   0.29010
    D4       -0.05680  -0.00187   0.00000  -0.06879  -0.06889  -0.12569
    D5        3.13068   0.00027   0.00000   0.02192   0.02203  -3.13048
    D6        2.56196  -0.00240   0.00000  -0.12927  -0.12900   2.43297
    D7       -0.59271  -0.00279   0.00000  -0.14199  -0.14200  -0.73471
    D8       -0.53446  -0.00036   0.00000  -0.04024  -0.04024  -0.57470
    D9        2.59405  -0.00075   0.00000  -0.05297  -0.05324   2.54081
   D10       -3.12867   0.00030   0.00000   0.00870   0.00872  -3.11995
   D11        0.01122   0.00009   0.00000   0.00090   0.00106   0.01228
   D12        0.02505   0.00052   0.00000   0.01995   0.01967   0.04471
   D13       -3.11825   0.00030   0.00000   0.01215   0.01200  -3.10625
   D14        3.13687   0.00018   0.00000   0.00181   0.00246   3.13933
   D15       -0.05020  -0.00177   0.00000  -0.05163  -0.05240  -0.10260
   D16       -0.01814  -0.00027   0.00000  -0.01149  -0.01135  -0.02949
   D17        3.07797  -0.00222   0.00000  -0.06493  -0.06621   3.01176
   D18       -0.01100  -0.00038   0.00000  -0.01355  -0.01337  -0.02437
   D19        3.13423  -0.00029   0.00000  -0.00969  -0.00961   3.12462
   D20        3.13235  -0.00016   0.00000  -0.00549  -0.00544   3.12692
   D21       -0.00560  -0.00007   0.00000  -0.00163  -0.00168  -0.00728
   D22       -0.01017  -0.00004   0.00000  -0.00148  -0.00145  -0.01162
   D23       -3.14092   0.00018   0.00000   0.00739   0.00719  -3.13373
   D24        3.12777  -0.00014   0.00000  -0.00536  -0.00523   3.12255
   D25       -0.00297   0.00009   0.00000   0.00351   0.00341   0.00044
   D26        0.01691   0.00023   0.00000   0.00959   0.00927   0.02619
   D27       -3.12123   0.00050   0.00000   0.01923   0.01877  -3.10247
   D28       -3.13542   0.00001   0.00000   0.00082   0.00074  -3.13469
   D29        0.00962   0.00028   0.00000   0.01045   0.01023   0.01985
   D30       -0.00249  -0.00005   0.00000  -0.00286  -0.00257  -0.00506
   D31       -3.10138   0.00115   0.00000   0.04487   0.04363  -3.05775
   D32        3.13566  -0.00032   0.00000  -0.01247  -0.01205   3.12361
   D33        0.03677   0.00088   0.00000   0.03526   0.03415   0.07092
         Item               Value     Threshold  Converged?
 Maximum Force            0.020321     0.000450     NO 
 RMS     Force            0.005601     0.000300     NO 
 Maximum Displacement     0.532301     0.001800     NO 
 RMS     Displacement     0.123836     0.001200     NO 
 Predicted change in Energy=-4.497052D-03
 Lowest energy point so far.  Saving SCF results.
 GradGradGradGradGradGradGradGradGradGradGradGradGradGradGradGradGradGrad

 Leave Link  103 at Tue Sep 17 09:56:53 2024, MaxMem=  1342177280 cpu:               0.1 elap:               0.0
 (Enter /groups/ReismanLab/Software/Gaussian16_RevC/Linux_Binary_AVX2-enabled-CPU/g16/l202.exe)
                          Input orientation:                          
 ---------------------------------------------------------------------
 Center     Atomic      Atomic             Coordinates (Angstroms)
 Number     Number       Type             X           Y           Z
 ---------------------------------------------------------------------
      1          6           0        0.052234   -3.484807   -0.535177
      2          8           0       -0.223316   -2.080846   -0.577651
      3          6           0       -1.233162   -1.611141    0.168813
      4          8           0       -2.009152   -2.315956    0.782269
      5          6           0       -1.437126   -0.128458    0.031674
      6          6           0       -2.793548    0.237795   -0.021934
      7          6           0       -3.191979    1.559811   -0.173108
      8          6           0       -2.223448    2.559690   -0.245680
      9          6           0       -0.872375    2.230404   -0.152749
     10          6           0       -0.466271    0.898134   -0.017607
     11         53           0        1.656892    0.649637    0.270752
     12          1           0        0.247228   -3.803576   -1.560296
     13          1           0        0.944631   -3.649886    0.075523
     14          1           0       -0.791380   -4.032603   -0.113197
     15          1           0       -3.526612   -0.558168    0.050840
     16          1           0       -4.247089    1.808457   -0.226798
     17          1           0       -2.513094    3.600344   -0.356491
     18          1           0       -0.126174    3.016448   -0.173314
 ---------------------------------------------------------------------
                    Distance matrix (angstroms):
                    1          2          3          4          5
     1  C    0.000000
     2  O    1.431377   0.000000
     3  C    2.378754   1.340754   0.000000
     4  O    2.711308   2.256961   1.214601   0.000000
     5  C    3.715453   2.378325   1.502916   2.382384   0.000000
     6  C    4.713774   3.505854   2.426881   2.789922   1.406022
     7  C    6.008676   4.714976   3.742834   4.163340   2.443706
     8  C    6.465175   5.064120   4.306774   4.987437   2.814493
     9  C    5.802137   4.380490   3.871826   4.778694   2.432527
    10  C    4.443748   3.040887   2.630462   3.653855   1.413817
    11  I    4.507557   3.422061   3.670683   4.743023   3.199302
    12  H    1.091103   2.038334   3.160403   3.576574   4.344872
    13  H    1.093882   2.062189   2.984622   3.317182   4.251487
    14  H    1.090794   2.085131   2.477536   2.287293   3.959839
    15  H    4.660126   3.691249   2.526377   2.434644   2.133301
    16  H    6.826267   5.607185   4.575359   4.799725   3.422622
    17  H    7.537387   6.129267   5.392007   6.045936   3.900301
    18  H    6.513762   5.114228   4.770435   5.735267   3.413364
                    6          7          8          9         10
     6  C    0.000000
     7  C    1.389003   0.000000
     8  C    2.401308   1.393944   0.000000
     9  C    2.771013   2.414679   1.393723   0.000000
    10  C    2.419150   2.809178   2.429085   1.399331   0.000000
    11  I    4.479028   4.953481   4.355691   3.012535   2.157017
    12  H    5.286356   6.520611   6.951519   6.296318   4.999505
    13  H    5.394214   6.656899   6.978448   6.158850   4.762751
    14  H    4.717341   6.086178   6.747348   6.263656   4.942368
    15  H    1.084544   2.155915   3.392227   3.855199   3.389865
    16  H    2.149821   1.085341   2.158665   3.401796   3.894487
    17  H    3.390770   2.158307   1.085879   2.147139   3.406797
    18  H    3.854701   3.394253   2.147655   1.084022   2.151085
                   11         12         13         14         15
    11  I    0.000000
    12  H    5.017071   0.000000
    13  H    4.362490   1.784908   0.000000
    14  H    5.297624   1.795900   1.787687   0.000000
    15  H    5.326900   5.231664   5.436115   4.424941   0.000000
    16  H    6.037169   7.312457   7.539155   6.787696   2.489394
    17  H    5.146736   7.992907   8.044149   7.828498   4.299577
    18  H    2.996383   6.969640   6.756371   7.080624   4.938736
                   16         17         18
    16  H    0.000000
    17  H    2.496882   0.000000
    18  H    4.294654   2.464118   0.000000
 Stoichiometry    C8H7IO2
 Framework group  C1[X(C8H7IO2)]
 Deg. of freedom    48
 Full point group                 C1      NOp   1
 RotChk:  IX=0 Diff= 9.43D-01
 Largest Abelian subgroup         C1      NOp   1
 Largest concise Abelian subgroup C1      NOp   1
                         Standard orientation:                         
 ---------------------------------------------------------------------
 Center     Atomic      Atomic             Coordinates (Angstroms)
 Number     Number       Type             X           Y           Z
 ---------------------------------------------------------------------
      1          6           0       -1.003565    3.432659    0.510931
      2          8           0       -0.827013    2.013706    0.576059
      3          6           0       -1.590916    1.243968   -0.212343
      4          8           0       -2.509679    1.663735   -0.886826
      5          6           0       -1.327642   -0.226399   -0.046623
      6          6           0       -2.501397   -1.000384   -0.058535
      7          6           0       -2.473638   -2.379323    0.106039
      8          6           0       -1.246773   -3.023040    0.259360
      9          6           0       -0.064086   -2.286150    0.232729
     10          6           0       -0.088772   -0.894932    0.084305
     11         53           0        1.862838    0.006596   -0.092307
     12          1           0       -0.981538    3.805044    1.536285
     13          1           0       -0.172308    3.865092   -0.053506
     14          1           0       -1.948896    3.683690    0.028058
     15          1           0       -3.441180   -0.476133   -0.193454
     16          1           0       -3.398760   -2.946872    0.107758
     17          1           0       -1.201691   -4.101022    0.382067
     18          1           0        0.888233   -2.797285    0.315999
 ---------------------------------------------------------------------
 Rotational constants (GHZ):           0.7949015           0.6078526           0.3576076
 Leave Link  202 at Tue Sep 17 09:56:53 2024, MaxMem=  1342177280 cpu:               0.0 elap:               0.0
 (Enter /groups/ReismanLab/Software/Gaussian16_RevC/Linux_Binary_AVX2-enabled-CPU/g16/l301.exe)
 Basis read from rwf:  (5D, 7F)
 Pseudo-potential data read from rwf file.
 There are   193 symmetry adapted cartesian basis functions of A   symmetry.
 There are   183 symmetry adapted basis functions of A   symmetry.
   183 basis functions,   341 primitive gaussians,   193 cartesian basis functions
    39 alpha electrons       39 beta electrons
       nuclear repulsion energy       543.5291053438 Hartrees.
 IExCor=  402 DFT=T Ex+Corr=B3LYP ExCW=0 ScaHFX=  0.200000
 ScaDFX=  0.800000  0.720000  1.000000  0.810000 ScalE2=  1.000000  1.000000
 IRadAn=      5 IRanWt=     -1 IRanGd=            0 ICorTp=0 IEmpDi=141
 NAtoms=   18 NActive=   18 NUniq=   18 SFac= 1.00D+00 NAtFMM=   60 NAOKFM=F Big=F
 Integral buffers will be    131072 words long.
 Raffenetti 2 integral format.
 Two-electron integral symmetry is turned on.
 R6Disp:  Grimme-D3(BJ) Dispersion energy=       -0.0379122209 Hartrees.
 Nuclear repulsion after empirical dispersion term =      543.4911931229 Hartrees.
 No density basis found on file    724.
 Leave Link  301 at Tue Sep 17 09:56:53 2024, MaxMem=  1342177280 cpu:               0.1 elap:               0.1
 (Enter /groups/ReismanLab/Software/Gaussian16_RevC/Linux_Binary_AVX2-enabled-CPU/g16/l302.exe)
 NPDir=0 NMtPBC=     1 NCelOv=     1 NCel=       1 NClECP=     1 NCelD=      1
         NCelK=      1 NCelE2=     1 NClLst=     1 CellRange=     0.0.
 One-electron integrals computed using PRISM.
 One-electron integral symmetry used in STVInt
   1 Symmetry operations used in ECPInt.
 ECPInt:  NShTT=    2145 NPrTT=   11679 LenC2=    2002 LenP2D=    7535.
 LDataN:  DoStor=T MaxTD1= 5 Len=  102
 NBasis=   183 RedAO= T EigKep=  5.08D-04  NBF=   183
 NBsUse=   183 1.00D-06 EigRej= -1.00D+00 NBFU=   183
 Precomputing XC quadrature grid using
 IXCGrd= 4 IRadAn=           5 IRanWt=          -1 IRanGd=           0 AccXCQ= 0.00D+00.
 Defaulting to unpruned grid for atomic number  53.
 Generated NRdTot=       0 NPtTot=           0 NUsed=           0 NTot=          32
 NSgBfM=   193   193   193   193   193 MxSgAt=    18 MxSgA2=    18.
 Leave Link  302 at Tue Sep 17 09:56:53 2024, MaxMem=  1342177280 cpu:               1.2 elap:               0.2
 (Enter /groups/ReismanLab/Software/Gaussian16_RevC/Linux_Binary_AVX2-enabled-CPU/g16/l303.exe)
 DipDrv:  MaxL=1.
 Leave Link  303 at Tue Sep 17 09:56:53 2024, MaxMem=  1342177280 cpu:               0.1 elap:               0.0
 (Enter /groups/ReismanLab/Software/Gaussian16_RevC/Linux_Binary_AVX2-enabled-CPU/g16/l401.exe)
 Initial guess from the checkpoint file:  "smiles_00115_conf_1.chk"
 B after Tr=     0.000000    0.000000   -0.000000
         Rot=    0.948011    0.007310    0.006051   -0.318095 Ang=  37.11 deg.
 Guess basis will be translated and rotated to current coordinates.
 JPrj=2 DoOrth=T DoCkMO=T.
 Generating alternative initial guess.
 ExpMin= 1.05D-01 ExpMax= 5.48D+03 ExpMxC= 8.25D+02 IAcc=3 IRadAn=         5 AccDes= 0.00D+00
 Harris functional with IExCor=  402 and IRadAn=       5 diagonalized for initial guess.
 HarFok:  IExCor=  402 AccDes= 0.00D+00 IRadAn=         5 IDoV= 1 UseB2=F ITyADJ=14
 ICtDFT=  3500011 ScaDFX=  1.000000  1.000000  1.000000  1.000000
 Defaulting to unpruned grid for atomic number  53.
 FoFCou: FMM=F IPFlag=           0 FMFlag=      100000 FMFlg1=           0
         NFxFlg=           0 DoJE=T BraDBF=F KetDBF=T FulRan=T
         wScrn=  0.000000 ICntrl=       500 IOpCl=  0 I1Cent=   200000004 NGrid=           0
         NMat0=    1 NMatS0=      1 NMatT0=    0 NMatD0=    1 NMtDS0=    0 NMtDT0=    0
 Petite list used in FoFCou.
 Harris En= -470.868310957483    
 Leave Link  401 at Tue Sep 17 09:56:54 2024, MaxMem=  1342177280 cpu:               4.5 elap:               0.6
 (Enter /groups/ReismanLab/Software/Gaussian16_RevC/Linux_Binary_AVX2-enabled-CPU/g16/l502.exe)
 Integral symmetry usage will be decided dynamically.
 Closed shell SCF:
 Using DIIS extrapolation, IDIIS=  1040.
 NGot=  1342177280 LenX=  1342098694 LenY=  1342061004
 Requested convergence on RMS density matrix=1.00D-08 within  32 cycles.
 Requested convergence on MAX density matrix=1.00D-06.
 Requested convergence on             energy=1.00D-06.
 No special actions if energy rises.
 Fock matrices will be formed incrementally for  20 cycles.
 Integral accuracy reduced to 1.0D-05 until final iterations.

 Cycle   1  Pass 0  IDiag  1:
 FoFJK:  IHMeth= 1 ICntrl=       0 DoSepK=F KAlg= 0 I1Cent=           0 FoldK=F
 IRaf= 880000000 NMat=       1 IRICut=       1 DoRegI=T DoRafI=F ISym2E= 0 IDoP0=0 IntGTp=1.
 FoFCou: FMM=F IPFlag=           0 FMFlag=      100000 FMFlg1=           0
         NFxFlg=           0 DoJE=F BraDBF=F KetDBF=F FulRan=T
         wScrn=  0.000000 ICntrl=         0 IOpCl=  0 I1Cent=           0 NGrid=           0
         NMat0=    1 NMatS0=      1 NMatT0=    0 NMatD0=    1 NMtDS0=    0 NMtDT0=    0
 Symmetry not used in FoFCou.
 Defaulting to unpruned grid for atomic number  53.
 Defaulting to unpruned grid for atomic number  53.
 Defaulting to unpruned grid for atomic number  53.
 Defaulting to unpruned grid for atomic number  53.
 Defaulting to unpruned grid for atomic number  53.
 Defaulting to unpruned grid for atomic number  53.
 Defaulting to unpruned grid for atomic number  53.
 Defaulting to unpruned grid for atomic number  53.
 E= -470.905984760484    
 DIIS: error= 4.62D-03 at cycle   1 NSaved=   1.
 NSaved= 1 IEnMin= 1 EnMin= -470.905984760484     IErMin= 1 ErrMin= 4.62D-03
 ErrMax= 4.62D-03  0.00D+00 EMaxC= 1.00D-01 BMatC= 1.53D-02 BMatP= 1.53D-02
 IDIUse=3 WtCom= 9.54D-01 WtEn= 4.62D-02
 Coeff-Com:  0.100D+01
 Coeff-En:   0.100D+01
 Coeff:      0.100D+01
 Gap=     0.807 Goal=   None    Shift=    0.000
 GapD=    0.807 DampG=2.000 DampE=1.000 DampFc=2.0000 IDamp=-1.
 RMSDP=1.23D-03 MaxDP=3.55D-02              OVMax= 3.81D-02

 Cycle   2  Pass 0  IDiag  1:
 RMSU=  1.22D-03    CP:  9.96D-01
 E= -470.930145355812     Delta-E=       -0.024160595328 Rises=F Damp=F
 DIIS: error= 2.09D-03 at cycle   2 NSaved=   2.
 NSaved= 2 IEnMin= 2 EnMin= -470.930145355812     IErMin= 2 ErrMin= 2.09D-03
 ErrMax= 2.09D-03  0.00D+00 EMaxC= 1.00D-01 BMatC= 8.21D-04 BMatP= 1.53D-02
 IDIUse=3 WtCom= 9.79D-01 WtEn= 2.09D-02
 Coeff-Com:  0.133D-01 0.987D+00
 Coeff-En:   0.000D+00 0.100D+01
 Coeff:      0.130D-01 0.987D+00
 Gap=     0.196 Goal=   None    Shift=    0.000
 RMSDP=5.40D-04 MaxDP=1.45D-02 DE=-2.42D-02 OVMax= 2.16D-02

 Cycle   3  Pass 0  IDiag  1:
 RMSU=  5.32D-04    CP:  9.97D-01  9.29D-01
 E= -470.928242680836     Delta-E=        0.001902674976 Rises=F Damp=F
 DIIS: error= 4.02D-03 at cycle   3 NSaved=   3.
 NSaved= 3 IEnMin= 2 EnMin= -470.930145355812     IErMin= 2 ErrMin= 2.09D-03
 ErrMax= 4.02D-03  0.00D+00 EMaxC= 1.00D-01 BMatC= 2.84D-03 BMatP= 8.21D-04
 IDIUse=3 WtCom= 1.36D-01 WtEn= 8.64D-01
 Coeff-Com: -0.418D-01 0.686D+00 0.356D+00
 Coeff-En:   0.000D+00 0.720D+00 0.280D+00
 Coeff:     -0.569D-02 0.715D+00 0.290D+00
 Gap=     0.197 Goal=   None    Shift=    0.000
 RMSDP=2.97D-04 MaxDP=8.75D-03 DE= 1.90D-03 OVMax= 1.21D-02

 Cycle   4  Pass 0  IDiag  1:
 RMSU=  1.10D-04    CP:  9.96D-01  9.87D-01  5.01D-01
[...]
   XZ=    -6.2914   YZ=     0.8849   ZZ=   400.9409
   Eigenvalues:   400.3035   411.4046   479.4132
     12  H    Isotropic =    27.9679   Anisotropy =     7.6347
   XX=    28.9580   YX=     1.7433   ZX=     2.2676
   XY=     3.4463   YY=    30.3952   ZY=     1.5702
   XZ=     2.2200   YZ=     1.0397   ZZ=    24.5506
   Eigenvalues:    23.6020    27.2440    33.0577
     13  H    Isotropic =    27.9477   Anisotropy =     8.3836
   XX=    25.7594   YX=     2.3567   ZX=    -1.9590
   XY=     1.2906   YY=    30.5995   ZY=    -3.8915
   XZ=    -1.2369   YZ=    -2.9395   ZZ=    27.4840
   Eigenvalues:    24.7862    25.5200    33.5367
     14  H    Isotropic =    27.9898   Anisotropy =     9.2282
   XX=    25.9614   YX=    -0.5729   ZX=    -0.8795
   XY=    -2.1230   YY=    32.4624   ZY=     2.8739
   XZ=    -0.9144   YZ=     3.8690   ZZ=    25.5455
   Eigenvalues:    24.1087    25.7187    34.1419
     15  H    Isotropic =    22.7420   Anisotropy =     9.2445
   XX=    25.3813   YX=     4.3005   ZX=     0.0923
   XY=     4.1596   YY=    23.6549   ZY=    -0.5142
   XZ=    -0.8582   YZ=    -1.1463   ZZ=    19.1897
   Eigenvalues:    18.9886    20.3324    28.9050
     16  H    Isotropic =    23.6249   Anisotropy =     5.5968
   XX=    22.8166   YX=    -0.6235   ZX=     0.1590
   XY=    -0.5978   YY=    27.2201   ZY=    -0.5881
   XZ=     0.2797   YZ=    -0.5362   ZZ=    20.8379
   Eigenvalues:    20.7750    22.7436    27.3561
     17  H    Isotropic =    23.5825   Anisotropy =     6.3097
   XX=    27.5094   YX=    -1.3850   ZX=     0.2034
   XY=    -1.0276   YY=    22.5125   ZY=    -0.1701
   XZ=    -0.0353   YZ=    -0.5335   ZZ=    20.7257
   Eigenvalues:    20.6556    22.3030    27.7890
     18  H    Isotropic =    23.3306   Anisotropy =    13.7195
   XX=    26.2183   YX=     6.7749   ZX=    -0.6539
   XY=     5.9597   YY=    25.8550   ZY=    -0.8462
   XZ=    -0.6849   YZ=    -0.6817   ZZ=    17.9186
   Eigenvalues:    17.8446    19.6703    32.4769
 End of Minotr F.D. properties file   721 does not exist.
 End of Minotr F.D. properties file   722 does not exist.
 End of Minotr F.D. properties file   788 does not exist.
 Leave Link 1002 at Tue Sep 17 10:51:41 2024, MaxMem=  1342177280 cpu:             601.7 elap:             602.9
 (Enter /groups/ReismanLab/Software/Gaussian16_RevC/Linux_Binary_AVX2-enabled-CPU/g16/l601.exe)
 Copying SCF densities to generalized density rwf, IOpCl= 0 IROHF=0.

 **********************************************************************

            Population analysis using the SCF Density.

 **********************************************************************

 Orbital symmetries:
       Occupied  (A) (A) (A) (A) (A) (A) (A) (A) (A) (A) (A) (A)
                 (A) (A) (A) (A) (A) (A) (A) (A) (A) (A) (A) (A)
                 (A) (A) (A) (A) (A) (A) (A) (A) (A) (A) (A) (A)
                 (A) (A) (A) (A) (A) (A) (A) (A) (A) (A) (A) (A)
       Virtual   (A) (A) (A) (A) (A) (A) (A) (A) (A) (A) (A) (A)
                 (A) (A) (A) (A) (A) (A) (A) (A) (A) (A) (A) (A)
                 (A) (A) (A) (A) (A) (A) (A) (A) (A) (A) (A) (A)
                 (A) (A) (A) (A) (A) (A) (A) (A) (A) (A) (A) (A)
                 (A) (A) (A) (A) (A) (A) (A) (A) (A) (A) (A) (A)
                 (A) (A) (A) (A) (A) (A) (A) (A) (A) (A) (A) (A)
                 (A) (A) (A) (A) (A) (A) (A) (A) (A) (A) (A) (A)
                 (A) (A) (A) (A) (A) (A) (A) (A) (A) (A) (A) (A)
                 (A) (A) (A) (A) (A) (A) (A) (A) (A) (A) (A) (A)
                 (A) (A) (A) (A) (A) (A) (A) (A) (A) (A) (A) (A)
                 (A) (A) (A) (A) (A) (A) (A) (A) (A) (A) (A) (A)
                 (A) (A) (A) (A) (A) (A) (A) (A) (A) (A) (A) (A)
                 (A) (A) (A) (A) (A) (A) (A) (A) (A) (A) (A) (A)
                 (A) (A) (A) (A) (A) (A) (A) (A) (A) (A) (A) (A)
                 (A) (A) (A) (A) (A) (A) (A) (A) (A) (A) (A) (A)
                 (A) (A) (A) (A) (A) (A) (A) (A) (A) (A) (A) (A)
                 (A) (A) (A) (A) (A) (A) (A) (A) (A) (A) (A) (A)
                 (A) (A) (A) (A) (A) (A) (A) (A) (A) (A) (A) (A)
                 (A) (A) (A) (A) (A) (A) (A) (A) (A) (A) (A) (A)
                 (A) (A) (A) (A) (A) (A) (A) (A) (A) (A) (A) (A)
                 (A) (A) (A) (A) (A) (A) (A) (A) (A) (A) (A) (A)
                 (A) (A) (A) (A) (A) (A) (A) (A) (A) (A) (A) (A)
                 (A) (A) (A) (A) (A) (A) (A) (A) (A) (A) (A) (A)
                 (A) (A) (A) (A) (A) (A) (A) (A) (A) (A) (A) (A)
                 (A) (A) (A) (A) (A) (A) (A) (A) (A) (A) (A) (A)
                 (A) (A) (A) (A) (A) (A) (A) (A) (A) (A) (A) (A)
                 (A) (A) (A) (A) (A) (A) (A) (A) (A) (A) (A) (A)
                 (A) (A) (A) (A) (A) (A) (A) (A) (A) (A) (A) (A)
                 (A) (A) (A) (A) (A) (A) (A) (A) (A) (A) (A) (A)
                 (A) (A) (A) (A) (A) (A)
 The electronic state is 1-A.
 Alpha  occ. eigenvalues --  -19.67814 -19.62158 -10.68374 -10.61147 -10.58920
 Alpha  occ. eigenvalues --  -10.57918 -10.56283 -10.56189 -10.56177 -10.55640
 Alpha  occ. eigenvalues --   -7.10500  -5.09882  -5.08804  -5.08752  -2.06701
 Alpha  occ. eigenvalues --   -2.06276  -2.06237  -2.05337  -2.05334  -1.24023
 Alpha  occ. eigenvalues --   -1.14461  -0.98388  -0.88382  -0.86919  -0.82287
 Alpha  occ. eigenvalues --   -0.78058  -0.72079  -0.69536  -0.65664  -0.61653
 Alpha  occ. eigenvalues --   -0.57460  -0.57188  -0.56368  -0.53340  -0.51950
 Alpha  occ. eigenvalues --   -0.49530  -0.48309  -0.47098  -0.45224  -0.44006
 Alpha  occ. eigenvalues --   -0.42980  -0.39563  -0.38323  -0.36783  -0.35803
 Alpha  occ. eigenvalues --   -0.32559  -0.31607  -0.29732
 Alpha virt. eigenvalues --   -0.02564  -0.00878   0.00324   0.07502   0.08324
 Alpha virt. eigenvalues --    0.09301   0.11030   0.11811   0.13221   0.13803
 Alpha virt. eigenvalues --    0.14686   0.15302   0.15877   0.17011   0.17244
 Alpha virt. eigenvalues --    0.18104   0.19770   0.20838   0.21247   0.22534
 Alpha virt. eigenvalues --    0.23137   0.23376   0.23864   0.25153   0.25585
 Alpha virt. eigenvalues --    0.26064   0.27162   0.27817   0.28980   0.30054
 Alpha virt. eigenvalues --    0.31520   0.31652   0.32379   0.33254   0.33802
 Alpha virt. eigenvalues --    0.34607   0.36582   0.37338   0.37482   0.39507
 Alpha virt. eigenvalues --    0.40190   0.40597   0.41801   0.42277   0.43237
 Alpha virt. eigenvalues --    0.44179   0.44453   0.46208   0.47120   0.47199
 Alpha virt. eigenvalues --    0.49042   0.49729   0.50468   0.51452   0.51955
 Alpha virt. eigenvalues --    0.52780   0.53377   0.54611   0.55734   0.56432
 Alpha virt. eigenvalues --    0.58021   0.59324   0.60881   0.62189   0.64033
 Alpha virt. eigenvalues --    0.65718   0.66017   0.66602   0.68396   0.69986
 Alpha virt. eigenvalues --    0.70795   0.71777   0.73314   0.73618   0.76204
 Alpha virt. eigenvalues --    0.77187   0.77422   0.78709   0.79912   0.82941
 Alpha virt. eigenvalues --    0.82992   0.84727   0.86183   0.87546   0.88073
 Alpha virt. eigenvalues --    0.88414   0.90803   0.92219   0.93010   0.94090
 Alpha virt. eigenvalues --    0.95565   0.96197   0.97323   0.97501   0.98672
 Alpha virt. eigenvalues --    0.99854   1.00974   1.02458   1.03793   1.05341
 Alpha virt. eigenvalues --    1.06787   1.09302   1.10099   1.11960   1.13020
 Alpha virt. eigenvalues --    1.14321   1.17245   1.19126   1.21240   1.23200
 Alpha virt. eigenvalues --    1.23437   1.25645   1.26073   1.27696   1.28567
 Alpha virt. eigenvalues --    1.30641   1.33251   1.34033   1.34960   1.36993
 Alpha virt. eigenvalues --    1.38107   1.39412   1.43906   1.44585   1.45672
 Alpha virt. eigenvalues --    1.47257   1.48438   1.50119   1.50880   1.51321
 Alpha virt. eigenvalues --    1.52266   1.54205   1.54719   1.55931   1.57218
 Alpha virt. eigenvalues --    1.57525   1.58759   1.60314   1.60803   1.61212
 Alpha virt. eigenvalues --    1.63401   1.64054   1.66479   1.67715   1.69482
 Alpha virt. eigenvalues --    1.70733   1.72990   1.73073   1.74866   1.75909
 Alpha virt. eigenvalues --    1.78129   1.80191   1.84503   1.85195   1.87156
 Alpha virt. eigenvalues --    1.89094   1.93821   1.96399   1.98120   1.98584
 Alpha virt. eigenvalues --    2.02317   2.03028   2.03495   2.07391   2.08176
 Alpha virt. eigenvalues --    2.09356   2.11243   2.12869   2.14592   2.16450
 Alpha virt. eigenvalues --    2.17765   2.19391   2.20457   2.24688   2.25958
 Alpha virt. eigenvalues --    2.26443   2.29810   2.30297   2.33187   2.34876
 Alpha virt. eigenvalues --    2.37037   2.39404   2.40249   2.42093   2.45434
 Alpha virt. eigenvalues --    2.49195   2.50608   2.53270   2.56006   2.56392
 Alpha virt. eigenvalues --    2.57442   2.59099   2.59171   2.62160   2.64019
 Alpha virt. eigenvalues --    2.64846   2.65890   2.67291   2.68602   2.69840
 Alpha virt. eigenvalues --    2.71067   2.74625   2.76047   2.77034   2.78349
 Alpha virt. eigenvalues --    2.80267   2.81744   2.82368   2.82562   2.83839
 Alpha virt. eigenvalues --    2.84788   2.86804   2.88002   2.89706   2.95708
 Alpha virt. eigenvalues --    2.96613   2.98313   2.99719   3.00938   3.03203
 Alpha virt. eigenvalues --    3.05042   3.05945   3.07393   3.08581   3.09657
 Alpha virt. eigenvalues --    3.12530   3.13111   3.13852   3.14609   3.15271
 Alpha virt. eigenvalues --    3.16431   3.17900   3.18475   3.19443   3.20597
 Alpha virt. eigenvalues --    3.23148   3.23343   3.23809   3.25947   3.26231
 Alpha virt. eigenvalues --    3.27945   3.28667   3.28924   3.30314   3.32270
 Alpha virt. eigenvalues --    3.32743   3.33249   3.35302   3.36341   3.36974
 Alpha virt. eigenvalues --    3.39254   3.40762   3.41895   3.42497   3.43636
 Alpha virt. eigenvalues --    3.44679   3.45794   3.47365   3.49474   3.51584
 Alpha virt. eigenvalues --    3.51663   3.52416   3.53882   3.55104   3.56809
 Alpha virt. eigenvalues --    3.58944   3.59407   3.61847   3.63177   3.64763
 Alpha virt. eigenvalues --    3.69701   3.72285   3.75955   3.78596   3.86169
 Alpha virt. eigenvalues --    3.89485   3.90267   3.92380   3.94281   4.02838
 Alpha virt. eigenvalues --    4.06489   4.07869   4.10555   4.11355   4.14882
 Alpha virt. eigenvalues --    4.15360   4.17428   4.18012   4.19524   4.20070
 Alpha virt. eigenvalues --    4.23196   4.26595   4.30291   4.31995   4.36996
 Alpha virt. eigenvalues --    4.38196   4.45921   4.47353   4.50111   4.56504
 Alpha virt. eigenvalues --    4.58036   4.59954   4.62195   4.66004   4.70487
 Alpha virt. eigenvalues --    4.76897   4.82943   4.86506   5.02098   5.06955
 Alpha virt. eigenvalues --    5.09945   5.19306   5.22706   5.24021   5.28801
 Alpha virt. eigenvalues --    5.33927   5.35765   5.44013   5.48349   5.52373
 Alpha virt. eigenvalues --    5.64952   5.67900   5.83193   5.96769   6.05310
 Alpha virt. eigenvalues --    6.13867   6.20604   6.36123   6.37474   6.53194
 Alpha virt. eigenvalues --    6.64749   6.67422   6.76801   6.85537   6.88025
 Alpha virt. eigenvalues --    7.00836   7.10911   7.25525   7.36639  22.08418
 Alpha virt. eigenvalues --   22.42878  22.65537  22.70758  22.77422  22.86495
 Alpha virt. eigenvalues --   23.24707  23.49237  34.48644  34.58689  34.84103
 Alpha virt. eigenvalues --   42.88904  44.04926  44.22633 117.59082
          Condensed to atoms (all electrons):
               1          2          3          4          5          6
     1  C    4.868984   0.202051  -0.049029   0.001406   0.007208  -0.001540
     2  O    0.202051   8.004914   0.368237  -0.083332  -0.105599   0.002051
     3  C   -0.049029   0.368237   4.560662   0.642592   0.329007  -0.095030
     4  O    0.001406  -0.083332   0.642592   7.886239  -0.117886   0.015059
     5  C    0.007208  -0.105599   0.329007  -0.117886   5.590807   0.212925
     6  C   -0.001540   0.002051  -0.095030   0.015059   0.212925   5.211507
     7  C    0.000072   0.000209   0.012487   0.002066   0.017485   0.427894
     8  C   -0.000028  -0.000172  -0.008790   0.000078  -0.121856   0.033752
     9  C    0.000112   0.002047   0.024452  -0.000232   0.051815  -0.143852
    10  C   -0.000775   0.002175  -0.102670   0.000561   0.204186   0.095542
    11  I   -0.002183  -0.026487  -0.029777  -0.000323  -0.102676   0.026061
    12  H    0.394834  -0.030784   0.005576   0.001800   0.002009   0.000067
    13  H    0.421439  -0.036049  -0.006489   0.003647   0.000631  -0.000552
    14  H    0.418644  -0.029431  -0.009576   0.003979  -0.003952   0.000433
    15  H   -0.000132   0.000391  -0.005841   0.013819  -0.043418   0.413945
    16  H   -0.000000   0.000006  -0.000260  -0.000067   0.007107  -0.034527
    17  H    0.000000  -0.000001   0.000102  -0.000001   0.000921   0.003464
    18  H    0.000001   0.000044   0.000803   0.000005   0.017311  -0.003621
               7          8          9         10         11         12
     1  C    0.000072  -0.000028   0.000112  -0.000775  -0.002183   0.394834
     2  O    0.000209  -0.000172   0.002047   0.002175  -0.026487  -0.030784
     3  C    0.012487  -0.008790   0.024452  -0.102670  -0.029777   0.005576
     4  O    0.002066   0.000078  -0.000232   0.000561  -0.000323   0.001800
     5  C    0.017485  -0.121856   0.051815   0.204186  -0.102676   0.002009
     6  C    0.427894   0.033752  -0.143852   0.095542   0.026061   0.000067
     7  C    4.962016   0.453957  -0.005200  -0.072419  -0.004413  -0.000007
     8  C    0.453957   5.005212   0.374958   0.035769   0.023692   0.000002
     9  C   -0.005200   0.374958   5.201779   0.361649  -0.104722  -0.000015
    10  C   -0.072419   0.035769   0.361649   5.148363   0.380216  -0.000301
    11  I   -0.004413   0.023692  -0.104722   0.380216  24.932469   0.001027
    12  H   -0.000007   0.000002  -0.000015  -0.000301   0.001027   0.514307
    13  H    0.000018  -0.000007   0.000014   0.000074   0.000415  -0.023489
    14  H   -0.000009   0.000003   0.000017   0.000048  -0.000092  -0.023000
    15  H   -0.029952   0.005190  -0.001074   0.007449  -0.000112   0.000005
    16  H    0.415456  -0.034487   0.004814  -0.000331   0.000047   0.000000
    17  H   -0.029455   0.407287  -0.026671   0.001559  -0.000443   0.000000
    18  H    0.005203  -0.034880   0.430652  -0.061402  -0.012338  -0.000000
              13         14         15         16         17         18
     1  C    0.421439   0.418644  -0.000132  -0.000000   0.000000   0.000001
     2  O   -0.036049  -0.029431   0.000391   0.000006  -0.000001   0.000044
     3  C   -0.006489  -0.009576  -0.005841  -0.000260   0.000102   0.000803
     4  O    0.003647   0.003979   0.013819  -0.000067  -0.000001   0.000005
     5  C    0.000631  -0.003952  -0.043418   0.007107   0.000921   0.017311
     6  C   -0.000552   0.000433   0.413945  -0.034527   0.003464  -0.003621
     7  C    0.000018  -0.000009  -0.029952   0.415456  -0.029455   0.005203
     8  C   -0.000007   0.000003   0.005190  -0.034487   0.407287  -0.034880
     9  C    0.000014   0.000017  -0.001074   0.004814  -0.026671   0.430652
    10  C    0.000074   0.000048   0.007449  -0.000331   0.001559  -0.061402
    11  I    0.000415  -0.000092  -0.000112   0.000047  -0.000443  -0.012338
    12  H   -0.023489  -0.023000   0.000005   0.000000   0.000000  -0.000000
    13  H    0.517559  -0.040054  -0.000063   0.000000  -0.000000  -0.000000
    14  H   -0.040054   0.521921   0.000061  -0.000000   0.000000   0.000000
    15  H   -0.000063   0.000061   0.458233  -0.003362  -0.000158   0.000035
    16  H    0.000000  -0.000000  -0.003362   0.478775  -0.003214  -0.000199
    17  H   -0.000000   0.000000  -0.000158  -0.003214   0.477294  -0.002363
    18  H   -0.000000   0.000000   0.000035  -0.000199  -0.002363   0.477063
 Mulliken charges:
               1
     1  C   -0.261063
     2  O   -0.270269
     3  C    0.363545
     4  O   -0.369411
     5  C    0.053977
     6  C   -0.163576
     7  C   -0.155407
     8  C   -0.139678
     9  C   -0.170542
    10  C    0.000309
    11  I   -0.080362
    12  H    0.157970
    13  H    0.162906
    14  H    0.161010
    15  H    0.184985
    16  H    0.170242
    17  H    0.171678
    18  H    0.183686
 Sum of Mulliken charges =   0.00000
 Mulliken charges with hydrogens summed into heavy atoms:
               1
     1  C    0.220824
     2  O   -0.270269
     3  C    0.363545
     4  O   -0.369411
     5  C    0.053977
     6  C    0.021409
     7  C    0.014835
     8  C    0.032000
     9  C    0.013144
    10  C    0.000309
    11  I   -0.080362
 Electronic spatial extent (au):  <R**2>=           2433.9068
 Charge=              0.0000 electrons
 Dipole moment (field-independent basis, Debye):
    X=             -0.3077    Y=             -1.1535    Z=              1.0924  Tot=              1.6182
 Quadrupole moment (field-independent basis, Debye-Ang):
   XX=            -77.9101   YY=            -74.9886   ZZ=            -88.6234
   XY=             11.3494   XZ=             -2.5325   YZ=              2.8875
 Traceless Quadrupole moment (field-independent basis, Debye-Ang):
   XX=              2.5972   YY=              5.5188   ZZ=             -8.1160
   XY=             11.3494   XZ=             -2.5325   YZ=              2.8875
 Octapole moment (field-independent basis, Debye-Ang**2):
  XXX=             65.7069  YYY=            -13.6329  ZZZ=             -4.5612  XYY=             38.9085
  XXY=            -24.4798  XXZ=              4.0193  XZZ=             35.7105  YZZ=              0.3578
  YYZ=             14.2693  XYZ=             -4.5941
 Hexadecapole moment (field-independent basis, Debye-Ang**3):
 XXXX=          -1457.9301 YYYY=          -1446.8526 ZZZZ=           -145.4289 XXXY=              4.0638
 XXXZ=            -13.4257 YYYX=             55.9476 YYYZ=             34.3528 ZZZX=             -2.4765
 ZZZY=              4.6448 XXYY=           -537.3636 XXZZ=           -322.4919 YYZZ=           -303.5961
 XXYZ=             12.6637 YYXZ=            -21.5441 ZZXY=            -23.3476
 N-N= 7.312584845587D+02 E-N=-3.165387950695D+03  KE= 5.705871738818D+02
 Calculating spin-rotation constants.
 Leave Link  601 at Tue Sep 17 10:51:44 2024, MaxMem=  1342177280 cpu:               3.1 elap:               3.1
 (Enter /groups/ReismanLab/Software/Gaussian16_RevC/Linux_Binary_AVX2-enabled-CPU/g16/l9999.exe)
 Unable to Open any file for archive entry.
 1\1\GINC-HPC-54-28\SP\RM062X\def2TZVP\C8H7I1O2\MANTIND\17-Sep-2024\0\\
 #p M062X/def2tzvp geom=check guess=read scf(xqc,tight) integral(grid=u
 ltrafine) scrf(SMD, solvent=1,4-Dioxane) nmr=giao\\spe\\0,1\C,0,0.0892
 030702,-3.4516812475,-0.4779157393\O,0,-0.1731697618,-2.0430113746,-0.
 5653787622\C,0,-1.2560717057,-1.6170079558,0.1000044504\O,0,-2.0188466
 612,-2.3603148497,0.6863526931\C,0,-1.4741119827,-0.1390681086,-0.0038
 412858\C,0,-2.8213535198,0.2549643075,0.0780721821\C,0,-3.1994120859,1
 .5866937825,-0.0287016175\C,0,-2.219919305,2.563683104,-0.203282537\C,
 0,-0.8748979449,2.2026645642,-0.2574843089\C,0,-0.5003433777,0.8601913
 332,-0.1610667497\I,0,1.6206849211,0.5119569388,-0.1522106617\H,0,1.01
 61018642,-3.6089906855,-1.0280492397\H,0,0.2016018107,-3.7556668971,0.
 5652977003\H,0,-0.729290603,-4.020388436,-0.9256793441\H,0,-3.55784388
 58,-0.526387838,0.2277591335\H,0,-4.2478598343,1.8603896334,0.02738502
 83\H,0,-2.4937782808,3.610952748,-0.2871372933\H,0,-0.1144331191,2.966
 298891,-0.3682556403\\Version=ES64L-G16RevC.02\State=1-A\HF=-757.13953
 27\RMSD=3.675e-09\Dipole=-0.1146762,0.4570515,-0.4281084\Quadrupole=0.
 9596383,5.3492926,-6.3089308,-8.0388495,1.6780713,2.3942142\PG=C01 [X(
 C8H7I1O2)]\\@
 The archive entry for this job was punched.


 ACHIEVEMENT--  THE MAN WHO ROWS THE BOAT GENERALLY 
                DOESN'T HAVE TIME TO ROCK IT.

                   -- FROM THE BACK OF A SUGAR PACKET
 Job cpu time:       0 days  0 hours 11 minutes  5.5 seconds.
 Elapsed time:       0 days  0 hours 11 minutes  7.5 seconds.
 File lengths (MBytes):  RWF=    264 Int=      0 D2E=      0 Chk=     24 Scr=     16
 Normal termination of Gaussian 16 at Tue Sep 17 10:51:44 2024.
