 Entering Gaussian System, Link 0=g16
 Input=smiles_00060_conf_3.gjf
 Output=smiles_00060_conf_3.log
 Initial command:
 /groups/ReismanLab/Software/Gaussian16_RevC/Linux_Binary_AVX2-enabled-CPU/g16/l1.exe "/central/groups/ReismanLab/DM/dft_final/smiles_00060/Gau-1137470.inp" -scrdir="/central/groups/ReismanLab/DM/dft_final/smiles_00060/"
 Entering Link 1 = /groups/ReismanLab/Software/Gaussian16_RevC/Linux_Binary_AVX2-enabled-CPU/g16/l1.exe PID=   1137471.
  
 Copyright (c) 1988-2021, Gaussian, Inc.  All Rights Reserved.
  
 This is part of the Gaussian(R) 16 program.  It is based on
 the Gaussian(R) 09 system (copyright 2009, Gaussian, Inc.),
 the Gaussian(R) 03 system (copyright 2003, Gaussian, Inc.),
 the Gaussian(R) 98 system (copyright 1998, Gaussian, Inc.),
 the Gaussian(R) 94 system (copyright 1995, Gaussian, Inc.),
 the Gaussian 92(TM) system (copyright 1992, Gaussian, Inc.),
 the Gaussian 90(TM) system (copyright 1990, Gaussian, Inc.),
 the Gaussian 88(TM) system (copyright 1988, Gaussian, Inc.),
 the Gaussian 86(TM) system (copyright 1986, Carnegie Mellon
 University), and the Gaussian 82(TM) system (copyright 1983,
 Carnegie Mellon University). Gaussian is a federally registered
 trademark of Gaussian, Inc.
  
 This software contains proprietary and confidential information,
 including trade secrets, belonging to Gaussian, Inc.
  
 This software is provided under written license and may be
 used, copied, transmitted, or stored only in accord with that
 written license.
  
 The following legend is applicable only to US Government
 contracts under FAR:
  
                    RESTRICTED RIGHTS LEGEND
  
 Use, reproduction and disclosure by the US Government is
 subject to restrictions as set forth in subparagraphs (a)
 and (c) of the Commercial Computer Software - Restricted
 Rights clause in FAR 52.227-19.
  
 Gaussian, Inc.
 340 Quinnipiac St., Bldg. 40, Wallingford CT 06492
  
  
 ---------------------------------------------------------------
 Warning -- This program may not be used in any manner that
 competes with the business of Gaussian, Inc. or will provide
 assistance to any competitor of Gaussian, Inc.  The licensee
 of this program is prohibited from giving any competitor of
 Gaussian, Inc. access to this program.  By using this program,
 the user acknowledges that Gaussian, Inc. is engaged in the
 business of creating and licensing software in the field of
 computational chemistry and represents and warrants to the
 licensee that it is not a competitor of Gaussian, Inc. and that
 it will not use this program in any manner prohibited above.
 ---------------------------------------------------------------
  

 Cite this work as:
 Gaussian 16, Revision C.02,
 M. J. Frisch, G. W. Trucks, H. B. Schlegel, G. E. Scuseria, 
 M. A. Robb, J. R. Cheeseman, G. Scalmani, V. Barone, 
 G. A. Petersson, H. Nakatsuji, X. Li, M. Caricato, A. V. Marenich, 
 J. Bloino, B. G. Janesko, R. Gomperts, B. Mennucci, H. P. Hratchian, 
 J. V. Ortiz, A. F. Izmaylov, J. L. Sonnenberg, D. Williams-Young, 
 F. Ding, F. Lipparini, F. Egidi, J. Goings, B. Peng, A. Petrone, 
 T. Henderson, D. Ranasinghe, V. G. Zakrzewski, J. Gao, N. Rega, 
 G. Zheng, W. Liang, M. Hada, M. Ehara, K. Toyota, R. Fukuda, 
 J. Hasegawa, M. Ishida, T. Nakajima, Y. Honda, O. Kitao, H. Nakai, 
 T. Vreven, K. Throssell, J. A. Montgomery, Jr., J. E. Peralta, 
 F. Ogliaro, M. J. Bearpark, J. J. Heyd, E. N. Brothers, K. N. Kudin, 
 V. N. Staroverov, T. A. Keith, R. Kobayashi, J. Normand, 
 K. Raghavachari, A. P. Rendell, J. C. Burant, S. S. Iyengar, 
 J. Tomasi, M. Cossi, J. M. Millam, M. Klene, C. Adamo, R. Cammi, 
 J. W. Ochterski, R. L. Martin, K. Morokuma, O. Farkas, 
 J. B. Foresman, and D. J. Fox, Gaussian, Inc., Wallingford CT, 2019.
 
 ******************************************
 Gaussian 16:  ES64L-G16RevC.02  7-Dec-2021
                17-Sep-2024 
 ******************************************
 %nprocshared=8
 Will use up to    8 processors via shared memory.
 %Mem=10GB
 %Chk=smiles_00060_conf_3.chk
 ----------------------------------------------------------------------
 #p B3LYP/6-31G(d,p) EmpiricalDispersion=GD3BJ opt freq scf(xqc,tight) 
 integral(grid=ultrafine)
 ----------------------------------------------------------------------
 1/18=20,19=15,26=4,38=1/1,3;
 2/9=110,12=2,17=6,18=5,40=1/2;
 3/5=1,6=6,7=101,11=2,25=1,30=1,71=1,74=-5,75=-5,124=41/1,2,3;
 4//1;
 5/5=2,8=3,13=1,32=2,38=5/2,8;
 6/7=2,8=2,9=2,10=2,28=1/1;
 7//1,2,3,16;
 1/18=20,19=15,26=4/3(2);
 2/9=110/2;
 99//99;
 2/9=110/2;
 3/5=1,6=6,7=101,11=2,25=1,30=1,71=1,74=-5,75=-5,124=41/1,2,3;
 4/5=5,16=3,69=1/1;
 5/5=2,8=3,13=1,32=2,38=5/2,8;
 7//1,2,3,16;
 1/18=20,19=15,26=4/3(-5);
 2/9=110/2;
 6/7=2,8=2,9=2,10=2,19=2,28=1/1;
 99/9=1/99;
 Leave Link    1 at Tue Sep 17 09:44:35 2024, MaxMem=  1342177280 cpu:               0.2 elap:               1.0
 (Enter /groups/ReismanLab/Software/Gaussian16_RevC/Linux_Binary_AVX2-enabled-CPU/g16/l101.exe)
 ----------------------------------
 opt-freq conformers_unique/conf_ad
 ----------------------------------
 Symbolic Z-matrix:
 Charge =  0 Multiplicity = 1
 F                     0.00006  -2.9229   -0.77717 
 C                    -0.00663  -1.62587  -0.4313 
 C                     1.20553  -0.96521  -0.33303 
 C                     1.22883   0.38167   0.02413 
 O                     2.31319   1.16852   0.16458 
 C                     3.6417    0.73793  -0.03907 
 C                     4.04611   0.081    -1.37375 
 C                     4.71981  -1.06072  -0.59098 
 C                     4.18639  -0.48099   0.73168 
 C                     0.01318   1.03037   0.27467 
 C                    -1.18497   0.35578   0.17176 
 Br                   -2.8132    1.25622   0.51559 
 C                    -1.21257  -0.98807  -0.18419 
 F                    -2.37446  -1.64865  -0.28535 
 H                     2.09406  -1.533    -0.54132 
 H                     4.21283   1.64719   0.16554 
 H                     3.20272  -0.22051  -1.98949 
 H                     4.71435   0.68617  -1.98164 
 H                     5.80436  -1.04638  -0.65947 
 H                     4.37408  -2.06324  -0.83546 
 H                     3.41609  -1.07606   1.21543 
 H                     4.94427  -0.23579   1.47183 
 H                     0.03272   2.072     0.55069 
 
 ITRead=  0  0  0  0  0  0  0  0  0  0  0  0  0  0  0  0  0  0  0  0
 ITRead=  0  0  0
 MicOpt= -1 -1 -1 -1 -1 -1 -1 -1 -1 -1 -1 -1 -1 -1 -1 -1 -1 -1 -1 -1
 MicOpt= -1 -1 -1
 NAtoms=     23 NQM=       23 NQMF=       0 NMMI=      0 NMMIF=      0
                NMic=       0 NMicF=      0.
                    Isotopes and Nuclear Properties:
 (Nuclear quadrupole moments (NQMom) in fm**2, nuclear magnetic moments (NMagM)
  in nuclear magnetons)

  Atom         1           2           3           4           5           6           7           8           9          10
 IAtWgt=          19          12          12          12          16          12          12          12          12          12
 AtmWgt=  18.9984032  12.0000000  12.0000000  12.0000000  15.9949146  12.0000000  12.0000000  12.0000000  12.0000000  12.0000000
 NucSpn=           1           0           0           0           0           0           0           0           0           0
 AtZEff=  -0.0000000  -0.0000000  -0.0000000  -0.0000000  -0.0000000  -0.0000000  -0.0000000  -0.0000000  -0.0000000  -0.0000000
 NQMom=    0.0000000   0.0000000   0.0000000   0.0000000   0.0000000   0.0000000   0.0000000   0.0000000   0.0000000   0.0000000
 NMagM=    2.6288670   0.0000000   0.0000000   0.0000000   0.0000000   0.0000000   0.0000000   0.0000000   0.0000000   0.0000000
 AtZNuc=   9.0000000   6.0000000   6.0000000   6.0000000   8.0000000   6.0000000   6.0000000   6.0000000   6.0000000   6.0000000

  Atom        11          12          13          14          15          16          17          18          19          20
 IAtWgt=          12          79          12          19           1           1           1           1           1           1
 AtmWgt=  12.0000000  78.9183361  12.0000000  18.9984032   1.0078250   1.0078250   1.0078250   1.0078250   1.0078250   1.0078250
 NucSpn=           0           3           0           1           1           1           1           1           1           1
 AtZEff=  -0.0000000  -0.0000000  -0.0000000  -0.0000000  -0.0000000  -0.0000000  -0.0000000  -0.0000000  -0.0000000  -0.0000000
 NQMom=    0.0000000  31.3000000   0.0000000   0.0000000   0.0000000   0.0000000   0.0000000   0.0000000   0.0000000   0.0000000
 NMagM=    0.0000000   2.1063990   0.0000000   2.6288670   2.7928460   2.7928460   2.7928460   2.7928460   2.7928460   2.7928460
 AtZNuc=   6.0000000  35.0000000   6.0000000   9.0000000   1.0000000   1.0000000   1.0000000   1.0000000   1.0000000   1.0000000

  Atom        21          22          23
 IAtWgt=           1           1           1
 AtmWgt=   1.0078250   1.0078250   1.0078250
 NucSpn=           1           1           1
 AtZEff=  -0.0000000  -0.0000000  -0.0000000
 NQMom=    0.0000000   0.0000000   0.0000000
 NMagM=    2.7928460   2.7928460   2.7928460
 AtZNuc=   1.0000000   1.0000000   1.0000000
 Leave Link  101 at Tue Sep 17 09:44:36 2024, MaxMem=  1342177280 cpu:               0.3 elap:               0.4
 (Enter /groups/ReismanLab/Software/Gaussian16_RevC/Linux_Binary_AVX2-enabled-CPU/g16/l103.exe)

 GradGradGradGradGradGradGradGradGradGradGradGradGradGradGradGradGradGrad
 Berny optimization.
 Initialization pass.
                           ----------------------------
                           !    Initial Parameters    !
                           ! (Angstroms and Degrees)  !
 --------------------------                            --------------------------
 ! Name  Definition              Value          Derivative Info.                !
 --------------------------------------------------------------------------------
 ! R1    R(1,2)                  1.3424         estimate D2E/DX2                !
 ! R2    R(2,3)                  1.384          estimate D2E/DX2                !
 ! R3    R(2,13)                 1.3864         estimate D2E/DX2                !
 ! R4    R(3,4)                  1.3936         estimate D2E/DX2                !
 ! R5    R(3,15)                 1.0748         estimate D2E/DX2                !
 ! R6    R(4,5)                  1.3471         estimate D2E/DX2                !
 ! R7    R(4,10)                 1.4005         estimate D2E/DX2                !
 ! R8    R(5,6)                  1.4113         estimate D2E/DX2                !
 ! R9    R(6,7)                  1.5416         estimate D2E/DX2                !
 ! R10   R(6,9)                  1.5416         estimate D2E/DX2                !
 ! R11   R(6,16)                 1.0931         estimate D2E/DX2                !
 ! R12   R(7,8)                  1.5395         estimate D2E/DX2                !
 ! R13   R(7,17)                 1.0869         estimate D2E/DX2                !
 ! R14   R(7,18)                 1.0873         estimate D2E/DX2                !
 ! R15   R(8,9)                  1.5395         estimate D2E/DX2                !
 ! R16   R(8,19)                 1.0868         estimate D2E/DX2                !
 ! R17   R(8,20)                 1.0883         estimate D2E/DX2                !
 ! R18   R(9,21)                 1.087          estimate D2E/DX2                !
 ! R19   R(9,22)                 1.0873         estimate D2E/DX2                !
 ! R20   R(10,11)                1.3789         estimate D2E/DX2                !
 ! R21   R(10,23)                1.0778         estimate D2E/DX2                !
 ! R22   R(11,12)                1.8921         estimate D2E/DX2                !
 ! R23   R(11,13)                1.3905         estimate D2E/DX2                !
 ! R24   R(13,14)                1.3404         estimate D2E/DX2                !
 ! A1    A(1,2,3)              118.3694         estimate D2E/DX2                !
 ! A2    A(1,2,13)             119.654          estimate D2E/DX2                !
 ! A3    A(3,2,13)             121.9766         estimate D2E/DX2                !
 ! A4    A(2,3,4)              119.6157         estimate D2E/DX2                !
 ! A5    A(2,3,15)             117.2646         estimate D2E/DX2                !
 ! A6    A(4,3,15)             123.1197         estimate D2E/DX2                !
 ! A7    A(3,4,5)              127.2065         estimate D2E/DX2                !
 ! A8    A(3,4,10)             118.62           estimate D2E/DX2                !
 ! A9    A(5,4,10)             114.1736         estimate D2E/DX2                !
 ! A10   A(4,5,6)              124.3656         estimate D2E/DX2                !
 ! A11   A(5,6,7)              120.1247         estimate D2E/DX2                !
 ! A12   A(5,6,9)              120.1119         estimate D2E/DX2                !
 ! A13   A(5,6,16)             102.1832         estimate D2E/DX2                !
 ! A14   A(7,6,9)               90.1855         estimate D2E/DX2                !
 ! A15   A(7,6,16)             112.3013         estimate D2E/DX2                !
 ! A16   A(9,6,16)             112.304          estimate D2E/DX2                !
 ! A17   A(6,7,8)               89.4623         estimate D2E/DX2                !
 ! A18   A(6,7,17)             113.8992         estimate D2E/DX2                !
 ! A19   A(6,7,18)             114.0845         estimate D2E/DX2                !
 ! A20   A(8,7,17)             114.9534         estimate D2E/DX2                !
 ! A21   A(8,7,18)             115.3444         estimate D2E/DX2                !
 ! A22   A(17,7,18)            108.3341         estimate D2E/DX2                !
 ! A23   A(7,8,9)               90.3406         estimate D2E/DX2                !
 ! A24   A(7,8,19)             113.2579         estimate D2E/DX2                !
 ! A25   A(7,8,20)             115.4627         estimate D2E/DX2                !
 ! A26   A(9,8,19)             113.2626         estimate D2E/DX2                !
 ! A27   A(9,8,20)             115.4564         estimate D2E/DX2                !
 ! A28   A(19,8,20)            108.3624         estimate D2E/DX2                !
 ! A29   A(6,9,8)               89.4626         estimate D2E/DX2                !
 ! A30   A(6,9,21)             113.89           estimate D2E/DX2                !
 ! A31   A(6,9,22)             114.0975         estimate D2E/DX2                !
 ! A32   A(8,9,21)             114.9452         estimate D2E/DX2                !
 ! A33   A(8,9,22)             115.3559         estimate D2E/DX2                !
 ! A34   A(21,9,22)            108.3284         estimate D2E/DX2                !
 ! A35   A(4,10,11)            120.95           estimate D2E/DX2                !
 ! A36   A(4,10,23)            118.5387         estimate D2E/DX2                !
 ! A37   A(11,10,23)           120.5113         estimate D2E/DX2                !
 ! A38   A(10,11,12)           120.0906         estimate D2E/DX2                !
 ! A39   A(10,11,13)           120.6105         estimate D2E/DX2                !
 ! A40   A(12,11,13)           119.2989         estimate D2E/DX2                !
 ! A41   A(2,13,11)            118.2272         estimate D2E/DX2                !
 ! A42   A(2,13,14)            120.9195         estimate D2E/DX2                !
 ! A43   A(11,13,14)           120.8532         estimate D2E/DX2                !
 ! D1    D(1,2,3,4)            179.997          estimate D2E/DX2                !
 ! D2    D(1,2,3,15)             0.0063         estimate D2E/DX2                !
 ! D3    D(13,2,3,4)            -0.0004         estimate D2E/DX2                !
 ! D4    D(13,2,3,15)         -179.9911         estimate D2E/DX2                !
 ! D5    D(1,2,13,11)         -179.9908         estimate D2E/DX2                !
 ! D6    D(1,2,13,14)            0.017          estimate D2E/DX2                !
 ! D7    D(3,2,13,11)            0.0066         estimate D2E/DX2                !
 ! D8    D(3,2,13,14)         -179.9856         estimate D2E/DX2                !
 ! D9    D(2,3,4,5)            179.9794         estimate D2E/DX2                !
 ! D10   D(2,3,4,10)            -0.004          estimate D2E/DX2                !
 ! D11   D(15,3,4,5)            -0.0304         estimate D2E/DX2                !
 ! D12   D(15,3,4,10)          179.9861         estimate D2E/DX2                !
 ! D13   D(3,4,5,6)              0.2073         estimate D2E/DX2                !
 ! D14   D(10,4,5,6)          -179.8086         estimate D2E/DX2                !
 ! D15   D(3,4,10,11)            0.0023         estimate D2E/DX2                !
 ! D16   D(3,4,10,23)         -179.9945         estimate D2E/DX2                !
 ! D17   D(5,4,10,11)         -179.9833         estimate D2E/DX2                !
 ! D18   D(5,4,10,23)            0.0199         estimate D2E/DX2                !
 ! D19   D(4,5,6,7)             54.8235         estimate D2E/DX2                !
 ! D20   D(4,5,6,9)            -55.1051         estimate D2E/DX2                !
 ! D21   D(4,5,6,16)           179.8617         estimate D2E/DX2                !
 ! D22   D(5,6,7,8)           -131.1855         estimate D2E/DX2                !
 ! D23   D(5,6,7,17)           -13.972          estimate D2E/DX2                !
 ! D24   D(5,6,7,18)           111.1234         estimate D2E/DX2                !
 ! D25   D(9,6,7,8)             -5.6003         estimate D2E/DX2                !
 ! D26   D(9,6,7,17)           111.6133         estimate D2E/DX2                !
 ! D27   D(9,6,7,18)          -123.2913         estimate D2E/DX2                !
 ! D28   D(16,6,7,8)           108.701          estimate D2E/DX2                !
 ! D29   D(16,6,7,17)         -134.0855         estimate D2E/DX2                !
 ! D30   D(16,6,7,18)           -8.9901         estimate D2E/DX2                !
 ! D31   D(5,6,9,8)            131.196          estimate D2E/DX2                !
 ! D32   D(5,6,9,21)            13.9935         estimate D2E/DX2                !
 ! D33   D(5,6,9,22)          -111.0972         estimate D2E/DX2                !
 ! D34   D(7,6,9,8)              5.6004         estimate D2E/DX2                !
 ! D35   D(7,6,9,21)          -111.6021         estimate D2E/DX2                !
 ! D36   D(7,6,9,22)           123.3072         estimate D2E/DX2                !
 ! D37   D(16,6,9,8)          -108.6984         estimate D2E/DX2                !
 ! D38   D(16,6,9,21)          134.0991         estimate D2E/DX2                !
 ! D39   D(16,6,9,22)            9.0084         estimate D2E/DX2                !
 ! D40   D(6,7,8,9)              5.608          estimate D2E/DX2                !
 ! D41   D(6,7,8,19)          -110.0146         estimate D2E/DX2                !
 ! D42   D(6,7,8,20)           124.222          estimate D2E/DX2                !
 ! D43   D(17,7,8,9)          -110.6551         estimate D2E/DX2                !
 ! D44   D(17,7,8,19)          133.7223         estimate D2E/DX2                !
 ! D45   D(17,7,8,20)            7.9588         estimate D2E/DX2                !
 ! D46   D(18,7,8,9)           122.167          estimate D2E/DX2                !
 ! D47   D(18,7,8,19)            6.5444         estimate D2E/DX2                !
 ! D48   D(18,7,8,20)         -119.219          estimate D2E/DX2                !
 ! D49   D(7,8,9,6)             -5.6079         estimate D2E/DX2                !
 ! D50   D(7,8,9,21)           110.6432         estimate D2E/DX2                !
 ! D51   D(7,8,9,22)          -122.1843         estimate D2E/DX2                !
 ! D52   D(19,8,9,6)           110.0105         estimate D2E/DX2                !
 ! D53   D(19,8,9,21)         -133.7383         estimate D2E/DX2                !
 ! D54   D(19,8,9,22)           -6.5659         estimate D2E/DX2                !
 ! D55   D(20,8,9,6)          -124.2274         estimate D2E/DX2                !
 ! D56   D(20,8,9,21)           -7.9763         estimate D2E/DX2                !
 ! D57   D(20,8,9,22)          119.1962         estimate D2E/DX2                !
 ! D58   D(4,10,11,12)        -179.9951         estimate D2E/DX2                !
 ! D59   D(4,10,11,13)           0.004          estimate D2E/DX2                !
 ! D60   D(23,10,11,12)          0.0016         estimate D2E/DX2                !
 ! D61   D(23,10,11,13)       -179.9993         estimate D2E/DX2                !
 ! D62   D(10,11,13,2)          -0.0083         estimate D2E/DX2                !
 ! D63   D(10,11,13,14)        179.9839         estimate D2E/DX2                !
 ! D64   D(12,11,13,2)         179.9908         estimate D2E/DX2                !
 ! D65   D(12,11,13,14)         -0.017          estimate D2E/DX2                !
 --------------------------------------------------------------------------------
 Trust Radius=3.00D-01 FncErr=1.00D-07 GrdErr=1.00D-06 EigMax=2.50D+02 EigMin=1.00D-04
 Number of steps in this run=    138 maximum allowed number of steps=    138.
 GradGradGradGradGradGradGradGradGradGradGradGradGradGradGradGradGradGrad

 Leave Link  103 at Tue Sep 17 09:44:36 2024, MaxMem=  1342177280 cpu:               0.0 elap:               0.0
 (Enter /groups/ReismanLab/Software/Gaussian16_RevC/Linux_Binary_AVX2-enabled-CPU/g16/l202.exe)
                          Input orientation:                          
 ---------------------------------------------------------------------
 Center     Atomic      Atomic             Coordinates (Angstroms)
 Number     Number       Type             X           Y           Z
 ---------------------------------------------------------------------
      1          9           0        0.000063   -2.922903   -0.777171
      2          6           0       -0.006635   -1.625872   -0.431296
      3          6           0        1.205533   -0.965208   -0.333034
      4          6           0        1.228831    0.381666    0.024127
      5          8           0        2.313193    1.168519    0.164580
      6          6           0        3.641704    0.737929   -0.039069
      7          6           0        4.046109    0.081004   -1.373749
      8          6           0        4.719814   -1.060717   -0.590981
      9          6           0        4.186395   -0.480993    0.731684
     10          6           0        0.013184    1.030373    0.274666
     11          6           0       -1.184967    0.355781    0.171758
     12         35           0       -2.813203    1.256224    0.515588
     13          6           0       -1.212575   -0.988073   -0.184186
     14          9           0       -2.374465   -1.648648   -0.285345
     15          1           0        2.094060   -1.533002   -0.541318
     16          1           0        4.212834    1.647192    0.165545
     17          1           0        3.202718   -0.220505   -1.989486
     18          1           0        4.714355    0.686166   -1.981641
     19          1           0        5.804356   -1.046378   -0.659472
     20          1           0        4.374081   -2.063236   -0.835460
     21          1           0        3.416088   -1.076064    1.215427
     22          1           0        4.944266   -0.235789    1.471834
     23          1           0        0.032722    2.072002    0.550691
 ---------------------------------------------------------------------
                    Distance matrix (angstroms):
                    1          2          3          4          5
     1  F    0.000000
     2  C    1.342372   0.000000
     3  C    2.341578   1.384010   0.000000
     4  C    3.615540   2.400833   1.393620   0.000000
     5  O    4.793453   3.680393   2.455060   1.347110   0.000000
     6  C    5.216132   4.364834   2.986975   2.439851   1.411319
     7  C    5.074431   4.497375   3.201018   3.159353   2.559716
     8  C    5.077248   4.762795   3.525029   3.826982   3.366331
     9  C    5.075918   4.499419   3.202128   3.161013   2.559566
    10  C    4.090835   2.748530   2.402778   1.400495   2.306782
    11  C    3.613106   2.383084   2.777466   2.418447   3.591340
    12  Br   5.201039   4.132783   4.669600   4.164664   5.139147
    13  C    2.359171   1.386413   2.422793   2.807141   4.147718
    14  F    2.739344   2.372433   3.644962   4.147492   5.487531
    15  H    2.524337   2.105624   1.074827   2.175846   2.800808
    16  H    6.286646   5.373368   4.014607   3.244353   1.959021
    17  H    4.362300   3.834444   2.699475   2.883311   2.713051
    18  H    6.058108   5.480587   4.213878   4.032953   3.256457
    19  H    6.101230   5.844270   4.611108   4.841699   4.215809
    20  H    4.458078   4.421008   3.390839   4.075418   3.961259
    21  H    4.364687   3.837841   2.701217   2.885874   2.712712
    22  H    6.060012   5.483216   4.215177   4.035042   3.256307
    23  H    5.168498   3.826242   3.373589   2.136629   2.483126
                    6          7          8          9         10
     6  C    0.000000
     7  C    1.541579   0.000000
     8  C    2.168422   1.539523   0.000000
     9  C    1.541596   2.183660   1.539500   0.000000
    10  C    3.653780   4.459042   5.222486   4.461926   0.000000
    11  C    4.846363   5.461525   6.120023   5.464910   1.378852
    12  Br   6.499392   7.211165   7.958584   7.215191   2.845614
    13  C    5.154043   5.496521   5.946763   5.499529   2.405651
    14  F    6.476935   6.737959   7.125157   6.741116   3.632029
    15  H    2.793668   2.666168   2.668352   2.665543   3.400995
    16  H    1.093076   2.202310   2.856945   2.202359   4.246107
    17  H    2.217078   1.086898   2.227858   2.905209   4.106605
    18  H    2.219650   1.087339   2.232837   3.000522   5.225936
    19  H    2.871535   2.207400   1.086797   2.207436   6.222795
    20  H    3.002855   2.234968   1.088276   2.234873   5.460789
    21  H    2.217033   2.905094   2.227790   1.086963   4.111188
    22  H    2.219825   3.000731   2.232955   1.087343   5.229909
    23  H    3.892598   4.875943   5.752059   4.878887   1.077758
                   11         12         13         14         15
    11  C    0.000000
    12  Br   1.892134   0.000000
    13  C    1.390468   2.844041   0.000000
    14  F    2.375201   3.045040   1.340366   0.000000
    15  H    3.850714   5.742654   3.370212   4.477344   0.000000
    16  H    5.550139   7.045607   6.041688   7.379591   3.886193
    17  H    4.924923   6.681874   4.831468   6.004053   2.246990
    18  H    6.288743   7.951431   6.415794   7.653766   3.723598
    19  H    7.176881   8.996947   7.033250   8.209495   3.743936
    20  H    6.145661   8.031264   5.726330   6.783611   2.359271
    21  H    4.930430   6.688304   4.836443   6.009216   2.245597
    22  H    6.293461   7.957313   6.419892   7.658176   3.722796
    23  H    2.138171   2.960745   3.384504   4.509627   4.293910
                   16         17         18         19         20
    16  H    0.000000
    17  H    3.025358   0.000000
    18  H    2.405308   1.762714   0.000000
    19  H    3.235571   3.036367   2.436789   0.000000
    20  H    3.846464   2.469721   2.998120   1.763705   0.000000
    21  H    3.025422   3.324001   3.874558   3.036437   2.469494
    22  H    2.405619   3.874785   3.581808   2.437062   2.998045
    23  H    4.219258   4.664437   5.500086   6.670873   6.153780
                   21         22         23
    21  H    0.000000
    22  H    1.762706   0.000000
    23  H    4.668979   5.504332   0.000000
 Stoichiometry    C10H9BrF2O
 Framework group  C1[X(C10H9BrF2O)]
 Deg. of freedom    63
 Full point group                 C1      NOp   1
 Largest Abelian subgroup         C1      NOp   1
 Largest concise Abelian subgroup C1      NOp   1
                         Standard orientation:                         
 ---------------------------------------------------------------------
 Center     Atomic      Atomic             Coordinates (Angstroms)
 Number     Number       Type             X           Y           Z
 ---------------------------------------------------------------------
      1          9           0        0.251529    2.981369   -0.000538
      2          6           0        0.024592    1.658318   -0.000859
      3          6           0        1.113682    0.804289   -0.001762
      4          6           0        0.908012   -0.574072   -0.002051
      5          8           0        1.848969   -1.538075   -0.003285
      6          6           0        3.239095   -1.294433   -0.000306
      7          6           0        3.866773   -0.407393    1.093150
      8          6           0        4.613423    0.382847    0.003120
      9          6           0        3.870972   -0.406336   -1.090506
     10          6           0       -0.406905   -1.056130   -0.001324
     11          6           0       -1.479735   -0.189950   -0.000390
     12         35           0       -3.246279   -0.867805    0.000718
     13          6           0       -1.278863    1.185933   -0.000231
     14          9           0       -2.318171    2.032347    0.000351
     15          1           0        2.090695    1.252282   -0.002056
     16          1           0        3.650765   -2.307026    0.000032
     17          1           0        3.142111    0.169044    1.662300
     18          1           0        4.500109   -0.947157    1.793040
     19          1           0        5.686093    0.208194    0.005150
     20          1           0        4.441029    1.457381    0.003228
     21          1           0        3.148342    0.170759   -1.661694
     22          1           0        4.506823   -0.945267   -1.788762
     23          1           0       -0.564447   -2.122311   -0.001457
 ---------------------------------------------------------------------
 Rotational constants (GHZ):           1.0075620           0.2577136           0.2122273
 Leave Link  202 at Tue Sep 17 09:44:36 2024, MaxMem=  1342177280 cpu:               0.1 elap:               0.0
 (Enter /groups/ReismanLab/Software/Gaussian16_RevC/Linux_Binary_AVX2-enabled-CPU/g16/l301.exe)
 Standard basis: 6-31G(d,p) (6D, 7F)
 Ernie: Thresh=  0.10000D-02 Tol=  0.10000D-05 Strict=F.
 There are   270 symmetry adapted cartesian basis functions of A   symmetry.
 There are   270 symmetry adapted basis functions of A   symmetry.
   270 basis functions,   510 primitive gaussians,   270 cartesian basis functions
    65 alpha electrons       65 beta electrons
       nuclear repulsion energy      1195.7558450920 Hartrees.
 IExCor=  402 DFT=T Ex+Corr=B3LYP ExCW=0 ScaHFX=  0.200000
 ScaDFX=  0.800000  0.720000  1.000000  0.810000 ScalE2=  1.000000  1.000000
 IRadAn=      5 IRanWt=     -1 IRanGd=            0 ICorTp=0 IEmpDi=141
 NAtoms=   23 NActive=   23 NUniq=   23 SFac= 1.00D+00 NAtFMM=   60 NAOKFM=F Big=F
 Integral buffers will be    131072 words long.
 Raffenetti 2 integral format.
 Two-electron integral symmetry is turned on.
 R6Disp:  Grimme-D3(BJ) Dispersion energy=       -0.0470385637 Hartrees.
 Nuclear repulsion after empirical dispersion term =     1195.7088065283 Hartrees.
 Leave Link  301 at Tue Sep 17 09:44:36 2024, MaxMem=  1342177280 cpu:               0.1 elap:               0.1
 (Enter /groups/ReismanLab/Software/Gaussian16_RevC/Linux_Binary_AVX2-enabled-CPU/g16/l302.exe)
 NPDir=0 NMtPBC=     1 NCelOv=     1 NCel=       1 NClECP=     1 NCelD=      1
         NCelK=      1 NCelE2=     1 NClLst=     1 CellRange=     0.0.
 One-electron integrals computed using PRISM.
 One-electron integral symmetry used in STVInt
 NBasis=   270 RedAO= T EigKep=  3.76D-04  NBF=   270
 NBsUse=   270 1.00D-06 EigRej= -1.00D+00 NBFU=   270
 Precomputing XC quadrature grid using
 IXCGrd= 4 IRadAn=           5 IRanWt=          -1 IRanGd=           0 AccXCQ= 0.00D+00.
 Generated NRdTot=       0 NPtTot=           0 NUsed=           0 NTot=          32
 NSgBfM=   268   268   268   268   268 MxSgAt=    23 MxSgA2=    23.
 Leave Link  302 at Tue Sep 17 09:44:36 2024, MaxMem=  1342177280 cpu:               1.2 elap:               0.2
 (Enter /groups/ReismanLab/Software/Gaussian16_RevC/Linux_Binary_AVX2-enabled-CPU/g16/l303.exe)
 DipDrv:  MaxL=1.
 Leave Link  303 at Tue Sep 17 09:44:36 2024, MaxMem=  1342177280 cpu:               0.1 elap:               0.0
 (Enter /groups/ReismanLab/Software/Gaussian16_RevC/Linux_Binary_AVX2-enabled-CPU/g16/l401.exe)
 ExpMin= 1.43D-01 ExpMax= 5.74D+05 ExpMxC= 5.74D+03 IAcc=3 IRadAn=         5 AccDes= 0.00D+00
 Harris functional with IExCor=  402 and IRadAn=       5 diagonalized for initial guess.
 HarFok:  IExCor=  402 AccDes= 0.00D+00 IRadAn=         5 IDoV= 1 UseB2=F ITyADJ=14
 ICtDFT=  3500011 ScaDFX=  1.000000  1.000000  1.000000  1.000000
 FoFCou: FMM=F IPFlag=           0 FMFlag=      100000 FMFlg1=           0
         NFxFlg=           0 DoJE=T BraDBF=F KetDBF=T FulRan=T
         wScrn=  0.000000 ICntrl=       500 IOpCl=  0 I1Cent=   200000004 NGrid=           0
         NMat0=    1 NMatS0=      1 NMatT0=    0 NMatD0=    1 NMtDS0=    0 NMtDT0=    0
 Petite list used in FoFCou.
 Harris En= -3233.18317068768    
 JPrj=0 DoOrth=F DoCkMO=F.
 Leave Link  401 at Tue Sep 17 09:44:37 2024, MaxMem=  1342177280 cpu:               5.6 elap:               0.8
 (Enter /groups/ReismanLab/Software/Gaussian16_RevC/Linux_Binary_AVX2-enabled-CPU/g16/l502.exe)
 Integral symmetry usage will be decided dynamically.
 Closed shell SCF:
 Using DIIS extrapolation, IDIIS=  1040.
 NGot=  1342177280 LenX=  1342025931 LenY=  1341952590
 Requested convergence on RMS density matrix=1.00D-08 within  32 cycles.
 Requested convergence on MAX density matrix=1.00D-06.
 Requested convergence on             energy=1.00D-06.
 No special actions if energy rises.
 Fock matrices will be formed incrementally for  20 cycles.
 Integral accuracy reduced to 1.0D-05 until final iterations.

 Cycle   1  Pass 0  IDiag  1:
 FoFJK:  IHMeth= 1 ICntrl=       0 DoSepK=F KAlg= 0 I1Cent=           0 FoldK=F
 IRaf= 820000000 NMat=       1 IRICut=       1 DoRegI=T DoRafI=F ISym2E= 0 IDoP0=0 IntGTp=1.
 FoFCou: FMM=F IPFlag=           0 FMFlag=      100000 FMFlg1=           0
         NFxFlg=           0 DoJE=F BraDBF=F KetDBF=F FulRan=T
         wScrn=  0.000000 ICntrl=         0 IOpCl=  0 I1Cent=           0 NGrid=           0
         NMat0=    1 NMatS0=      1 NMatT0=    0 NMatD0=    1 NMtDS0=    0 NMtDT0=    0
 Symmetry not used in FoFCou.
 E= -3232.82446337888    
 DIIS: error= 1.57D-01 at cycle   1 NSaved=   1.
 NSaved= 1 IEnMin= 1 EnMin= -3232.82446337888     IErMin= 1 ErrMin= 1.57D-01
 ErrMax= 1.57D-01  0.00D+00 EMaxC= 1.00D-01 BMatC= 6.17D-01 BMatP= 6.17D-01
 IDIUse=3 WtCom= 0.00D+00 WtEn= 1.00D+00
 Coeff-Com:  0.100D+01
 Coeff-En:   0.100D+01
 Coeff:      0.100D+01
 Gap=     0.227 Goal=   None    Shift=    0.000
 GapD=    0.227 DampG=1.000 DampE=0.250 DampFc=0.2500 IDamp=-1.
 Damping current iteration by 2.50D-01
 RMSDP=4.36D-03 MaxDP=1.44D-01              OVMax= 2.33D-01

 Cycle   2  Pass 0  IDiag  1:
 RMSU=  1.06D-03    CP:  9.93D-01
 E= -3232.91885798178     Delta-E=       -0.094394602892 Rises=F Damp=T
 DIIS: error= 1.16D-01 at cycle   2 NSaved=   2.
 NSaved= 2 IEnMin= 2 EnMin= -3232.91885798178     IErMin= 2 ErrMin= 1.16D-01
 ErrMax= 1.16D-01  0.00D+00 EMaxC= 1.00D-01 BMatC= 2.62D-01 BMatP= 6.17D-01
 IDIUse=3 WtCom= 0.00D+00 WtEn= 1.00D+00
 Coeff-Com: -0.135D+01 0.235D+01
 Coeff-En:   0.000D+00 0.100D+01
 Coeff:      0.000D+00 0.100D+01
 Gap=     0.213 Goal=   None    Shift=    0.000
 RMSDP=2.24D-03 MaxDP=1.10D-01 DE=-9.44D-02 OVMax= 1.12D-01

 Cycle   3  Pass 0  IDiag  1:
 RMSU=  8.22D-04    CP:  9.73D-01  2.85D+00
 E= -3233.03087827394     Delta-E=       -0.112020292163 Rises=F Damp=F
 DIIS: error= 1.22D-02 at cycle   3 NSaved=   3.
 NSaved= 3 IEnMin= 3 EnMin= -3233.03087827394     IErMin= 3 ErrMin= 1.22D-02
 ErrMax= 1.22D-02  0.00D+00 EMaxC= 1.00D-01 BMatC= 5.82D-02 BMatP= 2.62D-01
 IDIUse=3 WtCom= 8.78D-01 WtEn= 1.22D-01
 Coeff-Com:  0.153D+01-0.195D+01 0.142D+01
 Coeff-En:   0.122D+00 0.000D+00 0.878D+00
 Coeff:      0.136D+01-0.171D+01 0.135D+01
 Gap=     0.208 Goal=   None    Shift=    0.000
 RMSDP=1.08D-03 MaxDP=3.50D-02 DE=-1.12D-01 OVMax= 4.37D-02

 Cycle   4  Pass 0  IDiag  1:
 RMSU=  5.81D-04    CP:  9.73D-01  2.00D+00  1.13D+00
 E= -3233.07970916801     Delta-E=       -0.048830894069 Rises=F Damp=F
 DIIS: error= 4.08D-03 at cycle   4 NSaved=   4.
 NSaved= 4 IEnMin= 4 EnMin= -3233.07970916801     IErMin= 4 ErrMin= 4.08D-03
 ErrMax= 4.08D-03  0.00D+00 EMaxC= 1.00D-01 BMatC= 8.17D-03 BMatP= 5.82D-02
 IDIUse=3 WtCom= 9.59D-01 WtEn= 4.08D-02
 Coeff-Com:  0.859D+00-0.112D+01 0.784D+00 0.480D+00
 Coeff-En:   0.000D+00 0.000D+00 0.000D+00 0.100D+01
 Coeff:      0.823D+00-0.108D+01 0.752D+00 0.501D+00
 Gap=     0.208 Goal=   None    Shift=    0.000
 RMSDP=4.43D-04 MaxDP=1.67D-02 DE=-4.88D-02 OVMax= 4.76D-02

 Cycle   5  Pass 0  IDiag  1:
 RMSU=  1.51D-04    CP:  9.74D-01  2.04D+00  1.30D+00  3.29D-01
 E= -3233.08764565165     Delta-E=       -0.007936483642 Rises=F Damp=F
 DIIS: error= 1.17D-03 at cycle   5 NSaved=   5.
 NSaved= 5 IEnMin= 5 EnMin= -3233.08764565165     IErMin= 5 ErrMin= 1.17D-03
 ErrMax= 1.17D-03  0.00D+00 EMaxC= 1.00D-01 BMatC= 6.05D-04 BMatP= 8.17D-03
 IDIUse=3 WtCom= 9.88D-01 WtEn= 1.17D-02
 Coeff-Com:  0.273D+00-0.359D+00 0.260D+00 0.266D+00 0.559D+00
 Coeff-En:   0.000D+00 0.000D+00 0.000D+00 0.128D-01 0.987D+00
 Coeff:      0.270D+00-0.355D+00 0.257D+00 0.264D+00 0.564D+00
 Gap=     0.206 Goal=   None    Shift=    0.000
 RMSDP=1.21D-04 MaxDP=5.13D-03 DE=-7.94D-03 OVMax= 1.26D-02

 Cycle   6  Pass 0  IDiag  1:
 RMSU=  5.56D-05    CP:  9.74D-01  2.06D+00  1.28D+00  4.41D-01  4.58D-01
 E= -3233.08823434432     Delta-E=       -0.000588692672 Rises=F Damp=F
 DIIS: error= 5.58D-04 at cycle   6 NSaved=   6.
 NSaved= 6 IEnMin= 6 EnMin= -3233.08823434432     IErMin= 6 ErrMin= 5.58D-04
 ErrMax= 5.58D-04  0.00D+00 EMaxC= 1.00D-01 BMatC= 7.53D-05 BMatP= 6.05D-04
 IDIUse=3 WtCom= 9.94D-01 WtEn= 5.58D-03
 Coeff-Com:  0.670D-01-0.882D-01 0.701D-01 0.111D+00 0.343D+00 0.497D+00
 Coeff-En:   0.000D+00 0.000D+00 0.000D+00 0.000D+00 0.121D-01 0.988D+00
 Coeff:      0.666D-01-0.877D-01 0.697D-01 0.110D+00 0.341D+00 0.500D+00
 Gap=     0.207 Goal=   None    Shift=    0.000
 RMSDP=3.44D-05 MaxDP=1.83D-03 DE=-5.89D-04 OVMax= 2.29D-03

 Cycle   7  Pass 0  IDiag  1:
 RMSU=  1.63D-05    CP:  9.73D-01  2.06D+00  1.28D+00  4.39D-01  5.58D-01
                    CP:  5.29D-01
 E= -3233.08829115670     Delta-E=       -0.000056812380 Rises=F Damp=F
 DIIS: error= 1.27D-04 at cycle   7 NSaved=   7.
 NSaved= 7 IEnMin= 7 EnMin= -3233.08829115670     IErMin= 7 ErrMin= 1.27D-04
 ErrMax= 1.27D-04  0.00D+00 EMaxC= 1.00D-01 BMatC= 3.40D-06 BMatP= 7.53D-05
 IDIUse=3 WtCom= 9.99D-01 WtEn= 1.27D-03
 Coeff-Com:  0.159D-01-0.209D-01 0.188D-01 0.390D-01 0.139D+00 0.261D+00
 Coeff-Com:  0.548D+00
 Coeff-En:   0.000D+00 0.000D+00 0.000D+00 0.000D+00 0.000D+00 0.000D+00
 Coeff-En:   0.100D+01
 Coeff:      0.159D-01-0.209D-01 0.188D-01 0.389D-01 0.139D+00 0.260D+00
 Coeff:      0.548D+00
 Gap=     0.207 Goal=   None    Shift=    0.000
 RMSDP=8.71D-06 MaxDP=3.23D-04 DE=-5.68D-05 OVMax= 6.05D-04

 Initial convergence to 1.0D-05 achieved.  Increase integral accuracy.
 Cycle   8  Pass 1  IDiag  1:
 E= -3233.08834320073     Delta-E=       -0.000052044024 Rises=F Damp=F
 DIIS: error= 4.25D-05 at cycle   1 NSaved=   1.
 NSaved= 1 IEnMin= 1 EnMin= -3233.08834320073     IErMin= 1 ErrMin= 4.25D-05
 ErrMax= 4.25D-05  0.00D+00 EMaxC= 1.00D-01 BMatC= 5.10D-07 BMatP= 5.10D-07
 IDIUse=1 WtCom= 1.00D+00 WtEn= 0.00D+00
 Coeff-Com:  0.100D+01
 Coeff:      0.100D+01
 Gap=     0.207 Goal=   None    Shift=    0.000
 RMSDP=8.71D-06 MaxDP=3.23D-04 DE=-5.20D-05 OVMax= 4.48D-04

 Cycle   9  Pass 1  IDiag  1:
 RMSU=  1.30D-05    CP:  1.00D+00
 E= -3233.08834272723     Delta-E=        0.000000473494 Rises=F Damp=F
 DIIS: error= 4.39D-05 at cycle   2 NSaved=   2.
 NSaved= 2 IEnMin= 1 EnMin= -3233.08834320073     IErMin= 1 ErrMin= 4.25D-05
 ErrMax= 4.39D-05  0.00D+00 EMaxC= 1.00D-01 BMatC= 8.49D-07 BMatP= 5.10D-07
 IDIUse=1 WtCom= 1.00D+00 WtEn= 0.00D+00
 Coeff-Com:  0.574D+00 0.426D+00
 Coeff:      0.574D+00 0.426D+00
 Gap=     0.207 Goal=   None    Shift=    0.000
 RMSDP=4.50D-06 MaxDP=1.49D-04 DE= 4.73D-07 OVMax= 4.19D-04

 Cycle  10  Pass 1  IDiag  1:
 RMSU=  4.06D-06    CP:  1.00D+00  8.50D-01
 E= -3233.08834355880     Delta-E=       -0.000000831564 Rises=F Damp=F
 DIIS: error= 1.18D-05 at cycle   3 NSaved=   3.
 NSaved= 3 IEnMin= 3 EnMin= -3233.08834355880     IErMin= 3 ErrMin= 1.18D-05
 ErrMax= 1.18D-05  0.00D+00 EMaxC= 1.00D-01 BMatC= 6.35D-08 BMatP= 5.10D-07
 IDIUse=1 WtCom= 1.00D+00 WtEn= 0.00D+00
 Coeff-Com:  0.901D-01 0.221D+00 0.689D+00
 Coeff:      0.901D-01 0.221D+00 0.689D+00
 Gap=     0.207 Goal=   None    Shift=    0.000
 RMSDP=1.28D-06 MaxDP=6.78D-05 DE=-8.32D-07 OVMax= 1.18D-04

 Cycle  11  Pass 1  IDiag  1:
 RMSU=  9.20D-07    CP:  1.00D+00  8.81D-01  8.04D-01
 E= -3233.08834361296     Delta-E=       -0.000000054167 Rises=F Damp=F
 DIIS: error= 4.90D-06 at cycle   4 NSaved=   4.
 NSaved= 4 IEnMin= 4 EnMin= -3233.08834361296     IErMin= 4 ErrMin= 4.90D-06
 ErrMax= 4.90D-06  0.00D+00 EMaxC= 1.00D-01 BMatC= 1.27D-08 BMatP= 6.35D-08
 IDIUse=1 WtCom= 1.00D+00 WtEn= 0.00D+00
 Coeff-Com:  0.977D-03 0.962D-01 0.420D+00 0.483D+00
 Coeff:      0.977D-03 0.962D-01 0.420D+00 0.483D+00
 Gap=     0.207 Goal=   None    Shift=    0.000
 RMSDP=4.67D-07 MaxDP=2.18D-05 DE=-5.42D-08 OVMax= 3.75D-05

 Cycle  12  Pass 1  IDiag  1:
 RMSU=  1.24D-07    CP:  1.00D+00  8.83D-01  8.18D-01  5.17D-01
 E= -3233.08834362541     Delta-E=       -0.000000012451 Rises=F Damp=F
 DIIS: error= 5.67D-07 at cycle   5 NSaved=   5.
 NSaved= 5 IEnMin= 5 EnMin= -3233.08834362541     IErMin= 5 ErrMin= 5.67D-07
 ErrMax= 5.67D-07  0.00D+00 EMaxC= 1.00D-01 BMatC= 1.98D-10 BMatP= 1.27D-08
 IDIUse=1 WtCom= 1.00D+00 WtEn= 0.00D+00
 Coeff-Com: -0.117D-02 0.468D-01 0.208D+00 0.253D+00 0.493D+00
 Coeff:     -0.117D-02 0.468D-01 0.208D+00 0.253D+00 0.493D+00
 Gap=     0.207 Goal=   None    Shift=    0.000
 RMSDP=6.72D-08 MaxDP=2.20D-06 DE=-1.25D-08 OVMax= 4.71D-06

 Cycle  13  Pass 1  IDiag  1:
 RMSU=  4.35D-08    CP:  1.00D+00  8.84D-01  8.17D-01  5.07D-01  6.01D-01
 E= -3233.08834362557     Delta-E=       -0.000000000161 Rises=F Damp=F
 DIIS: error= 1.95D-07 at cycle   6 NSaved=   6.
 NSaved= 6 IEnMin= 6 EnMin= -3233.08834362557     IErMin= 6 ErrMin= 1.95D-07
 ErrMax= 1.95D-07  0.00D+00 EMaxC= 1.00D-01 BMatC= 1.51D-11 BMatP= 1.98D-10
 IDIUse=1 WtCom= 1.00D+00 WtEn= 0.00D+00
 Coeff-Com: -0.731D-03 0.163D-01 0.732D-01 0.910D-01 0.265D+00 0.556D+00
 Coeff:     -0.731D-03 0.163D-01 0.732D-01 0.910D-01 0.265D+00 0.556D+00
 Gap=     0.207 Goal=   None    Shift=    0.000
 RMSDP=1.92D-08 MaxDP=7.07D-07 DE=-1.61D-10 OVMax= 1.80D-06

 Cycle  14  Pass 1  IDiag  1:
 RMSU=  1.33D-08    CP:  1.00D+00  8.84D-01  8.17D-01  5.09D-01  6.60D-01
                    CP:  7.37D-01
 E= -3233.08834362559     Delta-E=       -0.000000000013 Rises=F Damp=F
 DIIS: error= 5.47D-08 at cycle   7 NSaved=   7.
 NSaved= 7 IEnMin= 7 EnMin= -3233.08834362559     IErMin= 7 ErrMin= 5.47D-08
 ErrMax= 5.47D-08  0.00D+00 EMaxC= 1.00D-01 BMatC= 1.20D-12 BMatP= 1.51D-11
 IDIUse=1 WtCom= 1.00D+00 WtEn= 0.00D+00
 Coeff-Com: -0.294D-03 0.504D-02 0.227D-01 0.287D-01 0.104D+00 0.285D+00
 Coeff-Com:  0.554D+00
 Coeff:     -0.294D-03 0.504D-02 0.227D-01 0.287D-01 0.104D+00 0.285D+00
 Coeff:      0.554D+00
 Gap=     0.207 Goal=   None    Shift=    0.000
 RMSDP=6.40D-09 MaxDP=2.44D-07 DE=-1.27D-11 OVMax= 6.68D-07

 SCF Done:  E(RB3LYP) =  -3233.08834363     A.U. after   14 cycles
            NFock= 14  Conv=0.64D-08     -V/T= 2.0066
 KE= 3.212036900820D+03 PE=-1.007274788592D+04 EE= 2.431913834949D+03
 Leave Link  502 at Tue Sep 17 09:44:52 2024, MaxMem=  1342177280 cpu:             114.9 elap:              15.2
 (Enter /groups/ReismanLab/Software/Gaussian16_RevC/Linux_Binary_AVX2-enabled-CPU/g16/l508.exe)
 QCSCF skips out because SCF is already converged.
 Leave Link  508 at Tue Sep 17 09:44:52 2024, MaxMem=  1342177280 cpu:               0.1 elap:               0.0
 (Enter /groups/ReismanLab/Software/Gaussian16_RevC/Linux_Binary_AVX2-enabled-CPU/g16/l601.exe)
 Copying SCF densities to generalized density rwf, IOpCl= 0 IROHF=0.

 **********************************************************************

            Population analysis using the SCF Density.

 **********************************************************************

 Orbital symmetries:
       Occupied  (A) (A) (A) (A) (A) (A) (A) (A) (A) (A) (A) (A)
                 (A) (A) (A) (A) (A) (A) (A) (A) (A) (A) (A) (A)
                 (A) (A) (A) (A) (A) (A) (A) (A) (A) (A) (A) (A)
                 (A) (A) (A) (A) (A) (A) (A) (A) (A) (A) (A) (A)
                 (A) (A) (A) (A) (A) (A) (A) (A) (A) (A) (A) (A)
                 (A) (A) (A) (A) (A)
       Virtual   (A) (A) (A) (A) (A) (A) (A) (A) (A) (A) (A) (A)
                 (A) (A) (A) (A) (A) (A) (A) (A) (A) (A) (A) (A)
                 (A) (A) (A) (A) (A) (A) (A) (A) (A) (A) (A) (A)
                 (A) (A) (A) (A) (A) (A) (A) (A) (A) (A) (A) (A)
                 (A) (A) (A) (A) (A) (A) (A) (A) (A) (A) (A) (A)
                 (A) (A) (A) (A) (A) (A) (A) (A) (A) (A) (A) (A)
                 (A) (A) (A) (A) (A) (A) (A) (A) (A) (A) (A) (A)
                 (A) (A) (A) (A) (A) (A) (A) (A) (A) (A) (A) (A)
                 (A) (A) (A) (A) (A) (A) (A) (A) (A) (A) (A) (A)
                 (A) (A) (A) (A) (A) (A) (A) (A) (A) (A) (A) (A)
                 (A) (A) (A) (A) (A) (A) (A) (A) (A) (A) (A) (A)
                 (A) (A) (A) (A) (A) (A) (A) (A) (A) (A) (A) (A)
                 (A) (A) (A) (A) (A) (A) (A) (A) (A) (A) (A) (A)
                 (A) (A) (A) (A) (A) (A) (A) (A) (A) (A) (A) (A)
                 (A) (A) (A) (A) (A) (A) (A) (A) (A) (A) (A) (A)
                 (A) (A) (A) (A) (A) (A) (A) (A) (A) (A) (A) (A)
                 (A) (A) (A) (A) (A) (A) (A) (A) (A) (A) (A) (A)
                 (A)
 The electronic state is 1-A.
 Alpha  occ. eigenvalues -- -482.91900 -61.88042 -56.40200 -56.39759 -56.39751
 Alpha  occ. eigenvalues --  -24.72010 -24.71750 -19.18988 -10.28987 -10.28348
 Alpha  occ. eigenvalues --  -10.27051 -10.25773 -10.25447 -10.20686 -10.20314
 Alpha  occ. eigenvalues --  -10.19537 -10.19290 -10.19289  -8.59165  -6.54608
 Alpha  occ. eigenvalues --   -6.53273  -6.53220  -2.66172  -2.65796  -2.65756
 Alpha  occ. eigenvalues --   -2.64689  -2.64688  -1.23826  -1.22508  -1.08366
 Alpha  occ. eigenvalues --   -0.89019  -0.85881  -0.81540  -0.76840  -0.74117
 Alpha  occ. eigenvalues --   -0.68974  -0.68220  -0.63975  -0.62228  -0.58023
 Alpha  occ. eigenvalues --   -0.55653  -0.54858  -0.52767  -0.51187  -0.49729
 Alpha  occ. eigenvalues --   -0.48968  -0.46664  -0.45267  -0.44877  -0.44175
 Alpha  occ. eigenvalues --   -0.42958  -0.42338  -0.40780  -0.40612  -0.38586
 Alpha  occ. eigenvalues --   -0.37992  -0.36483  -0.34707  -0.34132  -0.32592
 Alpha  occ. eigenvalues --   -0.30620  -0.29599  -0.29129  -0.25169  -0.22679
 Alpha virt. eigenvalues --   -0.02023  -0.00446   0.00075   0.06051   0.06979
 Alpha virt. eigenvalues --    0.10771   0.12160   0.12495   0.14402   0.15763
 Alpha virt. eigenvalues --    0.15903   0.16854   0.17352   0.17588   0.18719
 Alpha virt. eigenvalues --    0.19289   0.21934   0.24360   0.25039   0.25706
 Alpha virt. eigenvalues --    0.25995   0.29538   0.32170   0.33334   0.36623
 Alpha virt. eigenvalues --    0.39040   0.44398   0.44828   0.45883   0.45950
 Alpha virt. eigenvalues --    0.46736   0.46906   0.47990   0.48724   0.49033
 Alpha virt. eigenvalues --    0.50850   0.52147   0.52537   0.52710   0.53885
 Alpha virt. eigenvalues --    0.55059   0.56919   0.57956   0.58808   0.60064
 Alpha virt. eigenvalues --    0.60577   0.62447   0.62598   0.64416   0.65597
 Alpha virt. eigenvalues --    0.65719   0.69612   0.71761   0.72448   0.73878
 Alpha virt. eigenvalues --    0.74814   0.75751   0.76648   0.79944   0.81058
 Alpha virt. eigenvalues --    0.81472   0.81483   0.83632   0.84488   0.86750
 Alpha virt. eigenvalues --    0.86994   0.90332   0.90924   0.91731   0.92255
 Alpha virt. eigenvalues --    0.94352   0.96256   1.01936   1.02835   1.04614
 Alpha virt. eigenvalues --    1.04845   1.11216   1.13888   1.16481   1.18482
 Alpha virt. eigenvalues --    1.20177   1.20711   1.21404   1.24874   1.24981
 Alpha virt. eigenvalues --    1.26159   1.26511   1.28449   1.31741   1.36981
 Alpha virt. eigenvalues --    1.37451   1.39373   1.39617   1.42981   1.43593
 Alpha virt. eigenvalues --    1.44160   1.49520   1.50235   1.50606   1.56860
 Alpha virt. eigenvalues --    1.57839   1.61242   1.64333   1.64354   1.66564
 Alpha virt. eigenvalues --    1.69674   1.73761   1.76347   1.77990   1.78563
 Alpha virt. eigenvalues --    1.80926   1.82827   1.82835   1.84348   1.84396
 Alpha virt. eigenvalues --    1.86288   1.86556   1.89643   1.89868   1.90303
 Alpha virt. eigenvalues --    1.91813   1.92440   1.93733   1.97335   1.98591
 Alpha virt. eigenvalues --    2.01190   2.01476   2.01810   2.03695   2.04458
 Alpha virt. eigenvalues --    2.05384   2.13530   2.15708   2.16733   2.17707
 Alpha virt. eigenvalues --    2.21113   2.23564   2.25214   2.26543   2.29521
 Alpha virt. eigenvalues --    2.30220   2.30848   2.31420   2.31736   2.33542
 Alpha virt. eigenvalues --    2.35078   2.35887   2.38279   2.42739   2.44523
 Alpha virt. eigenvalues --    2.46986   2.48072   2.48930   2.51610   2.52579
 Alpha virt. eigenvalues --    2.54427   2.55586   2.59666   2.61752   2.62543
 Alpha virt. eigenvalues --    2.64362   2.65130   2.65525   2.67185   2.68354
 Alpha virt. eigenvalues --    2.74773   2.74968   2.78713   2.82631   2.84238
 Alpha virt. eigenvalues --    2.87779   2.88975   2.92248   2.92676   3.03017
 Alpha virt. eigenvalues --    3.03994   3.11614   3.15783   3.19022   3.21469
 Alpha virt. eigenvalues --    3.23571   3.27417   3.31967   3.37184   3.40030
 Alpha virt. eigenvalues --    3.42391   3.43895   3.44690   3.64578   3.69315
 Alpha virt. eigenvalues --    4.04539   4.09016   4.12365   4.24360   4.36635
 Alpha virt. eigenvalues --    4.38073   4.44848   4.44875   4.64994   4.77609
 Alpha virt. eigenvalues --    4.90732   4.98199   6.14290   8.60387  72.87193
          Condensed to atoms (all electrons):
               1          2          3          4          5          6
     1  F    9.060859   0.294952  -0.039782   0.002714  -0.000002  -0.000000
     2  C    0.294952   4.760906   0.427198   0.025515   0.003127   0.000248
     3  C   -0.039782   0.427198   5.265922   0.396893  -0.053865  -0.003148
     4  C    0.002714   0.025515   0.396893   4.581740   0.265324  -0.027880
     5  O   -0.000002   0.003127  -0.053865   0.265324   8.239018   0.241484
     6  C   -0.000000   0.000248  -0.003148  -0.027880   0.241484   4.746045
     7  C   -0.000000  -0.000071  -0.000243  -0.005939  -0.034965   0.354338
     8  C   -0.000002   0.000119  -0.003190  -0.000039   0.006193  -0.132354
     9  C   -0.000000  -0.000068  -0.000220  -0.005950  -0.035021   0.354348
    10  C    0.000112  -0.041071  -0.079123   0.507295  -0.050065   0.003425
    11  C    0.003357  -0.054808  -0.021859  -0.011157   0.003746  -0.000108
    12  Br  -0.000023   0.006326  -0.000218   0.005149  -0.000053   0.000002
    13  C   -0.039547   0.339161  -0.070355  -0.038003   0.000149  -0.000003
    14  F   -0.000601  -0.045370   0.003153  -0.000114  -0.000000  -0.000000
    15  H    0.000337  -0.024855   0.348806  -0.041740  -0.004538  -0.001424
    16  H   -0.000000   0.000011   0.000103   0.004069  -0.041475   0.395213
    17  H   -0.000004   0.000304   0.004121   0.001817  -0.005070  -0.029555
    18  H   -0.000000  -0.000004  -0.000036   0.000123   0.002105  -0.023913
    19  H   -0.000000  -0.000001   0.000087   0.000014  -0.000151   0.002365
    20  H   -0.000002  -0.000083  -0.001210   0.000023  -0.000117   0.006560
    21  H   -0.000004   0.000303   0.004075   0.001789  -0.005050  -0.029552
    22  H   -0.000000  -0.000004  -0.000037   0.000123   0.002105  -0.023900
    23  H    0.000001  -0.000412   0.007749  -0.033390   0.000143   0.000026
               7          8          9         10         11         12
     1  F   -0.000000  -0.000002  -0.000000   0.000112   0.003357  -0.000023
     2  C   -0.000071   0.000119  -0.000068  -0.041071  -0.054808   0.006326
     3  C   -0.000243  -0.003190  -0.000220  -0.079123  -0.021859  -0.000218
     4  C   -0.005939  -0.000039  -0.005950   0.507295  -0.011157   0.005149
     5  O   -0.034965   0.006193  -0.035021  -0.050065   0.003746  -0.000053
     6  C    0.354338  -0.132354   0.354348   0.003425  -0.000108   0.000002
     7  C    5.083339   0.349838  -0.193813   0.000139   0.000012  -0.000000
     8  C    0.349838   4.977625   0.349780  -0.000044  -0.000000   0.000000
     9  C   -0.193813   0.349780   5.083463   0.000134   0.000012  -0.000000
    10  C    0.000139  -0.000044   0.000134   5.020457   0.482837  -0.058990
    11  C    0.000012  -0.000000   0.000012   0.482837   5.134741   0.252856
    12  Br  -0.000000   0.000000  -0.000000  -0.058990   0.252856  34.932094
    13  C   -0.000003  -0.000002  -0.000003  -0.017855   0.329100  -0.047955
    14  F    0.000000  -0.000000   0.000000   0.002448  -0.066166   0.003803
    15  H   -0.000726   0.001846  -0.000715   0.004990  -0.000024   0.000005
    16  H   -0.045515   0.010297  -0.045567  -0.000416   0.000000  -0.000000
    17  H    0.376385  -0.027401   0.005653  -0.000246  -0.000009  -0.000000
    18  H    0.372871  -0.029580   0.010910   0.000007  -0.000000   0.000000
    19  H   -0.026965   0.380566  -0.026961   0.000000   0.000000  -0.000000
    20  H   -0.028279   0.380408  -0.028292   0.000004  -0.000000  -0.000000
    21  H    0.005660  -0.027421   0.376382  -0.000245  -0.000009  -0.000000
    22  H    0.010911  -0.029569   0.372851   0.000007  -0.000000   0.000000
    23  H    0.000022  -0.000001   0.000022   0.362351  -0.041527  -0.004319
              13         14         15         16         17         18
     1  F   -0.039547  -0.000601   0.000337  -0.000000  -0.000004  -0.000000
     2  C    0.339161  -0.045370  -0.024855   0.000011   0.000304  -0.000004
     3  C   -0.070355   0.003153   0.348806   0.000103   0.004121  -0.000036
     4  C   -0.038003  -0.000114  -0.041740   0.004069   0.001817   0.000123
     5  O    0.000149  -0.000000  -0.004538  -0.041475  -0.005070   0.002105
     6  C   -0.000003  -0.000000  -0.001424   0.395213  -0.029555  -0.023913
     7  C   -0.000003   0.000000  -0.000726  -0.045515   0.376385   0.372871
     8  C   -0.000002  -0.000000   0.001846   0.010297  -0.027401  -0.029580
     9  C   -0.000003   0.000000  -0.000715  -0.045567   0.005653   0.010910
    10  C   -0.017855   0.002448   0.004990  -0.000416  -0.000246   0.000007
    11  C    0.329100  -0.066166  -0.000024   0.000000  -0.000009  -0.000000
    12  Br  -0.047955   0.003803   0.000005  -0.000000  -0.000000   0.000000
    13  C    4.917438   0.332678   0.007106   0.000000  -0.000008   0.000000
    14  F    0.332678   9.037948  -0.000019  -0.000000   0.000000  -0.000000
    15  H    0.007106  -0.000019   0.602534  -0.000044  -0.001663   0.000192
    16  H    0.000000  -0.000000  -0.000044   0.626777   0.003857  -0.008853
    17  H   -0.000008   0.000000  -0.001663   0.003857   0.587888  -0.029030
    18  H    0.000000  -0.000000   0.000192  -0.008853  -0.029030   0.600593
    19  H   -0.000000  -0.000000  -0.000247  -0.000113   0.003873  -0.008622
    20  H   -0.000000   0.000000   0.003397  -0.000557  -0.010082   0.003633
    21  H   -0.000008   0.000000  -0.001652   0.003857  -0.000086  -0.000426
    22  H    0.000000  -0.000000   0.000191  -0.008846  -0.000425  -0.000493
    23  H    0.005328  -0.000016  -0.000154  -0.000055   0.000000  -0.000000
              19         20         21         22         23
     1  F   -0.000000  -0.000002  -0.000004  -0.000000   0.000001
     2  C   -0.000001  -0.000083   0.000303  -0.000004  -0.000412
     3  C    0.000087  -0.001210   0.004075  -0.000037   0.007749
     4  C    0.000014   0.000023   0.001789   0.000123  -0.033390
     5  O   -0.000151  -0.000117  -0.005050   0.002105   0.000143
     6  C    0.002365   0.006560  -0.029552  -0.023900   0.000026
     7  C   -0.026965  -0.028279   0.005660   0.010911   0.000022
     8  C    0.380566   0.380408  -0.027421  -0.029569  -0.000001
     9  C   -0.026961  -0.028292   0.376382   0.372851   0.000022
    10  C    0.000000   0.000004  -0.000245   0.000007   0.362351
    11  C    0.000000  -0.000000  -0.000009  -0.000000  -0.041527
    12  Br  -0.000000  -0.000000  -0.000000   0.000000  -0.004319
    13  C   -0.000000  -0.000000  -0.000008   0.000000   0.005328
    14  F   -0.000000   0.000000   0.000000  -0.000000  -0.000016
    15  H   -0.000247   0.003397  -0.001652   0.000191  -0.000154
    16  H   -0.000113  -0.000557   0.003857  -0.008846  -0.000055
    17  H    0.003873  -0.010082  -0.000086  -0.000425   0.000000
    18  H   -0.008622   0.003633  -0.000426  -0.000493  -0.000000
    19  H    0.606110  -0.033658   0.003875  -0.008616   0.000000
    20  H   -0.033658   0.605325  -0.010094   0.003633   0.000000
    21  H    0.003875  -0.010094   0.587998  -0.029035   0.000000
    22  H   -0.008616   0.003633  -0.029035   0.600607  -0.000000
    23  H    0.000000   0.000000   0.000000  -0.000000   0.584044
 Mulliken charges:
               1
     1  F   -0.282364
     2  C    0.308578
     3  C   -0.184818
     4  C    0.371622
     5  O   -0.533022
     6  C    0.167782
     7  C   -0.216996
     8  C   -0.207068
     9  C   -0.216945
    10  C   -0.136151
    11  C   -0.010993
    12  Br  -0.088676
    13  C    0.282781
    14  F   -0.267745
    15  H    0.108397
    16  H    0.107255
    17  H    0.119682
    18  H    0.110521
    19  H    0.108444
    20  H    0.109391
    21  H    0.119641
    22  H    0.110496
    23  H    0.120188
 Sum of Mulliken charges =  -0.00000
 Mulliken charges with hydrogens summed into heavy atoms:
               1
     1  F   -0.282364
     2  C    0.308578
     3  C   -0.076422
     4  C    0.371622
     5  O   -0.533022
     6  C    0.275037
     7  C    0.013208
     8  C    0.010767
     9  C    0.013192
    10  C   -0.015963
    11  C   -0.010993
    12  Br  -0.088676
    13  C    0.282781
    14  F   -0.267745
 Electronic spatial extent (au):  <R**2>=           4616.7987
 Charge=             -0.0000 electrons
 Dipole moment (field-independent basis, Debye):
    X=              3.7986    Y=             -1.1009    Z=              0.0028  Tot=              3.9549
 Quadrupole moment (field-independent basis, Debye-Ang):
   XX=            -82.3187   YY=            -94.7790   ZZ=            -91.6341
   XY=              0.6209   XZ=              0.0073   YZ=             -0.0078
 Traceless Quadrupole moment (field-independent basis, Debye-Ang):
   XX=              7.2586   YY=             -5.2017   ZZ=             -2.0569
   XY=              0.6209   XZ=              0.0073   YZ=             -0.0078
 Octapole moment (field-independent basis, Debye-Ang**2):
  XXX=            -55.9984  YYY=            -13.0237  ZZZ=              0.0187  XYY=            -30.7028
  XXY=            -17.4507  XXZ=              0.0274  XZZ=            -33.8612  YZZ=              2.2042
  YYZ=              0.0158  XYZ=             -0.0165
 Hexadecapole moment (field-independent basis, Debye-Ang**3):
 XXXX=          -3847.9530 YYYY=           -968.7425 ZZZZ=           -214.4459 XXXY=             18.7991
 XXXZ=             -0.0687 YYYX=             49.9614 YYYZ=             -0.0208 ZZZX=             -0.0997
 ZZZY=             -0.0213 XXYY=           -821.2685 XXZZ=           -721.4461 YYZZ=           -191.5826
 XXYZ=             -0.0608 YYXZ=             -0.0049 ZZXY=              8.5480
 N-N= 1.195708806528D+03 E-N=-1.007274789236D+04  KE= 3.212036900820D+03
 No NMR shielding tensors so no spin-rotation constants.
 Leave Link  601 at Tue Sep 17 09:44:53 2024, MaxMem=  1342177280 cpu:               0.7 elap:               0.1
 (Enter /groups/ReismanLab/Software/Gaussian16_RevC/Linux_Binary_AVX2-enabled-CPU/g16/l701.exe)
 ... and contract with generalized density number  0.
 Compute integral first derivatives.
 R6Disp: Adding Grimme-D3(BJ) dispersion energy 1st derivatives to the gradient.
 Leave Link  701 at Tue Sep 17 09:44:53 2024, MaxMem=  1342177280 cpu:               0.6 elap:               0.1
 (Enter /groups/ReismanLab/Software/Gaussian16_RevC/Linux_Binary_AVX2-enabled-CPU/g16/l702.exe)
 L702 exits ... SP integral derivatives will be done elsewhere.
 Leave Link  702 at Tue Sep 17 09:44:53 2024, MaxMem=  1342177280 cpu:               0.1 elap:               0.0
 (Enter /groups/ReismanLab/Software/Gaussian16_RevC/Linux_Binary_AVX2-enabled-CPU/g16/l703.exe)
 Integral derivatives from FoFJK, PRISM(SPDF).
 Compute integral first derivatives, UseDBF=F ICtDFT=           0.
 Calling FoFJK, ICntrl=      2127 FMM=F ISym2X=0 I1Cent= 0 IOpClX= 0 NMat=1 NMatS=1 NMatT=0.
 FoFJK:  IHMeth= 1 ICntrl=    2127 DoSepK=F KAlg= 0 I1Cent=           0 FoldK=F
 IRaf=         0 NMat=       1 IRICut=       1 DoRegI=T DoRafI=F ISym2E= 0 IDoP0=0 IntGTp=1.
 FoFCou: FMM=F IPFlag=           0 FMFlag=      100000 FMFlg1=         800
         NFxFlg=           0 DoJE=F BraDBF=F KetDBF=F FulRan=T
         wScrn=  0.000000 ICntrl=      2127 IOpCl=  0 I1Cent=           0 NGrid=           0
         NMat0=    1 NMatS0=      1 NMatT0=    0 NMatD0=    1 NMtDS0=    0 NMtDT0=    0
 Symmetry not used in FoFCou.
 Leave Link  703 at Tue Sep 17 09:44:58 2024, MaxMem=  1342177280 cpu:              37.2 elap:               4.8
 (Enter /groups/ReismanLab/Software/Gaussian16_RevC/Linux_Binary_AVX2-enabled-CPU/g16/l716.exe)
 Dipole        = 1.49449357D+00-4.33138846D-01 1.09363603D-03
 ***** Axes restored to original set *****
 -------------------------------------------------------------------
 Center     Atomic                   Forces (Hartrees/Bohr)
 Number     Number              X              Y              Z
 -------------------------------------------------------------------
      1        9          -0.002641064   -0.001699903   -0.000278797
      2        6          -0.001447081   -0.001991364   -0.000446043
      3        6           0.006561502   -0.001956865   -0.000952660
      4        6          -0.008028933   -0.001054031    0.000238727
      5        8          -0.000763697    0.007996311    0.002180963
      6        6           0.004840116    0.004364750    0.000863700
      7        6          -0.001622334    0.003293670   -0.006648016
      8        6           0.003587440   -0.004775235   -0.001518478
      9        6          -0.000721420   -0.000519487    0.007568027
     10        6           0.003736339    0.005923664    0.001334880
     11        6          -0.002024136   -0.001055373   -0.000140481
     12       35          -0.002254534    0.000227035    0.000207383
     13        6          -0.004900922   -0.001468510   -0.000064416
     14        9           0.000786722   -0.002660540   -0.000771358
     15        1           0.002289273   -0.002183300   -0.000716469
     16        1           0.000630277   -0.001137401   -0.000339404
     17        1          -0.002014597   -0.000775090   -0.002030272
     18        1           0.000950198    0.002268987   -0.003144895
     19        1           0.003539735   -0.001385287   -0.000602783
     20        1          -0.000138571   -0.003436455   -0.000915598
     21        1          -0.001749496   -0.001720203    0.001597184
     22        1           0.001412394    0.000444100    0.003699519
     23        1          -0.000027213    0.003300527    0.000879286
 -------------------------------------------------------------------
 Cartesian Forces:  Max     0.008028933 RMS     0.002929622
 Leave Link  716 at Tue Sep 17 09:44:58 2024, MaxMem=  1342177280 cpu:               0.1 elap:               0.0
 (Enter /groups/ReismanLab/Software/Gaussian16_RevC/Linux_Binary_AVX2-enabled-CPU/g16/l103.exe)

 GradGradGradGradGradGradGradGradGradGradGradGradGradGradGradGradGradGrad
 Berny optimization.
 FormGI is forming the generalized inverse of G from B-inverse, IUseBI=4.
 Internal  Forces:  Max     0.009447557 RMS     0.002564007
 Search for a local minimum.
 Step number   1 out of a maximum of  138
 All quantities printed in internal units (Hartrees-Bohrs-Radians)
 RMS Force = .25640D-02 SwitMx=.10000D-02 MixMth= 1
 Mixed Optimization -- RFO/linear search
 Second derivative matrix not updated -- first step.
 ITU=  0
     Eigenvalues ---    0.00244   0.01542   0.02138   0.02196   0.02219
     Eigenvalues ---    0.02232   0.02241   0.02267   0.02277   0.02284
     Eigenvalues ---    0.02285   0.02309   0.02312   0.02391   0.03438
     Eigenvalues ---    0.04806   0.04824   0.04950   0.05043   0.05191
     Eigenvalues ---    0.05819   0.05966   0.06123   0.06226   0.06530
     Eigenvalues ---    0.07849   0.08460   0.11285   0.16000   0.16000
     Eigenvalues ---    0.18641   0.21128   0.23482   0.23493   0.25000
     Eigenvalues ---    0.25000   0.25000   0.25000   0.25000   0.25000
     Eigenvalues ---    0.26241   0.26450   0.28395   0.28473   0.34460
     Eigenvalues ---    0.35013   0.35121   0.35122   0.35166   0.35174
     Eigenvalues ---    0.35185   0.36267   0.36627   0.42715   0.43460
     Eigenvalues ---    0.43795   0.46642   0.46985   0.47954   0.48961
     Eigenvalues ---    0.55641   0.56677   0.57123
 RFO step:  Lambda=-2.63287556D-03 EMin= 2.44038293D-03
 Linear search not attempted -- first point.
 Iteration  1 RMS(Cart)=  0.01932194 RMS(Int)=  0.00014888
 Iteration  2 RMS(Cart)=  0.00021275 RMS(Int)=  0.00002915
 Iteration  3 RMS(Cart)=  0.00000002 RMS(Int)=  0.00002915
 ITry= 1 IFail=0 DXMaxC= 6.77D-02 DCOld= 1.00D+10 DXMaxT= 3.00D-01 DXLimC= 3.00D+00 Rises=F
 Variable       Old X    -DE/DX   Delta X   Delta X   Delta X     New X
                                 (Linear)    (Quad)   (Total)
    R1        2.53672   0.00170   0.00000   0.00299   0.00299   2.53970
    R2        2.61540   0.00656   0.00000   0.01330   0.01330   2.62870
    R3        2.61994   0.00178   0.00000   0.00328   0.00327   2.62321
    R4        2.63356   0.00749   0.00000   0.01617   0.01618   2.64974
    R5        2.03113   0.00318   0.00000   0.00863   0.00863   2.03976
    R6        2.54567   0.00917   0.00000   0.01640   0.01640   2.56207
    R7        2.64655   0.00453   0.00000   0.01031   0.01032   2.65687
    R8        2.66701   0.00945   0.00000   0.02144   0.02144   2.68845
    R9        2.91316   0.00676   0.00000   0.02360   0.02359   2.93675
   R10        2.91319   0.00675   0.00000   0.02356   0.02355   2.93674
   R11        2.06561  -0.00068   0.00000  -0.00196  -0.00196   2.06365
   R12        2.90928   0.00932   0.00000   0.03235   0.03236   2.94164
   R13        2.05394   0.00293   0.00000   0.00826   0.00826   2.06220
   R14        2.05477   0.00360   0.00000   0.01019   0.01019   2.06496
   R15        2.90923   0.00934   0.00000   0.03240   0.03241   2.94165
   R16        2.05375   0.00355   0.00000   0.01002   0.01002   2.06377
   R17        2.05654   0.00342   0.00000   0.00968   0.00968   2.06623
   R18        2.05406   0.00289   0.00000   0.00816   0.00816   2.06223
   R19        2.05478   0.00360   0.00000   0.01018   0.01018   2.06496
   R20        2.60565   0.00863   0.00000   0.01758   0.01758   2.62324
   R21        2.03667   0.00342   0.00000   0.00935   0.00935   2.04602
   R22        3.57561   0.00209   0.00000   0.01104   0.01104   3.58665
   R23        2.62760   0.00489   0.00000   0.01008   0.01007   2.63767
   R24        2.53292   0.00069   0.00000   0.00120   0.00120   2.53412
    A1        2.06594   0.00287   0.00000   0.01172   0.01173   2.07766
    A2        2.08836  -0.00387   0.00000  -0.01494  -0.01494   2.07342
    A3        2.12889   0.00101   0.00000   0.00322   0.00321   2.13210
    A4        2.08769  -0.00172   0.00000  -0.00725  -0.00725   2.08044
    A5        2.04665   0.00024   0.00000  -0.00022  -0.00022   2.04643
    A6        2.14884   0.00149   0.00000   0.00747   0.00747   2.15631
    A7        2.22017  -0.00329   0.00000  -0.01381  -0.01381   2.20636
    A8        2.07031   0.00198   0.00000   0.00941   0.00942   2.07973
    A9        1.99270   0.00131   0.00000   0.00440   0.00439   1.99710
   A10        2.17059  -0.00213   0.00000  -0.00844  -0.00844   2.16215
   A11        2.09657  -0.00093   0.00000  -0.00222  -0.00219   2.09439
   A12        2.09635  -0.00093   0.00000  -0.00220  -0.00216   2.09418
   A13        1.78343   0.00088   0.00000   0.00511   0.00507   1.78850
   A14        1.57403   0.00182   0.00000   0.00630   0.00618   1.58021
   A15        1.96003  -0.00049   0.00000  -0.00415  -0.00410   1.95593
   A16        1.96008  -0.00049   0.00000  -0.00416  -0.00411   1.95597
   A17        1.56141  -0.00094   0.00000  -0.00536  -0.00547   1.55594
   A18        1.98792   0.00033   0.00000   0.00199   0.00200   1.98991
   A19        1.99115   0.00046   0.00000   0.00270   0.00277   1.99392
   A20        2.00632   0.00023   0.00000  -0.00077  -0.00071   2.00560
   A21        2.01314   0.00082   0.00000   0.01075   0.01077   2.02391
   A22        1.89079  -0.00078   0.00000  -0.00784  -0.00787   1.88292
   A23        1.57674   0.00004   0.00000   0.00021   0.00011   1.57685
   A24        1.97672   0.00038   0.00000   0.00785   0.00782   1.98455
   A25        2.01520   0.00005   0.00000  -0.00118  -0.00113   2.01407
   A26        1.97680   0.00037   0.00000   0.00781   0.00778   1.98459
   A27        2.01509   0.00006   0.00000  -0.00107  -0.00102   2.01407
   A28        1.89128  -0.00071   0.00000  -0.01065  -0.01065   1.88063
   A29        1.56142  -0.00094   0.00000  -0.00536  -0.00548   1.55594
   A30        1.98776   0.00033   0.00000   0.00198   0.00199   1.98975
   A31        1.99138   0.00046   0.00000   0.00263   0.00269   1.99407
   A32        2.00617   0.00023   0.00000  -0.00065  -0.00060   2.00557
   A33        2.01334   0.00081   0.00000   0.01066   0.01067   2.02401
   A34        1.89069  -0.00078   0.00000  -0.00779  -0.00782   1.88287
   A35        2.11098  -0.00279   0.00000  -0.01086  -0.01085   2.10013
   A36        2.06889   0.00149   0.00000   0.00598   0.00598   2.07487
   A37        2.10332   0.00131   0.00000   0.00488   0.00487   2.10819
   A38        2.09598   0.00107   0.00000   0.00410   0.00410   2.10008
   A39        2.10505   0.00110   0.00000   0.00464   0.00464   2.10969
   A40        2.08216  -0.00217   0.00000  -0.00875  -0.00874   2.07341
   A41        2.06345   0.00043   0.00000   0.00084   0.00082   2.06428
   A42        2.11044  -0.00375   0.00000  -0.01443  -0.01442   2.09602
   A43        2.10929   0.00333   0.00000   0.01359   0.01360   2.12289
    D1        3.14154   0.00000   0.00000   0.00001   0.00001   3.14156
    D2        0.00011  -0.00000   0.00000  -0.00012  -0.00012  -0.00001
    D3       -0.00001  -0.00000   0.00000  -0.00012  -0.00012  -0.00012
    D4       -3.14144  -0.00001   0.00000  -0.00025  -0.00025   3.14149
    D5       -3.14143  -0.00000   0.00000  -0.00018  -0.00018   3.14158
    D6        0.00030  -0.00001   0.00000  -0.00033  -0.00033  -0.00003
    D7        0.00012  -0.00000   0.00000  -0.00005  -0.00005   0.00007
    D8       -3.14134  -0.00001   0.00000  -0.00020  -0.00019  -3.14154
    D9        3.14123   0.00000   0.00000   0.00001   0.00001   3.14124
   D10       -0.00007   0.00000   0.00000   0.00014   0.00014   0.00007
   D11       -0.00053   0.00000   0.00000   0.00015   0.00015  -0.00038
   D12        3.14135   0.00001   0.00000   0.00029   0.00029  -3.14155
   D13        0.00362  -0.00000   0.00000  -0.00004  -0.00004   0.00357
   D14       -3.13825  -0.00000   0.00000  -0.00017  -0.00017  -3.13843
   D15        0.00004  -0.00000   0.00000  -0.00001  -0.00001   0.00003
   D16       -3.14150  -0.00000   0.00000  -0.00007  -0.00007  -3.14156
   D17       -3.14130   0.00000   0.00000   0.00011   0.00011  -3.14119
   D18        0.00035   0.00000   0.00000   0.00005   0.00005   0.00040
   D19        0.95685   0.00053   0.00000   0.00321   0.00315   0.96000
   D20       -0.96177  -0.00051   0.00000  -0.00208  -0.00203  -0.96379
   D21        3.13918   0.00001   0.00000   0.00056   0.00056   3.13974
   D22       -2.28962   0.00009   0.00000  -0.02242  -0.02243  -2.31205
   D23       -0.24386  -0.00005   0.00000  -0.02549  -0.02549  -0.26935
   D24        1.93947  -0.00046   0.00000  -0.03237  -0.03235   1.90712
   D25       -0.09774  -0.00014   0.00000  -0.02156  -0.02159  -0.11933
   D26        1.94802  -0.00028   0.00000  -0.02462  -0.02465   1.92336
   D27       -2.15184  -0.00069   0.00000  -0.03151  -0.03151  -2.18335
   D28        1.89719   0.00005   0.00000  -0.02406  -0.02409   1.87310
   D29       -2.34023  -0.00009   0.00000  -0.02713  -0.02716  -2.36740
   D30       -0.15691  -0.00050   0.00000  -0.03401  -0.03402  -0.19092
   D31        2.28980  -0.00009   0.00000   0.02240   0.02241   2.31221
   D32        0.24423   0.00004   0.00000   0.02534   0.02535   0.26958
   D33       -1.93901   0.00045   0.00000   0.03223   0.03220  -1.90681
   D34        0.09774   0.00014   0.00000   0.02156   0.02159   0.11933
   D35       -1.94782   0.00027   0.00000   0.02450   0.02453  -1.92330
   D36        2.15212   0.00069   0.00000   0.03138   0.03138   2.18350
   D37       -1.89715  -0.00005   0.00000   0.02405   0.02408  -1.87306
   D38        2.34047   0.00008   0.00000   0.02699   0.02702   2.36750
   D39        0.15723   0.00050   0.00000   0.03388   0.03388   0.19111
   D40        0.09788   0.00005   0.00000   0.02129   0.02125   0.11913
   D41       -1.92012  -0.00046   0.00000   0.01086   0.01084  -1.90928
   D42        2.16808   0.00016   0.00000   0.01987   0.01985   2.18793
   D43       -1.93130   0.00012   0.00000   0.02197   0.02196  -1.90933
   D44        2.33389  -0.00040   0.00000   0.01154   0.01156   2.34545
   D45        0.13891   0.00022   0.00000   0.02055   0.02056   0.15947
   D46        2.13222   0.00027   0.00000   0.02396   0.02392   2.15614
   D47        0.11422  -0.00025   0.00000   0.01353   0.01351   0.12774
   D48       -2.08076   0.00037   0.00000   0.02254   0.02252  -2.05825
   D49       -0.09788  -0.00006   0.00000  -0.02129  -0.02125  -0.11913
   D50        1.93109  -0.00012   0.00000  -0.02196  -0.02195   1.90914
   D51       -2.13252  -0.00027   0.00000  -0.02385  -0.02382  -2.15634
   D52        1.92005   0.00046   0.00000  -0.01082  -0.01081   1.90924
   D53       -2.33417   0.00040   0.00000  -0.01149  -0.01150  -2.34568
   D54       -0.11460   0.00025   0.00000  -0.01339  -0.01337  -0.12797
   D55       -2.16818  -0.00015   0.00000  -0.01977  -0.01975  -2.18793
   D56       -0.13921  -0.00022   0.00000  -0.02044  -0.02045  -0.15966
   D57        2.08037  -0.00036   0.00000  -0.02234  -0.02232   2.05805
   D58       -3.14151  -0.00000   0.00000  -0.00004  -0.00004  -3.14155
   D59        0.00007  -0.00000   0.00000  -0.00015  -0.00015  -0.00008
   D60        0.00003   0.00000   0.00000   0.00001   0.00001   0.00004
   D61       -3.14158  -0.00000   0.00000  -0.00010  -0.00010   3.14151
   D62       -0.00015   0.00000   0.00000   0.00018   0.00018   0.00004
   D63        3.14131   0.00001   0.00000   0.00033   0.00033  -3.14154
   D64        3.14143   0.00000   0.00000   0.00007   0.00007   3.14150
   D65       -0.00030   0.00001   0.00000   0.00022   0.00022  -0.00008
         Item               Value     Threshold  Converged?
 Maximum Force            0.009448     0.000450     NO 
 RMS     Force            0.002564     0.000300     NO 
 Maximum Displacement     0.067653     0.001800     NO 
 RMS     Displacement     0.019329     0.001200     NO 
 Predicted change in Energy=-1.353121D-03
 Lowest energy point so far.  Saving SCF results.
 GradGradGradGradGradGradGradGradGradGradGradGradGradGradGradGradGradGrad

 Leave Link  103 at Tue Sep 17 09:44:58 2024, MaxMem=  1342177280 cpu:               0.1 elap:               0.0
 (Enter /groups/ReismanLab/Software/Gaussian16_RevC/Linux_Binary_AVX2-enabled-CPU/g16/l202.exe)
                          Input orientation:                          
 ---------------------------------------------------------------------
 Center     Atomic      Atomic             Coordinates (Angstroms)
 Number     Number       Type             X           Y           Z
 ---------------------------------------------------------------------
      1          9           0       -0.009147   -2.918445   -0.774654
      2          6           0       -0.003688   -1.619592   -0.429457
      3          6           0        1.212874   -0.952463   -0.329834
      4          6           0        1.222456    0.402718    0.030038
      5          8           0        2.316929    1.190565    0.169981
      6          6           0        3.650206    0.740356   -0.038970
      7          6           0        4.043639    0.076074   -1.387690
      8          6           0        4.740588   -1.067660   -0.594413
      9          6           0        4.184913   -0.492737    0.741196
     10          6           0        0.001741    1.053427    0.281326
     11          6           0       -1.196692    0.361172    0.173986
     12         35           0       -2.844560    1.239687    0.513164
     13          6           0       -1.215097   -0.987876   -0.183757
     14          9           0       -2.363856   -1.671193   -0.291961
     15          1           0        2.106659   -1.520646   -0.538185
     16          1           0        4.236921    1.639155    0.162215
     17          1           0        3.191812   -0.237502   -1.993441
     18          1           0        4.695087    0.688213   -2.016148
     19          1           0        5.830446   -1.047594   -0.661404
     20          1           0        4.409881   -2.079793   -0.842897
     21          1           0        3.404315   -1.093597    1.210808
     22          1           0        4.928643   -0.252684    1.504938
     23          1           0        0.014392    2.099883    0.558852
 ---------------------------------------------------------------------
                    Distance matrix (angstroms):
                    1          2          3          4          5
     1  F    0.000000
     2  C    1.343953   0.000000
     3  C    2.357178   1.391046   0.000000
     4  C    3.632423   2.409212   1.402182   0.000000
     5  O    4.815281   3.693450   2.461975   1.355787   0.000000
     6  C    5.226751   4.367239   2.981749   2.452088   1.422666
     7  C    5.076222   4.491587   3.192206   3.174228   2.578751
     8  C    5.100773   4.779121   3.539497   3.863833   3.399707
     9  C    5.076613   4.492728   3.192408   3.175490   2.578596
    10  C    4.109863   2.765913   2.421560   1.405956   2.321916
    11  C    3.614701   2.389734   2.790247   2.423782   3.610185
    12  Br   5.195007   4.139392   4.688170   4.180257   5.173118
    13  C    2.351716   1.388144   2.432619   2.814448   4.164846
    14  F    2.708003   2.364733   3.648425   4.155289   5.505706
    15  H    2.546840   2.115461   1.079395   2.191808   2.810050
    16  H    6.299090   5.380731   4.012911   3.260866   1.971716
    17  H    4.349602   3.816732   2.682341   2.895291   2.735908
    18  H    6.056328   5.470104   4.202532   4.040737   3.269122
    19  H    6.133006   5.866695   4.630439   4.880069   4.247984
    20  H    4.498423   4.456715   3.428551   4.133347   4.012682
    21  H    4.350156   3.818589   2.682519   2.897186   2.735531
    22  H    6.056781   5.471582   4.202739   4.042364   3.268965
    23  H    5.192534   3.848581   3.397490   2.149286   2.505943
                    6          7          8          9         10
     6  C    0.000000
     7  C    1.554060   0.000000
     8  C    2.183202   1.556648   0.000000
     9  C    1.554056   2.208090   1.556652   0.000000
    10  C    3.675854   4.480822   5.265225   4.483417   0.000000
[...]
                 (A) (A) (A) (A) (A) (A) (A) (A) (A) (A) (A) (A)
                 (A) (A) (A) (A) (A) (A) (A) (A) (A) (A) (A) (A)
                 (A) (A) (A) (A) (A) (A) (A) (A)
 The electronic state is 1-A.
 Alpha  occ. eigenvalues -- -485.38663 -63.37129 -57.19086 -57.18835 -57.18824
 Alpha  occ. eigenvalues --  -25.27531 -25.27401 -19.66683 -10.65124 -10.64478
 Alpha  occ. eigenvalues --  -10.63036 -10.62015 -10.60500 -10.56493 -10.56160
 Alpha  occ. eigenvalues --  -10.54296 -10.54028 -10.54025  -9.03772  -6.86220
 Alpha  occ. eigenvalues --   -6.85289  -6.85250  -2.89597  -2.89264  -2.89224
 Alpha  occ. eigenvalues --   -2.88356  -2.88356  -1.39636  -1.38257  -1.20004
 Alpha  occ. eigenvalues --   -0.99688  -0.95403  -0.91564  -0.86833  -0.83768
 Alpha  occ. eigenvalues --   -0.77480  -0.76201  -0.73643  -0.70675  -0.66673
 Alpha  occ. eigenvalues --   -0.65075  -0.63372  -0.61517  -0.60102  -0.58553
 Alpha  occ. eigenvalues --   -0.56945  -0.56371  -0.54960  -0.52873  -0.52721
 Alpha  occ. eigenvalues --   -0.51237  -0.49387  -0.47672  -0.46727  -0.46320
 Alpha  occ. eigenvalues --   -0.45253  -0.43545  -0.40704  -0.39495  -0.38687
 Alpha  occ. eigenvalues --   -0.36489  -0.36450  -0.36043  -0.31196  -0.28737
 Alpha virt. eigenvalues --   -0.00072   0.02197   0.02230   0.06531   0.07258
 Alpha virt. eigenvalues --    0.08904   0.10214   0.10798   0.11698   0.13661
 Alpha virt. eigenvalues --    0.14617   0.15398   0.15643   0.16289   0.16841
 Alpha virt. eigenvalues --    0.17787   0.18266   0.19618   0.21135   0.21181
 Alpha virt. eigenvalues --    0.21478   0.22406   0.22554   0.23783   0.23898
 Alpha virt. eigenvalues --    0.24127   0.25178   0.26411   0.26690   0.27386
 Alpha virt. eigenvalues --    0.27959   0.29206   0.29912   0.30943   0.31319
 Alpha virt. eigenvalues --    0.31723   0.32682   0.33636   0.33947   0.34296
 Alpha virt. eigenvalues --    0.35435   0.36977   0.37194   0.38437   0.38729
 Alpha virt. eigenvalues --    0.39212   0.40104   0.40302   0.40641   0.41627
 Alpha virt. eigenvalues --    0.42214   0.42437   0.42832   0.44728   0.45442
 Alpha virt. eigenvalues --    0.46333   0.47022   0.47903   0.48163   0.48180
 Alpha virt. eigenvalues --    0.48741   0.49163   0.49954   0.50499   0.51504
 Alpha virt. eigenvalues --    0.51924   0.53946   0.54193   0.55949   0.56847
 Alpha virt. eigenvalues --    0.57719   0.57903   0.58523   0.61567   0.62129
 Alpha virt. eigenvalues --    0.63106   0.64040   0.66087   0.67004   0.68506
 Alpha virt. eigenvalues --    0.68647   0.68786   0.69674   0.71427   0.72705
 Alpha virt. eigenvalues --    0.73991   0.75479   0.76788   0.77225   0.78517
 Alpha virt. eigenvalues --    0.79063   0.80949   0.81093   0.85024   0.85930
 Alpha virt. eigenvalues --    0.87193   0.88080   0.89189   0.90200   0.91099
 Alpha virt. eigenvalues --    0.91448   0.92864   0.93234   0.93947   0.95718
 Alpha virt. eigenvalues --    0.95754   0.97580   0.98848   0.99304   1.00817
 Alpha virt. eigenvalues --    1.02053   1.03313   1.03605   1.04201   1.06729
 Alpha virt. eigenvalues --    1.08019   1.08192   1.08864   1.09606   1.10880
 Alpha virt. eigenvalues --    1.11941   1.12726   1.14849   1.15998   1.17047
 Alpha virt. eigenvalues --    1.18921   1.18947   1.20841   1.21019   1.22917
 Alpha virt. eigenvalues --    1.23127   1.24457   1.24625   1.26285   1.29400
 Alpha virt. eigenvalues --    1.30154   1.33624   1.35030   1.37950   1.37963
 Alpha virt. eigenvalues --    1.38988   1.39547   1.41141   1.41247   1.44851
 Alpha virt. eigenvalues --    1.46154   1.47401   1.49291   1.49708   1.50948
 Alpha virt. eigenvalues --    1.52804   1.53150   1.55238   1.55244   1.57213
 Alpha virt. eigenvalues --    1.58136   1.59697   1.60247   1.62695   1.62801
 Alpha virt. eigenvalues --    1.64070   1.64306   1.65078   1.66043   1.66615
 Alpha virt. eigenvalues --    1.67404   1.69747   1.71733   1.73556   1.74070
 Alpha virt. eigenvalues --    1.75837   1.76243   1.76276   1.77267   1.79442
 Alpha virt. eigenvalues --    1.79931   1.80039   1.80556   1.82038   1.83279
 Alpha virt. eigenvalues --    1.83790   1.84186   1.85894   1.88403   1.90044
 Alpha virt. eigenvalues --    1.90373   1.92571   1.93463   1.96948   1.97123
 Alpha virt. eigenvalues --    1.98504   2.00430   2.01300   2.02046   2.03279
 Alpha virt. eigenvalues --    2.05784   2.06925   2.08468   2.09883   2.10582
 Alpha virt. eigenvalues --    2.12870   2.14767   2.17893   2.18029   2.20405
 Alpha virt. eigenvalues --    2.20436   2.21348   2.23734   2.23923   2.25036
 Alpha virt. eigenvalues --    2.27281   2.29981   2.30071   2.34209   2.35886
 Alpha virt. eigenvalues --    2.38790   2.42013   2.44896   2.47170   2.47244
 Alpha virt. eigenvalues --    2.48168   2.49032   2.50336   2.51324   2.51481
 Alpha virt. eigenvalues --    2.52551   2.53330   2.55406   2.57993   2.58696
 Alpha virt. eigenvalues --    2.58802   2.60017   2.61172   2.61397   2.62925
 Alpha virt. eigenvalues --    2.64690   2.65000   2.65931   2.67457   2.69072
 Alpha virt. eigenvalues --    2.69405   2.69527   2.72095   2.72769   2.73296
 Alpha virt. eigenvalues --    2.73593   2.75417   2.75798   2.77212   2.80251
 Alpha virt. eigenvalues --    2.81071   2.81910   2.83104   2.84961   2.85835
 Alpha virt. eigenvalues --    2.86624   2.87041   2.87750   2.87937   2.89779
 Alpha virt. eigenvalues --    2.90508   2.91996   2.93948   2.96442   2.96629
 Alpha virt. eigenvalues --    2.97641   2.98809   2.99793   3.03138   3.03592
 Alpha virt. eigenvalues --    3.04389   3.06304   3.07441   3.08601   3.10869
 Alpha virt. eigenvalues --    3.10876   3.12256   3.13038   3.14455   3.15626
 Alpha virt. eigenvalues --    3.17349   3.17467   3.18050   3.20003   3.20184
 Alpha virt. eigenvalues --    3.22787   3.23096   3.24334   3.24655   3.25616
 Alpha virt. eigenvalues --    3.27318   3.27652   3.31634   3.33001   3.34494
 Alpha virt. eigenvalues --    3.35516   3.36157   3.36308   3.38913   3.40785
 Alpha virt. eigenvalues --    3.41439   3.41639   3.43836   3.44801   3.45213
 Alpha virt. eigenvalues --    3.46840   3.47495   3.48870   3.49022   3.49924
 Alpha virt. eigenvalues --    3.53447   3.54708   3.56418   3.56437   3.57562
 Alpha virt. eigenvalues --    3.59587   3.59894   3.61209   3.62101   3.68705
 Alpha virt. eigenvalues --    3.69886   3.71290   3.73127   3.74594   3.76716
 Alpha virt. eigenvalues --    3.78833   3.80011   3.82466   3.84877   3.85637
 Alpha virt. eigenvalues --    3.85932   3.91907   3.92545   3.94762   3.97378
 Alpha virt. eigenvalues --    3.98529   4.00636   4.00977   4.03605   4.05289
 Alpha virt. eigenvalues --    4.05995   4.06502   4.08051   4.08897   4.10040
 Alpha virt. eigenvalues --    4.10780   4.13012   4.13393   4.13735   4.15146
 Alpha virt. eigenvalues --    4.16024   4.16183   4.18802   4.19073   4.22494
 Alpha virt. eigenvalues --    4.24879   4.27395   4.29626   4.31168   4.32564
 Alpha virt. eigenvalues --    4.36024   4.40362   4.40923   4.42768   4.46105
 Alpha virt. eigenvalues --    4.50243   4.50308   4.53463   4.54240   4.55371
 Alpha virt. eigenvalues --    4.56814   4.61660   4.64555   4.72453   4.76014
 Alpha virt. eigenvalues --    4.76245   4.81647   4.82517   4.89197   4.90981
 Alpha virt. eigenvalues --    4.92124   4.95711   4.99640   5.06698   5.10207
 Alpha virt. eigenvalues --    5.23138   5.29800   5.31280   5.31350   5.45506
 Alpha virt. eigenvalues --    5.54913   5.65944   5.76250   5.98554   5.99280
 Alpha virt. eigenvalues --    6.33526   6.55324   6.63971   6.76032   6.89374
 Alpha virt. eigenvalues --    6.89725   6.90385   6.90885   6.91152   6.96671
 Alpha virt. eigenvalues --    7.02803   7.04003   7.14549   7.18126   7.23254
 Alpha virt. eigenvalues --    7.31351   7.32756   7.41025   7.42513   7.50839
 Alpha virt. eigenvalues --    7.74233   7.86828   8.32808   8.38103   8.49598
 Alpha virt. eigenvalues --    8.60149   8.70650   8.79489   8.84961   8.96719
 Alpha virt. eigenvalues --    9.00423   9.10573  22.21739  22.47922  22.58282
 Alpha virt. eigenvalues --   22.63181  22.79446  22.79807  22.85382  22.93328
 Alpha virt. eigenvalues --   23.03859  23.43369  44.55437  57.39819  57.61804
          Condensed to atoms (all electrons):
               1          2          3          4          5          6
     1  F    9.019387   0.250196  -0.050913   0.005324  -0.000054   0.000090
     2  C    0.250196   4.822832   0.328605   0.052076   0.003143  -0.001808
     3  C   -0.050913   0.328605   5.497084   0.203960  -0.069202   0.021004
     4  C    0.005324   0.052076   0.203960   4.960942   0.301210  -0.059107
     5  O   -0.000054   0.003143  -0.069202   0.301210   7.964936   0.193547
     6  C    0.000090  -0.001808   0.021004  -0.059107   0.193547   5.209247
     7  C   -0.000114   0.001780   0.007379  -0.015396  -0.028039   0.199752
     8  C    0.000008  -0.000294  -0.004121   0.003575   0.010543  -0.083931
     9  C   -0.000114   0.001809   0.007389  -0.015469  -0.028012   0.199779
    10  C    0.000886  -0.093569   0.051164   0.345818  -0.039951   0.003325
    11  C    0.011167   0.028417  -0.065644   0.021265   0.004354  -0.001806
    12  Br  -0.000181   0.008546  -0.001977   0.016132  -0.000256  -0.000018
    13  C   -0.047513   0.459145  -0.014240  -0.088230  -0.000007   0.001475
    14  F    0.000920  -0.048644   0.012020  -0.002554  -0.000000  -0.000004
    15  H    0.005864  -0.007604   0.408448  -0.053713  -0.004224   0.011846
    16  H   -0.000000   0.000255  -0.001434   0.006997  -0.037744   0.441734
    17  H    0.000086   0.002140  -0.008498  -0.000535  -0.001034  -0.033948
    18  H   -0.000000  -0.000022   0.000323   0.000011   0.002623  -0.040964
    19  H   -0.000000   0.000014   0.000044  -0.000074  -0.000309   0.009000
    20  H   -0.000000  -0.000184   0.000124  -0.000031  -0.000560   0.012855
    21  H    0.000085   0.002145  -0.008480  -0.000543  -0.001035  -0.033934
    22  H   -0.000000  -0.000022   0.000321   0.000013   0.002623  -0.040965
    23  H    0.000014  -0.002541   0.008762  -0.036036   0.011171   0.001331
               7          8          9         10         11         12
     1  F   -0.000114   0.000008  -0.000114   0.000886   0.011167  -0.000181
     2  C    0.001780  -0.000294   0.001809  -0.093569   0.028417   0.008546
     3  C    0.007379  -0.004121   0.007389   0.051164  -0.065644  -0.001977
     4  C   -0.015396   0.003575  -0.015469   0.345818   0.021265   0.016132
     5  O   -0.028039   0.010543  -0.028012  -0.039951   0.004354  -0.000256
     6  C    0.199752  -0.083931   0.199779   0.003325  -0.001806  -0.000018
     7  C    5.323264   0.249208  -0.177059   0.004485  -0.000029   0.000002
     8  C    0.249208   5.133027   0.249213  -0.001046   0.000033  -0.000000
     9  C   -0.177059   0.249213   5.323225   0.004458  -0.000026   0.000002
    10  C    0.004485  -0.001046   0.004458   5.299017   0.337576  -0.085160
    11  C   -0.000029   0.000033  -0.000026   0.337576   5.184649   0.372434
    12  Br   0.000002  -0.000000   0.000002  -0.085160   0.372434  34.852802
    13  C    0.000010  -0.000052   0.000009   0.042369   0.216451  -0.092223
    14  F    0.000001  -0.000000   0.000001   0.010087  -0.073619  -0.001088
    15  H   -0.002750  -0.002897  -0.002752   0.001858  -0.002267   0.000022
    16  H   -0.047872   0.009396  -0.047886  -0.001875   0.000069  -0.000001
    17  H    0.423135  -0.040456   0.007430  -0.000224  -0.000002  -0.000000
    18  H    0.417244  -0.036775   0.020725  -0.000054   0.000005   0.000000
    19  H   -0.039064   0.424408  -0.039062   0.000016  -0.000001   0.000000
    20  H   -0.036353   0.421979  -0.036355   0.000075  -0.000006  -0.000000
    21  H    0.007417  -0.040450   0.423113  -0.000225  -0.000002  -0.000000
    22  H    0.020726  -0.036775   0.417244  -0.000054   0.000005   0.000000
    23  H    0.000093  -0.000021   0.000093   0.393650  -0.024063  -0.005747
              13         14         15         16         17         18
     1  F   -0.047513   0.000920   0.005864  -0.000000   0.000086  -0.000000
     2  C    0.459145  -0.048644  -0.007604   0.000255   0.002140  -0.000022
     3  C   -0.014240   0.012020   0.408448  -0.001434  -0.008498   0.000323
     4  C   -0.088230  -0.002554  -0.053713   0.006997  -0.000535   0.000011
     5  O   -0.000007  -0.000000  -0.004224  -0.037744  -0.001034   0.002623
     6  C    0.001475  -0.000004   0.011846   0.441734  -0.033948  -0.040964
     7  C    0.000010   0.000001  -0.002750  -0.047872   0.423135   0.417244
     8  C   -0.000052  -0.000000  -0.002897   0.009396  -0.040456  -0.036775
     9  C    0.000009   0.000001  -0.002752  -0.047886   0.007430   0.020725
    10  C    0.042369   0.010087   0.001858  -0.001875  -0.000224  -0.000054
    11  C    0.216451  -0.073619  -0.002267   0.000069  -0.000002   0.000005
    12  Br  -0.092223  -0.001088   0.000022  -0.000001  -0.000000   0.000000
    13  C    5.036919   0.284605   0.008919  -0.000044  -0.000009  -0.000001
    14  F    0.284605   9.006793  -0.000094  -0.000000   0.000000  -0.000000
    15  H    0.008919  -0.000094   0.454487  -0.000353  -0.005897   0.000365
    16  H   -0.000044  -0.000000  -0.000353   0.530784   0.003589  -0.006526
    17  H   -0.000009   0.000000  -0.005897   0.003589   0.499342  -0.012623
    18  H   -0.000001  -0.000000   0.000365  -0.006526  -0.012623   0.512076
    19  H    0.000000   0.000000   0.000028  -0.000298   0.002892  -0.005142
    20  H    0.000013  -0.000000   0.000793  -0.000812  -0.006630   0.002327
    21  H   -0.000009   0.000000  -0.005896   0.003590   0.000062  -0.000777
    22  H   -0.000001  -0.000000   0.000366  -0.006525  -0.000776  -0.000672
    23  H    0.008968   0.000016  -0.000064  -0.000222  -0.000001  -0.000001
              19         20         21         22         23
     1  F   -0.000000  -0.000000   0.000085  -0.000000   0.000014
     2  C    0.000014  -0.000184   0.002145  -0.000022  -0.002541
     3  C    0.000044   0.000124  -0.008480   0.000321   0.008762
     4  C   -0.000074  -0.000031  -0.000543   0.000013  -0.036036
     5  O   -0.000309  -0.000560  -0.001035   0.002623   0.011171
     6  C    0.009000   0.012855  -0.033934  -0.040965   0.001331
     7  C   -0.039064  -0.036353   0.007417   0.020726   0.000093
     8  C    0.424408   0.421979  -0.040450  -0.036775  -0.000021
     9  C   -0.039062  -0.036355   0.423113   0.417244   0.000093
    10  C    0.000016   0.000075  -0.000225  -0.000054   0.393650
    11  C   -0.000001  -0.000006  -0.000002   0.000005  -0.024063
    12  Br   0.000000  -0.000000  -0.000000   0.000000  -0.005747
    13  C    0.000000   0.000013  -0.000009  -0.000001   0.008968
    14  F    0.000000  -0.000000   0.000000  -0.000000   0.000016
    15  H    0.000028   0.000793  -0.005896   0.000366  -0.000064
    16  H   -0.000298  -0.000812   0.003590  -0.006525  -0.000222
    17  H    0.002892  -0.006630   0.000062  -0.000776  -0.000001
    18  H   -0.005142   0.002327  -0.000777  -0.000672  -0.000001
    19  H    0.508445  -0.016723   0.002892  -0.005142   0.000000
    20  H   -0.016723   0.523779  -0.006630   0.002327   0.000001
    21  H    0.002892  -0.006630   0.499387  -0.012625  -0.000001
    22  H   -0.005142   0.002327  -0.012625   0.512078  -0.000001
    23  H    0.000000   0.000001  -0.000001  -0.000001   0.451407
 Mulliken charges:
               1
     1  F   -0.195140
     2  C    0.193585
     3  C   -0.322118
     4  C    0.354364
     5  O   -0.283722
     6  C   -0.008502
     7  C   -0.307820
     8  C   -0.254573
     9  C   -0.307756
    10  C   -0.272627
    11  C   -0.008963
    12  Br  -0.063289
    13  C    0.183444
    14  F   -0.188441
    15  H    0.195516
    16  H    0.155178
    17  H    0.171959
    18  H    0.147857
    19  H    0.158076
    20  H    0.140010
    21  H    0.171914
    22  H    0.147855
    23  H    0.193191
 Sum of Mulliken charges =  -0.00000
 Mulliken charges with hydrogens summed into heavy atoms:
               1
     1  F   -0.195140
     2  C    0.193585
     3  C   -0.126602
     4  C    0.354364
     5  O   -0.283722
     6  C    0.146676
     7  C    0.011997
     8  C    0.043514
     9  C    0.012012
    10  C   -0.079436
    11  C   -0.008963
    12  Br  -0.063289
    13  C    0.183444
    14  F   -0.188441
 Electronic spatial extent (au):  <R**2>=           4758.6135
 Charge=             -0.0000 electrons
 Dipole moment (field-independent basis, Debye):
    X=              4.6213    Y=             -1.4358    Z=              0.0005  Tot=              4.8392
 Quadrupole moment (field-independent basis, Debye-Ang):
   XX=            -83.0838   YY=            -97.4635   ZZ=            -93.7357
   XY=              1.8706   XZ=              0.0016   YZ=             -0.0019
 Traceless Quadrupole moment (field-independent basis, Debye-Ang):
   XX=              8.3439   YY=             -6.0359   ZZ=             -2.3080
   XY=              1.8706   XZ=              0.0016   YZ=             -0.0019
 Octapole moment (field-independent basis, Debye-Ang**2):
  XXX=            -45.4426  YYY=            -21.8690  ZZZ=              0.0051  XYY=            -27.0173
  XXY=            -19.1499  XXZ=              0.0038  XZZ=            -33.6947  YZZ=              1.0389
  YYZ=              0.0035  XYZ=             -0.0034
 Hexadecapole moment (field-independent basis, Debye-Ang**3):
 XXXX=          -4098.3514 YYYY=          -1010.2812 ZZZZ=           -226.4004 XXXY=             21.7317
 XXXZ=             -0.0231 YYYX=             60.0490 YYYZ=             -0.0034 ZZZX=             -0.0236
 ZZZY=             -0.0047 XXYY=           -861.6921 XXZZ=           -764.9084 YYZZ=           -197.5764
 XXYZ=             -0.0121 YYXZ=              0.0006 ZZXY=              7.2413
 N-N= 1.186111110685D+03 E-N=-1.007421650127D+04  KE= 3.228979856285D+03
 Calculating spin-rotation constants.
 Leave Link  601 at Tue Sep 17 11:31:31 2024, MaxMem=  1342177280 cpu:               8.8 elap:               8.9
 (Enter /groups/ReismanLab/Software/Gaussian16_RevC/Linux_Binary_AVX2-enabled-CPU/g16/l9999.exe)
 Unable to Open any file for archive entry.
 1\1\GINC-HPC-83-12\SP\RM062X\def2TZVP\C10H9Br1F2O1\MANTIND\17-Sep-2024
 \0\\#p M062X/def2tzvp geom=check guess=read scf(xqc,tight) integral(gr
 id=ultrafine) scrf(SMD, solvent=1,4-Dioxane) nmr=giao\\spe\\0,1\F,0,-0
 .1848424077,-2.8968821091,-0.7589611122\C,0,-0.1216495624,-1.598772390
 1,-0.4171578014\C,0,1.1194734755,-0.9794905955,-0.3327662684\C,0,1.178
 6133074,0.3750352187,0.0243272322\O,0,2.3017081999,1.1301816489,0.1526
 573536\C,0,3.620560642,0.6419784833,-0.0639773478\C,0,4.0557687601,-0.
 0019473168,-1.4029178049\C,0,4.9961225956,-0.9221833632,-0.5711758277\
 C,0,4.1945363738,-0.5666315005,0.7148785808\C,0,-0.0111801919,1.071306
 2179,0.2871755961\C,0,-1.23578984,0.4236237384,0.1941670846\Br,0,-2.84
 73045323,1.3605050133,0.5485329419\C,0,-1.3073057133,-0.9217854567,-0.
 1597146641\F,0,-2.478332088,-1.5663196579,-0.2553864371\H,0,1.98979587
 89,-1.577927745,-0.5487309962\H,0,4.2332683678,1.525076186,0.131337429
 5\H,0,3.255697462,-0.5571104182,-1.8937934086\H,0,4.5105162092,0.66703
 96604,-2.1370317184\H,0,6.0204357919,-0.5432551786,-0.5372527308\H,0,5
 .0266081262,-1.9762539465,-0.854235529\H,0,3.4426167989,-1.3177923491,
 0.959123939\H,0,4.7568538244,-0.3353861625,1.6223953195\H,0,0.04229022
 75,2.1164599623,0.5621982828\\Version=ES64L-G16RevC.02\State=1-A\HF=-3
 235.539056\RMSD=2.813e-09\Dipole=1.8852927,0.2599218,-0.0537487\Quadru
 pole=5.3663475,-3.6445385,-1.721809,-2.923527,-1.2417502,-0.3246667\PG
 =C01 [X(C10H9Br1F2O1)]\\@
 The archive entry for this job was punched.


 IF THE FACTS DO NOT CONFORM TO THE THEORY, THEY MUST BE DISPOSED OF.
 Job cpu time:       0 days  0 hours 26 minutes 56.8 seconds.
 Elapsed time:       0 days  0 hours 27 minutes  5.2 seconds.
 File lengths (MBytes):  RWF=    328 Int=      0 D2E=      0 Chk=     32 Scr=     16
 Normal termination of Gaussian 16 at Tue Sep 17 11:31:31 2024.
