 Entering Gaussian System, Link 0=g16
 Input=smiles_00034_conf_0.gjf
 Output=smiles_00034_conf_0.log
 Initial command:
 /groups/ReismanLab/Software/Gaussian16_RevC/Linux_Binary_AVX2-enabled-CPU/g16/l1.exe "/central/groups/ReismanLab/DM/dft_final/smiles_00034/Gau-102162.inp" -scrdir="/central/groups/ReismanLab/DM/dft_final/smiles_00034/"
 Entering Link 1 = /groups/ReismanLab/Software/Gaussian16_RevC/Linux_Binary_AVX2-enabled-CPU/g16/l1.exe PID=    102164.
  
 Copyright (c) 1988-2021, Gaussian, Inc.  All Rights Reserved.
  
 This is part of the Gaussian(R) 16 program.  It is based on
 the Gaussian(R) 09 system (copyright 2009, Gaussian, Inc.),
 the Gaussian(R) 03 system (copyright 2003, Gaussian, Inc.),
 the Gaussian(R) 98 system (copyright 1998, Gaussian, Inc.),
 the Gaussian(R) 94 system (copyright 1995, Gaussian, Inc.),
 the Gaussian 92(TM) system (copyright 1992, Gaussian, Inc.),
 the Gaussian 90(TM) system (copyright 1990, Gaussian, Inc.),
 the Gaussian 88(TM) system (copyright 1988, Gaussian, Inc.),
 the Gaussian 86(TM) system (copyright 1986, Carnegie Mellon
 University), and the Gaussian 82(TM) system (copyright 1983,
 Carnegie Mellon University). Gaussian is a federally registered
 trademark of Gaussian, Inc.
  
 This software contains proprietary and confidential information,
 including trade secrets, belonging to Gaussian, Inc.
  
 This software is provided under written license and may be
 used, copied, transmitted, or stored only in accord with that
 written license.
  
 The following legend is applicable only to US Government
 contracts under FAR:
  
                    RESTRICTED RIGHTS LEGEND
  
 Use, reproduction and disclosure by the US Government is
 subject to restrictions as set forth in subparagraphs (a)
 and (c) of the Commercial Computer Software - Restricted
 Rights clause in FAR 52.227-19.
  
 Gaussian, Inc.
 340 Quinnipiac St., Bldg. 40, Wallingford CT 06492
  
  
 ---------------------------------------------------------------
 Warning -- This program may not be used in any manner that
 competes with the business of Gaussian, Inc. or will provide
 assistance to any competitor of Gaussian, Inc.  The licensee
 of this program is prohibited from giving any competitor of
 Gaussian, Inc. access to this program.  By using this program,
 the user acknowledges that Gaussian, Inc. is engaged in the
 business of creating and licensing software in the field of
 computational chemistry and represents and warrants to the
 licensee that it is not a competitor of Gaussian, Inc. and that
 it will not use this program in any manner prohibited above.
 ---------------------------------------------------------------
  

 Cite this work as:
 Gaussian 16, Revision C.02,
 M. J. Frisch, G. W. Trucks, H. B. Schlegel, G. E. Scuseria, 
 M. A. Robb, J. R. Cheeseman, G. Scalmani, V. Barone, 
 G. A. Petersson, H. Nakatsuji, X. Li, M. Caricato, A. V. Marenich, 
 J. Bloino, B. G. Janesko, R. Gomperts, B. Mennucci, H. P. Hratchian, 
 J. V. Ortiz, A. F. Izmaylov, J. L. Sonnenberg, D. Williams-Young, 
 F. Ding, F. Lipparini, F. Egidi, J. Goings, B. Peng, A. Petrone, 
 T. Henderson, D. Ranasinghe, V. G. Zakrzewski, J. Gao, N. Rega, 
 G. Zheng, W. Liang, M. Hada, M. Ehara, K. Toyota, R. Fukuda, 
 J. Hasegawa, M. Ishida, T. Nakajima, Y. Honda, O. Kitao, H. Nakai, 
 T. Vreven, K. Throssell, J. A. Montgomery, Jr., J. E. Peralta, 
 F. Ogliaro, M. J. Bearpark, J. J. Heyd, E. N. Brothers, K. N. Kudin, 
 V. N. Staroverov, T. A. Keith, R. Kobayashi, J. Normand, 
 K. Raghavachari, A. P. Rendell, J. C. Burant, S. S. Iyengar, 
 J. Tomasi, M. Cossi, J. M. Millam, M. Klene, C. Adamo, R. Cammi, 
 J. W. Ochterski, R. L. Martin, K. Morokuma, O. Farkas, 
 J. B. Foresman, and D. J. Fox, Gaussian, Inc., Wallingford CT, 2019.
 
 ******************************************
 Gaussian 16:  ES64L-G16RevC.02  7-Dec-2021
                17-Sep-2024 
 ******************************************
 %nprocshared=8
 Will use up to    8 processors via shared memory.
 %Mem=10GB
 %Chk=smiles_00034_conf_0.chk
 ----------------------------------------------------------------------
 #p B3LYP/6-31G(d,p) EmpiricalDispersion=GD3BJ opt freq scf(xqc,tight) 
 integral(grid=ultrafine)
 ----------------------------------------------------------------------
 1/18=20,19=15,26=4,38=1/1,3;
 2/9=110,12=2,17=6,18=5,40=1/2;
 3/5=1,6=6,7=101,11=2,25=1,30=1,71=1,74=-5,75=-5,124=41/1,2,3;
 4//1;
 5/5=2,8=3,13=1,32=2,38=5/2,8;
 6/7=2,8=2,9=2,10=2,28=1/1;
 7//1,2,3,16;
 1/18=20,19=15,26=4/3(2);
 2/9=110/2;
 99//99;
 2/9=110/2;
 3/5=1,6=6,7=101,11=2,25=1,30=1,71=1,74=-5,75=-5,124=41/1,2,3;
 4/5=5,16=3,69=1/1;
 5/5=2,8=3,13=1,32=2,38=5/2,8;
 7//1,2,3,16;
 1/18=20,19=15,26=4/3(-5);
 2/9=110/2;
 6/7=2,8=2,9=2,10=2,19=2,28=1/1;
 99/9=1/99;
 Leave Link    1 at Tue Sep 17 09:49:51 2024, MaxMem=  1342177280 cpu:               0.1 elap:               0.8
 (Enter /groups/ReismanLab/Software/Gaussian16_RevC/Linux_Binary_AVX2-enabled-CPU/g16/l101.exe)
 ----------------------------------
 opt-freq conformers_unique/conf_aa
 ----------------------------------
 Symbolic Z-matrix:
 Charge =  0 Multiplicity = 1
 C                     4.55084   1.71127  -0.03539 
 C                     3.36941   1.88706   0.91197 
 O                     2.18699   1.22647   0.49572 
 C                     2.16671  -0.1586    0.66336 
 O                     2.90913  -0.8484   -0.3156 
 C                     2.49454  -0.64854  -1.66175 
 C                     1.62288  -1.78315  -2.19035 
 C                     0.72606  -0.62996   0.7128 
 C                     0.44939  -1.91432   1.16675 
 C                    -0.85206  -2.38264   1.18172 
 C                    -1.89161  -1.57712   0.74727 
 C                    -1.60215  -0.30008   0.30092 
 Br                   -3.02071   0.8193   -0.30296 
 C                    -0.3068    0.18537   0.2763 
 H                     5.39391   2.29243   0.32914 
 H                     4.83846   0.66487  -0.09402 
 H                     4.28641   2.05806  -1.03136 
 H                     3.64222   1.53977   1.91927 
 H                     3.08333   2.94102   0.96776 
 H                     2.67071  -0.43838   1.60636 
 H                     1.97425   0.31133  -1.74577 
 H                     3.4193   -0.59746  -2.24571 
 H                     2.12545  -2.73467  -2.03725 
 H                     0.66264  -1.81251  -1.68224 
 H                     1.45265  -1.64031  -3.25432 
 H                     1.26137  -2.54457   1.49607 
 H                    -1.06409  -3.38072   1.53372 
 H                    -2.90976  -1.93454   0.75556 
 H                    -0.09228   1.18383  -0.069 
 
 ITRead=  0  0  0  0  0  0  0  0  0  0  0  0  0  0  0  0  0  0  0  0
 ITRead=  0  0  0  0  0  0  0  0  0
 MicOpt= -1 -1 -1 -1 -1 -1 -1 -1 -1 -1 -1 -1 -1 -1 -1 -1 -1 -1 -1 -1
 MicOpt= -1 -1 -1 -1 -1 -1 -1 -1 -1
 NAtoms=     29 NQM=       29 NQMF=       0 NMMI=      0 NMMIF=      0
                NMic=       0 NMicF=      0.
                    Isotopes and Nuclear Properties:
 (Nuclear quadrupole moments (NQMom) in fm**2, nuclear magnetic moments (NMagM)
  in nuclear magnetons)

  Atom         1           2           3           4           5           6           7           8           9          10
 IAtWgt=          12          12          16          12          16          12          12          12          12          12
 AtmWgt=  12.0000000  12.0000000  15.9949146  12.0000000  15.9949146  12.0000000  12.0000000  12.0000000  12.0000000  12.0000000
 NucSpn=           0           0           0           0           0           0           0           0           0           0
 AtZEff=  -0.0000000  -0.0000000  -0.0000000  -0.0000000  -0.0000000  -0.0000000  -0.0000000  -0.0000000  -0.0000000  -0.0000000
 NQMom=    0.0000000   0.0000000   0.0000000   0.0000000   0.0000000   0.0000000   0.0000000   0.0000000   0.0000000   0.0000000
 NMagM=    0.0000000   0.0000000   0.0000000   0.0000000   0.0000000   0.0000000   0.0000000   0.0000000   0.0000000   0.0000000
 AtZNuc=   6.0000000   6.0000000   8.0000000   6.0000000   8.0000000   6.0000000   6.0000000   6.0000000   6.0000000   6.0000000

  Atom        11          12          13          14          15          16          17          18          19          20
 IAtWgt=          12          12          79          12           1           1           1           1           1           1
 AtmWgt=  12.0000000  12.0000000  78.9183361  12.0000000   1.0078250   1.0078250   1.0078250   1.0078250   1.0078250   1.0078250
 NucSpn=           0           0           3           0           1           1           1           1           1           1
 AtZEff=  -0.0000000  -0.0000000  -0.0000000  -0.0000000  -0.0000000  -0.0000000  -0.0000000  -0.0000000  -0.0000000  -0.0000000
 NQMom=    0.0000000   0.0000000  31.3000000   0.0000000   0.0000000   0.0000000   0.0000000   0.0000000   0.0000000   0.0000000
 NMagM=    0.0000000   0.0000000   2.1063990   0.0000000   2.7928460   2.7928460   2.7928460   2.7928460   2.7928460   2.7928460
 AtZNuc=   6.0000000   6.0000000  35.0000000   6.0000000   1.0000000   1.0000000   1.0000000   1.0000000   1.0000000   1.0000000

  Atom        21          22          23          24          25          26          27          28          29
 IAtWgt=           1           1           1           1           1           1           1           1           1
 AtmWgt=   1.0078250   1.0078250   1.0078250   1.0078250   1.0078250   1.0078250   1.0078250   1.0078250   1.0078250
 NucSpn=           1           1           1           1           1           1           1           1           1
 AtZEff=  -0.0000000  -0.0000000  -0.0000000  -0.0000000  -0.0000000  -0.0000000  -0.0000000  -0.0000000  -0.0000000
 NQMom=    0.0000000   0.0000000   0.0000000   0.0000000   0.0000000   0.0000000   0.0000000   0.0000000   0.0000000
 NMagM=    2.7928460   2.7928460   2.7928460   2.7928460   2.7928460   2.7928460   2.7928460   2.7928460   2.7928460
 AtZNuc=   1.0000000   1.0000000   1.0000000   1.0000000   1.0000000   1.0000000   1.0000000   1.0000000   1.0000000
 Leave Link  101 at Tue Sep 17 09:49:51 2024, MaxMem=  1342177280 cpu:               0.2 elap:               0.3
 (Enter /groups/ReismanLab/Software/Gaussian16_RevC/Linux_Binary_AVX2-enabled-CPU/g16/l103.exe)

 GradGradGradGradGradGradGradGradGradGradGradGradGradGradGradGradGradGrad
 Berny optimization.
 Initialization pass.
                           ----------------------------
                           !    Initial Parameters    !
                           ! (Angstroms and Degrees)  !
 --------------------------                            --------------------------
 ! Name  Definition              Value          Derivative Info.                !
 --------------------------------------------------------------------------------
 ! R1    R(1,2)                  1.5245         estimate D2E/DX2                !
 ! R2    R(1,15)                 1.0869         estimate D2E/DX2                !
 ! R3    R(1,16)                 1.0868         estimate D2E/DX2                !
 ! R4    R(1,17)                 1.0873         estimate D2E/DX2                !
 ! R5    R(2,3)                  1.417          estimate D2E/DX2                !
 ! R6    R(2,18)                 1.0999         estimate D2E/DX2                !
 ! R7    R(2,19)                 1.0935         estimate D2E/DX2                !
 ! R8    R(3,4)                  1.3953         estimate D2E/DX2                !
 ! R9    R(4,5)                  1.409          estimate D2E/DX2                !
 ! R10   R(4,8)                  1.5166         estimate D2E/DX2                !
 ! R11   R(4,20)                 1.1052         estimate D2E/DX2                !
 ! R12   R(5,6)                  1.4227         estimate D2E/DX2                !
 ! R13   R(6,7)                  1.5253         estimate D2E/DX2                !
 ! R14   R(6,21)                 1.095          estimate D2E/DX2                !
 ! R15   R(6,22)                 1.0949         estimate D2E/DX2                !
 ! R16   R(7,23)                 1.0869         estimate D2E/DX2                !
 ! R17   R(7,24)                 1.0868         estimate D2E/DX2                !
 ! R18   R(7,25)                 1.0869         estimate D2E/DX2                !
 ! R19   R(8,9)                  1.39           estimate D2E/DX2                !
 ! R20   R(8,14)                 1.3864         estimate D2E/DX2                !
 ! R21   R(9,10)                 1.3832         estimate D2E/DX2                !
 ! R22   R(9,26)                 1.0794         estimate D2E/DX2                !
 ! R23   R(10,11)                1.385          estimate D2E/DX2                !
 ! R24   R(10,27)                1.0794         estimate D2E/DX2                !
 ! R25   R(11,12)                1.3834         estimate D2E/DX2                !
 ! R26   R(11,28)                1.0791         estimate D2E/DX2                !
 ! R27   R(12,13)                1.9053         estimate D2E/DX2                !
 ! R28   R(12,14)                1.3835         estimate D2E/DX2                !
 ! R29   R(14,29)                1.078          estimate D2E/DX2                !
 ! A1    A(2,1,15)             109.331          estimate D2E/DX2                !
 ! A2    A(2,1,16)             110.4652         estimate D2E/DX2                !
 ! A3    A(2,1,17)             110.1201         estimate D2E/DX2                !
 ! A4    A(15,1,16)            109.1249         estimate D2E/DX2                !
 ! A5    A(15,1,17)            108.9847         estimate D2E/DX2                !
 ! A6    A(16,1,17)            108.787          estimate D2E/DX2                !
 ! A7    A(1,2,3)              114.2288         estimate D2E/DX2                !
 ! A8    A(1,2,18)             109.9067         estimate D2E/DX2                !
 ! A9    A(1,2,19)             110.2172         estimate D2E/DX2                !
 ! A10   A(3,2,18)             109.1972         estimate D2E/DX2                !
 ! A11   A(3,2,19)             104.2416         estimate D2E/DX2                !
 ! A12   A(18,2,19)            108.8138         estimate D2E/DX2                !
 ! A13   A(2,3,4)              116.0791         estimate D2E/DX2                !
 ! A14   A(3,4,5)              113.2555         estimate D2E/DX2                !
 ! A15   A(3,4,8)              109.041          estimate D2E/DX2                !
 ! A16   A(3,4,20)             110.3137         estimate D2E/DX2                !
 ! A17   A(5,4,8)              111.7775         estimate D2E/DX2                !
 ! A18   A(5,4,20)             103.2138         estimate D2E/DX2                !
 ! A19   A(8,4,20)             109.0675         estimate D2E/DX2                !
 ! A20   A(4,5,6)              115.7909         estimate D2E/DX2                !
 ! A21   A(5,6,7)              112.9515         estimate D2E/DX2                !
 ! A22   A(5,6,21)             109.5242         estimate D2E/DX2                !
 ! A23   A(5,6,22)             105.3718         estimate D2E/DX2                !
 ! A24   A(7,6,21)             110.7276         estimate D2E/DX2                !
 ! A25   A(7,6,22)             109.4229         estimate D2E/DX2                !
 ! A26   A(21,6,22)            108.632          estimate D2E/DX2                !
 ! A27   A(6,7,23)             109.7636         estimate D2E/DX2                !
 ! A28   A(6,7,24)             111.2845         estimate D2E/DX2                !
 ! A29   A(6,7,25)             109.3282         estimate D2E/DX2                !
 ! A30   A(23,7,24)            108.6041         estimate D2E/DX2                !
 ! A31   A(23,7,25)            108.9868         estimate D2E/DX2                !
 ! A32   A(24,7,25)            108.8341         estimate D2E/DX2                !
 ! A33   A(4,8,9)              119.1369         estimate D2E/DX2                !
 ! A34   A(4,8,14)             120.9731         estimate D2E/DX2                !
 ! A35   A(9,8,14)             119.8623         estimate D2E/DX2                !
 ! A36   A(8,9,10)             120.2411         estimate D2E/DX2                !
 ! A37   A(8,9,26)             119.303          estimate D2E/DX2                !
 ! A38   A(10,9,26)            120.4522         estimate D2E/DX2                !
 ! A39   A(9,10,11)            120.3903         estimate D2E/DX2                !
 ! A40   A(9,10,27)            120.094          estimate D2E/DX2                !
 ! A41   A(11,10,27)           119.5157         estimate D2E/DX2                !
 ! A42   A(10,11,12)           118.7532         estimate D2E/DX2                !
 ! A43   A(10,11,28)           120.8719         estimate D2E/DX2                !
 ! A44   A(12,11,28)           120.3748         estimate D2E/DX2                !
 ! A45   A(11,12,13)           119.2633         estimate D2E/DX2                !
 ! A46   A(11,12,14)           121.7037         estimate D2E/DX2                !
 ! A47   A(13,12,14)           119.0324         estimate D2E/DX2                !
 ! A48   A(8,14,12)            119.0492         estimate D2E/DX2                !
 ! A49   A(8,14,29)            119.8201         estimate D2E/DX2                !
 ! A50   A(12,14,29)           121.1295         estimate D2E/DX2                !
 ! D1    D(15,1,2,3)           176.8613         estimate D2E/DX2                !
 ! D2    D(15,1,2,18)          -60.0141         estimate D2E/DX2                !
 ! D3    D(15,1,2,19)           59.911          estimate D2E/DX2                !
 ! D4    D(16,1,2,3)           -63.0387         estimate D2E/DX2                !
 ! D5    D(16,1,2,18)           60.086          estimate D2E/DX2                !
 ! D6    D(16,1,2,19)         -179.989          estimate D2E/DX2                !
 ! D7    D(17,1,2,3)            57.147          estimate D2E/DX2                !
 ! D8    D(17,1,2,18)         -179.7283         estimate D2E/DX2                !
 ! D9    D(17,1,2,19)          -59.8032         estimate D2E/DX2                !
 ! D10   D(1,2,3,4)             75.2203         estimate D2E/DX2                !
 ! D11   D(18,2,3,4)           -48.2877         estimate D2E/DX2                !
 ! D12   D(19,2,3,4)          -164.4351         estimate D2E/DX2                !
 ! D13   D(2,3,4,5)            -77.3347         estimate D2E/DX2                !
 ! D14   D(2,3,4,8)            157.5305         estimate D2E/DX2                !
 ! D15   D(2,3,4,20)            37.777          estimate D2E/DX2                !
 ! D16   D(3,4,5,6)            -59.4333         estimate D2E/DX2                !
 ! D17   D(8,4,5,6)             64.2138         estimate D2E/DX2                !
 ! D18   D(20,4,5,6)          -178.7108         estimate D2E/DX2                !
 ! D19   D(3,4,8,9)           -165.807          estimate D2E/DX2                !
 ! D20   D(3,4,8,14)            16.1112         estimate D2E/DX2                !
 ! D21   D(5,4,8,9)             68.2012         estimate D2E/DX2                !
 ! D22   D(5,4,8,14)          -109.8806         estimate D2E/DX2                !
 ! D23   D(20,4,8,9)           -45.2853         estimate D2E/DX2                !
 ! D24   D(20,4,8,14)          136.6329         estimate D2E/DX2                !
 ! D25   D(4,5,6,7)            -99.3129         estimate D2E/DX2                !
 ! D26   D(4,5,6,21)            24.6022         estimate D2E/DX2                !
 ! D27   D(4,5,6,22)           141.2844         estimate D2E/DX2                !
 ! D28   D(5,6,7,23)           -52.8886         estimate D2E/DX2                !
 ! D29   D(5,6,7,24)            67.3622         estimate D2E/DX2                !
 ! D30   D(5,6,7,25)          -172.3863         estimate D2E/DX2                !
 ! D31   D(21,6,7,23)         -176.1395         estimate D2E/DX2                !
 ! D32   D(21,6,7,24)          -55.8887         estimate D2E/DX2                !
 ! D33   D(21,6,7,25)           64.3628         estimate D2E/DX2                !
 ! D34   D(22,6,7,23)           64.1482         estimate D2E/DX2                !
 ! D35   D(22,6,7,24)         -175.601          estimate D2E/DX2                !
 ! D36   D(22,6,7,25)          -55.3495         estimate D2E/DX2                !
 ! D37   D(4,8,9,10)          -177.9609         estimate D2E/DX2                !
 ! D38   D(4,8,9,26)             1.3442         estimate D2E/DX2                !
 ! D39   D(14,8,9,10)            0.1427         estimate D2E/DX2                !
 ! D40   D(14,8,9,26)          179.4478         estimate D2E/DX2                !
 ! D41   D(4,8,14,12)          178.033          estimate D2E/DX2                !
 ! D42   D(4,8,14,29)           -2.3684         estimate D2E/DX2                !
 ! D43   D(9,8,14,12)           -0.035          estimate D2E/DX2                !
 ! D44   D(9,8,14,29)          179.5636         estimate D2E/DX2                !
 ! D45   D(8,9,10,11)           -0.1063         estimate D2E/DX2                !
 ! D46   D(8,9,10,27)          179.935          estimate D2E/DX2                !
 ! D47   D(26,9,10,11)        -179.4033         estimate D2E/DX2                !
 ! D48   D(26,9,10,27)           0.638          estimate D2E/DX2                !
 ! D49   D(9,10,11,12)          -0.0371         estimate D2E/DX2                !
 ! D50   D(9,10,11,28)         179.9987         estimate D2E/DX2                !
 ! D51   D(27,10,11,12)        179.9218         estimate D2E/DX2                !
 ! D52   D(27,10,11,28)         -0.0424         estimate D2E/DX2                !
 ! D53   D(10,11,12,13)        179.8906         estimate D2E/DX2                !
 ! D54   D(10,11,12,14)          0.1475         estimate D2E/DX2                !
 ! D55   D(28,11,12,13)         -0.145          estimate D2E/DX2                !
 ! D56   D(28,11,12,14)       -179.8882         estimate D2E/DX2                !
 ! D57   D(11,12,14,8)          -0.1114         estimate D2E/DX2                !
 ! D58   D(11,12,14,29)       -179.7046         estimate D2E/DX2                !
 ! D59   D(13,12,14,8)        -179.8552         estimate D2E/DX2                !
 ! D60   D(13,12,14,29)          0.5517         estimate D2E/DX2                !
 --------------------------------------------------------------------------------
 Trust Radius=3.00D-01 FncErr=1.00D-07 GrdErr=1.00D-06 EigMax=2.50D+02 EigMin=1.00D-04
 Number of steps in this run=    149 maximum allowed number of steps=    174.
 GradGradGradGradGradGradGradGradGradGradGradGradGradGradGradGradGradGrad

 Leave Link  103 at Tue Sep 17 09:49:51 2024, MaxMem=  1342177280 cpu:               0.1 elap:               0.0
 (Enter /groups/ReismanLab/Software/Gaussian16_RevC/Linux_Binary_AVX2-enabled-CPU/g16/l202.exe)
                          Input orientation:                          
 ---------------------------------------------------------------------
 Center     Atomic      Atomic             Coordinates (Angstroms)
 Number     Number       Type             X           Y           Z
 ---------------------------------------------------------------------
      1          6           0        4.550839    1.711269   -0.035390
      2          6           0        3.369411    1.887057    0.911967
      3          8           0        2.186989    1.226473    0.495724
      4          6           0        2.166707   -0.158597    0.663359
      5          8           0        2.909126   -0.848402   -0.315600
      6          6           0        2.494539   -0.648539   -1.661755
      7          6           0        1.622882   -1.783148   -2.190353
      8          6           0        0.726063   -0.629964    0.712803
      9          6           0        0.449385   -1.914318    1.166753
     10          6           0       -0.852065   -2.382637    1.181716
     11          6           0       -1.891610   -1.577116    0.747266
     12          6           0       -1.602154   -0.300077    0.300922
     13         35           0       -3.020708    0.819301   -0.302962
     14          6           0       -0.306800    0.185366    0.276297
     15          1           0        5.393906    2.292431    0.329142
     16          1           0        4.838463    0.664866   -0.094018
     17          1           0        4.286414    2.058060   -1.031363
     18          1           0        3.642222    1.539771    1.919267
     19          1           0        3.083330    2.941022    0.967763
     20          1           0        2.670712   -0.438379    1.606357
     21          1           0        1.974248    0.311329   -1.745772
     22          1           0        3.419304   -0.597457   -2.245713
     23          1           0        2.125455   -2.734666   -2.037247
     24          1           0        0.662637   -1.812515   -1.682239
     25          1           0        1.452647   -1.640305   -3.254321
     26          1           0        1.261374   -2.544572    1.496074
     27          1           0       -1.064086   -3.380721    1.533718
     28          1           0       -2.909764   -1.934545    0.755563
     29          1           0       -0.092279    1.183827   -0.069004
 ---------------------------------------------------------------------
                    Distance matrix (angstroms):
                    1          2          3          4          5
     1  C    0.000000
     2  C    1.524519   0.000000
     3  O    2.470809   1.416951   0.000000
     4  C    3.109458   2.386001   1.395325   0.000000
     5  O    3.053792   3.033400   2.341973   1.409035   0.000000
     6  C    3.527339   3.717350   2.874886   2.398681   1.422659
     7  C    5.042593   5.113233   4.073210   3.328451   2.458225
     8  C    4.546435   3.655455   2.372296   1.516605   2.423035
     9  C    5.604636   4.800200   3.651591   2.507022   3.063311
    10  C    6.887146   6.010317   4.767820   3.785239   4.329249
    11  C    7.275381   6.301266   4.955638   4.299904   4.970692
    12  C    6.482124   5.465655   4.089731   3.788890   4.586110
    13  Br   7.628598   6.591644   5.284296   5.366501   6.159896
    14  C    5.101193   4.100531   2.711279   2.527126   3.429460
    15  H    1.086920   2.145365   3.383539   4.066208   4.056433
    16  H    1.086795   2.159599   2.773719   2.896548   2.461995
    17  H    1.087266   2.155613   2.726008   3.504113   3.294959
    18  H    2.162332   1.099858   2.059693   2.576606   3.351929
    19  H    2.161525   1.093526   1.991463   3.246613   4.004635
    20  H    3.294115   2.525472   2.058939   1.105235   1.979617
    21  H    3.394710   3.390129   2.430443   2.462069   2.065033
    22  H    3.390592   4.018239   3.515793   3.197546   2.012111
    23  H    5.445755   5.621887   4.702164   3.732440   2.671367
    24  H    5.499752   5.267196   4.037650   3.240294   2.800701
    25  H    5.585101   5.785691   4.777082   4.248948   3.374096
    26  H    5.592686   4.942098   4.009769   2.684385   2.978967
    27  H    7.740662   6.913173   5.733512   4.645174   5.061526
    28  H    8.341352   7.352356   6.003036   5.378946   6.015529
    29  H    4.673101   3.666079   2.348574   2.727907   3.633070
                    6          7          8          9         10
     6  C    0.000000
     7  C    1.525300   0.000000
     8  C    2.960807   3.249989   0.000000
     9  C    3.712857   3.558716   1.390031   0.000000
    10  C    4.721459   4.225588   2.404626   1.383228   0.000000
    11  C    5.089591   4.585161   2.783971   2.402068   1.385015
    12  C    4.555921   4.336681   2.387271   2.750318   2.382329
    13  Br   5.866755   5.647823   4.143722   4.655564   4.142425
    14  C    3.506984   3.699064   1.386400   2.402790   2.777002
    15  H    4.584682   6.097444   5.520539   6.545732   7.848267
    16  H    3.110758   4.552731   4.386272   5.244592   6.580037
    17  H    3.306643   4.815863   4.789957   5.944265   7.142932
    18  H    4.350815   5.657605   3.829790   4.763530   6.010647
    19  H    4.488428   5.867230   4.286450   5.527349   6.623779
    20  H    3.279598   4.161894   2.148675   2.702950   4.046037
    21  H    1.095037   2.169779   2.913518   3.970076   4.880131
    22  H    1.094901   2.153151   4.000928   4.711631   5.760098
    23  H    2.151544   1.086926   3.735083   3.707802   4.399008
    24  H    2.170512   1.086790   2.671830   2.858775   3.289620
    25  H    2.146021   1.086928   4.157739   4.541752   5.053828
    26  H    3.884265   3.781560   2.136772   1.079352   2.142818
    27  H    5.508147   4.862175   3.383076   2.139065   1.079366
    28  H    6.058360   5.407977   3.863029   3.384283   2.148609
    29  H    3.547682   4.030488   2.137930   3.379200   3.855028
                   11         12         13         14         15
    11  C    0.000000
    12  C    1.383415   0.000000
    13  Br   2.849676   1.905250   0.000000
    14  C    2.416563   1.383547   2.846526   0.000000
    15  H    8.259961   7.461015   8.565943   6.077874   0.000000
    16  H    7.143397   6.524464   7.863464   5.180809   1.771030
    17  H    7.385526   6.481591   7.447088   5.129772   1.769871
    18  H    6.458473   5.788571   7.060596   4.486484   2.482617
    19  H    6.724003   5.736127   6.586024   4.423205   2.483398
    20  H    4.780119   4.469974   6.133475   3.320195   4.062559
    21  H    4.972556   4.165743   5.223918   3.050869   4.463642
    22  H    6.174420   5.638158   6.874244   4.566968   4.345157
    23  H    5.022971   5.028849   6.490101   4.449149   6.446260
    24  H    3.532999   3.368928   4.732429   2.960945   6.578840
    25  H    5.215433   4.875221   5.896702   4.346722   6.621264
    26  H    3.382010   3.829614   5.734841   3.376328   6.468087
    27  H    2.134548   3.361499   4.984170   3.856367   8.679938
    28  H    1.079102   2.141969   2.952363   3.391038   9.327384
    29  H    3.395098   2.149078   2.960288   1.078043   5.611217
                   16         17         18         19         20
    16  H    0.000000
    17  H    1.767586   0.000000
    18  H    2.499953   3.064282   0.000000
    19  H    3.064108   2.494702   1.783599   0.000000
    20  H    2.967756   3.974955   2.225943   3.463872   0.000000
    21  H    3.325208   2.984554   4.209955   3.938099   3.504838
    22  H    2.870064   3.046030   4.686630   4.791675   3.927358
    23  H    4.763756   5.352734   6.018754   6.493154   4.341208
    24  H    5.108560   5.341979   5.752094   5.956373   4.090902
    25  H    5.173498   5.162333   6.455473   6.440006   5.153106
    26  H    5.062060   6.059952   4.746513   5.804342   2.536621
    27  H    7.338692   8.049089   6.819768   7.581939   4.755142
    28  H    8.216675   8.421340   7.506904   7.728736   5.839869
    29  H    4.958041   4.567644   4.245754   3.774535   3.615592
                   21         22         23         24         25
    21  H    0.000000
    22  H    1.778770   0.000000
    23  H    3.063642   2.507023   0.000000
    24  H    2.497012   3.064813   1.765284   0.000000
    25  H    2.521242   2.443882   1.769622   1.767828   0.000000
    26  H    4.378803   4.738025   3.642407   3.316032   4.839477
    27  H    5.798082   6.490874   4.831392   3.972811   5.682281
    28  H    5.929097   7.131098   5.813210   4.326641   5.932654
    29  H    2.800596   4.499139   4.913950   3.485755   4.528660
                   26         27         28         29
    26  H    0.000000
    27  H    2.471504   0.000000
    28  H    4.280057   2.470522   0.000000
    29  H    4.264130   4.934392   4.282799   0.000000
 Stoichiometry    C11H15BrO2
 Framework group  C1[X(C11H15BrO2)]
 Deg. of freedom    81
 Full point group                 C1      NOp   1
 Largest Abelian subgroup         C1      NOp   1
 Largest concise Abelian subgroup C1      NOp   1
                         Standard orientation:                         
 ---------------------------------------------------------------------
 Center     Atomic      Atomic             Coordinates (Angstroms)
 Number     Number       Type             X           Y           Z
 ---------------------------------------------------------------------
      1          6           0        4.399598   -1.553296    0.052438
      2          6           0        3.214931   -1.830724   -0.866123
      3          8           0        2.008771   -1.204812   -0.464669
      4          6           0        1.921755    0.167621   -0.700861
      5          8           0        2.644423    0.939348    0.230572
      6          6           0        2.257838    0.789034    1.591424
      7          6           0        1.341527    1.907788    2.076502
      8          6           0        0.460187    0.569374   -0.750921
      9          6           0        0.117892    1.815096   -1.263945
     10          6           0       -1.204035    2.221930   -1.281627
     11          6           0       -2.198974    1.392623   -0.791104
     12          6           0       -1.844359    0.154398   -0.286243
     13         35           0       -3.200955   -0.996832    0.395148
     14          6           0       -0.527592   -0.269309   -0.257962
     15          1           0        5.263803   -2.112908   -0.295960
     16          1           0        4.638955   -0.493189    0.054217
     17          1           0        4.165105   -1.861026    1.068540
     18          1           0        3.457626   -1.522689   -1.893694
     19          1           0        2.977507   -2.898163   -0.864721
     20          1           0        2.399383    0.422156   -1.664514
     21          1           0        1.783990   -0.188188    1.731464
     22          1           0        3.191793    0.809980    2.162472
     23          1           0        1.797133    2.872374    1.868165
     24          1           0        0.374171    1.867387    1.582839
     25          1           0        1.192536    1.811287    3.148836
     26          1           0        0.895126    2.464435   -1.637131
     27          1           0       -1.467042    3.190170   -1.679584
     28          1           0       -3.232686    1.702143   -0.801086
     29          1           0       -0.262162   -1.238149    0.133283
 ---------------------------------------------------------------------
 Rotational constants (GHZ):           0.8114135           0.2641124           0.2379356
 Leave Link  202 at Tue Sep 17 09:49:51 2024, MaxMem=  1342177280 cpu:               0.1 elap:               0.0
 (Enter /groups/ReismanLab/Software/Gaussian16_RevC/Linux_Binary_AVX2-enabled-CPU/g16/l301.exe)
 Standard basis: 6-31G(d,p) (6D, 7F)
 Ernie: Thresh=  0.10000D-02 Tol=  0.10000D-05 Strict=F.
 There are   300 symmetry adapted cartesian basis functions of A   symmetry.
 There are   300 symmetry adapted basis functions of A   symmetry.
   300 basis functions,   552 primitive gaussians,   300 cartesian basis functions
    66 alpha electrons       66 beta electrons
       nuclear repulsion energy      1223.3412488613 Hartrees.
 IExCor=  402 DFT=T Ex+Corr=B3LYP ExCW=0 ScaHFX=  0.200000
 ScaDFX=  0.800000  0.720000  1.000000  0.810000 ScalE2=  1.000000  1.000000
 IRadAn=      5 IRanWt=     -1 IRanGd=            0 ICorTp=0 IEmpDi=141
 NAtoms=   29 NActive=   29 NUniq=   29 SFac= 1.00D+00 NAtFMM=   60 NAOKFM=F Big=F
 Integral buffers will be    131072 words long.
 Raffenetti 2 integral format.
 Two-electron integral symmetry is turned on.
 R6Disp:  Grimme-D3(BJ) Dispersion energy=       -0.0569921200 Hartrees.
 Nuclear repulsion after empirical dispersion term =     1223.2842567413 Hartrees.
 Leave Link  301 at Tue Sep 17 09:49:51 2024, MaxMem=  1342177280 cpu:               0.1 elap:               0.1
 (Enter /groups/ReismanLab/Software/Gaussian16_RevC/Linux_Binary_AVX2-enabled-CPU/g16/l302.exe)
 NPDir=0 NMtPBC=     1 NCelOv=     1 NCel=       1 NClECP=     1 NCelD=      1
         NCelK=      1 NCelE2=     1 NClLst=     1 CellRange=     0.0.
 One-electron integrals computed using PRISM.
 One-electron integral symmetry used in STVInt
 NBasis=   300 RedAO= T EigKep=  4.11D-04  NBF=   300
 NBsUse=   300 1.00D-06 EigRej= -1.00D+00 NBFU=   300
 Precomputing XC quadrature grid using
 IXCGrd= 4 IRadAn=           5 IRanWt=          -1 IRanGd=           0 AccXCQ= 0.00D+00.
 Generated NRdTot=       0 NPtTot=           0 NUsed=           0 NTot=          32
 NSgBfM=   300   300   300   300   300 MxSgAt=    29 MxSgA2=    29.
 Leave Link  302 at Tue Sep 17 09:49:52 2024, MaxMem=  1342177280 cpu:               1.7 elap:               0.3
 (Enter /groups/ReismanLab/Software/Gaussian16_RevC/Linux_Binary_AVX2-enabled-CPU/g16/l303.exe)
 DipDrv:  MaxL=1.
 Leave Link  303 at Tue Sep 17 09:49:52 2024, MaxMem=  1342177280 cpu:               0.1 elap:               0.0
 (Enter /groups/ReismanLab/Software/Gaussian16_RevC/Linux_Binary_AVX2-enabled-CPU/g16/l401.exe)
 ExpMin= 1.43D-01 ExpMax= 5.74D+05 ExpMxC= 5.74D+03 IAcc=3 IRadAn=         5 AccDes= 0.00D+00
 Harris functional with IExCor=  402 and IRadAn=       5 diagonalized for initial guess.
 HarFok:  IExCor=  402 AccDes= 0.00D+00 IRadAn=         5 IDoV= 1 UseB2=F ITyADJ=14
 ICtDFT=  3500011 ScaDFX=  1.000000  1.000000  1.000000  1.000000
 FoFCou: FMM=F IPFlag=           0 FMFlag=      100000 FMFlg1=           0
         NFxFlg=           0 DoJE=T BraDBF=F KetDBF=T FulRan=T
         wScrn=  0.000000 ICntrl=       500 IOpCl=  0 I1Cent=   200000004 NGrid=           0
         NMat0=    1 NMatS0=      1 NMatT0=    0 NMatD0=    1 NMtDS0=    0 NMtDT0=    0
 Petite list used in FoFCou.
 Harris En= -3150.56929242587    
 JPrj=0 DoOrth=F DoCkMO=F.
 Leave Link  401 at Tue Sep 17 09:49:53 2024, MaxMem=  1342177280 cpu:               9.5 elap:               1.3
 (Enter /groups/ReismanLab/Software/Gaussian16_RevC/Linux_Binary_AVX2-enabled-CPU/g16/l502.exe)
 Integral symmetry usage will be decided dynamically.
 Closed shell SCF:
 Using DIIS extrapolation, IDIIS=  1040.
 NGot=  1342177280 LenX=  1341990939 LenY=  1341900498
 Requested convergence on RMS density matrix=1.00D-08 within  32 cycles.
 Requested convergence on MAX density matrix=1.00D-06.
 Requested convergence on             energy=1.00D-06.
 No special actions if energy rises.
 Fock matrices will be formed incrementally for  20 cycles.
 Integral accuracy reduced to 1.0D-05 until final iterations.

 Cycle   1  Pass 0  IDiag  1:
 FoFJK:  IHMeth= 1 ICntrl=       0 DoSepK=F KAlg= 0 I1Cent=           0 FoldK=F
 IRaf= 840000000 NMat=       1 IRICut=       1 DoRegI=T DoRafI=F ISym2E= 0 IDoP0=0 IntGTp=1.
 FoFCou: FMM=F IPFlag=           0 FMFlag=      100000 FMFlg1=           0
         NFxFlg=           0 DoJE=F BraDBF=F KetDBF=F FulRan=T
         wScrn=  0.000000 ICntrl=         0 IOpCl=  0 I1Cent=           0 NGrid=           0
         NMat0=    1 NMatS0=      1 NMatT0=    0 NMatD0=    1 NMtDS0=    0 NMtDT0=    0
 Symmetry not used in FoFCou.
 E= -3150.07347709576    
 DIIS: error= 1.91D-01 at cycle   1 NSaved=   1.
 NSaved= 1 IEnMin= 1 EnMin= -3150.07347709576     IErMin= 1 ErrMin= 1.91D-01
 ErrMax= 1.91D-01  0.00D+00 EMaxC= 1.00D-01 BMatC= 6.86D-01 BMatP= 6.86D-01
 IDIUse=3 WtCom= 0.00D+00 WtEn= 1.00D+00
 Coeff-Com:  0.100D+01
 Coeff-En:   0.100D+01
 Coeff:      0.100D+01
 Gap=     0.291 Goal=   None    Shift=    0.000
 GapD=    0.291 DampG=1.000 DampE=0.250 DampFc=0.2500 IDamp=-1.
 Damping current iteration by 2.50D-01
 RMSDP=4.36D-03 MaxDP=1.41D-01              OVMax= 1.55D-01

 Cycle   2  Pass 0  IDiag  1:
 RMSU=  1.06D-03    CP:  9.92D-01
 E= -3150.19823174667     Delta-E=       -0.124754650913 Rises=F Damp=T
 DIIS: error= 1.41D-01 at cycle   2 NSaved=   2.
 NSaved= 2 IEnMin= 2 EnMin= -3150.19823174667     IErMin= 2 ErrMin= 1.41D-01
 ErrMax= 1.41D-01  0.00D+00 EMaxC= 1.00D-01 BMatC= 2.79D-01 BMatP= 6.86D-01
 IDIUse=3 WtCom= 0.00D+00 WtEn= 1.00D+00
 Coeff-Com: -0.132D+01 0.232D+01
 Coeff-En:   0.000D+00 0.100D+01
 Coeff:      0.000D+00 0.100D+01
 Gap=     0.231 Goal=   None    Shift=    0.000
 RMSDP=2.24D-03 MaxDP=1.11D-01 DE=-1.25D-01 OVMax= 5.56D-02

 Cycle   3  Pass 0  IDiag  1:
 RMSU=  6.78D-04    CP:  9.69D-01  2.89D+00
 E= -3150.34117941087     Delta-E=       -0.142947664202 Rises=F Damp=F
 DIIS: error= 1.02D-02 at cycle   3 NSaved=   3.
 NSaved= 3 IEnMin= 3 EnMin= -3150.34117941087     IErMin= 3 ErrMin= 1.02D-02
 ErrMax= 1.02D-02  0.00D+00 EMaxC= 1.00D-01 BMatC= 7.79D-02 BMatP= 2.79D-01
 IDIUse=3 WtCom= 8.98D-01 WtEn= 1.02D-01
 EnCoef did   100 forward-backward iterations
 Coeff-Com:  0.202D+01-0.263D+01 0.161D+01
 Coeff-En:   0.127D+00 0.151D-02 0.871D+00
 Coeff:      0.182D+01-0.236D+01 0.154D+01
 Gap=     0.231 Goal=   None    Shift=    0.000
 RMSDP=1.05D-03 MaxDP=3.86D-02 DE=-1.43D-01 OVMax= 4.25D-02

 Cycle   4  Pass 0  IDiag  1:
 RMSU=  2.83D-04    CP:  9.71D-01  1.98D+00  1.42D+00
 E= -3150.41714689266     Delta-E=       -0.075967481785 Rises=F Damp=F
 DIIS: error= 1.68D-03 at cycle   4 NSaved=   4.
 NSaved= 4 IEnMin= 4 EnMin= -3150.41714689266     IErMin= 4 ErrMin= 1.68D-03
 ErrMax= 1.68D-03  0.00D+00 EMaxC= 1.00D-01 BMatC= 2.37D-03 BMatP= 7.79D-02
 IDIUse=3 WtCom= 9.83D-01 WtEn= 1.68D-02
 Coeff-Com:  0.816D+00-0.107D+01 0.679D+00 0.576D+00
 Coeff-En:   0.000D+00 0.000D+00 0.000D+00 0.100D+01
 Coeff:      0.802D+00-0.105D+01 0.668D+00 0.583D+00
 Gap=     0.225 Goal=   None    Shift=    0.000
 RMSDP=1.99D-04 MaxDP=8.12D-03 DE=-7.60D-02 OVMax= 1.10D-02

 Cycle   5  Pass 0  IDiag  1:
 RMSU=  1.10D-04    CP:  9.71D-01  2.05D+00  1.44D+00  4.75D-01
 E= -3150.41909296375     Delta-E=       -0.001946071092 Rises=F Damp=F
 DIIS: error= 8.32D-04 at cycle   5 NSaved=   5.
 NSaved= 5 IEnMin= 5 EnMin= -3150.41909296375     IErMin= 5 ErrMin= 8.32D-04
 ErrMax= 8.32D-04  0.00D+00 EMaxC= 1.00D-01 BMatC= 4.00D-04 BMatP= 2.37D-03
 IDIUse=3 WtCom= 9.92D-01 WtEn= 8.32D-03
 Coeff-Com:  0.166D+00-0.219D+00 0.153D+00 0.317D+00 0.583D+00
 Coeff-En:   0.000D+00 0.000D+00 0.000D+00 0.991D-01 0.901D+00
 Coeff:      0.165D+00-0.217D+00 0.151D+00 0.315D+00 0.585D+00
 Gap=     0.224 Goal=   None    Shift=    0.000
 RMSDP=8.41D-05 MaxDP=3.68D-03 DE=-1.95D-03 OVMax= 8.07D-03

 Cycle   6  Pass 0  IDiag  1:
 RMSU=  4.40D-05    CP:  9.71D-01  2.05D+00  1.45D+00  5.92D-01  4.27D-01
 E= -3150.41941038709     Delta-E=       -0.000317423343 Rises=F Damp=F
 DIIS: error= 4.23D-04 at cycle   6 NSaved=   6.
 NSaved= 6 IEnMin= 6 EnMin= -3150.41941038709     IErMin= 6 ErrMin= 4.23D-04
 ErrMax= 4.23D-04  0.00D+00 EMaxC= 1.00D-01 BMatC= 5.92D-05 BMatP= 4.00D-04
 IDIUse=3 WtCom= 9.96D-01 WtEn= 4.23D-03
 Coeff-Com:  0.561D-01-0.740D-01 0.553D-01 0.158D+00 0.364D+00 0.440D+00
 Coeff-En:   0.000D+00 0.000D+00 0.000D+00 0.000D+00 0.118D+00 0.882D+00
 Coeff:      0.558D-01-0.736D-01 0.550D-01 0.158D+00 0.363D+00 0.442D+00
 Gap=     0.224 Goal=   None    Shift=    0.000
 RMSDP=3.12D-05 MaxDP=1.15D-03 DE=-3.17D-04 OVMax= 3.28D-03

 Cycle   7  Pass 0  IDiag  1:
 RMSU=  1.24D-05    CP:  9.71D-01  2.05D+00  1.44D+00  5.84D-01  5.76D-01
                    CP:  4.89D-01
 E= -3150.41947272671     Delta-E=       -0.000062339623 Rises=F Damp=F
 DIIS: error= 7.53D-05 at cycle   7 NSaved=   7.
 NSaved= 7 IEnMin= 7 EnMin= -3150.41947272671     IErMin= 7 ErrMin= 7.53D-05
 ErrMax= 7.53D-05  0.00D+00 EMaxC= 1.00D-01 BMatC= 2.47D-06 BMatP= 5.92D-05
 IDIUse=1 WtCom= 1.00D+00 WtEn= 0.00D+00
 Coeff-Com:  0.119D-01-0.156D-01 0.130D-01 0.509D-01 0.133D+00 0.230D+00
 Coeff-Com:  0.577D+00
 Coeff:      0.119D-01-0.156D-01 0.130D-01 0.509D-01 0.133D+00 0.230D+00
 Coeff:      0.577D+00
 Gap=     0.224 Goal=   None    Shift=    0.000
 RMSDP=6.44D-06 MaxDP=2.19D-04 DE=-6.23D-05 OVMax= 5.07D-04

 Initial convergence to 1.0D-05 achieved.  Increase integral accuracy.
 Cycle   8  Pass 1  IDiag  1:
 E= -3150.41947577744     Delta-E=       -0.000003050725 Rises=F Damp=F
 DIIS: error= 4.14D-05 at cycle   1 NSaved=   1.
 NSaved= 1 IEnMin= 1 EnMin= -3150.41947577744     IErMin= 1 ErrMin= 4.14D-05
 ErrMax= 4.14D-05  0.00D+00 EMaxC= 1.00D-01 BMatC= 5.30D-07 BMatP= 5.30D-07
 IDIUse=1 WtCom= 1.00D+00 WtEn= 0.00D+00
 Coeff-Com:  0.100D+01
 Coeff:      0.100D+01
 Gap=     0.224 Goal=   None    Shift=    0.000
 RMSDP=6.44D-06 MaxDP=2.19D-04 DE=-3.05D-06 OVMax= 2.94D-04

 Cycle   9  Pass 1  IDiag  1:
 RMSU=  1.83D-05    CP:  1.00D+00
 E= -3150.41947557003     Delta-E=        0.000000207408 Rises=F Damp=F
 DIIS: error= 3.44D-05 at cycle   2 NSaved=   2.
 NSaved= 2 IEnMin= 1 EnMin= -3150.41947577744     IErMin= 2 ErrMin= 3.44D-05
 ErrMax= 3.44D-05  0.00D+00 EMaxC= 1.00D-01 BMatC= 6.60D-07 BMatP= 5.30D-07
 IDIUse=1 WtCom= 1.00D+00 WtEn= 0.00D+00
 Coeff-Com:  0.533D+00 0.467D+00
 Coeff:      0.533D+00 0.467D+00
 Gap=     0.224 Goal=   None    Shift=    0.000
 RMSDP=3.64D-06 MaxDP=1.39D-04 DE= 2.07D-07 OVMax= 2.68D-04

 Cycle  10  Pass 1  IDiag  1:
 RMSU=  3.56D-06    CP:  1.00D+00  9.61D-01
 E= -3150.41947610914     Delta-E=       -0.000000539105 Rises=F Damp=F
 DIIS: error= 1.49D-05 at cycle   3 NSaved=   3.
 NSaved= 3 IEnMin= 3 EnMin= -3150.41947610914     IErMin= 3 ErrMin= 1.49D-05
 ErrMax= 1.49D-05  0.00D+00 EMaxC= 1.00D-01 BMatC= 7.57D-08 BMatP= 5.30D-07
 IDIUse=1 WtCom= 1.00D+00 WtEn= 0.00D+00
 Coeff-Com:  0.615D-01 0.254D+00 0.684D+00
 Coeff:      0.615D-01 0.254D+00 0.684D+00
 Gap=     0.224 Goal=   None    Shift=    0.000
 RMSDP=1.24D-06 MaxDP=5.74D-05 DE=-5.39D-07 OVMax= 1.19D-04

 Cycle  11  Pass 1  IDiag  1:
 RMSU=  7.84D-07    CP:  1.00D+00  9.76D-01  7.44D-01
 E= -3150.41947616755     Delta-E=       -0.000000058410 Rises=F Damp=F
 DIIS: error= 5.83D-06 at cycle   4 NSaved=   4.
 NSaved= 4 IEnMin= 4 EnMin= -3150.41947616755     IErMin= 4 ErrMin= 5.83D-06
 ErrMax= 5.83D-06  0.00D+00 EMaxC= 1.00D-01 BMatC= 1.75D-08 BMatP= 7.57D-08
 IDIUse=1 WtCom= 1.00D+00 WtEn= 0.00D+00
 Coeff-Com: -0.672D-03 0.131D+00 0.449D+00 0.421D+00
 Coeff:     -0.672D-03 0.131D+00 0.449D+00 0.421D+00
 Gap=     0.224 Goal=   None    Shift=    0.000
 RMSDP=4.67D-07 MaxDP=2.28D-05 DE=-5.84D-08 OVMax= 4.94D-05

 Cycle  12  Pass 1  IDiag  1:
 RMSU=  1.02D-07    CP:  1.00D+00  9.77D-01  7.72D-01  4.34D-01
 E= -3150.41947618528     Delta-E=       -0.000000017736 Rises=F Damp=F
 DIIS: error= 5.14D-07 at cycle   5 NSaved=   5.
 NSaved= 5 IEnMin= 5 EnMin= -3150.41947618528     IErMin= 5 ErrMin= 5.14D-07
 ErrMax= 5.14D-07  0.00D+00 EMaxC= 1.00D-01 BMatC= 2.16D-10 BMatP= 1.75D-08
 IDIUse=1 WtCom= 1.00D+00 WtEn= 0.00D+00
 Coeff-Com: -0.154D-02 0.678D-01 0.236D+00 0.234D+00 0.463D+00
 Coeff:     -0.154D-02 0.678D-01 0.236D+00 0.234D+00 0.463D+00
 Gap=     0.224 Goal=   None    Shift=    0.000
 RMSDP=5.15D-08 MaxDP=2.27D-06 DE=-1.77D-08 OVMax= 2.97D-06

 Cycle  13  Pass 1  IDiag  1:
 RMSU=  3.08D-08    CP:  1.00D+00  9.77D-01  7.69D-01  4.40D-01  6.17D-01
 E= -3150.41947618543     Delta-E=       -0.000000000150 Rises=F Damp=F
 DIIS: error= 1.11D-07 at cycle   6 NSaved=   6.
 NSaved= 6 IEnMin= 6 EnMin= -3150.41947618543     IErMin= 6 ErrMin= 1.11D-07
 ErrMax= 1.11D-07  0.00D+00 EMaxC= 1.00D-01 BMatC= 7.51D-12 BMatP= 2.16D-10
 IDIUse=1 WtCom= 1.00D+00 WtEn= 0.00D+00
 Coeff-Com: -0.716D-03 0.257D-01 0.899D-01 0.912D-01 0.230D+00 0.564D+00
 Coeff:     -0.716D-03 0.257D-01 0.899D-01 0.912D-01 0.230D+00 0.564D+00
 Gap=     0.224 Goal=   None    Shift=    0.000
 RMSDP=1.11D-08 MaxDP=4.39D-07 DE=-1.50D-10 OVMax= 5.06D-07

 Cycle  14  Pass 1  IDiag  1:
 RMSU=  8.88D-09    CP:  1.00D+00  9.77D-01  7.69D-01  4.41D-01  6.33D-01
                    CP:  8.09D-01
 E= -3150.41947618546     Delta-E=       -0.000000000030 Rises=F Damp=F
 DIIS: error= 3.52D-08 at cycle   7 NSaved=   7.
 NSaved= 7 IEnMin= 7 EnMin= -3150.41947618546     IErMin= 7 ErrMin= 3.52D-08
 ErrMax= 3.52D-08  0.00D+00 EMaxC= 1.00D-01 BMatC= 5.85D-13 BMatP= 7.51D-12
 IDIUse=1 WtCom= 1.00D+00 WtEn= 0.00D+00
 Coeff-Com: -0.206D-03 0.623D-02 0.219D-01 0.230D-01 0.691D-01 0.266D+00
 Coeff-Com:  0.614D+00
 Coeff:     -0.206D-03 0.623D-02 0.219D-01 0.230D-01 0.691D-01 0.266D+00
 Coeff:      0.614D+00
 Gap=     0.224 Goal=   None    Shift=    0.000
 RMSDP=3.60D-09 MaxDP=1.55D-07 DE=-3.00D-11 OVMax= 2.16D-07

 SCF Done:  E(RB3LYP) =  -3150.41947619     A.U. after   14 cycles
            NFock= 14  Conv=0.36D-08     -V/T= 2.0066
 KE= 3.129609211700D+03 PE=-9.926101953673D+03 EE= 2.422789009046D+03
 Leave Link  502 at Tue Sep 17 09:50:14 2024, MaxMem=  1342177280 cpu:             161.4 elap:              21.1
 (Enter /groups/ReismanLab/Software/Gaussian16_RevC/Linux_Binary_AVX2-enabled-CPU/g16/l508.exe)
 QCSCF skips out because SCF is already converged.
 Leave Link  508 at Tue Sep 17 09:50:14 2024, MaxMem=  1342177280 cpu:               0.0 elap:               0.0
 (Enter /groups/ReismanLab/Software/Gaussian16_RevC/Linux_Binary_AVX2-enabled-CPU/g16/l601.exe)
 Copying SCF densities to generalized density rwf, IOpCl= 0 IROHF=0.

 **********************************************************************

            Population analysis using the SCF Density.

 **********************************************************************

 Orbital symmetries:
       Occupied  (A) (A) (A) (A) (A) (A) (A) (A) (A) (A) (A) (A)
                 (A) (A) (A) (A) (A) (A) (A) (A) (A) (A) (A) (A)
                 (A) (A) (A) (A) (A) (A) (A) (A) (A) (A) (A) (A)
                 (A) (A) (A) (A) (A) (A) (A) (A) (A) (A) (A) (A)
                 (A) (A) (A) (A) (A) (A) (A) (A) (A) (A) (A) (A)
                 (A) (A) (A) (A) (A) (A)
       Virtual   (A) (A) (A) (A) (A) (A) (A) (A) (A) (A) (A) (A)
                 (A) (A) (A) (A) (A) (A) (A) (A) (A) (A) (A) (A)
                 (A) (A) (A) (A) (A) (A) (A) (A) (A) (A) (A) (A)
                 (A) (A) (A) (A) (A) (A) (A) (A) (A) (A) (A) (A)
                 (A) (A) (A) (A) (A) (A) (A) (A) (A) (A) (A) (A)
                 (A) (A) (A) (A) (A) (A) (A) (A) (A) (A) (A) (A)
                 (A) (A) (A) (A) (A) (A) (A) (A) (A) (A) (A) (A)
                 (A) (A) (A) (A) (A) (A) (A) (A) (A) (A) (A) (A)
                 (A) (A) (A) (A) (A) (A) (A) (A) (A) (A) (A) (A)
                 (A) (A) (A) (A) (A) (A) (A) (A) (A) (A) (A) (A)
                 (A) (A) (A) (A) (A) (A) (A) (A) (A) (A) (A) (A)
                 (A) (A) (A) (A) (A) (A) (A) (A) (A) (A) (A) (A)
                 (A) (A) (A) (A) (A) (A) (A) (A) (A) (A) (A) (A)
                 (A) (A) (A) (A) (A) (A) (A) (A) (A) (A) (A) (A)
                 (A) (A) (A) (A) (A) (A) (A) (A) (A) (A) (A) (A)
                 (A) (A) (A) (A) (A) (A) (A) (A) (A) (A) (A) (A)
                 (A) (A) (A) (A) (A) (A) (A) (A) (A) (A) (A) (A)
                 (A) (A) (A) (A) (A) (A) (A) (A) (A) (A) (A) (A)
                 (A) (A) (A) (A) (A) (A) (A) (A) (A) (A) (A) (A)
                 (A) (A) (A) (A) (A) (A)
 The electronic state is 1-A.
 Alpha  occ. eigenvalues -- -482.90667 -61.86841 -56.38973 -56.38566 -56.38555
 Alpha  occ. eigenvalues --  -19.15978 -19.14934 -10.29010 -10.24372 -10.23742
 Alpha  occ. eigenvalues --  -10.22580 -10.20102 -10.20039 -10.19927 -10.19610
 Alpha  occ. eigenvalues --  -10.19477 -10.17345 -10.16778  -8.57986  -6.53374
 Alpha  occ. eigenvalues --   -6.52115  -6.52084  -2.64949  -2.64589  -2.64567
 Alpha  occ. eigenvalues --   -2.63562  -2.63562  -1.07471  -1.01206  -0.87912
 Alpha  occ. eigenvalues --   -0.80651  -0.78179  -0.75332  -0.74865  -0.72478
 Alpha  occ. eigenvalues --   -0.67876  -0.63564  -0.61578  -0.59915  -0.56917
 Alpha  occ. eigenvalues --   -0.52638  -0.51278  -0.50719  -0.48473  -0.46341
 Alpha  occ. eigenvalues --   -0.45345  -0.44264  -0.42657  -0.42187  -0.41725
 Alpha  occ. eigenvalues --   -0.40882  -0.39100  -0.38484  -0.37973  -0.37405
 Alpha  occ. eigenvalues --   -0.36788  -0.35314  -0.34723  -0.33734  -0.30900
 Alpha  occ. eigenvalues --   -0.30068  -0.28344  -0.27851  -0.26847  -0.25402
 Alpha  occ. eigenvalues --   -0.23915
 Alpha virt. eigenvalues --   -0.01510  -0.01026   0.01306   0.09222   0.10830
 Alpha virt. eigenvalues --    0.11631   0.12238   0.12725   0.13391   0.14970
 Alpha virt. eigenvalues --    0.15541   0.16199   0.16827   0.16852   0.17096
 Alpha virt. eigenvalues --    0.17477   0.18245   0.18932   0.19219   0.20829
 Alpha virt. eigenvalues --    0.22149   0.23696   0.23799   0.24718   0.25372
 Alpha virt. eigenvalues --    0.27714   0.29235   0.30857   0.31704   0.32462
 Alpha virt. eigenvalues --    0.35508   0.42671   0.45309   0.45983   0.46750
 Alpha virt. eigenvalues --    0.46950   0.47833   0.48620   0.49227   0.49852
 Alpha virt. eigenvalues --    0.50462   0.52195   0.53736   0.53950   0.54377
 Alpha virt. eigenvalues --    0.55354   0.55515   0.56387   0.57433   0.58520
 Alpha virt. eigenvalues --    0.59469   0.60671   0.60945   0.62812   0.63092
 Alpha virt. eigenvalues --    0.64965   0.65757   0.66404   0.67829   0.71028
 Alpha virt. eigenvalues --    0.73329   0.75668   0.75810   0.76216   0.77900
 Alpha virt. eigenvalues --    0.79054   0.80774   0.81103   0.81807   0.83242
 Alpha virt. eigenvalues --    0.83639   0.85009   0.85123   0.86934   0.87229
 Alpha virt. eigenvalues --    0.87785   0.88723   0.90445   0.90737   0.92477
 Alpha virt. eigenvalues --    0.92976   0.93229   0.95850   0.97653   0.99423
 Alpha virt. eigenvalues --    1.00406   1.02013   1.05294   1.07935   1.09017
 Alpha virt. eigenvalues --    1.09941   1.12194   1.13336   1.15448   1.17025
 Alpha virt. eigenvalues --    1.17978   1.21145   1.23119   1.24476   1.25992
 Alpha virt. eigenvalues --    1.30528   1.35207   1.35426   1.36363   1.39004
 Alpha virt. eigenvalues --    1.40193   1.40771   1.42166   1.43025   1.50548
 Alpha virt. eigenvalues --    1.51189   1.53895   1.55515   1.58211   1.59399
 Alpha virt. eigenvalues --    1.61254   1.64681   1.65700   1.66916   1.68494
 Alpha virt. eigenvalues --    1.70063   1.74751   1.76715   1.78862   1.81689
 Alpha virt. eigenvalues --    1.82761   1.85406   1.87028   1.88307   1.89973
 Alpha virt. eigenvalues --    1.91278   1.94304   1.95560   1.97112   1.98327
 Alpha virt. eigenvalues --    1.98896   2.00171   2.01554   2.01724   2.04535
 Alpha virt. eigenvalues --    2.04962   2.06298   2.06537   2.07577   2.08165
 Alpha virt. eigenvalues --    2.08610   2.10013   2.10258   2.10742   2.13038
 Alpha virt. eigenvalues --    2.15677   2.16200   2.17620   2.20070   2.24024
 Alpha virt. eigenvalues --    2.26278   2.27347   2.28653   2.30089   2.31621
 Alpha virt. eigenvalues --    2.33800   2.34016   2.37540   2.38684   2.39519
 Alpha virt. eigenvalues --    2.41344   2.42847   2.44421   2.47570   2.49249
 Alpha virt. eigenvalues --    2.50717   2.51572   2.52529   2.54001   2.57344
 Alpha virt. eigenvalues --    2.59568   2.61509   2.63981   2.64473   2.65854
 Alpha virt. eigenvalues --    2.67512   2.69379   2.70188   2.72156   2.72787
 Alpha virt. eigenvalues --    2.75265   2.76927   2.78246   2.79253   2.81494
 Alpha virt. eigenvalues --    2.82316   2.84757   2.86912   2.90259   2.92120
 Alpha virt. eigenvalues --    2.93381   2.94359   2.97510   2.98436   3.01211
 Alpha virt. eigenvalues --    3.05881   3.12709   3.21795   3.22237   3.22820
 Alpha virt. eigenvalues --    3.25098   3.28649   3.30557   3.32497   3.38588
 Alpha virt. eigenvalues --    3.40259   3.40648   3.42297   3.47725   3.48187
 Alpha virt. eigenvalues --    3.49418   3.54096   3.55244   3.82988   4.00460
 Alpha virt. eigenvalues --    4.12406   4.14972   4.16061   4.24484   4.35862
 Alpha virt. eigenvalues --    4.38076   4.40799   4.45579   4.58735   4.64381
 Alpha virt. eigenvalues --    4.68361   4.82410   8.61162  72.83045
          Condensed to atoms (all electrons):
               1          2          3          4          5          6
     1  C    5.009684   0.359152  -0.049768  -0.004633  -0.001404  -0.000020
     2  C    0.359152   4.679686   0.250390  -0.022667   0.000550  -0.000050
     3  O   -0.049768   0.250390   8.286437   0.199721  -0.055562  -0.011463
     4  C   -0.004633  -0.022667   0.199721   4.655562   0.235878  -0.017913
     5  O   -0.001404   0.000550  -0.055562   0.235878   8.301883   0.223893
     6  C   -0.000020  -0.000050  -0.011463  -0.017913   0.223893   4.720958
     7  C    0.000027  -0.000003   0.000181  -0.003463  -0.046598   0.369747
     8  C    0.000049   0.004632  -0.035914   0.321923  -0.062731  -0.008346
     9  C    0.000004  -0.000117   0.003762  -0.051736   0.006062  -0.002345
    10  C   -0.000000   0.000003  -0.000092   0.005191   0.000137  -0.000060
    11  C    0.000000  -0.000000   0.000008   0.000588   0.000000  -0.000004
    12  C    0.000001  -0.000006   0.000418   0.005024  -0.000021  -0.000024
    13  Br  -0.000000   0.000000  -0.000004  -0.000149   0.000001  -0.000001
    14  C   -0.000007   0.000167  -0.008497  -0.038623  -0.001878   0.001363
    15  H    0.356040  -0.025505   0.003116   0.000108   0.000243   0.000020
    16  H    0.386124  -0.029398  -0.001886   0.001694   0.009574  -0.001258
    17  H    0.382629  -0.032000   0.001587  -0.000840  -0.000421   0.000362
    18  H   -0.055243   0.372803  -0.037295  -0.011796  -0.000884   0.000086
    19  H   -0.048327   0.399389  -0.038771   0.004284  -0.000193  -0.000023
    20  H   -0.000990  -0.011142  -0.044758   0.390222  -0.057662   0.006652
    21  H   -0.001012  -0.000579   0.015040  -0.009108  -0.035902   0.372066
    22  H    0.000722  -0.000038   0.000174   0.003480  -0.039429   0.394514
    23  H   -0.000002   0.000000  -0.000002   0.000016   0.001074  -0.033371
    24  H   -0.000000  -0.000003   0.000056  -0.000780  -0.000943  -0.029957
    25  H    0.000000   0.000000   0.000010   0.000076   0.003279  -0.027793
    26  H    0.000001  -0.000012   0.000148  -0.008270   0.002889  -0.000131
    27  H    0.000000  -0.000000   0.000000  -0.000179   0.000001  -0.000000
    28  H    0.000000  -0.000000   0.000000   0.000008  -0.000000   0.000000
    29  H    0.000030  -0.000408   0.016813  -0.013960   0.000241  -0.000304
               7          8          9         10         11         12
     1  C    0.000027   0.000049   0.000004  -0.000000   0.000000   0.000001
     2  C   -0.000003   0.004632  -0.000117   0.000003  -0.000000  -0.000006
     3  O    0.000181  -0.035914   0.003762  -0.000092   0.000008   0.000418
     4  C   -0.003463   0.321923  -0.051736   0.005191   0.000588   0.005024
     5  O   -0.046598  -0.062731   0.006062   0.000137   0.000000  -0.000021
     6  C    0.369747  -0.008346  -0.002345  -0.000060  -0.000004  -0.000024
     7  C    4.974117   0.000594  -0.000527  -0.000242  -0.000040  -0.000212
     8  C    0.000594   4.926384   0.521064  -0.013463  -0.039874  -0.019777
     9  C   -0.000527   0.521064   4.901795   0.520059  -0.041927  -0.041950
    10  C   -0.000242  -0.013463   0.520059   4.843403   0.514820  -0.020890
    11  C   -0.000040  -0.039874  -0.041927   0.514820   4.876751   0.532027
    12  C   -0.000212  -0.019777  -0.041950  -0.020890   0.532027   4.844034
    13  Br   0.000003   0.005448   0.000482   0.005639  -0.061467   0.254659
    14  C   -0.001736   0.495281  -0.057879  -0.048844  -0.042579   0.484652
    15  H    0.000000   0.000005  -0.000000   0.000000   0.000000  -0.000000
    16  H    0.000090   0.000237   0.000003  -0.000000   0.000000  -0.000000
    17  H    0.000007  -0.000045  -0.000000   0.000000   0.000000   0.000000
    18  H    0.000002  -0.000573  -0.000018  -0.000000   0.000000   0.000003
    19  H    0.000000  -0.000210   0.000005  -0.000000  -0.000000  -0.000003
    20  H   -0.000223  -0.058183  -0.009039  -0.000069   0.000016  -0.000130
    21  H   -0.045136  -0.001010   0.000812  -0.000010   0.000002  -0.000052
    22  H   -0.052088  -0.000090   0.000005  -0.000001  -0.000000   0.000001
    23  H    0.381916  -0.000090   0.000492  -0.000020  -0.000001   0.000002
    24  H    0.389609   0.001376  -0.000446   0.000650   0.000755   0.001002
    25  H    0.359598   0.000038   0.000109   0.000016  -0.000009  -0.000028
    26  H    0.000094  -0.046968   0.370806  -0.042504   0.005020   0.000463
    27  H   -0.000004   0.003597  -0.036304   0.367019  -0.039190   0.004251
    28  H   -0.000001   0.000330   0.004967  -0.040187   0.373188  -0.043529
    29  H   -0.000003  -0.038173   0.006295  -0.000054   0.005248  -0.047112
              13         14         15         16         17         18
     1  C   -0.000000  -0.000007   0.356040   0.386124   0.382629  -0.055243
     2  C    0.000000   0.000167  -0.025505  -0.029398  -0.032000   0.372803
     3  O   -0.000004  -0.008497   0.003116  -0.001886   0.001587  -0.037295
     4  C   -0.000149  -0.038623   0.000108   0.001694  -0.000840  -0.011796
     5  O    0.000001  -0.001878   0.000243   0.009574  -0.000421  -0.000884
     6  C   -0.000001   0.001363   0.000020  -0.001258   0.000362   0.000086
     7  C    0.000003  -0.001736   0.000000   0.000090   0.000007   0.000002
     8  C    0.005448   0.495281   0.000005   0.000237  -0.000045  -0.000573
     9  C    0.000482  -0.057879  -0.000000   0.000003  -0.000000  -0.000018
    10  C    0.005639  -0.048844   0.000000  -0.000000   0.000000  -0.000000
    11  C   -0.061467  -0.042579   0.000000   0.000000   0.000000   0.000000
    12  C    0.254659   0.484652  -0.000000  -0.000000   0.000000   0.000003
    13  Br  34.996088  -0.058960  -0.000000  -0.000000   0.000000  -0.000000
    14  C   -0.058960   4.981405   0.000000  -0.000011   0.000003   0.000152
    15  H   -0.000000   0.000000   0.622224  -0.026112  -0.028226   0.000475
    16  H   -0.000000  -0.000011  -0.026112   0.557972  -0.030673  -0.005663
    17  H    0.000000   0.000003  -0.028226  -0.030673   0.592111   0.005947
    18  H   -0.000000   0.000152   0.000475  -0.005663   0.005947   0.666313
    19  H    0.000000  -0.000057  -0.001465   0.004860  -0.005774  -0.038153
    20  H    0.000002   0.007218   0.000011  -0.000655   0.000179   0.015693
    21  H   -0.000005   0.001148   0.000019   0.000355   0.001081   0.000113
    22  H    0.000000  -0.000023  -0.000048  -0.000752   0.000581  -0.000000
    23  H   -0.000000   0.000058   0.000000   0.000005   0.000000  -0.000000
    24  H   -0.000028   0.000299   0.000000  -0.000002   0.000000   0.000000
    25  H    0.000002   0.000027  -0.000000  -0.000002   0.000000   0.000000
    26  H    0.000010   0.006212  -0.000000  -0.000000   0.000000   0.000001
    27  H   -0.000163   0.001146  -0.000000  -0.000000  -0.000000  -0.000000
    28  H   -0.003521   0.005423  -0.000000   0.000000   0.000000   0.000000
    29  H   -0.002725   0.370993  -0.000001  -0.000002   0.000009   0.000071
              19         20         21         22         23         24
     1  C   -0.048327  -0.000990  -0.001012   0.000722  -0.000002  -0.000000
     2  C    0.399389  -0.011142  -0.000579  -0.000038   0.000000  -0.000003
     3  O   -0.038771  -0.044758   0.015040   0.000174  -0.000002   0.000056
     4  C    0.004284   0.390222  -0.009108   0.003480   0.000016  -0.000780
     5  O   -0.000193  -0.057662  -0.035902  -0.039429   0.001074  -0.000943
     6  C   -0.000023   0.006652   0.372066   0.394514  -0.033371  -0.029957
     7  C    0.000000  -0.000223  -0.045136  -0.052088   0.381916   0.389609
     8  C   -0.000210  -0.058183  -0.001010  -0.000090  -0.000090   0.001376
     9  C    0.000005  -0.009039   0.000812   0.000005   0.000492  -0.000446
    10  C   -0.000000  -0.000069  -0.000010  -0.000001  -0.000020   0.000650
    11  C   -0.000000   0.000016   0.000002  -0.000000  -0.000001   0.000755
    12  C   -0.000003  -0.000130  -0.000052   0.000001   0.000002   0.001002
    13  Br   0.000000   0.000002  -0.000005   0.000000  -0.000000  -0.000028
    14  C   -0.000057   0.007218   0.001148  -0.000023   0.000058   0.000299
    15  H   -0.001465   0.000011   0.000019  -0.000048   0.000000   0.000000
    16  H    0.004860  -0.000655   0.000355  -0.000752   0.000005  -0.000002
    17  H   -0.005774   0.000179   0.001081   0.000581   0.000000   0.000000
    18  H   -0.038153   0.015693   0.000113  -0.000000  -0.000000   0.000000
    19  H    0.618468   0.000095   0.000028   0.000001   0.000000  -0.000000
    20  H    0.000095   0.674381   0.000591  -0.000284  -0.000022  -0.000024
    21  H    0.000028   0.000591   0.631854  -0.038264   0.005614  -0.006432
    22  H    0.000001  -0.000284  -0.038264   0.634570  -0.005484   0.005108
    23  H    0.000000  -0.000022   0.005614  -0.005484   0.598616  -0.032147
    24  H   -0.000000  -0.000024  -0.006432   0.005108  -0.032147   0.575683
    25  H    0.000000   0.000008   0.001113  -0.000704  -0.028240  -0.027900
    26  H    0.000000   0.003735   0.000027   0.000007   0.000120   0.000006
    27  H    0.000000   0.000000  -0.000000   0.000000  -0.000002   0.000013
    28  H   -0.000000  -0.000000   0.000000  -0.000000   0.000000   0.000001
    29  H   -0.000028   0.000542   0.000872   0.000003  -0.000002   0.000031
              25         26         27         28         29
     1  C    0.000000   0.000001   0.000000   0.000000   0.000030
     2  C    0.000000  -0.000012  -0.000000  -0.000000  -0.000408
     3  O    0.000010   0.000148   0.000000   0.000000   0.016813
     4  C    0.000076  -0.008270  -0.000179   0.000008  -0.013960
     5  O    0.003279   0.002889   0.000001  -0.000000   0.000241
     6  C   -0.027793  -0.000131  -0.000000   0.000000  -0.000304
     7  C    0.359598   0.000094  -0.000004  -0.000001  -0.000003
     8  C    0.000038  -0.046968   0.003597   0.000330  -0.038173
     9  C    0.000109   0.370806  -0.036304   0.004967   0.006295
    10  C    0.000016  -0.042504   0.367019  -0.040187  -0.000054
    11  C   -0.000009   0.005020  -0.039190   0.373188   0.005248
    12  C   -0.000028   0.000463   0.004251  -0.043529  -0.047112
    13  Br   0.000002   0.000010  -0.000163  -0.003521  -0.002725
    14  C    0.000027   0.006212   0.001146   0.005423   0.370993
    15  H   -0.000000  -0.000000  -0.000000  -0.000000  -0.000001
    16  H   -0.000002  -0.000000  -0.000000   0.000000  -0.000002
    17  H    0.000000   0.000000  -0.000000   0.000000   0.000009
    18  H    0.000000   0.000001  -0.000000   0.000000   0.000071
    19  H    0.000000   0.000000   0.000000  -0.000000  -0.000028
    20  H    0.000008   0.003735   0.000000  -0.000000   0.000542
    21  H    0.001113   0.000027  -0.000000   0.000000   0.000872
    22  H   -0.000704   0.000007   0.000000  -0.000000   0.000003
    23  H   -0.028240   0.000120  -0.000002   0.000000  -0.000002
    24  H   -0.027900   0.000006   0.000013   0.000001   0.000031
    25  H    0.621604   0.000005   0.000000  -0.000000   0.000001
    26  H    0.000005   0.621717  -0.005789  -0.000171  -0.000156
    27  H    0.000000  -0.005789   0.616399  -0.006305   0.000018
    28  H   -0.000000  -0.000171  -0.006305   0.603752  -0.000144
    29  H    0.000001  -0.000156   0.000018  -0.000144   0.577077
 Mulliken charges:
               1
     1  C   -0.333057
     2  C    0.055155
     3  O   -0.493850
     4  C    0.360345
     5  O   -0.482081
     6  C    0.043402
     7  C   -0.325711
     8  C    0.044488
     9  C   -0.094435
    10  C   -0.090501
    11  C   -0.083332
    12  C    0.047196
    13  Br  -0.135310
    14  C   -0.096453
    15  H    0.099095
    16  H    0.135499
    17  H    0.113481
    18  H    0.087966
    19  H    0.105874
    20  H    0.083833
    21  H    0.106775
    22  H    0.098039
    23  H    0.111469
    24  H    0.124073
    25  H    0.098790
    26  H    0.092743
    27  H    0.095490
    28  H    0.106189
    29  H    0.124827
 Sum of Mulliken charges =  -0.00000
 Mulliken charges with hydrogens summed into heavy atoms:
               1
     1  C    0.015018
     2  C    0.248996
     3  O   -0.493850
     4  C    0.444178
     5  O   -0.482081
     6  C    0.248216
     7  C    0.008620
     8  C    0.044488
     9  C   -0.001692
    10  C    0.004989
    11  C    0.022856
    12  C    0.047196
    13  Br  -0.135310
    14  C    0.028374
 Electronic spatial extent (au):  <R**2>=           4596.8067
 Charge=             -0.0000 electrons
 Dipole moment (field-independent basis, Debye):
    X=              1.5419    Y=              0.6503    Z=             -0.5629  Tot=              1.7656
 Quadrupole moment (field-independent basis, Debye-Ang):
   XX=            -94.6073   YY=            -91.8868   ZZ=            -93.4419
   XY=             -6.4978   XZ=             -0.3356   YZ=             -2.0172
 Traceless Quadrupole moment (field-independent basis, Debye-Ang):
   XX=             -1.2953   YY=              1.4252   ZZ=             -0.1299
   XY=             -6.4978   XZ=             -0.3356   YZ=             -2.0172
 Octapole moment (field-independent basis, Debye-Ang**2):
  XXX=            -67.5859  YYY=            -30.9417  ZZZ=             18.4218  XYY=            -27.3780
  XXY=            -20.9201  XXZ=             -2.5350  XZZ=            -14.4692  YZZ=             -7.6917
  YYZ=             -4.0741  XYZ=              8.1837
 Hexadecapole moment (field-independent basis, Debye-Ang**3):
 XXXX=          -3601.5907 YYYY=          -1098.5766 ZZZZ=           -676.9378 XXXY=             27.5746
 XXXZ=            -64.1459 YYYX=             71.6624 YYYZ=            -34.2781 ZZZX=            -42.0489
 ZZZY=             -7.4927 XXYY=           -755.6638 XXZZ=           -698.6737 YYZZ=           -292.2445
 XXYZ=             -4.2139 YYXZ=            -14.4765 ZZXY=             36.8677
 N-N= 1.223284256741D+03 E-N=-9.926101952060D+03  KE= 3.129609211700D+03
 No NMR shielding tensors so no spin-rotation constants.
 Leave Link  601 at Tue Sep 17 09:50:14 2024, MaxMem=  1342177280 cpu:               0.7 elap:               0.1
 (Enter /groups/ReismanLab/Software/Gaussian16_RevC/Linux_Binary_AVX2-enabled-CPU/g16/l701.exe)
 ... and contract with generalized density number  0.
 Compute integral first derivatives.
 R6Disp: Adding Grimme-D3(BJ) dispersion energy 1st derivatives to the gradient.
 Leave Link  701 at Tue Sep 17 09:50:14 2024, MaxMem=  1342177280 cpu:               0.7 elap:               0.1
 (Enter /groups/ReismanLab/Software/Gaussian16_RevC/Linux_Binary_AVX2-enabled-CPU/g16/l702.exe)
 L702 exits ... SP integral derivatives will be done elsewhere.
 Leave Link  702 at Tue Sep 17 09:50:14 2024, MaxMem=  1342177280 cpu:               0.0 elap:               0.0
 (Enter /groups/ReismanLab/Software/Gaussian16_RevC/Linux_Binary_AVX2-enabled-CPU/g16/l703.exe)
 Integral derivatives from FoFJK, PRISM(SPDF).
 Compute integral first derivatives, UseDBF=F ICtDFT=           0.
 Calling FoFJK, ICntrl=      2127 FMM=F ISym2X=0 I1Cent= 0 IOpClX= 0 NMat=1 NMatS=1 NMatT=0.
 FoFJK:  IHMeth= 1 ICntrl=    2127 DoSepK=F KAlg= 0 I1Cent=           0 FoldK=F
 IRaf=         0 NMat=       1 IRICut=       1 DoRegI=T DoRafI=F ISym2E= 0 IDoP0=0 IntGTp=1.
 FoFCou: FMM=F IPFlag=           0 FMFlag=      100000 FMFlg1=         800
         NFxFlg=           0 DoJE=F BraDBF=F KetDBF=F FulRan=T
         wScrn=  0.000000 ICntrl=      2127 IOpCl=  0 I1Cent=           0 NGrid=           0
         NMat0=    1 NMatS0=      1 NMatT0=    0 NMatD0=    1 NMtDS0=    0 NMtDT0=    0
 Symmetry not used in FoFCou.
 Leave Link  703 at Tue Sep 17 09:50:21 2024, MaxMem=  1342177280 cpu:              48.7 elap:               6.2
 (Enter /groups/ReismanLab/Software/Gaussian16_RevC/Linux_Binary_AVX2-enabled-CPU/g16/l716.exe)
 Dipole        = 6.06635378D-01 2.55836756D-01-2.21470929D-01
 ***** Axes restored to original set *****
 -------------------------------------------------------------------
 Center     Atomic                   Forces (Hartrees/Bohr)
 Number     Number              X              Y              Z
 -------------------------------------------------------------------
      1        6          -0.004377947   -0.001602272    0.003322499
      2        6           0.004580803    0.002544448   -0.000031912
      3        8          -0.007116188   -0.001126799   -0.002466105
      4        6           0.000519546   -0.003786388    0.007525849
      5        8           0.005950771   -0.004952947    0.003605780
      6        6          -0.003254731   -0.000132798   -0.006444899
      7        6           0.002543418    0.003882719    0.004752372
      8        6           0.005270492    0.004569189    0.000765475
      9        6           0.004728359   -0.001236369    0.001150238
     10        6           0.000645646   -0.005153412    0.002205365
     11        6          -0.007268889   -0.001411468   -0.000759998
     12        6          -0.004126316    0.003224046   -0.002618347
     13       35          -0.002809513    0.001969160   -0.001100592
     14        6           0.000948637    0.005448987   -0.001182049
     15        1           0.004495989    0.003128537    0.000760365
     16        1           0.001541985   -0.002509439   -0.000949324
     17        1          -0.000201989    0.001208260   -0.004269036
     18        1          -0.000323342    0.001325840    0.001183777
     19        1           0.001270203    0.000568250    0.002251847
     20        1          -0.001056170    0.001577737   -0.002421643
     21        1           0.001807326    0.000699509   -0.001890656
     22        1          -0.000335508    0.002423565   -0.000629946
     23        1           0.001448173   -0.004563145   -0.000156811
     24        1          -0.002863302   -0.000814407    0.000426512
     25        1          -0.001300030   -0.000295691   -0.005354837
     26        1           0.003301227   -0.002940949    0.001197846
     27        1          -0.000930019   -0.004034604    0.001520940
     28        1          -0.003195430   -0.000716321   -0.000019410
     29        1           0.000106798    0.002706763   -0.000373300
 -------------------------------------------------------------------
 Cartesian Forces:  Max     0.007525849 RMS     0.003058900
 Leave Link  716 at Tue Sep 17 09:50:21 2024, MaxMem=  1342177280 cpu:               0.0 elap:               0.0
 (Enter /groups/ReismanLab/Software/Gaussian16_RevC/Linux_Binary_AVX2-enabled-CPU/g16/l103.exe)

 GradGradGradGradGradGradGradGradGradGradGradGradGradGradGradGradGradGrad
 Berny optimization.
 FormGI is forming the generalized inverse of G from B-inverse, IUseBI=4.
 Internal  Forces:  Max     0.011022767 RMS     0.002765280
 Search for a local minimum.
 Step number   1 out of a maximum of  149
 All quantities printed in internal units (Hartrees-Bohrs-Radians)
 RMS Force = .27653D-02 SwitMx=.10000D-02 MixMth= 1
 Mixed Optimization -- RFO/linear search
 Second derivative matrix not updated -- first step.
 ITU=  0
     Eigenvalues ---    0.00431   0.00442   0.00546   0.01392   0.01468
     Eigenvalues ---    0.01569   0.01572   0.01754   0.02247   0.02268
     Eigenvalues ---    0.02287   0.02294   0.02296   0.02301   0.02304
     Eigenvalues ---    0.02307   0.04718   0.04806   0.05633   0.05710
     Eigenvalues ---    0.05742   0.05788   0.05812   0.05817   0.06654
     Eigenvalues ---    0.07228   0.09528   0.11783   0.11953   0.14002
     Eigenvalues ---    0.14090   0.15999   0.16000   0.16000   0.16000
     Eigenvalues ---    0.16000   0.16000   0.16000   0.16000   0.16000
     Eigenvalues ---    0.16000   0.17997   0.19700   0.21158   0.22000
     Eigenvalues ---    0.22086   0.22107   0.23481   0.23501   0.24986
     Eigenvalues ---    0.25000   0.25000   0.25000   0.29862   0.29935
     Eigenvalues ---    0.30696   0.33110   0.33698   0.34237   0.34252
     Eigenvalues ---    0.34408   0.35131   0.35170   0.35170   0.35171
     Eigenvalues ---    0.35186   0.35186   0.36071   0.36073   0.36103
     Eigenvalues ---    0.36232   0.42062   0.42923   0.43557   0.43678
     Eigenvalues ---    0.44155   0.46404   0.47709   0.48073   0.48402
     Eigenvalues ---    0.48490
 RFO step:  Lambda=-3.21986035D-03 EMin= 4.31283480D-03
 Linear search not attempted -- first point.
 Iteration  1 RMS(Cart)=  0.07306212 RMS(Int)=  0.00107764
 Iteration  2 RMS(Cart)=  0.00205056 RMS(Int)=  0.00002191
 Iteration  3 RMS(Cart)=  0.00000203 RMS(Int)=  0.00002189
 Iteration  4 RMS(Cart)=  0.00000000 RMS(Int)=  0.00002189
 ITry= 1 IFail=0 DXMaxC= 2.88D-01 DCOld= 1.00D+10 DXMaxT= 3.00D-01 DXLimC= 3.00D+00 Rises=F
 Variable       Old X    -DE/DX   Delta X   Delta X   Delta X     New X
                                 (Linear)    (Quad)   (Total)
    R1        2.88092   0.00181   0.00000   0.00598   0.00598   2.88691
    R2        2.05398   0.00542   0.00000   0.01526   0.01526   2.06924
    R3        2.05374   0.00288   0.00000   0.00810   0.00810   2.06184
    R4        2.05464   0.00435   0.00000   0.01226   0.01226   2.06689
    R5        2.67765   0.00867   0.00000   0.02005   0.02005   2.69770
    R6        2.07843   0.00059   0.00000   0.00172   0.00172   2.08015
    R7        2.06646   0.00033   0.00000   0.00095   0.00095   2.06742
    R8        2.63678   0.00353   0.00000   0.00756   0.00756   2.64434
    R9        2.66269   0.00790   0.00000   0.01776   0.01776   2.68045
   R10        2.86597   0.00243   0.00000   0.00785   0.00785   2.87381
   R11        2.08859  -0.00295   0.00000  -0.00882  -0.00882   2.07978
   R12        2.68844   0.00954   0.00000   0.02250   0.02250   2.71093
   R13        2.88240   0.00155   0.00000   0.00512   0.00512   2.88752
   R14        2.06932  -0.00010   0.00000  -0.00029  -0.00029   2.06903
   R15        2.06906   0.00017   0.00000   0.00048   0.00048   2.06954
   R16        2.05399   0.00464   0.00000   0.01308   0.01308   2.06707
   R17        2.05373   0.00275   0.00000   0.00775   0.00775   2.06148
   R18        2.05400   0.00541   0.00000   0.01523   0.01523   2.06923
   R19        2.62678   0.00781   0.00000   0.01626   0.01626   2.64304
   R20        2.61992   0.00966   0.00000   0.01987   0.01987   2.63978
   R21        2.61392   0.00941   0.00000   0.01930   0.01930   2.63323
   R22        2.03968   0.00457   0.00000   0.01255   0.01255   2.05223
   R23        2.61730   0.01102   0.00000   0.02287   0.02287   2.64017
   R24        2.03971   0.00441   0.00000   0.01212   0.01212   2.05182
   R25        2.61428   0.00878   0.00000   0.01811   0.01811   2.63239
   R26        2.03921   0.00325   0.00000   0.00893   0.00893   2.04814
   R27        3.60040   0.00360   0.00000   0.01964   0.01964   3.62004
   R28        2.61453   0.00928   0.00000   0.01900   0.01899   2.63352
   R29        2.03721   0.00265   0.00000   0.00724   0.00724   2.04445
    A1        1.90819   0.00086   0.00000   0.00523   0.00521   1.91339
    A2        1.92798   0.00136   0.00000   0.00953   0.00949   1.93748
    A3        1.92196   0.00077   0.00000   0.00359   0.00358   1.92554
    A4        1.90459  -0.00085   0.00000  -0.00297  -0.00302   1.90157
    A5        1.90214  -0.00112   0.00000  -0.00927  -0.00927   1.89287
    A6        1.89869  -0.00108   0.00000  -0.00647  -0.00649   1.89220
    A7        1.99367   0.00000   0.00000   0.00400   0.00397   1.99764
    A8        1.91823   0.00098   0.00000   0.00552   0.00548   1.92372
    A9        1.92365  -0.00034   0.00000  -0.00329  -0.00332   1.92033
   A10        1.90585  -0.00020   0.00000   0.00239   0.00235   1.90820
   A11        1.81936   0.00089   0.00000   0.01052   0.01052   1.82987
   A12        1.89916  -0.00145   0.00000  -0.02051  -0.02051   1.87865
   A13        2.02596   0.00124   0.00000   0.00489   0.00489   2.03085
   A14        1.97668   0.00047   0.00000   0.00352   0.00355   1.98023
   A15        1.90312  -0.00239   0.00000  -0.01040  -0.01042   1.89270
   A16        1.92534  -0.00005   0.00000  -0.00723  -0.00724   1.91810
   A17        1.95089   0.00242   0.00000   0.01377   0.01376   1.96464
   A18        1.80142  -0.00094   0.00000  -0.00364  -0.00368   1.79775
   A19        1.90359   0.00064   0.00000   0.00440   0.00435   1.90794
   A20        2.02093   0.00443   0.00000   0.01748   0.01748   2.03842
   A21        1.97137  -0.00122   0.00000  -0.00098  -0.00104   1.97034
   A22        1.91156   0.00085   0.00000   0.01297   0.01288   1.92444
   A23        1.83909   0.00029   0.00000   0.00026   0.00028   1.83936
   A24        1.93256   0.00132   0.00000   0.01075   0.01068   1.94324
   A25        1.90979   0.00066   0.00000   0.00000   0.00002   1.90981
[...]
     18          1           0        3.630480    1.417014    1.701108
     19          1           0        3.155192    2.823759    0.735073
     20          1           0        2.396117   -0.378801    1.662149
     21          1           0        1.154812   -1.336219   -1.647694
     22          1           0        2.253365    0.028549   -1.907179
     23          1           0        4.158671   -1.565758   -2.274006
     24          1           0        3.074738   -2.935556   -1.976888
     25          1           0        2.835187   -1.909958   -3.406144
     26          1           0        0.782202   -2.616081    0.820990
     27          1           0       -1.632790   -3.185443    1.030049
     28          1           0       -3.337146   -1.370474    1.075248
     29          1           0       -0.200582    1.554184    0.722404
 ---------------------------------------------------------------------
                    Distance matrix (angstroms):
                    1          2          3          4          5
     1  C    0.000000
     2  C    1.523959   0.000000
     3  O    2.473457   1.429893   0.000000
     4  C    3.166356   2.396735   1.401858   0.000000
     5  O    3.120073   3.040184   2.355324   1.415272   0.000000
     6  C    3.557984   3.734374   2.886752   2.401538   1.433918
     7  C    4.145303   4.760486   4.216076   3.689486   2.379546
     8  C    4.586859   3.671208   2.376522   1.521877   2.437363
     9  C    5.624463   4.879514   3.668563   2.516100   2.880886
    10  C    6.917752   6.082380   4.790695   3.803716   4.232944
    11  C    7.330465   6.329818   4.979304   4.326412   5.031293
    12  C    6.552359   5.437748   4.103565   3.811853   4.768525
    13  Br   7.724303   6.517713   5.302003   5.398496   6.454623
    14  C    5.171827   4.048787   2.714537   2.543346   3.638941
    15  H    1.095328   2.158480   3.401584   4.128206   4.117407
    16  H    1.091359   2.167992   2.790446   2.982120   2.524197
    17  H    1.094072   2.163122   2.722071   3.573349   3.419296
    18  H    2.169390   1.100253   2.072153   2.550127   3.283390
    19  H    2.164472   1.094192   2.012918   3.251169   4.038290
    20  H    3.380226   2.521829   2.053218   1.100462   1.982148
    21  H    4.518523   4.446250   3.329208   2.713453   2.081575
    22  H    3.068509   3.300659   2.526722   2.621919   2.075715
    23  H    3.606781   4.519980   4.313176   3.955008   2.648862
    24  H    4.884824   5.396012   4.813713   3.995600   2.629010
    25  H    4.845296   5.515474   4.906512   4.531860   3.338259
    26  H    5.588238   5.061153   4.026976   2.689573   2.595370
    27  H    7.763030   7.015086   5.763263   4.667680   4.893133
    28  H    8.399206   7.382657   6.030217   5.409851   6.085982
    29  H    4.770026   3.549999   2.349714   2.748974   3.950761
                    6          7          8          9         10
     6  C    0.000000
     7  C    1.516599   0.000000
     8  C    2.956580   4.348142   0.000000
     9  C    3.342600   4.452268   1.399177   0.000000
    10  C    4.474534   5.547991   2.420596   1.392517   0.000000
    11  C    5.154162   6.400510   2.805181   2.420680   1.395984
    12  C    4.891814   6.308362   2.402975   2.767403   2.396233
    13  Br   6.456077   7.907645   4.167158   4.681315   4.164100
    14  C    3.898581   5.385527   1.395239   2.417623   2.793937
    15  H    4.617620   5.058173   5.572659   6.617582   7.921683
    16  H    3.090222   3.421282   4.460721   5.274535   6.630691
    17  H    3.402342   3.951316   4.824249   5.886695   7.106805
    18  H    4.304905   5.266003   3.836637   4.922174   6.144607
    19  H    4.564931   5.649342   4.290054   5.608194   6.692980
    20  H    3.283927   4.355189   2.155080   2.890700   4.174196
    21  H    1.097551   2.166570   2.654091   2.786377   3.688585
    22  H    1.095613   2.168987   3.273420   4.002631   5.074516
    23  H    2.161865   1.093805   4.921271   5.184744   6.390541
    24  H    2.159797   1.093842   4.518457   4.299413   5.346262
    25  H    2.155860   1.094332   5.014631   5.099885   6.035059
    26  H    3.199517   4.004471   2.147110   1.084842   2.158094
    27  H    5.108789   5.972639   3.404498   2.152351   1.085575
    28  H    6.138875   7.331727   3.888591   3.408154   2.165008
    29  H    4.183363   5.698812   2.149378   3.397643   3.875266
                   11         12         13         14         15
    11  C    0.000000
    12  C    1.391498   0.000000
    13  Br   2.861945   1.913915   0.000000
    14  C    2.433216   1.392525   2.861701   0.000000
    15  H    8.323114   7.504442   8.596005   6.113660   0.000000
    16  H    7.240877   6.653348   8.035043   5.310704   1.778934
    17  H    7.431974   6.607804   7.668374   5.275483   1.773173
    18  H    6.480332   5.683775   6.843068   4.335964   2.513423
    19  H    6.732381   5.669653   6.445861   4.331654   2.484298
    20  H    4.787156   4.360551   5.944278   3.167506   4.153787
    21  H    4.337087   4.231891   5.818849   3.491180   5.602367
    22  H    5.506872   4.983995   6.313530   3.896952   4.129104
    23  H    7.233497   7.027403   8.594421   5.965627   4.371627
    24  H    6.382251   6.510425   8.236808   5.700492   5.766919
    25  H    6.790481   6.708276   8.188506   5.895195   5.743813
    26  H    3.406842   3.852140   5.766022   3.394717   6.549048
    27  H    2.148828   3.381035   5.010740   3.879512   8.764802
    28  H    1.083482   2.152127   2.962407   3.410626   9.391979
    29  H    3.413385   2.158879   2.974127   1.081333   5.633004
                   16         17         18         19         20
    16  H    0.000000
    17  H    1.774327   0.000000
    18  H    2.509855   3.077375   0.000000
    19  H    3.074014   2.517175   1.771455   0.000000
    20  H    3.117709   4.065630   2.179478   3.419365   0.000000
    21  H    4.130119   4.329697   4.992364   5.194662   3.662314
    22  H    2.912047   2.645641   4.104146   3.950694   3.595333
    23  H    2.795022   3.461145   4.997745   5.415661   4.473118
    24  H    4.028137   4.864681   5.725502   6.366389   4.498901
    25  H    4.251280   4.428966   6.146972   6.297631   5.312703
    26  H    5.040814   5.925897   5.015292   5.935513   2.884040
    27  H    7.368738   7.970121   7.023884   7.689102   4.950644
    28  H    8.319262   8.470450   7.530577   7.736779   5.847920
    29  H    5.126005   4.819046   3.956477   3.587924   3.370816
                   21         22         23         24         25
    21  H    0.000000
    22  H    1.771085   0.000000
    23  H    3.077032   2.511288   0.000000
    24  H    2.520390   3.076594   1.771874   0.000000
    25  H    2.498997   2.518575   1.775336   1.775390   0.000000
    26  H    2.805581   4.074468   4.699225   3.631240   4.752054
    27  H    4.284934   5.836031   6.861573   5.591505   6.424133
    28  H    5.252930   6.488910   8.212363   7.271676   7.646673
    29  H    3.976038   3.906933   6.141302   6.178321   6.185554
                   26         27         28         29
    26  H    0.000000
    27  H    2.489993   0.000000
    28  H    4.311057   2.490178   0.000000
    29  H    4.285638   4.960839   4.303040   0.000000
 Stoichiometry    C11H15BrO2
 Framework group  C1[X(C11H15BrO2)]
 Deg. of freedom    81
 Full point group                 C1      NOp   1
 RotChk:  IX=0 Diff= 1.02D-15
 Largest Abelian subgroup         C1      NOp   1
 Largest concise Abelian subgroup C1      NOp   1
                         Standard orientation:                         
 ---------------------------------------------------------------------
 Center     Atomic      Atomic             Coordinates (Angstroms)
 Number     Number       Type             X           Y           Z
 ---------------------------------------------------------------------
      1          6           0        4.072431   -2.050916    0.004362
      2          6           0        2.711840   -2.287484   -0.640061
      3          8           0        1.696988   -1.388326   -0.185990
      4          6           0        1.689117   -0.125415   -0.794431
      5          8           0        2.706409    0.735616   -0.318261
      6          6           0        2.645187    1.023876    1.085049
      7          6           0        3.877936    1.833792    1.437806
      8          6           0        0.303144    0.483065   -0.636497
      9          6           0        0.118936    1.834604   -0.948113
     10          6           0       -1.144394    2.411642   -0.847472
     11          6           0       -2.239621    1.650496   -0.435273
     12          6           0       -2.039137    0.307964   -0.129206
     13         35           0       -3.528969   -0.749699    0.440724
     14          6           0       -0.784305   -0.288152   -0.224952
     15          1           0        4.778545   -2.822373   -0.321212
     16          1           0        4.468118   -1.071486   -0.269889
     17          1           0        3.991072   -2.100935    1.094258
     18          1           0        2.788792   -2.224850   -1.735832
     19          1           0        2.338723   -3.285259   -0.390090
     20          1           0        1.925269   -0.227869   -1.864362
     21          1           0        1.729418    1.584689    1.311929
     22          1           0        2.610810    0.086380    1.650990
     23          1           0        4.788660    1.264268    1.231329
     24          1           0        3.912670    2.757094    0.852317
     25          1           0        3.867408    2.097232    2.499904
     26          1           0        0.974656    2.426139   -1.255868
     27          1           0       -1.283890    3.460979   -1.088107
     28          1           0       -3.227208    2.088452   -0.352807
     29          1           0       -0.643108   -1.332142    0.018832
 ---------------------------------------------------------------------
 Rotational constants (GHZ):           0.8620646           0.2378414           0.2044200
 Leave Link  202 at Tue Sep 17 11:31:09 2024, MaxMem=  1342177280 cpu:               0.0 elap:               0.1
 (Enter /groups/ReismanLab/Software/Gaussian16_RevC/Linux_Binary_AVX2-enabled-CPU/g16/l301.exe)
 Standard basis: def2TZVP (5D, 7F)
 Ernie: Thresh=  0.10000D-02 Tol=  0.10000D-05 Strict=F.
 There are   613 symmetry adapted cartesian basis functions of A   symmetry.
 There are   541 symmetry adapted basis functions of A   symmetry.
   541 basis functions,   897 primitive gaussians,   613 cartesian basis functions
    66 alpha electrons       66 beta electrons
       nuclear repulsion energy      1196.5703655056 Hartrees.
 IExCor= 4336 DFT=T Ex+Corr=M062X ExCW=0 ScaHFX=  0.540000
 ScaDFX=  1.000000  1.000000  1.000000  1.000000 ScalE2=  1.000000  1.000000
 IRadAn=      5 IRanWt=     -1 IRanGd=            0 ICorTp=0 IEmpDi=  4
 NAtoms=   29 NActive=   29 NUniq=   29 SFac= 1.00D+00 NAtFMM=   60 NAOKFM=F Big=F
 Integral buffers will be    131072 words long.
 Raffenetti 2 integral format.
 Two-electron integral symmetry is turned on.
 ------------------------------------------------------------------------------
 Polarizable Continuum Model (PCM)
 =================================
 Model                : PCM.
 Atomic radii         : SMD-Coulomb.
 Polarization charges : Total charges.
 Charge compensation  : None.
 Solution method      : On-the-fly selection.
 Cavity type          : VdW (van der Waals Surface) (Alpha=1.000).
 Cavity algorithm     : GePol (No added spheres)
                        Default sphere list used, NSphG=   29.
                        Lebedev-Laikov grids with approx.  5.0 points / Ang**2.
                        Smoothing algorithm: York/Karplus (Gamma=1.0000).
                        Polarization charges: spherical gaussians, with
                                              point-specific exponents (IZeta= 3).
                        Self-potential: point-specific (ISelfS= 7).
                        Self-field    : sphere-specific E.n sum rule (ISelfD= 2).
 Solvent              : 1,4-Dioxane, Eps=   2.209900 Eps(inf)=   2.023222
 ------------------------------------------------------------------------------
 GePol: Number of generator spheres                  =      29
 GePol: Total number of spheres                      =      29
 GePol: Number of exposed spheres                    =      29 (100.00%)
 GePol: Number of points                             =    2192
 GePol: Average weight of points                     =       0.12
 GePol: Minimum weight of points                     =   0.17D-11
 GePol: Maximum weight of points                     =    0.21647
 GePol: Number of points with low weight             =     136
 GePol: Fraction of low-weight points (<1% of avg)   =       6.20%
 GePol: Cavity surface area                          =    272.666 Ang**2
 GePol: Cavity volume                                =    272.765 Ang**3
 ------------------------------------------------------------------------------
 Atomic radii for non-electrostatic terms: SMD-CDS.
 ------------------------------------------------------------------------------
 PCM non-electrostatic energy =        -0.0049522764 Hartrees.
 Nuclear repulsion after PCM non-electrostatic terms =     1196.5654132292 Hartrees.
 Leave Link  301 at Tue Sep 17 11:31:09 2024, MaxMem=  1342177280 cpu:               0.1 elap:               0.4
 (Enter /groups/ReismanLab/Software/Gaussian16_RevC/Linux_Binary_AVX2-enabled-CPU/g16/l302.exe)
 NPDir=0 NMtPBC=     1 NCelOv=     1 NCel=       1 NClECP=     1 NCelD=      1
         NCelK=      1 NCelE2=     1 NClLst=     1 CellRange=     0.0.
 One-electron integrals computed using PRISM.
 One-electron integral symmetry used in STVInt
   1 Symmetry operations used in ECPInt.
 ECPInt:  NShTT=   24090 NPrTT=   76252 LenC2=   22108 LenP2D=   50870.
 LDataN:  DoStor=T MaxTD1= 6 Len=  172
 NBasis=   541 RedAO= T EigKep=  7.74D-06  NBF=   541
 NBsUse=   541 1.00D-06 EigRej= -1.00D+00 NBFU=   541
 Precomputing XC quadrature grid using
 IXCGrd= 4 IRadAn=           5 IRanWt=          -1 IRanGd=           0 AccXCQ= 0.00D+00.
 Generated NRdTot=       0 NPtTot=           0 NUsed=           0 NTot=          32
 NSgBfM=   607   607   607   607   607 MxSgAt=    29 MxSgA2=    29.
 Leave Link  302 at Tue Sep 17 11:31:11 2024, MaxMem=  1342177280 cpu:               1.3 elap:               1.3
 (Enter /groups/ReismanLab/Software/Gaussian16_RevC/Linux_Binary_AVX2-enabled-CPU/g16/l303.exe)
 DipDrv:  MaxL=1.
 Leave Link  303 at Tue Sep 17 11:31:11 2024, MaxMem=  1342177280 cpu:               0.1 elap:               0.1
 (Enter /groups/ReismanLab/Software/Gaussian16_RevC/Linux_Binary_AVX2-enabled-CPU/g16/l308.exe)
 Leave Link  308 at Tue Sep 17 11:31:11 2024, MaxMem=  1342177280 cpu:               0.1 elap:               0.1
 (Enter /groups/ReismanLab/Software/Gaussian16_RevC/Linux_Binary_AVX2-enabled-CPU/g16/l401.exe)
 Initial guess from the checkpoint file:  "smiles_00034_conf_0.chk"
 B after Tr=     0.000000   -0.000000   -0.000000
         Rot=    1.000000    0.000000    0.000000   -0.000000 Ang=   0.00 deg.
 Guess basis will be translated and rotated to current coordinates.
 JPrj=2 DoOrth=T DoCkMO=T.
 Leave Link  401 at Tue Sep 17 11:31:11 2024, MaxMem=  1342177280 cpu:               0.5 elap:               0.5
 (Enter /groups/ReismanLab/Software/Gaussian16_RevC/Linux_Binary_AVX2-enabled-CPU/g16/l502.exe)
 Integral symmetry usage will be decided dynamically.
 Closed shell SCF:
 Using DIIS extrapolation, IDIIS=  1040.
 NGot=  1342177280 LenX=  1341415894 LenY=  1341039512
 Requested convergence on RMS density matrix=1.00D-08 within  32 cycles.
 Requested convergence on MAX density matrix=1.00D-06.
 Requested convergence on             energy=1.00D-06.
 No special actions if energy rises.
 Fock matrices will be formed incrementally for  20 cycles.

 Cycle   1  Pass 1  IDiag  1:
 FoFJK:  IHMeth= 1 ICntrl=       0 DoSepK=F KAlg= 0 I1Cent=           0 FoldK=F
 IRaf= 870000000 NMat=       1 IRICut=       1 DoRegI=T DoRafI=F ISym2E= 0 IDoP0=0 IntGTp=1.
 FoFCou: FMM=F IPFlag=           0 FMFlag=      100000 FMFlg1=           0
         NFxFlg=           0 DoJE=F BraDBF=F KetDBF=F FulRan=T
         wScrn=  0.000000 ICntrl=         0 IOpCl=  0 I1Cent=           0 NGrid=           0
         NMat0=    1 NMatS0=      1 NMatT0=    0 NMatD0=    1 NMtDS0=    0 NMtDT0=    0
 Symmetry not used in FoFCou.
 Inv3:  Mode=1 IEnd=    14414592.
 Iteration    1 A*A^-1 deviation from unit magnitude is 3.55D-15 for    279.
 Iteration    1 A*A^-1 deviation from orthogonality  is 2.50D-15 for   1281   1086.
 Iteration    1 A^-1*A deviation from unit magnitude is 3.33D-15 for    279.
 Iteration    1 A^-1*A deviation from orthogonality  is 1.67D-15 for    779    319.
 E= -3152.81184812367    
 DIIS: error= 4.51D-08 at cycle   1 NSaved=   1.
 NSaved= 1 IEnMin= 1 EnMin= -3152.81184812367     IErMin= 1 ErrMin= 4.51D-08
 ErrMax= 4.51D-08  0.00D+00 EMaxC= 1.00D-01 BMatC= 6.42D-13 BMatP= 6.42D-13
 IDIUse=1 WtCom= 1.00D+00 WtEn= 0.00D+00
 Coeff-Com:  0.100D+01
 Coeff:      0.100D+01
 Gap=     0.302 Goal=   None    Shift=    0.000
 RMSDP=3.93D-09 MaxDP=1.51D-07              OVMax= 1.08D-06

 Error on total polarization charges =  0.02758
 SCF Done:  E(RM062X) =  -3152.81184812     A.U. after    1 cycles
            NFock=  1  Conv=0.39D-08     -V/T= 2.0020
 KE= 3.146383698091D+03 PE=-9.893545907021D+03 EE= 2.397784947577D+03
 SMD-CDS (non-electrostatic) energy       (kcal/mol) =      -3.11
 (included in total energy above)
 Leave Link  502 at Tue Sep 17 11:34:12 2024, MaxMem=  1342177280 cpu:             179.5 elap:             180.3
 (Enter /groups/ReismanLab/Software/Gaussian16_RevC/Linux_Binary_AVX2-enabled-CPU/g16/l508.exe)
 QCSCF skips out because SCF is already converged.
 Leave Link  508 at Tue Sep 17 11:34:12 2024, MaxMem=  1342177280 cpu:               0.0 elap:               0.0
 (Enter /groups/ReismanLab/Software/Gaussian16_RevC/Linux_Binary_AVX2-enabled-CPU/g16/l801.exe)
 DoSCS=F DFT=T ScalE2(SS,OS)=  1.000000  1.000000
 Range of M.O.s used for correlation:     1   541
 NBasis=   541 NAE=    66 NBE=    66 NFC=     0 NFV=     0
 NROrb=    541 NOA=    66 NOB=    66 NVA=   475 NVB=   475

 **** Warning!!: The largest alpha MO coefficient is  0.42191557D+02

 Leave Link  801 at Tue Sep 17 11:34:12 2024, MaxMem=  1342177280 cpu:               0.1 elap:               0.1
 (Enter /groups/ReismanLab/Software/Gaussian16_RevC/Linux_Binary_AVX2-enabled-CPU/g16/l1002.exe)
 Minotr:  Closed shell wavefunction.
 NEqPCM:  Using equilibrium solvation (IEInf=0, Eps=   2.2099, EpsInf=   2.0232)
          Direct CPHF calculation.
          Differentiating once with respect to magnetic field using GIAOs.
          Electric field/nuclear overlap derivatives assumed to be zero.
          Requested convergence is 1.0D-08 RMS, and 1.0D-07 maximum.
          Secondary convergence is 1.0D-12 RMS, and 1.0D-12 maximum.
          NewPWx=T KeepS1=F KeepF1=F KeepIn=T MapXYZ=F SortEE=F KeepMc=T.
         8755 words used for storage of precomputed grid.
 Two-electron integral symmetry used by symmetrizing perturbed Fock matrices.
          MDV=    1342177280 using IRadAn=       1.
          Solving linear equations simultaneously, MaxMat=     384.
   1 Symmetry operations used in ECPInt.
 ECPInt:  NShTT=   24090 NPrTT=   76252 LenC2=   24091 LenP2D=   76252.
 LDataN:  DoStor=T MaxTD1= 7 Len=  274
 FoFJK:  IHMeth= 1 ICntrl=    6127 DoSepK=F KAlg= 0 I1Cent=           0 FoldK=F
 IRaf=         1 NMat=       1 IRICut=       1 DoRegI=T DoRafI=F ISym2E= 0 IDoP0=0 IntGTp=1.
          There are     3 degrees of freedom in the 1st order CPHF.  IDoFFX=0 NUNeed=     3.
      3 vectors produced by pass  0 Test12= 1.05D-12 3.33D-08 XBig12= 1.98D+01 7.79D-01.
 AX will form     3 AO Fock derivatives at one time.
      3 vectors produced by pass  1 Test12= 1.05D-12 3.33D-08 XBig12= 1.20D-01 9.97D-02.
