 Entering Gaussian System, Link 0=g16
 Input=smiles_00065_conf_0.gjf
 Output=smiles_00065_conf_0.log
 Initial command:
 /groups/ReismanLab/Software/Gaussian16_RevC/Linux_Binary_AVX2-enabled-CPU/g16/l1.exe "/central/groups/ReismanLab/DM/dft_final/smiles_00065/Gau-101795.inp" -scrdir="/central/groups/ReismanLab/DM/dft_final/smiles_00065/"
 Entering Link 1 = /groups/ReismanLab/Software/Gaussian16_RevC/Linux_Binary_AVX2-enabled-CPU/g16/l1.exe PID=    101798.
  
 Copyright (c) 1988-2021, Gaussian, Inc.  All Rights Reserved.
  
 This is part of the Gaussian(R) 16 program.  It is based on
 the Gaussian(R) 09 system (copyright 2009, Gaussian, Inc.),
 the Gaussian(R) 03 system (copyright 2003, Gaussian, Inc.),
 the Gaussian(R) 98 system (copyright 1998, Gaussian, Inc.),
 the Gaussian(R) 94 system (copyright 1995, Gaussian, Inc.),
 the Gaussian 92(TM) system (copyright 1992, Gaussian, Inc.),
 the Gaussian 90(TM) system (copyright 1990, Gaussian, Inc.),
 the Gaussian 88(TM) system (copyright 1988, Gaussian, Inc.),
 the Gaussian 86(TM) system (copyright 1986, Carnegie Mellon
 University), and the Gaussian 82(TM) system (copyright 1983,
 Carnegie Mellon University). Gaussian is a federally registered
 trademark of Gaussian, Inc.
  
 This software contains proprietary and confidential information,
 including trade secrets, belonging to Gaussian, Inc.
  
 This software is provided under written license and may be
 used, copied, transmitted, or stored only in accord with that
 written license.
  
 The following legend is applicable only to US Government
 contracts under FAR:
  
                    RESTRICTED RIGHTS LEGEND
  
 Use, reproduction and disclosure by the US Government is
 subject to restrictions as set forth in subparagraphs (a)
 and (c) of the Commercial Computer Software - Restricted
 Rights clause in FAR 52.227-19.
  
 Gaussian, Inc.
 340 Quinnipiac St., Bldg. 40, Wallingford CT 06492
  
  
 ---------------------------------------------------------------
 Warning -- This program may not be used in any manner that
 competes with the business of Gaussian, Inc. or will provide
 assistance to any competitor of Gaussian, Inc.  The licensee
 of this program is prohibited from giving any competitor of
 Gaussian, Inc. access to this program.  By using this program,
 the user acknowledges that Gaussian, Inc. is engaged in the
 business of creating and licensing software in the field of
 computational chemistry and represents and warrants to the
 licensee that it is not a competitor of Gaussian, Inc. and that
 it will not use this program in any manner prohibited above.
 ---------------------------------------------------------------
  

 Cite this work as:
 Gaussian 16, Revision C.02,
 M. J. Frisch, G. W. Trucks, H. B. Schlegel, G. E. Scuseria, 
 M. A. Robb, J. R. Cheeseman, G. Scalmani, V. Barone, 
 G. A. Petersson, H. Nakatsuji, X. Li, M. Caricato, A. V. Marenich, 
 J. Bloino, B. G. Janesko, R. Gomperts, B. Mennucci, H. P. Hratchian, 
 J. V. Ortiz, A. F. Izmaylov, J. L. Sonnenberg, D. Williams-Young, 
 F. Ding, F. Lipparini, F. Egidi, J. Goings, B. Peng, A. Petrone, 
 T. Henderson, D. Ranasinghe, V. G. Zakrzewski, J. Gao, N. Rega, 
 G. Zheng, W. Liang, M. Hada, M. Ehara, K. Toyota, R. Fukuda, 
 J. Hasegawa, M. Ishida, T. Nakajima, Y. Honda, O. Kitao, H. Nakai, 
 T. Vreven, K. Throssell, J. A. Montgomery, Jr., J. E. Peralta, 
 F. Ogliaro, M. J. Bearpark, J. J. Heyd, E. N. Brothers, K. N. Kudin, 
 V. N. Staroverov, T. A. Keith, R. Kobayashi, J. Normand, 
 K. Raghavachari, A. P. Rendell, J. C. Burant, S. S. Iyengar, 
 J. Tomasi, M. Cossi, J. M. Millam, M. Klene, C. Adamo, R. Cammi, 
 J. W. Ochterski, R. L. Martin, K. Morokuma, O. Farkas, 
 J. B. Foresman, and D. J. Fox, Gaussian, Inc., Wallingford CT, 2019.
 
 ******************************************
 Gaussian 16:  ES64L-G16RevC.02  7-Dec-2021
                17-Sep-2024 
 ******************************************
 %nprocshared=8
 Will use up to    8 processors via shared memory.
 %Mem=10GB
 %Chk=smiles_00065_conf_0.chk
 ----------------------------------------------------------------------
 #p B3LYP/6-31G(d,p) EmpiricalDispersion=GD3BJ opt freq scf(xqc,tight) 
 integral(grid=ultrafine)
 ----------------------------------------------------------------------
 1/18=20,19=15,26=4,38=1/1,3;
 2/9=110,12=2,17=6,18=5,40=1/2;
 3/5=1,6=6,7=101,11=2,25=1,30=1,71=1,74=-5,75=-5,124=41/1,2,3;
 4//1;
 5/5=2,8=3,13=1,32=2,38=5/2,8;
 6/7=2,8=2,9=2,10=2,28=1/1;
 7//1,2,3,16;
 1/18=20,19=15,26=4/3(2);
 2/9=110/2;
 99//99;
 2/9=110/2;
 3/5=1,6=6,7=101,11=2,25=1,30=1,71=1,74=-5,75=-5,124=41/1,2,3;
 4/5=5,16=3,69=1/1;
 5/5=2,8=3,13=1,32=2,38=5/2,8;
 7//1,2,3,16;
 1/18=20,19=15,26=4/3(-5);
 2/9=110/2;
 6/7=2,8=2,9=2,10=2,19=2,28=1/1;
 99/9=1/99;
 Leave Link    1 at Tue Sep 17 09:53:47 2024, MaxMem=  1342177280 cpu:               0.1 elap:               0.7
 (Enter /groups/ReismanLab/Software/Gaussian16_RevC/Linux_Binary_AVX2-enabled-CPU/g16/l101.exe)
 ----------------------------------
 opt-freq conformers_unique/conf_aa
 ----------------------------------
 Symbolic Z-matrix:
 Charge =  0 Multiplicity = 1
 N                    -1.87176  -3.02548  -0.00093 
 C                    -1.2429   -2.06918   0.00365 
 C                    -0.45748  -0.88991   0.00905 
 C                     0.93264  -0.99499   0.01651 
 C                     1.70402   0.15474   0.02502 
 C                     3.20595   0.05619   0.00286 
 F                     3.65679  -1.12339   0.44453 
 F                     3.78749   1.00172   0.75483 
 F                     3.69348   0.21095  -1.242 
 C                     1.10806   1.41246   0.01873 
 C                    -0.26977   1.52063   0.01099 
 C                    -1.05258   0.37588   0.00611 
 Br                   -2.94045   0.53883  -0.00435 
 H                     1.39378  -1.97134   0.02082 
 H                     1.72208   2.29966   0.02527 
 H                    -0.74191   2.49032   0.00826 
 
 ITRead=  0  0  0  0  0  0  0  0  0  0  0  0  0  0  0  0
 MicOpt= -1 -1 -1 -1 -1 -1 -1 -1 -1 -1 -1 -1 -1 -1 -1 -1
 NAtoms=     16 NQM=       16 NQMF=       0 NMMI=      0 NMMIF=      0
                NMic=       0 NMicF=      0.
                    Isotopes and Nuclear Properties:
 (Nuclear quadrupole moments (NQMom) in fm**2, nuclear magnetic moments (NMagM)
  in nuclear magnetons)

  Atom         1           2           3           4           5           6           7           8           9          10
 IAtWgt=          14          12          12          12          12          12          19          19          19          12
 AtmWgt=  14.0030740  12.0000000  12.0000000  12.0000000  12.0000000  12.0000000  18.9984032  18.9984032  18.9984032  12.0000000
 NucSpn=           2           0           0           0           0           0           1           1           1           0
 AtZEff=  -0.0000000  -0.0000000  -0.0000000  -0.0000000  -0.0000000  -0.0000000  -0.0000000  -0.0000000  -0.0000000  -0.0000000
 NQMom=    2.0440000   0.0000000   0.0000000   0.0000000   0.0000000   0.0000000   0.0000000   0.0000000   0.0000000   0.0000000
 NMagM=    0.4037610   0.0000000   0.0000000   0.0000000   0.0000000   0.0000000   2.6288670   2.6288670   2.6288670   0.0000000
 AtZNuc=   7.0000000   6.0000000   6.0000000   6.0000000   6.0000000   6.0000000   9.0000000   9.0000000   9.0000000   6.0000000

  Atom        11          12          13          14          15          16
 IAtWgt=          12          12          79           1           1           1
 AtmWgt=  12.0000000  12.0000000  78.9183361   1.0078250   1.0078250   1.0078250
 NucSpn=           0           0           3           1           1           1
 AtZEff=  -0.0000000  -0.0000000  -0.0000000  -0.0000000  -0.0000000  -0.0000000
 NQMom=    0.0000000   0.0000000  31.3000000   0.0000000   0.0000000   0.0000000
 NMagM=    0.0000000   0.0000000   2.1063990   2.7928460   2.7928460   2.7928460
 AtZNuc=   6.0000000   6.0000000  35.0000000   1.0000000   1.0000000   1.0000000
 Leave Link  101 at Tue Sep 17 09:53:48 2024, MaxMem=  1342177280 cpu:               0.3 elap:               0.5
 (Enter /groups/ReismanLab/Software/Gaussian16_RevC/Linux_Binary_AVX2-enabled-CPU/g16/l103.exe)

 GradGradGradGradGradGradGradGradGradGradGradGradGradGradGradGradGradGrad
 Berny optimization.
 Initialization pass.
                           ----------------------------
                           !    Initial Parameters    !
                           ! (Angstroms and Degrees)  !
 --------------------------                            --------------------------
 ! Name  Definition              Value          Derivative Info.                !
 --------------------------------------------------------------------------------
 ! R1    R(1,2)                  1.1445         estimate D2E/DX2                !
 ! R2    R(2,3)                  1.4169         estimate D2E/DX2                !
 ! R3    R(3,4)                  1.3941         estimate D2E/DX2                !
 ! R4    R(3,12)                 1.3987         estimate D2E/DX2                !
 ! R5    R(4,5)                  1.3845         estimate D2E/DX2                !
 ! R6    R(4,14)                 1.0798         estimate D2E/DX2                !
 ! R7    R(5,6)                  1.5053         estimate D2E/DX2                !
 ! R8    R(5,10)                 1.3918         estimate D2E/DX2                !
 ! R9    R(6,7)                  1.3378         estimate D2E/DX2                !
 ! R10   R(6,8)                  1.3408         estimate D2E/DX2                !
 ! R11   R(6,9)                  1.3459         estimate D2E/DX2                !
 ! R12   R(10,11)                1.3821         estimate D2E/DX2                !
 ! R13   R(10,15)                1.079          estimate D2E/DX2                !
 ! R14   R(11,12)                1.3868         estimate D2E/DX2                !
 ! R15   R(11,16)                1.0785         estimate D2E/DX2                !
 ! R16   R(12,13)                1.8949         estimate D2E/DX2                !
 ! A1    A(2,3,4)              119.3425         estimate D2E/DX2                !
 ! A2    A(2,3,12)             121.1545         estimate D2E/DX2                !
 ! A3    A(4,3,12)             119.503          estimate D2E/DX2                !
 ! A4    A(3,4,5)              119.5371         estimate D2E/DX2                !
 ! A5    A(3,4,14)             119.6054         estimate D2E/DX2                !
 ! A6    A(5,4,14)             120.8567         estimate D2E/DX2                !
 ! A7    A(4,5,6)              120.0945         estimate D2E/DX2                !
 ! A8    A(4,5,10)             120.7849         estimate D2E/DX2                !
 ! A9    A(6,5,10)             119.0995         estimate D2E/DX2                !
 ! A10   A(5,6,7)              112.8988         estimate D2E/DX2                !
 ! A11   A(5,6,8)              112.2305         estimate D2E/DX2                !
 ! A12   A(5,6,9)              111.5628         estimate D2E/DX2                !
 ! A13   A(7,6,8)              106.8861         estimate D2E/DX2                !
 ! A14   A(7,6,9)              106.5397         estimate D2E/DX2                !
 ! A15   A(8,6,9)              106.2933         estimate D2E/DX2                !
 ! A16   A(5,10,11)            119.8435         estimate D2E/DX2                !
 ! A17   A(5,10,15)            119.9571         estimate D2E/DX2                !
 ! A18   A(11,10,15)           120.1985         estimate D2E/DX2                !
 ! A19   A(10,11,12)           119.8766         estimate D2E/DX2                !
 ! A20   A(10,11,16)           120.4509         estimate D2E/DX2                !
 ! A21   A(12,11,16)           119.6724         estimate D2E/DX2                !
 ! A22   A(3,12,11)            120.454          estimate D2E/DX2                !
 ! A23   A(3,12,13)            120.1134         estimate D2E/DX2                !
 ! A24   A(11,12,13)           119.4326         estimate D2E/DX2                !
 ! A25   L(1,2,3,13,-1)        180.336          estimate D2E/DX2                !
 ! A26   L(1,2,3,13,-2)        180.0128         estimate D2E/DX2                !
 ! D1    D(2,3,4,5)           -179.8472         estimate D2E/DX2                !
 ! D2    D(2,3,4,14)            -0.1678         estimate D2E/DX2                !
 ! D3    D(12,3,4,5)             0.1968         estimate D2E/DX2                !
 ! D4    D(12,3,4,14)          179.8762         estimate D2E/DX2                !
 ! D5    D(2,3,12,11)         -179.9765         estimate D2E/DX2                !
 ! D6    D(2,3,12,13)            0.0327         estimate D2E/DX2                !
 ! D7    D(4,3,12,11)           -0.0213         estimate D2E/DX2                !
 ! D8    D(4,3,12,13)          179.9879         estimate D2E/DX2                !
 ! D9    D(3,4,5,6)           -178.6685         estimate D2E/DX2                !
 ! D10   D(3,4,5,10)            -0.3593         estimate D2E/DX2                !
 ! D11   D(14,4,5,6)             1.6562         estimate D2E/DX2                !
 ! D12   D(14,4,5,10)          179.9654         estimate D2E/DX2                !
 ! D13   D(4,5,6,7)            -22.282          estimate D2E/DX2                !
 ! D14   D(4,5,6,8)           -143.1643         estimate D2E/DX2                !
 ! D15   D(4,5,6,9)             97.6656         estimate D2E/DX2                !
 ! D16   D(10,5,6,7)           159.3804         estimate D2E/DX2                !
 ! D17   D(10,5,6,8)            38.4981         estimate D2E/DX2                !
 ! D18   D(10,5,6,9)           -80.672          estimate D2E/DX2                !
 ! D19   D(4,5,10,11)            0.3437         estimate D2E/DX2                !
 ! D20   D(4,5,10,15)         -179.9857         estimate D2E/DX2                !
 ! D21   D(6,5,10,11)          178.6695         estimate D2E/DX2                !
 ! D22   D(6,5,10,15)           -1.6599         estimate D2E/DX2                !
 ! D23   D(5,10,11,12)          -0.1633         estimate D2E/DX2                !
 ! D24   D(5,10,11,16)         179.8652         estimate D2E/DX2                !
 ! D25   D(15,10,11,12)       -179.8332         estimate D2E/DX2                !
 ! D26   D(15,10,11,16)          0.1954         estimate D2E/DX2                !
 ! D27   D(10,11,12,3)           0.0047         estimate D2E/DX2                !
 ! D28   D(10,11,12,13)        179.9956         estimate D2E/DX2                !
 ! D29   D(16,11,12,3)         179.9764         estimate D2E/DX2                !
 ! D30   D(16,11,12,13)         -0.0328         estimate D2E/DX2                !
 --------------------------------------------------------------------------------
 Trust Radius=3.00D-01 FncErr=1.00D-07 GrdErr=1.00D-06 EigMax=2.50D+02 EigMin=1.00D-04
 Number of steps in this run=     82 maximum allowed number of steps=    100.
 GradGradGradGradGradGradGradGradGradGradGradGradGradGradGradGradGradGrad

 Leave Link  103 at Tue Sep 17 09:53:48 2024, MaxMem=  1342177280 cpu:               0.1 elap:               0.0
 (Enter /groups/ReismanLab/Software/Gaussian16_RevC/Linux_Binary_AVX2-enabled-CPU/g16/l202.exe)
                          Input orientation:                          
 ---------------------------------------------------------------------
 Center     Atomic      Atomic             Coordinates (Angstroms)
 Number     Number       Type             X           Y           Z
 ---------------------------------------------------------------------
      1          7           0       -1.871755   -3.025484   -0.000928
      2          6           0       -1.242901   -2.069181    0.003645
      3          6           0       -0.457479   -0.889910    0.009054
      4          6           0        0.932640   -0.994987    0.016505
      5          6           0        1.704023    0.154741    0.025021
      6          6           0        3.205949    0.056194    0.002861
      7          9           0        3.656794   -1.123390    0.444533
      8          9           0        3.787491    1.001723    0.754834
      9          9           0        3.693481    0.210949   -1.242000
     10          6           0        1.108062    1.412459    0.018726
     11          6           0       -0.269770    1.520634    0.010993
     12          6           0       -1.052577    0.375882    0.006109
     13         35           0       -2.940452    0.538830   -0.004353
     14          1           0        1.393783   -1.971336    0.020816
     15          1           0        1.722082    2.299664    0.025267
     16          1           0       -0.741913    2.490322    0.008257
 ---------------------------------------------------------------------
                    Distance matrix (angstroms):
                    1          2          3          4          5
     1  N    0.000000
     2  C    1.144550   0.000000
     3  C    2.561436   1.416897   0.000000
     4  C    3.462348   2.426321   1.394104   0.000000
     5  C    4.785466   3.691970   2.400758   1.384550   0.000000
     6  C    5.939683   4.930465   3.783630   2.504616   1.505319
     7  F    5.863553   5.009582   4.143838   2.760564   2.371271
     8  F    6.986891   5.941345   4.706829   3.561202   2.364498
     9  F    6.556418   5.578396   4.472974   3.265021   2.359332
    10  C    5.345562   4.201079   2.784226   2.413830   1.391784
    11  C    4.820133   3.719382   2.417841   2.788219   2.400358
    12  C    3.498627   2.452460   1.398706   2.412566   2.765520
    13  Br   3.721083   3.111827   2.864723   4.165798   4.660422
    14  H    3.431536   2.638554   2.144013   1.079782   2.148597
    15  H    6.424449   5.280000   3.863176   3.387923   2.144999
    16  H    5.630341   4.586947   3.392178   3.866727   3.381985
                    6          7          8          9         10
     6  C    0.000000
     7  F    1.337817   0.000000
     8  F    1.340777   2.151622   0.000000
     9  F    1.345852   2.150861   2.149770   0.000000
    10  C    2.498167   3.620481   2.808897   3.117282   0.000000
    11  C    3.771641   4.753602   4.157396   4.358053   1.382094
    12  C    4.270510   4.961674   4.937462   4.910199   2.396458
    13  Br   6.165326   6.818221   6.786447   6.756357   4.141766
    14  H    2.719402   2.453522   3.886863   3.412578   3.395837
    15  H    2.689892   3.954262   2.546140   3.139285   1.078979
    16  H    4.637955   5.709455   4.825847   5.141148   2.141099
                   11         12         13         14         15
    11  C    0.000000
    12  C    1.386819   0.000000
    13  Br   2.845473   1.894924   0.000000
    14  H    3.867991   3.390328   5.008709   0.000000
    15  H    2.138824   3.376394   4.984039   4.283601   0.000000
    16  H    1.078528   2.137142   2.939738   4.946488   2.471419
                   16
    16  H    0.000000
 Stoichiometry    C8H3BrF3N
 Framework group  C1[X(C8H3BrF3N)]
 Deg. of freedom    42
 Full point group                 C1      NOp   1
 Largest Abelian subgroup         C1      NOp   1
 Largest concise Abelian subgroup C1      NOp   1
                         Standard orientation:                         
 ---------------------------------------------------------------------
 Center     Atomic      Atomic             Coordinates (Angstroms)
 Number     Number       Type             X           Y           Z
 ---------------------------------------------------------------------
      1          7           0       -1.991059    2.991888    0.000814
      2          6           0       -1.351227    2.042894   -0.003540
      3          6           0       -0.552267    0.872751   -0.008677
      4          6           0        0.836548    0.993838   -0.016129
      5          6           0        1.621129   -0.146926   -0.024381
      6          6           0        3.121819   -0.031073   -0.002218
      7          9           0        3.559050    1.153531   -0.444140
      8          9           0        3.714233   -0.970004   -0.753974
      9          9           0        3.611079   -0.179929    1.242686
     10          6           0        1.039700   -1.411427   -0.017820
     11          6           0       -0.336794   -1.535470   -0.010086
     12          6           0       -1.132740   -0.399814   -0.005466
     13         35           0       -3.018613   -0.584504    0.005001
     14          1           0        1.286410    1.975435   -0.020646
     15          1           0        1.663904   -2.291499   -0.024157
     16          1           0       -0.797731   -2.510534   -0.007147
 ---------------------------------------------------------------------
 Rotational constants (GHZ):           1.3269875           0.2831080           0.2431876
 Leave Link  202 at Tue Sep 17 09:53:48 2024, MaxMem=  1342177280 cpu:               0.1 elap:               0.0
 (Enter /groups/ReismanLab/Software/Gaussian16_RevC/Linux_Binary_AVX2-enabled-CPU/g16/l301.exe)
 Standard basis: 6-31G(d,p) (6D, 7F)
 Ernie: Thresh=  0.10000D-02 Tol=  0.10000D-05 Strict=F.
 There are   225 symmetry adapted cartesian basis functions of A   symmetry.
 There are   225 symmetry adapted basis functions of A   symmetry.
   225 basis functions,   440 primitive gaussians,   225 cartesian basis functions
    60 alpha electrons       60 beta electrons
       nuclear repulsion energy      1035.9604296591 Hartrees.
 IExCor=  402 DFT=T Ex+Corr=B3LYP ExCW=0 ScaHFX=  0.200000
 ScaDFX=  0.800000  0.720000  1.000000  0.810000 ScalE2=  1.000000  1.000000
 IRadAn=      5 IRanWt=     -1 IRanGd=            0 ICorTp=0 IEmpDi=141
 NAtoms=   16 NActive=   16 NUniq=   16 SFac= 1.00D+00 NAtFMM=   60 NAOKFM=F Big=F
 Integral buffers will be    131072 words long.
 Raffenetti 2 integral format.
 Two-electron integral symmetry is turned on.
 R6Disp:  Grimme-D3(BJ) Dispersion energy=       -0.0359947345 Hartrees.
 Nuclear repulsion after empirical dispersion term =     1035.9244349245 Hartrees.
 Leave Link  301 at Tue Sep 17 09:53:48 2024, MaxMem=  1342177280 cpu:               0.1 elap:               0.1
 (Enter /groups/ReismanLab/Software/Gaussian16_RevC/Linux_Binary_AVX2-enabled-CPU/g16/l302.exe)
 NPDir=0 NMtPBC=     1 NCelOv=     1 NCel=       1 NClECP=     1 NCelD=      1
         NCelK=      1 NCelE2=     1 NClLst=     1 CellRange=     0.0.
 One-electron integrals computed using PRISM.
 One-electron integral symmetry used in STVInt
 NBasis=   225 RedAO= T EigKep=  3.74D-04  NBF=   225
 NBsUse=   225 1.00D-06 EigRej= -1.00D+00 NBFU=   225
 Precomputing XC quadrature grid using
 IXCGrd= 4 IRadAn=           5 IRanWt=          -1 IRanGd=           0 AccXCQ= 0.00D+00.
 Generated NRdTot=       0 NPtTot=           0 NUsed=           0 NTot=          32
 NSgBfM=   223   223   223   223   223 MxSgAt=    16 MxSgA2=    16.
 Leave Link  302 at Tue Sep 17 09:53:49 2024, MaxMem=  1342177280 cpu:               1.0 elap:               0.3
 (Enter /groups/ReismanLab/Software/Gaussian16_RevC/Linux_Binary_AVX2-enabled-CPU/g16/l303.exe)
 DipDrv:  MaxL=1.
 Leave Link  303 at Tue Sep 17 09:53:49 2024, MaxMem=  1342177280 cpu:               0.1 elap:               0.1
 (Enter /groups/ReismanLab/Software/Gaussian16_RevC/Linux_Binary_AVX2-enabled-CPU/g16/l401.exe)
 ExpMin= 1.43D-01 ExpMax= 5.74D+05 ExpMxC= 5.74D+03 IAcc=3 IRadAn=         5 AccDes= 0.00D+00
 Harris functional with IExCor=  402 and IRadAn=       5 diagonalized for initial guess.
 HarFok:  IExCor=  402 AccDes= 0.00D+00 IRadAn=         5 IDoV= 1 UseB2=F ITyADJ=14
 ICtDFT=  3500011 ScaDFX=  1.000000  1.000000  1.000000  1.000000
 FoFCou: FMM=F IPFlag=           0 FMFlag=      100000 FMFlg1=           0
         NFxFlg=           0 DoJE=T BraDBF=F KetDBF=T FulRan=T
         wScrn=  0.000000 ICntrl=       500 IOpCl=  0 I1Cent=   200000004 NGrid=           0
         NMat0=    1 NMatS0=      1 NMatT0=    0 NMatD0=    1 NMtDS0=    0 NMtDT0=    0
 Petite list used in FoFCou.
 Harris En= -3232.73595512654    
 JPrj=0 DoOrth=F DoCkMO=F.
 Leave Link  401 at Tue Sep 17 09:53:49 2024, MaxMem=  1342177280 cpu:               4.8 elap:               0.7
 (Enter /groups/ReismanLab/Software/Gaussian16_RevC/Linux_Binary_AVX2-enabled-CPU/g16/l502.exe)
 Integral symmetry usage will be decided dynamically.
 Closed shell SCF:
 Using DIIS extrapolation, IDIIS=  1040.
 NGot=  1342177280 LenX=  1342071556 LenY=  1342020490
 Requested convergence on RMS density matrix=1.00D-08 within  32 cycles.
 Requested convergence on MAX density matrix=1.00D-06.
 Requested convergence on             energy=1.00D-06.
 No special actions if energy rises.
 Fock matrices will be formed incrementally for  20 cycles.
 Integral accuracy reduced to 1.0D-05 until final iterations.

 Cycle   1  Pass 0  IDiag  1:
 FoFJK:  IHMeth= 1 ICntrl=       0 DoSepK=F KAlg= 0 I1Cent=           0 FoldK=F
 IRaf= 850000000 NMat=       1 IRICut=       1 DoRegI=T DoRafI=F ISym2E= 0 IDoP0=0 IntGTp=1.
 FoFCou: FMM=F IPFlag=           0 FMFlag=      100000 FMFlg1=           0
         NFxFlg=           0 DoJE=F BraDBF=F KetDBF=F FulRan=T
         wScrn=  0.000000 ICntrl=         0 IOpCl=  0 I1Cent=           0 NGrid=           0
         NMat0=    1 NMatS0=      1 NMatT0=    0 NMatD0=    1 NMtDS0=    0 NMtDT0=    0
 Symmetry not used in FoFCou.
 E= -3232.46067009208    
 DIIS: error= 1.83D-01 at cycle   1 NSaved=   1.
 NSaved= 1 IEnMin= 1 EnMin= -3232.46067009208     IErMin= 1 ErrMin= 1.83D-01
 ErrMax= 1.83D-01  0.00D+00 EMaxC= 1.00D-01 BMatC= 5.93D-01 BMatP= 5.93D-01
 IDIUse=3 WtCom= 0.00D+00 WtEn= 1.00D+00
 Coeff-Com:  0.100D+01
 Coeff-En:   0.100D+01
 Coeff:      0.100D+01
 Gap=     0.247 Goal=   None    Shift=    0.000
 GapD=    0.247 DampG=1.000 DampE=0.250 DampFc=0.2500 IDamp=-1.
 Damping current iteration by 2.50D-01
 RMSDP=5.24D-03 MaxDP=2.41D-01              OVMax= 1.79D-01

 Cycle   2  Pass 0  IDiag  1:
 RMSU=  1.27D-03    CP:  9.93D-01
 E= -3232.53309612502     Delta-E=       -0.072426032939 Rises=F Damp=T
 DIIS: error= 1.35D-01 at cycle   2 NSaved=   2.
 NSaved= 2 IEnMin= 2 EnMin= -3232.53309612502     IErMin= 2 ErrMin= 1.35D-01
 ErrMax= 1.35D-01  0.00D+00 EMaxC= 1.00D-01 BMatC= 2.48D-01 BMatP= 5.93D-01
 IDIUse=3 WtCom= 0.00D+00 WtEn= 1.00D+00
 Coeff-Com: -0.120D+01 0.220D+01
 Coeff-En:   0.000D+00 0.100D+01
 Coeff:      0.000D+00 0.100D+01
 Gap=     0.211 Goal=   None    Shift=    0.000
 RMSDP=2.59D-03 MaxDP=1.09D-01 DE=-7.24D-02 OVMax= 8.14D-02

 Cycle   3  Pass 0  IDiag  1:
 RMSU=  1.19D-03    CP:  9.71D-01  2.65D+00
 E= -3232.62385423487     Delta-E=       -0.090758109844 Rises=F Damp=F
 DIIS: error= 1.17D-02 at cycle   3 NSaved=   3.
 NSaved= 3 IEnMin= 3 EnMin= -3232.62385423487     IErMin= 3 ErrMin= 1.17D-02
 ErrMax= 1.17D-02  0.00D+00 EMaxC= 1.00D-01 BMatC= 5.11D-02 BMatP= 2.48D-01
 IDIUse=3 WtCom= 8.83D-01 WtEn= 1.17D-01
 Coeff-Com:  0.921D+00-0.109D+01 0.117D+01
 Coeff-En:   0.115D+00 0.000D+00 0.885D+00
 Coeff:      0.827D+00-0.963D+00 0.114D+01
 Gap=     0.206 Goal=   None    Shift=    0.000
 RMSDP=1.37D-03 MaxDP=4.01D-02 DE=-9.08D-02 OVMax= 5.11D-02

 Cycle   4  Pass 0  IDiag  1:
 RMSU=  1.05D-03    CP:  9.71D-01  1.97D+00  9.51D-01
 E= -3232.64088541363     Delta-E=       -0.017031178766 Rises=F Damp=F
 DIIS: error= 1.47D-02 at cycle   4 NSaved=   4.
 NSaved= 4 IEnMin= 4 EnMin= -3232.64088541363     IErMin= 3 ErrMin= 1.17D-02
 ErrMax= 1.47D-02  0.00D+00 EMaxC= 1.00D-01 BMatC= 2.65D-02 BMatP= 5.11D-02
 IDIUse=3 WtCom= 8.53D-01 WtEn= 1.47D-01
 Coeff-Com:  0.737D+00-0.956D+00 0.805D+00 0.413D+00
 Coeff-En:   0.000D+00 0.000D+00 0.339D+00 0.661D+00
 Coeff:      0.629D+00-0.815D+00 0.737D+00 0.450D+00
 Gap=     0.203 Goal=   None    Shift=    0.000
 RMSDP=9.01D-04 MaxDP=3.29D-02 DE=-1.70D-02 OVMax= 5.71D-02

 Cycle   5  Pass 0  IDiag  1:
 RMSU=  2.67D-04    CP:  9.72D-01  1.87D+00  1.23D+00  2.53D-01
 E= -3232.66285154158     Delta-E=       -0.021966127952 Rises=F Damp=F
 DIIS: error= 5.25D-03 at cycle   5 NSaved=   5.
 NSaved= 5 IEnMin= 5 EnMin= -3232.66285154158     IErMin= 5 ErrMin= 5.25D-03
 ErrMax= 5.25D-03  0.00D+00 EMaxC= 1.00D-01 BMatC= 3.31D-03 BMatP= 2.65D-02
 IDIUse=3 WtCom= 9.47D-01 WtEn= 5.25D-02
 Coeff-Com:  0.234D+00-0.305D+00 0.307D+00 0.291D+00 0.472D+00
 Coeff-En:   0.000D+00 0.000D+00 0.000D+00 0.124D+00 0.876D+00
 Coeff:      0.222D+00-0.289D+00 0.291D+00 0.282D+00 0.493D+00
 Gap=     0.201 Goal=   None    Shift=    0.000
 RMSDP=2.83D-04 MaxDP=1.68D-02 DE=-2.20D-02 OVMax= 1.73D-02

 Cycle   6  Pass 0  IDiag  1:
 RMSU=  8.93D-05    CP:  9.72D-01  1.99D+00  1.14D+00  3.79D-01  4.34D-01
 E= -3232.66565109745     Delta-E=       -0.002799555866 Rises=F Damp=F
 DIIS: error= 7.78D-04 at cycle   6 NSaved=   6.
 NSaved= 6 IEnMin= 6 EnMin= -3232.66565109745     IErMin= 6 ErrMin= 7.78D-04
 ErrMax= 7.78D-04  0.00D+00 EMaxC= 1.00D-01 BMatC= 1.11D-04 BMatP= 3.31D-03
 IDIUse=3 WtCom= 9.92D-01 WtEn= 7.78D-03
 Coeff-Com:  0.728D-01-0.948D-01 0.108D+00 0.136D+00 0.300D+00 0.478D+00
 Coeff-En:   0.000D+00 0.000D+00 0.000D+00 0.000D+00 0.000D+00 0.100D+01
 Coeff:      0.722D-01-0.940D-01 0.107D+00 0.135D+00 0.298D+00 0.482D+00
 Gap=     0.200 Goal=   None    Shift=    0.000
 RMSDP=6.48D-05 MaxDP=2.43D-03 DE=-2.80D-03 OVMax= 5.81D-03

 Cycle   7  Pass 0  IDiag  1:
 RMSU=  2.68D-05    CP:  9.72D-01  1.98D+00  1.15D+00  3.86D-01  5.05D-01
                    CP:  4.11D-01
 E= -3232.66576198878     Delta-E=       -0.000110891331 Rises=F Damp=F
 DIIS: error= 2.33D-04 at cycle   7 NSaved=   7.
 NSaved= 7 IEnMin= 7 EnMin= -3232.66576198878     IErMin= 7 ErrMin= 2.33D-04
 ErrMax= 2.33D-04  0.00D+00 EMaxC= 1.00D-01 BMatC= 9.35D-06 BMatP= 1.11D-04
 IDIUse=3 WtCom= 9.98D-01 WtEn= 2.33D-03
 Coeff-Com:  0.128D-01-0.167D-01 0.230D-01 0.420D-01 0.105D+00 0.277D+00
 Coeff-Com:  0.557D+00
 Coeff-En:   0.000D+00 0.000D+00 0.000D+00 0.000D+00 0.000D+00 0.470D-01
 Coeff-En:   0.953D+00
 Coeff:      0.128D-01-0.166D-01 0.230D-01 0.419D-01 0.104D+00 0.277D+00
 Coeff:      0.558D+00
 Gap=     0.200 Goal=   None    Shift=    0.000
 RMSDP=1.78D-05 MaxDP=4.91D-04 DE=-1.11D-04 OVMax= 1.50D-03

 Cycle   8  Pass 0  IDiag  1:
 RMSU=  7.54D-06    CP:  9.72D-01  1.97D+00  1.15D+00  3.91D-01  5.07D-01
                    CP:  4.95D-01  5.23D-01
 E= -3232.66577180952     Delta-E=       -0.000009820738 Rises=F Damp=F
 DIIS: error= 4.47D-05 at cycle   8 NSaved=   8.
 NSaved= 8 IEnMin= 8 EnMin= -3232.66577180952     IErMin= 8 ErrMin= 4.47D-05
 ErrMax= 4.47D-05  0.00D+00 EMaxC= 1.00D-01 BMatC= 7.36D-07 BMatP= 9.35D-06
 IDIUse=1 WtCom= 1.00D+00 WtEn= 0.00D+00
 Coeff-Com:  0.161D-02-0.215D-02 0.471D-02 0.133D-01 0.347D-01 0.119D+00
 Coeff-Com:  0.314D+00 0.515D+00
 Coeff:      0.161D-02-0.215D-02 0.471D-02 0.133D-01 0.347D-01 0.119D+00
 Coeff:      0.314D+00 0.515D+00
 Gap=     0.200 Goal=   None    Shift=    0.000
 RMSDP=4.48D-06 MaxDP=1.69D-04 DE=-9.82D-06 OVMax= 2.67D-04

 Initial convergence to 1.0D-05 achieved.  Increase integral accuracy.
 Cycle   9  Pass 1  IDiag  1:
 E= -3232.66580802373     Delta-E=       -0.000036214215 Rises=F Damp=F
 DIIS: error= 3.71D-05 at cycle   1 NSaved=   1.
 NSaved= 1 IEnMin= 1 EnMin= -3232.66580802373     IErMin= 1 ErrMin= 3.71D-05
 ErrMax= 3.71D-05  0.00D+00 EMaxC= 1.00D-01 BMatC= 2.13D-07 BMatP= 2.13D-07
 IDIUse=1 WtCom= 1.00D+00 WtEn= 0.00D+00
 Coeff-Com:  0.100D+01
 Coeff:      0.100D+01
 Gap=     0.200 Goal=   None    Shift=    0.000
 RMSDP=4.48D-06 MaxDP=1.69D-04 DE=-3.62D-05 OVMax= 1.26D-04

 Cycle  10  Pass 1  IDiag  1:
 RMSU=  1.78D-05    CP:  1.00D+00
 E= -3232.66580811066     Delta-E=       -0.000000086926 Rises=F Damp=F
 DIIS: error= 1.54D-05 at cycle   2 NSaved=   2.
 NSaved= 2 IEnMin= 2 EnMin= -3232.66580811066     IErMin= 2 ErrMin= 1.54D-05
 ErrMax= 1.54D-05  0.00D+00 EMaxC= 1.00D-01 BMatC= 6.14D-08 BMatP= 2.13D-07
 IDIUse=1 WtCom= 1.00D+00 WtEn= 0.00D+00
 Coeff-Com:  0.282D+00 0.718D+00
 Coeff:      0.282D+00 0.718D+00
 Gap=     0.200 Goal=   None    Shift=    0.000
 RMSDP=2.31D-06 MaxDP=9.69D-05 DE=-8.69D-08 OVMax= 1.11D-04

 Cycle  11  Pass 1  IDiag  1:
 RMSU=  2.31D-06    CP:  1.00D+00  1.00D+00
 E= -3232.66580810376     Delta-E=        0.000000006896 Rises=F Damp=F
 DIIS: error= 1.86D-05 at cycle   3 NSaved=   3.
 NSaved= 3 IEnMin= 2 EnMin= -3232.66580811066     IErMin= 2 ErrMin= 1.54D-05
 ErrMax= 1.86D-05  0.00D+00 EMaxC= 1.00D-01 BMatC= 6.75D-08 BMatP= 6.14D-08
 IDIUse=1 WtCom= 1.00D+00 WtEn= 0.00D+00
 Coeff-Com:  0.246D-01 0.507D+00 0.469D+00
 Coeff:      0.246D-01 0.507D+00 0.469D+00
 Gap=     0.200 Goal=   None    Shift=    0.000
 RMSDP=1.35D-06 MaxDP=5.49D-05 DE= 6.90D-09 OVMax= 6.95D-05

 Cycle  12  Pass 1  IDiag  1:
 RMSU=  5.32D-07    CP:  1.00D+00  1.01D+00  4.66D-01
 E= -3232.66580816624     Delta-E=       -0.000000062479 Rises=F Damp=F
 DIIS: error= 9.91D-06 at cycle   4 NSaved=   4.
 NSaved= 4 IEnMin= 4 EnMin= -3232.66580816624     IErMin= 4 ErrMin= 9.91D-06
 ErrMax= 9.91D-06  0.00D+00 EMaxC= 1.00D-01 BMatC= 6.98D-09 BMatP= 6.14D-08
 IDIUse=1 WtCom= 1.00D+00 WtEn= 0.00D+00
 Coeff-Com: -0.711D-03 0.308D+00 0.325D+00 0.367D+00
 Coeff:     -0.711D-03 0.308D+00 0.325D+00 0.367D+00
 Gap=     0.200 Goal=   None    Shift=    0.000
 RMSDP=3.65D-07 MaxDP=1.54D-05 DE=-6.25D-08 OVMax= 2.49D-05

 Cycle  13  Pass 1  IDiag  1:
 RMSU=  1.56D-07    CP:  1.00D+00  1.01D+00  5.06D-01  4.04D-01
 E= -3232.66580817242     Delta-E=       -0.000000006177 Rises=F Damp=F
 DIIS: error= 1.49D-06 at cycle   5 NSaved=   5.
 NSaved= 5 IEnMin= 5 EnMin= -3232.66580817242     IErMin= 5 ErrMin= 1.49D-06
 ErrMax= 1.49D-06  0.00D+00 EMaxC= 1.00D-01 BMatC= 2.87D-10 BMatP= 6.98D-09
 IDIUse=1 WtCom= 1.00D+00 WtEn= 0.00D+00
 Coeff-Com: -0.190D-02 0.166D+00 0.180D+00 0.236D+00 0.419D+00
 Coeff:     -0.190D-02 0.166D+00 0.180D+00 0.236D+00 0.419D+00
 Gap=     0.200 Goal=   None    Shift=    0.000
 RMSDP=9.39D-08 MaxDP=5.72D-06 DE=-6.18D-09 OVMax= 4.73D-06

 Cycle  14  Pass 1  IDiag  1:
 RMSU=  5.09D-08    CP:  1.00D+00  1.01D+00  5.02D-01  4.15D-01  5.03D-01
 E= -3232.66580817266     Delta-E=       -0.000000000238 Rises=F Damp=F
 DIIS: error= 2.27D-07 at cycle   6 NSaved=   6.
 NSaved= 6 IEnMin= 6 EnMin= -3232.66580817266     IErMin= 6 ErrMin= 2.27D-07
 ErrMax= 2.27D-07  0.00D+00 EMaxC= 1.00D-01 BMatC= 1.20D-11 BMatP= 2.87D-10
 IDIUse=1 WtCom= 1.00D+00 WtEn= 0.00D+00
 Coeff-Com: -0.106D-02 0.784D-01 0.857D-01 0.116D+00 0.240D+00 0.481D+00
 Coeff:     -0.106D-02 0.784D-01 0.857D-01 0.116D+00 0.240D+00 0.481D+00
 Gap=     0.200 Goal=   None    Shift=    0.000
 RMSDP=2.11D-08 MaxDP=7.68D-07 DE=-2.38D-10 OVMax= 1.61D-06

 Cycle  15  Pass 1  IDiag  1:
 RMSU=  1.70D-08    CP:  1.00D+00  1.01D+00  5.02D-01  4.20D-01  5.16D-01
                    CP:  7.66D-01
 E= -3232.66580817265     Delta-E=        0.000000000005 Rises=F Damp=F
 DIIS: error= 8.24D-08 at cycle   7 NSaved=   7.
 NSaved= 7 IEnMin= 6 EnMin= -3232.66580817266     IErMin= 7 ErrMin= 8.24D-08
 ErrMax= 8.24D-08  0.00D+00 EMaxC= 1.00D-01 BMatC= 1.38D-12 BMatP= 1.20D-11
 IDIUse=1 WtCom= 1.00D+00 WtEn= 0.00D+00
 Coeff-Com: -0.262D-03 0.144D-01 0.161D-01 0.236D-01 0.573D-01 0.272D+00
 Coeff-Com:  0.617D+00
 Coeff:     -0.262D-03 0.144D-01 0.161D-01 0.236D-01 0.573D-01 0.272D+00
 Coeff:      0.617D+00
 Gap=     0.200 Goal=   None    Shift=    0.000
 RMSDP=6.28D-09 MaxDP=2.15D-07 DE= 5.46D-12 OVMax= 4.21D-07

 SCF Done:  E(RB3LYP) =  -3232.66580817     A.U. after   15 cycles
            NFock= 15  Conv=0.63D-08     -V/T= 2.0065
 KE= 3.211879531216D+03 PE=-9.756021837201D+03 EE= 2.275552062888D+03
 Leave Link  502 at Tue Sep 17 09:54:01 2024, MaxMem=  1342177280 cpu:              85.8 elap:              11.9
 (Enter /groups/ReismanLab/Software/Gaussian16_RevC/Linux_Binary_AVX2-enabled-CPU/g16/l508.exe)
 QCSCF skips out because SCF is already converged.
 Leave Link  508 at Tue Sep 17 09:54:01 2024, MaxMem=  1342177280 cpu:               0.0 elap:               0.0
 (Enter /groups/ReismanLab/Software/Gaussian16_RevC/Linux_Binary_AVX2-enabled-CPU/g16/l601.exe)
 Copying SCF densities to generalized density rwf, IOpCl= 0 IROHF=0.

 **********************************************************************

            Population analysis using the SCF Density.

 **********************************************************************

 Orbital symmetries:
       Occupied  (A) (A) (A) (A) (A) (A) (A) (A) (A) (A) (A) (A)
                 (A) (A) (A) (A) (A) (A) (A) (A) (A) (A) (A) (A)
                 (A) (A) (A) (A) (A) (A) (A) (A) (A) (A) (A) (A)
                 (A) (A) (A) (A) (A) (A) (A) (A) (A) (A) (A) (A)
                 (A) (A) (A) (A) (A) (A) (A) (A) (A) (A) (A) (A)
       Virtual   (A) (A) (A) (A) (A) (A) (A) (A) (A) (A) (A) (A)
                 (A) (A) (A) (A) (A) (A) (A) (A) (A) (A) (A) (A)
                 (A) (A) (A) (A) (A) (A) (A) (A) (A) (A) (A) (A)
                 (A) (A) (A) (A) (A) (A) (A) (A) (A) (A) (A) (A)
                 (A) (A) (A) (A) (A) (A) (A) (A) (A) (A) (A) (A)
                 (A) (A) (A) (A) (A) (A) (A) (A) (A) (A) (A) (A)
                 (A) (A) (A) (A) (A) (A) (A) (A) (A) (A) (A) (A)
                 (A) (A) (A) (A) (A) (A) (A) (A) (A) (A) (A) (A)
                 (A) (A) (A) (A) (A) (A) (A) (A) (A) (A) (A) (A)
                 (A) (A) (A) (A) (A) (A) (A) (A) (A) (A) (A) (A)
                 (A) (A) (A) (A) (A) (A) (A) (A) (A) (A) (A) (A)
                 (A) (A) (A) (A) (A) (A) (A) (A) (A) (A) (A) (A)
                 (A) (A) (A) (A) (A) (A) (A) (A) (A) (A) (A) (A)
                 (A) (A) (A) (A) (A) (A) (A) (A) (A)
 The electronic state is 1-A.
 Alpha  occ. eigenvalues -- -482.94012 -61.90151 -56.42291 -56.41846 -56.41845
 Alpha  occ. eigenvalues --  -24.74280 -24.74039 -24.73377 -14.34794 -10.45008
 Alpha  occ. eigenvalues --  -10.29010 -10.26693 -10.24773 -10.24704 -10.24332
 Alpha  occ. eigenvalues --  -10.23994 -10.23931  -8.61257  -6.56688  -6.55369
 Alpha  occ. eigenvalues --   -6.55299  -2.68252  -2.67885  -2.67832  -2.66778
 Alpha  occ. eigenvalues --   -2.66777  -1.32441  -1.23516  -1.22837  -0.93746
 Alpha  occ. eigenvalues --   -0.91473  -0.85109  -0.81675  -0.78408  -0.71195
 Alpha  occ. eigenvalues --   -0.68706  -0.65061  -0.61687  -0.59885  -0.59757
 Alpha  occ. eigenvalues --   -0.53453  -0.52181  -0.51404  -0.48363  -0.47340
 Alpha  occ. eigenvalues --   -0.47134  -0.44602  -0.43113  -0.42966  -0.42265
 Alpha  occ. eigenvalues --   -0.41490  -0.41020  -0.39047  -0.37161  -0.37154
 Alpha  occ. eigenvalues --   -0.35208  -0.34660  -0.30997  -0.29622  -0.27707
 Alpha virt. eigenvalues --   -0.07716  -0.05671  -0.01940   0.02598   0.05064
 Alpha virt. eigenvalues --    0.09294   0.11627   0.12817   0.13868   0.15352
 Alpha virt. eigenvalues --    0.19105   0.20234   0.21811   0.22931   0.24298
 Alpha virt. eigenvalues --    0.24922   0.26196   0.30572   0.36639   0.37050
 Alpha virt. eigenvalues --    0.38800   0.41507   0.43237   0.43801   0.45053
 Alpha virt. eigenvalues --    0.45459   0.46278   0.46986   0.48923   0.49897
 Alpha virt. eigenvalues --    0.50470   0.52821   0.53711   0.53915   0.55387
 Alpha virt. eigenvalues --    0.56717   0.57256   0.60056   0.62211   0.63922
 Alpha virt. eigenvalues --    0.65867   0.67026   0.70370   0.70578   0.71498
 Alpha virt. eigenvalues --    0.73274   0.75753   0.77510   0.79162   0.80201
 Alpha virt. eigenvalues --    0.80613   0.85249   0.85936   0.86756   0.90815
 Alpha virt. eigenvalues --    0.94183   0.97031   0.99389   1.01073   1.05970
 Alpha virt. eigenvalues --    1.07209   1.08517   1.11671   1.12129   1.15089
 Alpha virt. eigenvalues --    1.16345   1.18795   1.21147   1.25369   1.29443
 Alpha virt. eigenvalues --    1.30008   1.31549   1.32093   1.33015   1.33521
 Alpha virt. eigenvalues --    1.35402   1.36679   1.37203   1.38186   1.40990
 Alpha virt. eigenvalues --    1.45152   1.47865   1.51973   1.52258   1.53303
 Alpha virt. eigenvalues --    1.55512   1.61120   1.61767   1.64130   1.67574
 Alpha virt. eigenvalues --    1.72129   1.73766   1.76048   1.77736   1.79840
 Alpha virt. eigenvalues --    1.82372   1.84100   1.86496   1.87215   1.89975
 Alpha virt. eigenvalues --    1.93351   1.94095   1.95005   1.96040   1.97047
 Alpha virt. eigenvalues --    1.97649   1.98126   1.99637   2.00738   2.01125
 Alpha virt. eigenvalues --    2.06601   2.07688   2.07868   2.09791   2.10868
 Alpha virt. eigenvalues --    2.12615   2.14923   2.22216   2.25175   2.28968
 Alpha virt. eigenvalues --    2.35574   2.37723   2.38105   2.41789   2.42130
 Alpha virt. eigenvalues --    2.48095   2.50463   2.53053   2.56230   2.57539
 Alpha virt. eigenvalues --    2.60352   2.62438   2.66388   2.73847   2.75001
 Alpha virt. eigenvalues --    2.76676   2.77991   2.83168   2.83983   2.88800
 Alpha virt. eigenvalues --    2.95776   3.01603   3.02869   3.06151   3.11158
 Alpha virt. eigenvalues --    3.17727   3.24152   3.29525   3.33282   3.44970
 Alpha virt. eigenvalues --    3.73132   4.02730   4.07136   4.08946   4.17096
 Alpha virt. eigenvalues --    4.23803   4.31910   4.41580   4.44393   4.58207
 Alpha virt. eigenvalues --    4.64784   4.86502   5.56252   8.59712  73.11104
          Condensed to atoms (all electrons):
               1          2          3          4          5          6
     1  N    6.674405   0.884394  -0.096355  -0.000604  -0.000149  -0.000001
     2  C    0.884394   4.779065   0.211161  -0.050118   0.005700  -0.000244
     3  C   -0.096355   0.211161   4.989318   0.445406  -0.013637   0.004101
     4  C   -0.000604  -0.050118   0.445406   5.010887   0.459225  -0.024004
     5  C   -0.000149   0.005700  -0.013637   0.459225   5.136133   0.287130
     6  C   -0.000001  -0.000244   0.004101  -0.024004   0.287130   4.094578
     7  F    0.000000  -0.000006   0.000892   0.005210  -0.050954   0.293416
     8  F   -0.000000   0.000000  -0.000044   0.002783  -0.051798   0.287719
     9  F   -0.000000  -0.000000  -0.000035  -0.000227  -0.054209   0.296778
    10  C    0.000024   0.001596  -0.030577  -0.063557   0.477333  -0.021890
    11  C   -0.000146   0.006067  -0.022495  -0.055554  -0.015011   0.004248
    12  C   -0.002265  -0.058740   0.489626  -0.029526  -0.041867   0.000504
    13  Br  -0.003553  -0.010218  -0.062330   0.006570  -0.000102   0.000003
    14  H    0.000740  -0.007033  -0.032483   0.373293  -0.044387  -0.005406
    15  H   -0.000000   0.000003   0.000512   0.004577  -0.045635  -0.004691
    16  H   -0.000000  -0.000194   0.004303   0.000946   0.003907  -0.000117
               7          8          9         10         11         12
     1  N    0.000000  -0.000000  -0.000000   0.000024  -0.000146  -0.002265
     2  C   -0.000006   0.000000  -0.000000   0.001596   0.006067  -0.058740
     3  C    0.000892  -0.000044  -0.000035  -0.030577  -0.022495   0.489626
     4  C    0.005210   0.002783  -0.000227  -0.063557  -0.055554  -0.029526
     5  C   -0.050954  -0.051798  -0.054209   0.477333  -0.015011  -0.041867
     6  C    0.293416   0.287719   0.296778  -0.021890   0.004248   0.000504
     7  F    9.081108  -0.040077  -0.042348   0.003157  -0.000034  -0.000001
     8  F   -0.040077   9.094286  -0.042849   0.004918   0.000543  -0.000006
     9  F   -0.042348  -0.042849   9.097127   0.000690   0.000051  -0.000006
    10  C    0.003157   0.004918   0.000690   4.916488   0.473705  -0.034969
    11  C   -0.000034   0.000543   0.000051   0.473705   4.947618   0.490104
    12  C   -0.000001  -0.000006  -0.000006  -0.034969   0.490104   4.854961
    13  Br  -0.000000   0.000000  -0.000000   0.005759  -0.068698   0.297616
    14  H    0.008448   0.000137   0.000222   0.004271   0.000221   0.005074
    15  H    0.000104   0.005991   0.000339   0.373634  -0.031899   0.004233
    16  H    0.000000   0.000001   0.000000  -0.034471   0.372072  -0.037754
              13         14         15         16
     1  N   -0.003553   0.000740  -0.000000  -0.000000
     2  C   -0.010218  -0.007033   0.000003  -0.000194
     3  C   -0.062330  -0.032483   0.000512   0.004303
     4  C    0.006570   0.373293   0.004577   0.000946
     5  C   -0.000102  -0.044387  -0.045635   0.003907
     6  C    0.000003  -0.005406  -0.004691  -0.000117
     7  F   -0.000000   0.008448   0.000104   0.000000
     8  F    0.000000   0.000137   0.005991   0.000001
     9  F   -0.000000   0.000222   0.000339   0.000000
    10  C    0.005759   0.004271   0.373634  -0.034471
    11  C   -0.068698   0.000221  -0.031899   0.372072
    12  C    0.297616   0.005074   0.004233  -0.037754
    13  Br  34.898649  -0.000096  -0.000131  -0.002682
    14  H   -0.000096   0.553033  -0.000159   0.000017
    15  H   -0.000131  -0.000159   0.568135  -0.005461
    16  H   -0.002682   0.000017  -0.005461   0.568868
 Mulliken charges:
               1
     1  N   -0.456490
     2  C    0.238566
     3  C    0.112636
     4  C   -0.085306
     5  C   -0.051679
     6  C    0.787874
     7  F   -0.258914
     8  F   -0.261605
     9  F   -0.255534
    10  C   -0.076111
    11  C   -0.100792
    12  C    0.063019
    13  Br  -0.060787
    14  H    0.144108
    15  H    0.130449
    16  H    0.130566
 Sum of Mulliken charges =  -0.00000
 Mulliken charges with hydrogens summed into heavy atoms:
               1
     1  N   -0.456490
     2  C    0.238566
     3  C    0.112636
     4  C    0.058802
     5  C   -0.051679
     6  C    0.787874
     7  F   -0.258914
     8  F   -0.261605
     9  F   -0.255534
    10  C    0.054338
    11  C    0.029774
    12  C    0.063019
    13  Br  -0.060787
 Electronic spatial extent (au):  <R**2>=           3793.5911
 Charge=             -0.0000 electrons
 Dipole moment (field-independent basis, Debye):
    X=              0.9916    Y=             -3.4723    Z=             -0.0942  Tot=              3.6124
 Quadrupole moment (field-independent basis, Debye-Ang):
   XX=            -91.7537   YY=            -86.7328   ZZ=            -83.9213
   XY=              7.8794   XZ=             -0.2942   YZ=             -0.0155
 Traceless Quadrupole moment (field-independent basis, Debye-Ang):
   XX=             -4.2845   YY=              0.7365   ZZ=              3.5480
   XY=              7.8794   XZ=             -0.2942   YZ=             -0.0155
 Octapole moment (field-independent basis, Debye-Ang**2):
  XXX=            -47.6333  YYY=            -66.7319  ZZZ=             -0.3484  XYY=             24.2232
  XXY=            -25.9802  XXZ=             -0.7287  XZZ=             -8.1106  YZZ=             -4.4176
  YYZ=              0.8405  XYZ=             -0.0384
 Hexadecapole moment (field-independent basis, Debye-Ang**3):
 XXXX=          -2950.7791 YYYY=           -958.0126 ZZZZ=           -141.9960 XXXY=            109.3005
 XXXZ=             -3.4113 YYYX=            148.4233 YYYZ=             -0.2712 ZZZX=             -2.6943
 ZZZY=             -0.1464 XXYY=           -688.2062 XXZZ=           -522.0480 YYZZ=           -170.3265
 XXYZ=             -0.6195 YYXZ=              2.5708 ZZXY=             18.9728
 N-N= 1.035924434925D+03 E-N=-9.756021835734D+03  KE= 3.211879531216D+03
 No NMR shielding tensors so no spin-rotation constants.
 Leave Link  601 at Tue Sep 17 09:54:01 2024, MaxMem=  1342177280 cpu:               0.7 elap:               0.1
 (Enter /groups/ReismanLab/Software/Gaussian16_RevC/Linux_Binary_AVX2-enabled-CPU/g16/l701.exe)
 ... and contract with generalized density number  0.
 Compute integral first derivatives.
 R6Disp: Adding Grimme-D3(BJ) dispersion energy 1st derivatives to the gradient.
 Leave Link  701 at Tue Sep 17 09:54:02 2024, MaxMem=  1342177280 cpu:               0.6 elap:               0.1
 (Enter /groups/ReismanLab/Software/Gaussian16_RevC/Linux_Binary_AVX2-enabled-CPU/g16/l702.exe)
 L702 exits ... SP integral derivatives will be done elsewhere.
 Leave Link  702 at Tue Sep 17 09:54:02 2024, MaxMem=  1342177280 cpu:               0.0 elap:               0.0
 (Enter /groups/ReismanLab/Software/Gaussian16_RevC/Linux_Binary_AVX2-enabled-CPU/g16/l703.exe)
 Integral derivatives from FoFJK, PRISM(SPDF).
 Compute integral first derivatives, UseDBF=F ICtDFT=           0.
 Calling FoFJK, ICntrl=      2127 FMM=F ISym2X=0 I1Cent= 0 IOpClX= 0 NMat=1 NMatS=1 NMatT=0.
 FoFJK:  IHMeth= 1 ICntrl=    2127 DoSepK=F KAlg= 0 I1Cent=           0 FoldK=F
 IRaf=         0 NMat=       1 IRICut=       1 DoRegI=T DoRafI=F ISym2E= 0 IDoP0=0 IntGTp=1.
 FoFCou: FMM=F IPFlag=           0 FMFlag=      100000 FMFlg1=         800
         NFxFlg=           0 DoJE=F BraDBF=F KetDBF=F FulRan=T
         wScrn=  0.000000 ICntrl=      2127 IOpCl=  0 I1Cent=           0 NGrid=           0
         NMat0=    1 NMatS0=      1 NMatT0=    0 NMatD0=    1 NMtDS0=    0 NMtDT0=    0
 Symmetry not used in FoFCou.
 Leave Link  703 at Tue Sep 17 09:54:05 2024, MaxMem=  1342177280 cpu:              27.8 elap:               3.6
 (Enter /groups/ReismanLab/Software/Gaussian16_RevC/Linux_Binary_AVX2-enabled-CPU/g16/l716.exe)
 Dipole        = 3.90113378D-01-1.36612702D+00-3.70688117D-02
 ***** Axes restored to original set *****
 -------------------------------------------------------------------
 Center     Atomic                   Forces (Hartrees/Bohr)
 Number     Number              X              Y              Z
 -------------------------------------------------------------------
      1        7          -0.023606981   -0.037953749   -0.000175561
      2        6           0.016454402    0.028111458    0.000204362
      3        6          -0.000549867    0.000800650   -0.000485795
      4        6           0.003349750    0.000396056    0.000190035
      5        6           0.009239406   -0.001074661    0.001450898
      6        6           0.002895470    0.000390182   -0.003578098
      7        9          -0.001739279   -0.011308153    0.004151088
      8        9          -0.000455389    0.009215365    0.006527925
      9        9          -0.000846039    0.001585872   -0.008712092
     10        6           0.002656625   -0.000530118    0.000030414
     11        6          -0.003944553    0.004344060   -0.000469826
     12        6          -0.005578425    0.001914597   -0.000004319
     13       35           0.000744153    0.000139672    0.000053246
     14        1           0.001200176   -0.001788499    0.000345762
     15        1           0.002014021    0.002933107    0.000405968
     16        1          -0.001833469    0.002824160    0.000065992
 -------------------------------------------------------------------
 Cartesian Forces:  Max     0.037953749 RMS     0.008711453
 Leave Link  716 at Tue Sep 17 09:54:05 2024, MaxMem=  1342177280 cpu:               0.1 elap:               0.0
 (Enter /groups/ReismanLab/Software/Gaussian16_RevC/Linux_Binary_AVX2-enabled-CPU/g16/l103.exe)

 GradGradGradGradGradGradGradGradGradGradGradGradGradGradGradGradGradGrad
 Berny optimization.
 FormGI is forming the generalized inverse of G from B-inverse, IUseBI=4.
 Internal  Forces:  Max     0.044682539 RMS     0.006487550
 Search for a local minimum.
 Step number   1 out of a maximum of   82
 All quantities printed in internal units (Hartrees-Bohrs-Radians)
 RMS Force = .64876D-02 SwitMx=.10000D-02 MixMth= 1
 Mixed Optimization -- RFO/linear search
 Second derivative matrix not updated -- first step.
 ITU=  0
     Eigenvalues ---    0.00696   0.01634   0.01865   0.01865   0.02134
     Eigenvalues ---    0.02162   0.02187   0.02223   0.02241   0.02266
     Eigenvalues ---    0.02275   0.02297   0.10488   0.10770   0.16000
     Eigenvalues ---    0.16000   0.16000   0.18501   0.22372   0.23493
     Eigenvalues ---    0.24606   0.24989   0.25000   0.25000   0.25000
     Eigenvalues ---    0.25000   0.25000   0.31826   0.36021   0.36118
     Eigenvalues ---    0.36173   0.42640   0.42931   0.43342   0.46381
     Eigenvalues ---    0.47082   0.48073   0.48306   0.55913   0.57031
     Eigenvalues ---    0.57697   1.38462
 RFO step:  Lambda=-4.30395261D-03 EMin= 6.95583664D-03
 Linear search not attempted -- first point.
 Iteration  1 RMS(Cart)=  0.03066575 RMS(Int)=  0.00139405
 Iteration  2 RMS(Cart)=  0.00152257 RMS(Int)=  0.00007259
 Iteration  3 RMS(Cart)=  0.00000408 RMS(Int)=  0.00007254
 Iteration  4 RMS(Cart)=  0.00000000 RMS(Int)=  0.00007254
 ITry= 1 IFail=0 DXMaxC= 1.56D-01 DCOld= 1.00D+10 DXMaxT= 3.00D-01 DXLimC= 3.00D+00 Rises=F
 Variable       Old X    -DE/DX   Delta X   Delta X   Delta X     New X
                                 (Linear)    (Quad)   (Total)
    R1        2.16289   0.04468   0.00000   0.03217   0.03217   2.19506
    R2        2.67755   0.01216   0.00000   0.02803   0.02803   2.70558
    R3        2.63448   0.00933   0.00000   0.01978   0.01978   2.65426
    R4        2.64317   0.00746   0.00000   0.01631   0.01631   2.65949
    R5        2.61642   0.00525   0.00000   0.01057   0.01056   2.62698
    R6        2.04049   0.00213   0.00000   0.00585   0.00585   2.04634
    R7        2.84464  -0.00011   0.00000  -0.00035  -0.00035   2.84429
    R8        2.63009   0.00559   0.00000   0.01161   0.01161   2.64170
    R9        2.52811   0.01076   0.00000   0.01850   0.01850   2.54661
   R10        2.53370   0.00996   0.00000   0.01734   0.01734   2.55104
   R11        2.54329   0.00793   0.00000   0.01408   0.01408   2.55737
   R12        2.61178   0.00895   0.00000   0.01827   0.01826   2.63004
   R13        2.03898   0.00356   0.00000   0.00974   0.00974   2.04872
   R14        2.62071   0.00615   0.00000   0.01295   0.01295   2.63366
   R15        2.03812   0.00334   0.00000   0.00913   0.00913   2.04725
   R16        3.58089  -0.00073   0.00000  -0.00385  -0.00385   3.57703
    A1        2.08292   0.00050   0.00000   0.00199   0.00198   2.08490
    A2        2.11455   0.00161   0.00000   0.00635   0.00634   2.12089
    A3        2.08572  -0.00211   0.00000  -0.00833  -0.00833   2.07739
    A4        2.08632   0.00259   0.00000   0.01066   0.01066   2.09697
    A5        2.08751  -0.00096   0.00000  -0.00331  -0.00331   2.08420
    A6        2.10935  -0.00162   0.00000  -0.00734  -0.00734   2.10201
    A7        2.09604   0.00028   0.00000   0.00156   0.00156   2.09761
    A8        2.10809  -0.00179   0.00000  -0.00809  -0.00811   2.09999
    A9        2.07868   0.00151   0.00000   0.00637   0.00637   2.08505
   A10        1.97046  -0.00700   0.00000  -0.02761  -0.02788   1.94257
   A11        1.95879  -0.00639   0.00000  -0.02541  -0.02568   1.93311
   A12        1.94714  -0.00387   0.00000  -0.01488  -0.01507   1.93207
   A13        1.86551   0.00734   0.00000   0.02825   0.02792   1.89343
   A14        1.85947   0.00607   0.00000   0.02438   0.02420   1.88366
   A15        1.85517   0.00553   0.00000   0.02187   0.02169   1.87685
   A16        2.09166   0.00123   0.00000   0.00496   0.00495   2.09661
   A17        2.09365  -0.00061   0.00000  -0.00242  -0.00241   2.09123
   A18        2.09786  -0.00063   0.00000  -0.00254  -0.00254   2.09532
   A19        2.09224  -0.00041   0.00000  -0.00157  -0.00157   2.09067
   A20        2.10227   0.00063   0.00000   0.00334   0.00334   2.10560
   A21        2.08868  -0.00021   0.00000  -0.00177  -0.00177   2.08691
   A22        2.10232   0.00049   0.00000   0.00241   0.00242   2.10474
   A23        2.09637   0.00012   0.00000   0.00023   0.00022   2.09659
   A24        2.08449  -0.00061   0.00000  -0.00264  -0.00264   2.08185
   A25        3.14746   0.00244   0.00000   0.10632   0.10632   3.25378
   A26        3.14182   0.00001   0.00000   0.00023   0.00023   3.14204
    D1       -3.13893  -0.00000   0.00000   0.00015   0.00013  -3.13880
    D2       -0.00293   0.00003   0.00000   0.00142   0.00141  -0.00152
    D3        0.00343  -0.00012   0.00000  -0.00424  -0.00426  -0.00082
    D4        3.13943  -0.00009   0.00000  -0.00297  -0.00298   3.13645
    D5       -3.14118  -0.00012   0.00000  -0.00441  -0.00443   3.13757
    D6        0.00057  -0.00002   0.00000  -0.00073  -0.00074  -0.00016
    D7       -0.00037  -0.00000   0.00000   0.00006   0.00005  -0.00032
    D8        3.14138   0.00010   0.00000   0.00374   0.00374  -3.13806
    D9       -3.11835   0.00034   0.00000   0.01435   0.01434  -3.10401
   D10       -0.00627   0.00024   0.00000   0.00815   0.00816   0.00189
   D11        0.02891   0.00031   0.00000   0.01305   0.01303   0.04194
   D12        3.14099   0.00021   0.00000   0.00685   0.00685  -3.13534
   D13       -0.38889  -0.00018   0.00000  -0.00232  -0.00228  -0.39118
   D14       -2.49869   0.00003   0.00000  -0.00042  -0.00049  -2.49918
   D15        1.70459  -0.00001   0.00000  -0.00079  -0.00081   1.70378
   D16        2.78171  -0.00003   0.00000   0.00401   0.00409   2.78580
   D17        0.67192   0.00018   0.00000   0.00592   0.00588   0.67780
   D18       -1.40799   0.00014   0.00000   0.00555   0.00556  -1.40243
   D19        0.00600  -0.00024   0.00000  -0.00781  -0.00780  -0.00181
   D20       -3.14134  -0.00023   0.00000  -0.00797  -0.00796   3.13388
   D21        3.11837  -0.00036   0.00000  -0.01403  -0.01402   3.10435
   D22       -0.02897  -0.00035   0.00000  -0.01419  -0.01418  -0.04315
   D23       -0.00285   0.00010   0.00000   0.00348   0.00350   0.00065
   D24        3.13924  -0.00000   0.00000  -0.00034  -0.00033   3.13891
   D25       -3.13868   0.00010   0.00000   0.00364   0.00366  -3.13502
   D26        0.00341  -0.00001   0.00000  -0.00018  -0.00017   0.00324
   D27        0.00008   0.00001   0.00000   0.00032   0.00033   0.00041
   D28        3.14152  -0.00009   0.00000  -0.00333  -0.00334   3.13818
   D29        3.14118   0.00011   0.00000   0.00411   0.00412  -3.13789
   D30       -0.00057   0.00001   0.00000   0.00045   0.00045  -0.00012
         Item               Value     Threshold  Converged?
 Maximum Force            0.044683     0.000450     NO 
 RMS     Force            0.006488     0.000300     NO 
 Maximum Displacement     0.156032     0.001800     NO 
 RMS     Displacement     0.031059     0.001200     NO 
 Predicted change in Energy=-2.196599D-03
 Lowest energy point so far.  Saving SCF results.
 GradGradGradGradGradGradGradGradGradGradGradGradGradGradGradGradGradGrad

 Leave Link  103 at Tue Sep 17 09:54:05 2024, MaxMem=  1342177280 cpu:               0.1 elap:               0.0
 (Enter /groups/ReismanLab/Software/Gaussian16_RevC/Linux_Binary_AVX2-enabled-CPU/g16/l202.exe)
                          Input orientation:                          
 ---------------------------------------------------------------------
 Center     Atomic      Atomic             Coordinates (Angstroms)
 Number     Number       Type             X           Y           Z
 ---------------------------------------------------------------------
      1          7           0       -1.799302   -3.108052    0.001049
      2          6           0       -1.266869   -2.075695    0.003632
      3          6           0       -0.472275   -0.884702    0.007426
      4          6           0        0.928350   -0.988884    0.022412
      5          6           0        1.713729    0.158120    0.029638
      6          6           0        3.214462    0.047900   -0.003192
      7          9           0        3.626860   -1.154989    0.442937
      8          9           0        3.781377    1.005297    0.761246
      9          9           0        3.678197    0.205648   -1.264737
     10          6           0        1.116817    1.422188    0.024339
     11          6           0       -0.269882    1.539830    0.009601
     12          6           0       -1.061930    0.393136    0.000925
     13         35           0       -2.946500    0.569760   -0.013461
     14          1           0        1.388685   -1.968992    0.032331
     15          1           0        1.737027    2.311299    0.037297
     16          1           0       -0.741287    2.515248    0.007897
 ---------------------------------------------------------------------
                    Distance matrix (angstroms):
                    1          2          3          4          5
     1  N    0.000000
     2  C    1.161573   0.000000
     3  C    2.589271   1.431733   0.000000
     4  C    3.454188   2.449591   1.404574   0.000000
     5  C    4.796882   3.724858   2.422103   1.390140   0.000000
     6  C    5.924346   4.959035   3.802879   2.510355   1.505133
     7  F    5.783852   4.998927   4.131057   2.736126   2.356935
     8  F    6.974347   5.962489   4.715283   3.558426   2.351197
     9  F    6.525781   5.591687   4.475900   3.262717   2.353041
    10  C    5.387705   4.232915   2.801292   2.418427   1.397927
    11  C    4.893057   3.750472   2.432966   2.798270   2.417485
    12  C    3.577993   2.477324   1.407340   2.423149   2.785738
    13  Br   3.852607   3.133670   2.870137   4.176736   4.678572
    14  H    3.385513   2.657852   2.153945   1.082876   2.151805
    15  H    6.471190   5.316976   3.885399   3.397850   2.153318
    16  H    5.721971   4.620932   3.410576   3.881603   3.403473
                    6          7          8          9         10
     6  C    0.000000
     7  F    1.347608   0.000000
     8  F    1.349951   2.189071   0.000000
     9  F    1.353304   2.184061   2.180526   0.000000
    10  C    2.507895   3.621793   2.795838   3.114860   0.000000
    11  C    3.790339   4.757565   4.154924   4.357901   1.391758
    12  C    4.290306   4.957501   4.940693   4.909771   2.409654
    13  Br   6.183033   6.811176   6.786324   6.751658   4.151940
    14  H    2.720767   2.416738   3.886217   3.413694   3.402070
    15  H    2.703225   3.968774   2.531622   3.145981   1.084134
    16  H    4.662175   5.721941   4.827212   5.146425   2.155830
                   11         12         13         14         15
    11  C    0.000000
    12  C    1.393673   0.000000
    13  Br   2.847079   1.892884   0.000000
    14  H    3.881133   3.403843   5.024062   0.000000
    15  H    2.150259   3.393351   4.997095   4.294445   0.000000
    16  H    1.083359   2.146211   2.940807   4.964453   2.486865
                   16
    16  H    0.000000
 Stoichiometry    C8H3BrF3N
 Framework group  C1[X(C8H3BrF3N)]
 Deg. of freedom    42
 Full point group                 C1      NOp   1
 RotChk:  IX=0 Diff= 9.74D-03
 Largest Abelian subgroup         C1      NOp   1
 Largest concise Abelian subgroup C1      NOp   1
                         Standard orientation:                         
 ---------------------------------------------------------------------
 Center     Atomic      Atomic             Coordinates (Angstroms)
 Number     Number       Type             X           Y           Z
 ---------------------------------------------------------------------
      1          7           0       -1.896374    3.092415   -0.001231
      2          6           0       -1.358960    2.062645   -0.004815
      3          6           0       -0.558621    0.875509   -0.009657
      4          6           0        0.841493    0.986472   -0.023673
      5          6           0        1.632406   -0.156716   -0.031895
      6          6           0        3.132570   -0.039293    0.001971
      7          9           0        3.539417    1.166144   -0.442374
      8          9           0        3.704554   -0.992961   -0.763351
      9          9           0        3.596316   -0.196415    1.263591
     10          6           0        1.041603   -1.423657   -0.028568
     11          6           0       -0.344519   -1.548013   -0.014808
     12          6           0       -1.142101   -0.405169   -0.005140
     13         35           0       -3.025805   -0.590910    0.007895
     14          1           0        1.297095    1.968803   -0.032065
     15          1           0        1.666108   -2.309746   -0.042291
     16          1           0       -0.811209   -2.525698   -0.014632
 ---------------------------------------------------------------------
 Rotational constants (GHZ):           1.2802374           0.2838085           0.2423726
 Leave Link  202 at Tue Sep 17 09:54:05 2024, MaxMem=  1342177280 cpu:               0.0 elap:               0.0
 (Enter /groups/ReismanLab/Software/Gaussian16_RevC/Linux_Binary_AVX2-enabled-CPU/g16/l301.exe)
 Standard basis: 6-31G(d,p) (6D, 7F)
 Ernie: Thresh=  0.10000D-02 Tol=  0.10000D-05 Strict=F.
 There are   225 symmetry adapted cartesian basis functions of A   symmetry.
 There are   225 symmetry adapted basis functions of A   symmetry.
   225 basis functions,   440 primitive gaussians,   225 cartesian basis functions
    60 alpha electrons       60 beta electrons
       nuclear repulsion energy      1031.2024584326 Hartrees.
 IExCor=  402 DFT=T Ex+Corr=B3LYP ExCW=0 ScaHFX=  0.200000
 ScaDFX=  0.800000  0.720000  1.000000  0.810000 ScalE2=  1.000000  1.000000
 IRadAn=      5 IRanWt=     -1 IRanGd=            0 ICorTp=0 IEmpDi=141
 NAtoms=   16 NActive=   16 NUniq=   16 SFac= 1.00D+00 NAtFMM=   60 NAOKFM=F Big=F
 Integral buffers will be    131072 words long.
 Raffenetti 2 integral format.
 Two-electron integral symmetry is turned on.
 R6Disp:  Grimme-D3(BJ) Dispersion energy=       -0.0358059857 Hartrees.
 Nuclear repulsion after empirical dispersion term =     1031.1666524469 Hartrees.
 Leave Link  301 at Tue Sep 17 09:54:05 2024, MaxMem=  1342177280 cpu:               0.1 elap:               0.0
 (Enter /groups/ReismanLab/Software/Gaussian16_RevC/Linux_Binary_AVX2-enabled-CPU/g16/l302.exe)
 NPDir=0 NMtPBC=     1 NCelOv=     1 NCel=       1 NClECP=     1 NCelD=      1
         NCelK=      1 NCelE2=     1 NClLst=     1 CellRange=     0.0.
 One-electron integrals computed using PRISM.
 One-electron integral symmetry used in STVInt
 NBasis=   225 RedAO= T EigKep=  3.90D-04  NBF=   225
 NBsUse=   225 1.00D-06 EigRej= -1.00D+00 NBFU=   225
 Precomputing XC quadrature grid using
 IXCGrd= 4 IRadAn=           5 IRanWt=          -1 IRanGd=           0 AccXCQ= 0.00D+00.
 Generated NRdTot=       0 NPtTot=           0 NUsed=           0 NTot=          32
 NSgBfM=   223   223   223   223   223 MxSgAt=    16 MxSgA2=    16.
 Leave Link  302 at Tue Sep 17 09:54:06 2024, MaxMem=  1342177280 cpu:               0.9 elap:               0.2
 (Enter /groups/ReismanLab/Software/Gaussian16_RevC/Linux_Binary_AVX2-enabled-CPU/g16/l303.exe)
 DipDrv:  MaxL=1.
 Leave Link  303 at Tue Sep 17 09:54:06 2024, MaxMem=  1342177280 cpu:               0.1 elap:               0.0
 (Enter /groups/ReismanLab/Software/Gaussian16_RevC/Linux_Binary_AVX2-enabled-CPU/g16/l401.exe)
 Initial guess from the checkpoint file:  "smiles_00065_conf_0.chk"
 B after Tr=    -0.000000   -0.000000   -0.000000
         Rot=    0.999998   -0.000381    0.000031    0.002110 Ang=  -0.25 deg.
 Guess basis will be translated and rotated to current coordinates.
 JPrj=2 DoOrth=T DoCkMO=T.
 Generating alternative initial guess.
 ExpMin= 1.43D-01 ExpMax= 5.74D+05 ExpMxC= 5.74D+03 IAcc=3 IRadAn=         5 AccDes= 0.00D+00
 Harris functional with IExCor=  402 and IRadAn=       5 diagonalized for initial guess.
 HarFok:  IExCor=  402 AccDes= 0.00D+00 IRadAn=         5 IDoV= 1 UseB2=F ITyADJ=14
 ICtDFT=  3500011 ScaDFX=  1.000000  1.000000  1.000000  1.000000
 FoFCou: FMM=F IPFlag=           0 FMFlag=      100000 FMFlg1=           0
         NFxFlg=           0 DoJE=T BraDBF=F KetDBF=T FulRan=T
         wScrn=  0.000000 ICntrl=       500 IOpCl=  0 I1Cent=   200000004 NGrid=           0
         NMat0=    1 NMatS0=      1 NMatT0=    0 NMatD0=    1 NMtDS0=    0 NMtDT0=    0
 Petite list used in FoFCou.
 Harris En= -3232.73295799059    
 Leave Link  401 at Tue Sep 17 09:54:06 2024, MaxMem=  1342177280 cpu:               4.7 elap:               0.7
 (Enter /groups/ReismanLab/Software/Gaussian16_RevC/Linux_Binary_AVX2-enabled-CPU/g16/l502.exe)
 Integral symmetry usage will be decided dynamically.
 Closed shell SCF:
 Using DIIS extrapolation, IDIIS=  1040.
 NGot=  1342177280 LenX=  1342071556 LenY=  1342020490
 Requested convergence on RMS density matrix=1.00D-08 within  32 cycles.
 Requested convergence on MAX density matrix=1.00D-06.
 Requested convergence on             energy=1.00D-06.
 No special actions if energy rises.
 Fock matrices will be formed incrementally for  20 cycles.
 Integral accuracy reduced to 1.0D-05 until final iterations.

 Cycle   1  Pass 0  IDiag  1:
 FoFJK:  IHMeth= 1 ICntrl=       0 DoSepK=F KAlg= 0 I1Cent=           0 FoldK=F
 IRaf= 840000000 NMat=       1 IRICut=       1 DoRegI=T DoRafI=F ISym2E= 0 IDoP0=0 IntGTp=1.
 FoFCou: FMM=F IPFlag=           0 FMFlag=      100000 FMFlg1=           0
         NFxFlg=           0 DoJE=F BraDBF=F KetDBF=F FulRan=T
         wScrn=  0.000000 ICntrl=         0 IOpCl=  0 I1Cent=           0 NGrid=           0
         NMat0=    1 NMatS0=      1 NMatT0=    0 NMatD0=    1 NMtDS0=    0 NMtDT0=    0
 Symmetry not used in FoFCou.
 E= -3232.65823122273    
 DIIS: error= 2.36D-02 at cycle   1 NSaved=   1.
 NSaved= 1 IEnMin= 1 EnMin= -3232.65823122273     IErMin= 1 ErrMin= 2.36D-02
 ErrMax= 2.36D-02  0.00D+00 EMaxC= 1.00D-01 BMatC= 2.11D-02 BMatP= 2.11D-02
 IDIUse=3 WtCom= 7.64D-01 WtEn= 2.36D-01
 Coeff-Com:  0.100D+01
 Coeff-En:   0.100D+01
 Coeff:      0.100D+01
 Recover alternate guess density for next cycle.
 RMSDP=3.14D-03 MaxDP=1.41D-01              OVMax= 0.00D+00

 Cycle   2  Pass 0  IDiag  1:
 RMSU=  2.99D-03    CP:  1.02D+00
 E= -3232.46684768351     Delta-E=        0.191383539217 Rises=F Damp=F
 Switch densities from cycles 1 and 2 for lowest energy.
 DIIS: error= 2.00D-01 at cycle   2 NSaved=   2.
 NSaved= 2 IEnMin= 1 EnMin= -3232.65823122273     IErMin= 1 ErrMin= 2.36D-02
 ErrMax= 2.00D-01  0.00D+00 EMaxC= 1.00D+00 BMatC= 5.88D-01 BMatP= 2.11D-02
 IDIUse=1 WtCom= 1.00D+00 WtEn= 0.00D+00
 Coeff-Com:  0.969D+00 0.307D-01
 Coeff:      0.969D+00 0.307D-01
 Gap=     0.203 Goal=   None    Shift=    0.000
 RMSDP=7.78D-04 MaxDP=2.75D-02 DE= 1.91D-01 OVMax= 7.14D-02

 Cycle   3  Pass 0  IDiag  1:
 RMSU=  7.66D-04    CP:  9.99D-01  4.37D-02
 E= -3232.66656816452     Delta-E=       -0.199720481010 Rises=F Damp=F
 DIIS: error= 1.72D-03 at cycle   3 NSaved=   3.
 NSaved= 3 IEnMin= 3 EnMin= -3232.66656816452     IErMin= 3 ErrMin= 1.72D-03
 ErrMax= 1.72D-03  0.00D+00 EMaxC= 1.00D+00 BMatC= 6.98D-04 BMatP= 2.11D-02
 IDIUse=1 WtCom= 1.00D+00 WtEn= 0.00D+00
 Coeff-Com:  0.104D-01 0.189D-01 0.971D+00
 Coeff:      0.104D-01 0.189D-01 0.971D+00
 Gap=     0.196 Goal=   None    Shift=    0.000
 RMSDP=2.84D-04 MaxDP=1.66D-02 DE=-2.00D-01 OVMax= 1.29D-02

 Cycle   4  Pass 0  IDiag  1:
 RMSU=  2.47D-04    CP:  9.99D-01  9.05D-02  9.81D-01
 E= -3232.66633588252     Delta-E=        0.000232281997 Rises=F Damp=F
 DIIS: error= 3.06D-03 at cycle   4 NSaved=   4.
 NSaved= 4 IEnMin= 3 EnMin= -3232.66656816452     IErMin= 3 ErrMin= 1.72D-03
 ErrMax= 3.06D-03  0.00D+00 EMaxC= 1.00D+00 BMatC= 1.03D-03 BMatP= 6.98D-04
 IDIUse=1 WtCom= 1.00D+00 WtEn= 0.00D+00
 Coeff-Com: -0.689D-02 0.407D-02 0.582D+00 0.421D+00
 Coeff:     -0.689D-02 0.407D-02 0.582D+00 0.421D+00
 Gap=     0.197 Goal=   None    Shift=    0.000
 RMSDP=1.74D-04 MaxDP=9.49D-03 DE= 2.32D-04 OVMax= 1.25D-02

 Cycle   5  Pass 0  IDiag  1:
 RMSU=  7.49D-05    CP:  9.99D-01  7.22D-02  1.02D+00  4.19D-01
 E= -3232.66708128423     Delta-E=       -0.000745401707 Rises=F Damp=F
 DIIS: error= 1.41D-03 at cycle   5 NSaved=   5.
 NSaved= 5 IEnMin= 5 EnMin= -3232.66708128423     IErMin= 5 ErrMin= 1.41D-03
 ErrMax= 1.41D-03  0.00D+00 EMaxC= 1.00D+00 BMatC= 1.72D-04 BMatP= 6.98D-04
 IDIUse=1 WtCom= 1.00D+00 WtEn= 0.00D+00
 Coeff-Com: -0.545D-02 0.280D-04 0.283D+00 0.310D+00 0.413D+00
 Coeff:     -0.545D-02 0.280D-04 0.283D+00 0.310D+00 0.413D+00
 Gap=     0.198 Goal=   None    Shift=    0.000
 RMSDP=5.86D-05 MaxDP=2.22D-03 DE=-7.45D-04 OVMax= 4.01D-03

 Cycle   6  Pass 0  IDiag  1:
 RMSU=  2.59D-05    CP:  9.99D-01  7.30D-02  1.03D+00  4.82D-01  3.33D-01
 E= -3232.66723354060     Delta-E=       -0.000152256367 Rises=F Damp=F
 DIIS: error= 1.26D-04 at cycle   6 NSaved=   6.
 NSaved= 6 IEnMin= 6 EnMin= -3232.66723354060     IErMin= 6 ErrMin= 1.26D-04
 ErrMax= 1.26D-04  0.00D+00 EMaxC= 1.00D+00 BMatC= 4.53D-06 BMatP= 1.72D-04
 IDIUse=1 WtCom= 1.00D+00 WtEn= 0.00D+00
 Coeff-Com: -0.178D-02-0.482D-04 0.622D-01 0.918D-01 0.192D+00 0.656D+00
 Coeff:     -0.178D-02-0.482D-04 0.622D-01 0.918D-01 0.192D+00 0.656D+00
 Gap=     0.198 Goal=   None    Shift=    0.000
 RMSDP=1.37D-05 MaxDP=4.22D-04 DE=-1.52D-04 OVMax= 6.65D-04

 Cycle   7  Pass 0  IDiag  1:
 RMSU=  7.91D-06    CP:  9.99D-01  7.29D-02  1.03D+00  4.92D-01  4.29D-01
                    CP:  6.87D-01
 E= -3232.66723793245     Delta-E=       -0.000004391854 Rises=F Damp=F
 DIIS: error= 6.11D-05 at cycle   7 NSaved=   7.
 NSaved= 7 IEnMin= 7 EnMin= -3232.66723793245     IErMin= 7 ErrMin= 6.11D-05
 ErrMax= 6.11D-05  0.00D+00 EMaxC= 1.00D+00 BMatC= 6.72D-07 BMatP= 4.53D-06
 IDIUse=1 WtCom= 1.00D+00 WtEn= 0.00D+00
 Coeff-Com: -0.301D-03-0.128D-04-0.440D-02 0.945D-02 0.521D-01 0.347D+00
 Coeff-Com:  0.596D+00
 Coeff:     -0.301D-03-0.128D-04-0.440D-02 0.945D-02 0.521D-01 0.347D+00
 Coeff:      0.596D+00
 Gap=     0.198 Goal=   None    Shift=    0.000
 RMSDP=4.52D-06 MaxDP=1.59D-04 DE=-4.39D-06 OVMax= 3.35D-04

 Initial convergence to 1.0D-05 achieved.  Increase integral accuracy.
 Cycle   8  Pass 1  IDiag  1:
 E= -3232.66726472050     Delta-E=       -0.000026788049 Rises=F Damp=F
 DIIS: error= 3.71D-05 at cycle   1 NSaved=   1.
 NSaved= 1 IEnMin= 1 EnMin= -3232.66726472050     IErMin= 1 ErrMin= 3.71D-05
 ErrMax= 3.71D-05  0.00D+00 EMaxC= 1.00D+00 BMatC= 2.70D-07 BMatP= 2.70D-07
 IDIUse=1 WtCom= 1.00D+00 WtEn= 0.00D+00
 Coeff-Com:  0.100D+01
 Coeff:      0.100D+01
 Gap=     0.198 Goal=   None    Shift=    0.000
 RMSDP=4.52D-06 MaxDP=1.59D-04 DE=-2.68D-05 OVMax= 4.01D-04

 Cycle   9  Pass 1  IDiag  1:
 RMSU=  1.87D-05    CP:  1.00D+00
 E= -3232.66726452931     Delta-E=        0.000000191191 Rises=F Damp=F
 DIIS: error= 5.72D-05 at cycle   2 NSaved=   2.
 NSaved= 2 IEnMin= 1 EnMin= -3232.66726472050     IErMin= 1 ErrMin= 3.71D-05
 ErrMax= 5.72D-05  0.00D+00 EMaxC= 1.00D+00 BMatC= 3.67D-07 BMatP= 2.70D-07
 IDIUse=1 WtCom= 1.00D+00 WtEn= 0.00D+00
 Coeff-Com:  0.548D+00 0.452D+00
 Coeff:      0.548D+00 0.452D+00
 Gap=     0.198 Goal=   None    Shift=    0.000
 RMSDP=4.02D-06 MaxDP=1.33D-04 DE= 1.91D-07 OVMax= 3.48D-04

 Cycle  10  Pass 1  IDiag  1:
 RMSU=  3.98D-06    CP:  1.00D+00  9.70D-01
 E= -3232.66726489193     Delta-E=       -0.000000362625 Rises=F Damp=F
 DIIS: error= 2.09D-05 at cycle   3 NSaved=   3.
 NSaved= 3 IEnMin= 3 EnMin= -3232.66726489193     IErMin= 3 ErrMin= 2.09D-05
 ErrMax= 2.09D-05  0.00D+00 EMaxC= 1.00D+00 BMatC= 5.34D-08 BMatP= 2.70D-07
 IDIUse=1 WtCom= 1.00D+00 WtEn= 0.00D+00
 Coeff-Com:  0.493D-01 0.274D+00 0.677D+00
 Coeff:      0.493D-01 0.274D+00 0.677D+00
 Gap=     0.198 Goal=   None    Shift=    0.000
 RMSDP=1.28D-06 MaxDP=3.74D-05 DE=-3.63D-07 OVMax= 8.60D-05

 Cycle  11  Pass 1  IDiag  1:
 RMSU=  8.21D-07    CP:  1.00D+00  9.85D-01  7.61D-01
 E= -3232.66726493935     Delta-E=       -0.000000047417 Rises=F Damp=F
 DIIS: error= 1.02D-05 at cycle   4 NSaved=   4.
 NSaved= 4 IEnMin= 4 EnMin= -3232.66726493935     IErMin= 4 ErrMin= 1.02D-05
 ErrMax= 1.02D-05  0.00D+00 EMaxC= 1.00D+00 BMatC= 1.35D-08 BMatP= 5.34D-08
 IDIUse=1 WtCom= 1.00D+00 WtEn= 0.00D+00
 Coeff-Com:  0.414D-02 0.170D+00 0.478D+00 0.347D+00
 Coeff:      0.414D-02 0.170D+00 0.478D+00 0.347D+00
 Gap=     0.198 Goal=   None    Shift=    0.000
 RMSDP=5.43D-07 MaxDP=2.63D-05 DE=-4.74D-08 OVMax= 3.83D-05

 Cycle  12  Pass 1  IDiag  1:
 RMSU=  2.01D-07    CP:  1.00D+00  9.86D-01  7.58D-01  3.86D-01
 E= -3232.66726495078     Delta-E=       -0.000000011429 Rises=F Damp=F
 DIIS: error= 2.74D-06 at cycle   5 NSaved=   5.
 NSaved= 5 IEnMin= 5 EnMin= -3232.66726495078     IErMin= 5 ErrMin= 2.74D-06
 ErrMax= 2.74D-06  0.00D+00 EMaxC= 1.00D+00 BMatC= 6.79D-10 BMatP= 1.35D-08
 IDIUse=1 WtCom= 1.00D+00 WtEn= 0.00D+00
 Coeff-Com: -0.154D-02 0.882D-01 0.256D+00 0.230D+00 0.427D+00
 Coeff:     -0.154D-02 0.882D-01 0.256D+00 0.230D+00 0.427D+00
 Gap=     0.198 Goal=   None    Shift=    0.000
 RMSDP=1.19D-07 MaxDP=4.65D-06 DE=-1.14D-08 OVMax= 7.95D-06

 Cycle  13  Pass 1  IDiag  1:
 RMSU=  5.73D-08    CP:  1.00D+00  9.87D-01  7.59D-01  4.18D-01  5.01D-01
 E= -3232.66726495138     Delta-E=       -0.000000000598 Rises=F Damp=F
 DIIS: error= 2.94D-07 at cycle   6 NSaved=   6.
 NSaved= 6 IEnMin= 6 EnMin= -3232.66726495138     IErMin= 6 ErrMin= 2.94D-07
 ErrMax= 2.94D-07  0.00D+00 EMaxC= 1.00D+00 BMatC= 2.42D-11 BMatP= 6.79D-10
 IDIUse=1 WtCom= 1.00D+00 WtEn= 0.00D+00
 Coeff-Com: -0.119D-02 0.378D-01 0.111D+00 0.106D+00 0.232D+00 0.515D+00
 Coeff:     -0.119D-02 0.378D-01 0.111D+00 0.106D+00 0.232D+00 0.515D+00
 Gap=     0.198 Goal=   None    Shift=    0.000
 RMSDP=2.65D-08 MaxDP=8.10D-07 DE=-5.98D-10 OVMax= 1.88D-06

 Cycle  14  Pass 1  IDiag  1:
 RMSU=  2.11D-08    CP:  1.00D+00  9.87D-01  7.59D-01  4.14D-01  4.98D-01
                    CP:  7.27D-01
 E= -3232.66726495142     Delta-E=       -0.000000000038 Rises=F Damp=F
 DIIS: error= 1.19D-07 at cycle   7 NSaved=   7.
 NSaved= 7 IEnMin= 7 EnMin= -3232.66726495142     IErMin= 7 ErrMin= 1.19D-07
 ErrMax= 1.19D-07  0.00D+00 EMaxC= 1.00D+00 BMatC= 2.03D-12 BMatP= 2.42D-11
 IDIUse=1 WtCom= 1.00D+00 WtEn= 0.00D+00
 Coeff-Com: -0.560D-03 0.151D-01 0.446D-01 0.428D-01 0.964D-01 0.282D+00
 Coeff-Com:  0.520D+00
 Coeff:     -0.560D-03 0.151D-01 0.446D-01 0.428D-01 0.964D-01 0.282D+00
 Coeff:      0.520D+00
 Gap=     0.198 Goal=   None    Shift=    0.000
 RMSDP=9.81D-09 MaxDP=3.23D-07 DE=-3.82D-11 OVMax= 9.16D-07

 SCF Done:  E(RB3LYP) =  -3232.66726495     A.U. after   14 cycles
            NFock= 14  Conv=0.98D-08     -V/T= 2.0066
 KE= 3.211547877932D+03 PE=-9.746221583945D+03 EE= 2.270839788615D+03
 Leave Link  502 at Tue Sep 17 09:54:18 2024, MaxMem=  1342177280 cpu:              83.2 elap:              12.1
 (Enter /groups/ReismanLab/Software/Gaussian16_RevC/Linux_Binary_AVX2-enabled-CPU/g16/l508.exe)
 QCSCF skips out because SCF is already converged.
 Leave Link  508 at Tue Sep 17 09:54:18 2024, MaxMem=  1342177280 cpu:               0.0 elap:               0.0
 (Enter /groups/ReismanLab/Software/Gaussian16_RevC/Linux_Binary_AVX2-enabled-CPU/g16/l701.exe)
 ... and contract with generalized density number  0.
 Compute integral first derivatives.
 R6Disp: Adding Grimme-D3(BJ) dispersion energy 1st derivatives to the gradient.
 Leave Link  701 at Tue Sep 17 09:54:18 2024, MaxMem=  1342177280 cpu:               0.7 elap:               0.1
 (Enter /groups/ReismanLab/Software/Gaussian16_RevC/Linux_Binary_AVX2-enabled-CPU/g16/l702.exe)
 L702 exits ... SP integral derivatives will be done elsewhere.
 Leave Link  702 at Tue Sep 17 09:54:19 2024, MaxMem=  1342177280 cpu:               0.0 elap:               0.0
 (Enter /groups/ReismanLab/Software/Gaussian16_RevC/Linux_Binary_AVX2-enabled-CPU/g16/l703.exe)
 Integral derivatives from FoFJK, PRISM(SPDF).
 Compute integral first derivatives, UseDBF=F ICtDFT=           0.
 Calling FoFJK, ICntrl=      2127 FMM=F ISym2X=0 I1Cent= 0 IOpClX= 0 NMat=1 NMatS=1 NMatT=0.
 FoFJK:  IHMeth= 1 ICntrl=    2127 DoSepK=F KAlg= 0 I1Cent=           0 FoldK=F
 IRaf=         0 NMat=       1 IRICut=       1 DoRegI=T DoRafI=F ISym2E= 0 IDoP0=0 IntGTp=1.
 FoFCou: FMM=F IPFlag=           0 FMFlag=      100000 FMFlg1=         800
         NFxFlg=           0 DoJE=F BraDBF=F KetDBF=F FulRan=T
         wScrn=  0.000000 ICntrl=      2127 IOpCl=  0 I1Cent=           0 NGrid=           0
         NMat0=    1 NMatS0=      1 NMatT0=    0 NMatD0=    1 NMtDS0=    0 NMtDT0=    0
 Symmetry not used in FoFCou.
 Leave Link  703 at Tue Sep 17 09:54:22 2024, MaxMem=  1342177280 cpu:              27.5 elap:               3.5
 (Enter /groups/ReismanLab/Software/Gaussian16_RevC/Linux_Binary_AVX2-enabled-CPU/g16/l716.exe)
 Dipole        = 4.02716202D-01-1.41971072D+00-3.84867584D-02
 ***** Axes restored to original set *****
 -------------------------------------------------------------------
 Center     Atomic                   Forces (Hartrees/Bohr)
 Number     Number              X              Y              Z
 -------------------------------------------------------------------
      1        7          -0.003512203   -0.000533092   -0.000025496
      2        6           0.006189779   -0.000407990    0.000059060
[...]
   Eigenvalues:   162.2687   236.7133   341.2864
      9  F    Isotropic =   225.8531   Anisotropy =   149.1010
   XX=   183.0413   YX=   -12.7643   ZX=    82.5135
   XY=   -11.1224   YY=   218.0069   ZY=    -2.4239
   XZ=    82.6311   YZ=    -2.1343   ZZ=   276.5111
   Eigenvalues:   133.8920   218.4135   325.2538
     10  C    Isotropic =    31.1852   Anisotropy =   222.7903
   XX=   -27.3762   YX=    45.6116   ZX=     1.8112
   XY=    38.9804   YY=   -58.7497   ZY=    -3.0998
   XZ=    -3.3542   YZ=    -1.6300   ZZ=   179.6815
   Eigenvalues:   -88.1827     2.0262   179.7121
     11  C    Isotropic =    28.6980   Anisotropy =   192.4492
   XX=    -0.2721   YX=   -36.1468   ZX=     1.3693
   XY=   -39.3168   YY=   -70.6207   ZY=    -0.6487
   XZ=     1.0747   YZ=     2.2307   ZZ=   156.9868
   Eigenvalues:   -87.0365    16.1331   156.9975
     12  C    Isotropic =    13.2204   Anisotropy =   175.2957
   XX=   -94.7701   YX=   -20.4385   ZX=     2.1813
   XY=     2.2855   YY=     4.3919   ZY=    -0.2126
   XZ=     4.1562   YZ=     0.2040   ZZ=   130.0394
   Eigenvalues:   -95.6381     5.2152   130.0842
     13  Br   Isotropic =  2006.4779   Anisotropy =  1209.6542
   XX=  2798.3771   YX=   143.6140   ZX=   -11.1181
   XY=   127.0959   YY=  1543.0326   ZY=    -1.4471
   XZ=   -10.8661   YZ=    -1.5836   ZZ=  1678.0240
   Eigenvalues:  1528.6033  1677.9164  2812.9140
     14  H    Isotropic =    22.9626   Anisotropy =    11.1632
   XX=    29.1595   YX=    -3.0707   ZX=    -0.3029
   XY=    -3.7664   YY=    20.9476   ZY=     0.0312
   XZ=    -0.4447   YZ=    -0.2675   ZZ=    18.7806
   Eigenvalues:    18.7152    19.7678    30.4047
     15  H    Isotropic =    23.2101   Anisotropy =     9.3203
   XX=    26.7030   YX=     4.2843   ZX=    -0.2616
   XY=     3.8014   YY=    23.3925   ZY=    -0.0588
   XZ=    -0.4736   YZ=     0.1945   ZZ=    19.5347
   Eigenvalues:    19.4710    20.7356    29.4236
     16  H    Isotropic =    23.2678   Anisotropy =    10.7351
   XX=    28.0881   YX=    -4.5016   ZX=    -0.1388
   XY=    -3.7385   YY=    23.1501   ZY=     0.0571
   XZ=    -0.0769   YZ=     0.2183   ZZ=    18.5652
   Eigenvalues:    18.5610    20.8179    30.4245
 End of Minotr F.D. properties file   721 does not exist.
 End of Minotr F.D. properties file   722 does not exist.
 End of Minotr F.D. properties file   788 does not exist.
 Leave Link 1002 at Tue Sep 17 10:46:10 2024, MaxMem=  1342177280 cpu:             707.8 elap:             709.2
 (Enter /groups/ReismanLab/Software/Gaussian16_RevC/Linux_Binary_AVX2-enabled-CPU/g16/l601.exe)
 Copying SCF densities to generalized density rwf, IOpCl= 0 IROHF=0.

 **********************************************************************

            Population analysis using the SCF Density.

 **********************************************************************

 Orbital symmetries:
       Occupied  (A) (A) (A) (A) (A) (A) (A) (A) (A) (A) (A) (A)
                 (A) (A) (A) (A) (A) (A) (A) (A) (A) (A) (A) (A)
                 (A) (A) (A) (A) (A) (A) (A) (A) (A) (A) (A) (A)
                 (A) (A) (A) (A) (A) (A) (A) (A) (A) (A) (A) (A)
                 (A) (A) (A) (A) (A) (A) (A) (A) (A) (A) (A) (A)
       Virtual   (A) (A) (A) (A) (A) (A) (A) (A) (A) (A) (A) (A)
                 (A) (A) (A) (A) (A) (A) (A) (A) (A) (A) (A) (A)
                 (A) (A) (A) (A) (A) (A) (A) (A) (A) (A) (A) (A)
                 (A) (A) (A) (A) (A) (A) (A) (A) (A) (A) (A) (A)
                 (A) (A) (A) (A) (A) (A) (A) (A) (A) (A) (A) (A)
                 (A) (A) (A) (A) (A) (A) (A) (A) (A) (A) (A) (A)
                 (A) (A) (A) (A) (A) (A) (A) (A) (A) (A) (A) (A)
                 (A) (A) (A) (A) (A) (A) (A) (A) (A) (A) (A) (A)
                 (A) (A) (A) (A) (A) (A) (A) (A) (A) (A) (A) (A)
                 (A) (A) (A) (A) (A) (A) (A) (A) (A) (A) (A) (A)
                 (A) (A) (A) (A) (A) (A) (A) (A) (A) (A) (A) (A)
                 (A) (A) (A) (A) (A) (A) (A) (A) (A) (A) (A) (A)
                 (A) (A) (A) (A) (A) (A) (A) (A) (A) (A) (A) (A)
                 (A) (A) (A) (A) (A) (A) (A) (A) (A) (A) (A) (A)
                 (A) (A) (A) (A) (A) (A) (A) (A) (A) (A) (A) (A)
                 (A) (A) (A) (A) (A) (A) (A) (A) (A) (A) (A) (A)
                 (A) (A) (A) (A) (A) (A) (A) (A) (A) (A) (A) (A)
                 (A) (A) (A) (A) (A) (A) (A) (A) (A) (A) (A) (A)
                 (A) (A) (A) (A) (A) (A) (A) (A) (A) (A) (A) (A)
                 (A) (A) (A) (A) (A) (A) (A) (A) (A) (A) (A) (A)
                 (A) (A) (A) (A) (A) (A) (A) (A) (A) (A) (A) (A)
                 (A) (A) (A) (A) (A) (A) (A) (A) (A) (A) (A) (A)
                 (A) (A) (A) (A) (A) (A) (A) (A) (A) (A) (A) (A)
                 (A) (A) (A) (A) (A) (A) (A) (A) (A) (A) (A) (A)
                 (A) (A) (A) (A) (A) (A) (A) (A) (A) (A) (A) (A)
                 (A) (A) (A) (A) (A) (A) (A) (A) (A) (A) (A) (A)
                 (A) (A) (A) (A) (A) (A) (A) (A) (A) (A) (A) (A)
                 (A) (A) (A) (A) (A) (A) (A) (A) (A) (A) (A) (A)
                 (A) (A) (A) (A) (A) (A) (A) (A) (A) (A) (A) (A)
                 (A) (A) (A) (A) (A) (A) (A) (A) (A) (A) (A) (A)
                 (A) (A) (A) (A) (A) (A) (A) (A) (A) (A) (A) (A)
                 (A) (A) (A) (A) (A) (A)
 The electronic state is 1-A.
 Alpha  occ. eigenvalues -- -485.40024 -63.38490 -57.20445 -57.20199 -57.20183
 Alpha  occ. eigenvalues --  -25.29504 -25.29394 -25.29140 -14.77537 -10.81655
 Alpha  occ. eigenvalues --  -10.64533 -10.62143 -10.60107 -10.60065 -10.59955
 Alpha  occ. eigenvalues --  -10.59388 -10.58868  -9.05135  -6.87574  -6.86661
 Alpha  occ. eigenvalues --   -6.86609  -2.90953  -2.90628  -2.90576  -2.89724
 Alpha  occ. eigenvalues --   -2.89724  -1.47533  -1.38756  -1.38404  -1.04179
 Alpha  occ. eigenvalues --   -1.01679  -0.94860  -0.90736  -0.87974  -0.81635
 Alpha  occ. eigenvalues --   -0.76865  -0.73738  -0.70639  -0.70368  -0.69726
 Alpha  occ. eigenvalues --   -0.61251  -0.59769  -0.59202  -0.57954  -0.57689
 Alpha  occ. eigenvalues --   -0.55154  -0.54846  -0.53495  -0.52857  -0.51168
 Alpha  occ. eigenvalues --   -0.49624  -0.47614  -0.45802  -0.45311  -0.44094
 Alpha  occ. eigenvalues --   -0.42070  -0.40973  -0.37226  -0.34826  -0.33027
 Alpha virt. eigenvalues --   -0.05185  -0.02905   0.01556   0.05630   0.08175
 Alpha virt. eigenvalues --    0.08374   0.09547   0.10729   0.12585   0.13630
 Alpha virt. eigenvalues --    0.15617   0.16820   0.17480   0.18003   0.18190
 Alpha virt. eigenvalues --    0.20905   0.21696   0.22017   0.22791   0.23358
 Alpha virt. eigenvalues --    0.24117   0.24928   0.25632   0.26959   0.27520
 Alpha virt. eigenvalues --    0.28114   0.29203   0.29303   0.29540   0.30204
 Alpha virt. eigenvalues --    0.31261   0.31892   0.32124   0.32891   0.34175
 Alpha virt. eigenvalues --    0.35938   0.37306   0.37655   0.38433   0.39444
 Alpha virt. eigenvalues --    0.40921   0.41496   0.42047   0.42973   0.44610
 Alpha virt. eigenvalues --    0.45920   0.46580   0.48655   0.49111   0.50406
 Alpha virt. eigenvalues --    0.51346   0.53508   0.53956   0.54730   0.55530
 Alpha virt. eigenvalues --    0.57016   0.57469   0.58557   0.60377   0.60782
 Alpha virt. eigenvalues --    0.60925   0.62417   0.63601   0.66889   0.67684
 Alpha virt. eigenvalues --    0.68088   0.69766   0.71195   0.71637   0.72111
 Alpha virt. eigenvalues --    0.72443   0.74681   0.75889   0.76764   0.78099
 Alpha virt. eigenvalues --    0.79026   0.80450   0.81528   0.81993   0.82468
 Alpha virt. eigenvalues --    0.83874   0.85294   0.86444   0.88695   0.90337
 Alpha virt. eigenvalues --    0.91752   0.91991   0.93897   0.96133   0.97940
 Alpha virt. eigenvalues --    0.98472   1.01554   1.01686   1.02653   1.03352
 Alpha virt. eigenvalues --    1.05242   1.06344   1.09250   1.09983   1.11310
 Alpha virt. eigenvalues --    1.12246   1.16166   1.17092   1.17408   1.20037
 Alpha virt. eigenvalues --    1.20771   1.23730   1.25384   1.26343   1.26957
 Alpha virt. eigenvalues --    1.28769   1.30348   1.31209   1.33092   1.34250
 Alpha virt. eigenvalues --    1.35647   1.36295   1.38375   1.39105   1.41985
 Alpha virt. eigenvalues --    1.43816   1.44166   1.45421   1.45758   1.47533
 Alpha virt. eigenvalues --    1.48536   1.52360   1.52849   1.53578   1.55976
 Alpha virt. eigenvalues --    1.56323   1.58128   1.58374   1.59538   1.60541
 Alpha virt. eigenvalues --    1.63190   1.64321   1.65867   1.67358   1.67967
 Alpha virt. eigenvalues --    1.70802   1.71007   1.71560   1.73228   1.74930
 Alpha virt. eigenvalues --    1.75496   1.77506   1.78959   1.83331   1.85473
 Alpha virt. eigenvalues --    1.86342   1.87452   1.90222   1.91701   1.92294
 Alpha virt. eigenvalues --    1.93373   1.94299   1.96164   1.97309   1.99218
 Alpha virt. eigenvalues --    1.99691   2.01647   2.03235   2.06500   2.09015
 Alpha virt. eigenvalues --    2.09958   2.14738   2.16053   2.17163   2.21255
 Alpha virt. eigenvalues --    2.21855   2.22880   2.25554   2.27953   2.28971
 Alpha virt. eigenvalues --    2.32461   2.34335   2.36139   2.37544   2.40337
 Alpha virt. eigenvalues --    2.41518   2.43522   2.44283   2.48188   2.49173
 Alpha virt. eigenvalues --    2.50793   2.51812   2.54252   2.55602   2.56255
 Alpha virt. eigenvalues --    2.57988   2.59530   2.60625   2.62378   2.63128
 Alpha virt. eigenvalues --    2.65691   2.67126   2.68051   2.70996   2.73004
 Alpha virt. eigenvalues --    2.73725   2.74053   2.75535   2.78150   2.81066
 Alpha virt. eigenvalues --    2.81241   2.82335   2.83477   2.86363   2.86689
 Alpha virt. eigenvalues --    2.88540   2.89964   2.91963   2.93850   2.95318
 Alpha virt. eigenvalues --    2.95880   2.97575   2.98161   2.99865   3.01835
 Alpha virt. eigenvalues --    3.03416   3.04224   3.06029   3.06636   3.08795
 Alpha virt. eigenvalues --    3.10345   3.12174   3.13022   3.13454   3.15014
 Alpha virt. eigenvalues --    3.17519   3.18528   3.19354   3.19851   3.21912
 Alpha virt. eigenvalues --    3.22480   3.24034   3.27913   3.28262   3.28799
 Alpha virt. eigenvalues --    3.30409   3.30696   3.32244   3.33403   3.34176
 Alpha virt. eigenvalues --    3.37122   3.37979   3.39812   3.40116   3.40906
 Alpha virt. eigenvalues --    3.43402   3.44518   3.45706   3.46283   3.49250
 Alpha virt. eigenvalues --    3.50733   3.53303   3.54812   3.60742   3.63028
 Alpha virt. eigenvalues --    3.64324   3.65830   3.66508   3.73191   3.75059
 Alpha virt. eigenvalues --    3.75319   3.77530   3.80435   3.83258   3.86350
 Alpha virt. eigenvalues --    3.89559   3.92352   3.92906   3.94572   3.95734
 Alpha virt. eigenvalues --    3.96418   3.97605   3.98054   3.99598   4.02920
 Alpha virt. eigenvalues --    4.04648   4.06117   4.07619   4.08155   4.09549
 Alpha virt. eigenvalues --    4.11960   4.12918   4.14355   4.15299   4.16823
 Alpha virt. eigenvalues --    4.19631   4.20918   4.21923   4.23946   4.28251
 Alpha virt. eigenvalues --    4.30374   4.38451   4.41851   4.44298   4.45809
 Alpha virt. eigenvalues --    4.49067   4.54884   4.55765   4.56837   4.57316
 Alpha virt. eigenvalues --    4.61835   4.65067   4.69097   4.73280   4.78668
 Alpha virt. eigenvalues --    4.81130   4.86882   4.95175   4.97851   5.06327
 Alpha virt. eigenvalues --    5.09702   5.13787   5.17202   5.23579   5.29043
 Alpha virt. eigenvalues --    5.32791   5.34912   5.41405   5.45356   5.56765
 Alpha virt. eigenvalues --    5.60529   5.61808   5.83669   6.10059   6.82152
 Alpha virt. eigenvalues --    6.86845   6.87107   6.87329   6.87430   6.88139
 Alpha virt. eigenvalues --    6.88345   6.88514   6.89800   6.97405   6.99456
 Alpha virt. eigenvalues --    7.00229   7.04877   7.06211   7.12620   7.33492
 Alpha virt. eigenvalues --    7.34582   7.37854   7.48847   7.55313   7.56445
 Alpha virt. eigenvalues --    7.87734   8.28426   8.30587   8.31842   8.44942
 Alpha virt. eigenvalues --    8.45363   8.54500   8.67218   8.74346   8.75112
 Alpha virt. eigenvalues --    8.84923   8.91018   8.97626   8.98776   9.04958
 Alpha virt. eigenvalues --    9.09835  22.16456  22.72420  22.79198  22.82938
 Alpha virt. eigenvalues --   22.91559  23.08623  23.35423  23.67399  32.21455
 Alpha virt. eigenvalues --   57.34737  57.37161  57.44982
          Condensed to atoms (all electrons):
               1          2          3          4          5          6
     1  N    6.136131   0.923244  -0.037435   0.000218  -0.000358  -0.000016
     2  C    0.923244   5.289816   0.217602  -0.096227   0.004484  -0.001189
     3  C   -0.037435   0.217602   5.230801   0.259653   0.022810   0.002468
     4  C    0.000218  -0.096227   0.259653   5.312396   0.347702  -0.045195
     5  C   -0.000358   0.004484   0.022810   0.347702   5.154168   0.456454
     6  C   -0.000016  -0.001189   0.002468  -0.045195   0.456454   4.125342
     7  F    0.000000  -0.000061   0.001915   0.009361  -0.076325   0.328725
     8  F   -0.000000  -0.000005  -0.000146   0.005252  -0.075898   0.331050
     9  F   -0.000000  -0.000074  -0.001012   0.003934  -0.079845   0.346396
    10  C    0.000112  -0.006837  -0.094170   0.007868   0.382842  -0.046340
    11  C   -0.000283   0.022771   0.028606  -0.126648   0.010820   0.003189
    12  C   -0.003013  -0.117967   0.264960   0.102351  -0.090815   0.000383
    13  Br  -0.004432  -0.029125  -0.138601   0.030656  -0.005295   0.000039
    14  H    0.001378   0.005007  -0.022811   0.393164  -0.024746  -0.008202
    15  H   -0.000000   0.000143   0.000787   0.007658  -0.032727  -0.005042
    16  H    0.000005   0.000791   0.015953  -0.003765   0.006286  -0.000069
               7          8          9         10         11         12
     1  N    0.000000  -0.000000  -0.000000   0.000112  -0.000283  -0.003013
     2  C   -0.000061  -0.000005  -0.000074  -0.006837   0.022771  -0.117967
     3  C    0.001915  -0.000146  -0.001012  -0.094170   0.028606   0.264960
     4  C    0.009361   0.005252   0.003934   0.007868  -0.126648   0.102351
     5  C   -0.076325  -0.075898  -0.079845   0.382842   0.010820  -0.090815
     6  C    0.328725   0.331050   0.346396  -0.046340   0.003189   0.000383
     7  F    8.992828  -0.043087  -0.047358   0.005454  -0.000332   0.000082
     8  F   -0.043087   8.998726  -0.048753   0.006529   0.001578  -0.000115
     9  F   -0.047358  -0.048753   9.001035   0.002109  -0.000341   0.000143
    10  C    0.005454   0.006529   0.002109   5.077353   0.373456   0.054683
    11  C   -0.000332   0.001578  -0.000341   0.373456   5.162143   0.365548
    12  C    0.000082  -0.000115   0.000143   0.054683   0.365548   5.065044
    13  Br  -0.000000  -0.000000  -0.000001   0.019668  -0.106811   0.460662
    14  H    0.007558   0.000210   0.000079   0.005766  -0.000505   0.005716
    15  H    0.000235   0.006266   0.000292   0.403560  -0.021988   0.000690
    16  H    0.000002  -0.000004  -0.000003  -0.032652   0.422328  -0.051556
              13         14         15         16
     1  N   -0.004432   0.001378  -0.000000   0.000005
     2  C   -0.029125   0.005007   0.000143   0.000791
     3  C   -0.138601  -0.022811   0.000787   0.015953
     4  C    0.030656   0.393164   0.007658  -0.003765
     5  C   -0.005295  -0.024746  -0.032727   0.006286
     6  C    0.000039  -0.008202  -0.005042  -0.000069
     7  F   -0.000000   0.007558   0.000235   0.000002
     8  F   -0.000000   0.000210   0.006266  -0.000004
     9  F   -0.000001   0.000079   0.000292  -0.000003
    10  C    0.019668   0.005766   0.403560  -0.032652
    11  C   -0.106811  -0.000505  -0.021988   0.422328
    12  C    0.460662   0.005716   0.000690  -0.051556
    13  Br  34.814641   0.000079  -0.000224  -0.005324
    14  H    0.000079   0.426698  -0.000113   0.000011
    15  H   -0.000224  -0.000113   0.448329  -0.002351
    16  H   -0.005324   0.000011  -0.002351   0.457452
 Mulliken charges:
               1
     1  N   -0.015550
     2  C   -0.212374
     3  C    0.248620
     4  C   -0.208379
     5  C    0.000442
     6  C    0.512006
     7  F   -0.178997
     8  F   -0.181603
     9  F   -0.176600
    10  C   -0.159400
    11  C   -0.133533
    12  C   -0.056796
    13  Br  -0.035932
    14  H    0.210713
    15  H    0.194486
    16  H    0.192897
 Sum of Mulliken charges =  -0.00000
 Mulliken charges with hydrogens summed into heavy atoms:
               1
     1  N   -0.015550
     2  C   -0.212374
     3  C    0.248620
     4  C    0.002334
     5  C    0.000442
     6  C    0.512006
     7  F   -0.178997
     8  F   -0.181603
     9  F   -0.176600
    10  C    0.035086
    11  C    0.059364
    12  C   -0.056796
    13  Br  -0.035932
 Electronic spatial extent (au):  <R**2>=           3820.3701
 Charge=             -0.0000 electrons
 Dipole moment (field-independent basis, Debye):
    X=              1.0870    Y=             -4.2657    Z=             -0.1022  Tot=              4.4032
 Quadrupole moment (field-independent basis, Debye-Ang):
   XX=            -96.1917   YY=            -89.3383   ZZ=            -86.6814
   XY=              8.8701   XZ=             -0.2448   YZ=              0.0395
 Traceless Quadrupole moment (field-independent basis, Debye-Ang):
   XX=             -5.4546   YY=              1.3989   ZZ=              4.0557
   XY=              8.8701   XZ=             -0.2448   YZ=              0.0395
 Octapole moment (field-independent basis, Debye-Ang**2):
  XXX=            -54.7210  YYY=            -79.5093  ZZZ=             -0.1751  XYY=             26.9096
  XXY=            -29.1953  XXZ=             -0.1801  XZZ=            -10.2618  YZZ=             -5.4364
  YYZ=              0.9690  XYZ=             -0.0406
 Hexadecapole moment (field-independent basis, Debye-Ang**3):
 XXXX=          -3091.5165 YYYY=          -1024.2017 ZZZZ=           -157.5354 XXXY=            117.8126
 XXXZ=             -1.8205 YYYX=            166.7131 YYYZ=              0.1707 ZZZX=             -3.4797
 ZZZY=             -0.2674 XXYY=           -721.3862 XXZZ=           -546.8534 YYZZ=           -183.2310
 XXYZ=             -0.6222 YYXZ=              3.0054 ZZXY=             21.7188
 N-N= 1.031636749670D+03 E-N=-9.767776885168D+03  KE= 3.228781743415D+03
 Calculating spin-rotation constants.
 Leave Link  601 at Tue Sep 17 10:46:13 2024, MaxMem=  1342177280 cpu:               2.7 elap:               2.8
 (Enter /groups/ReismanLab/Software/Gaussian16_RevC/Linux_Binary_AVX2-enabled-CPU/g16/l9999.exe)
 Unable to Open any file for archive entry.
 1\1\GINC-HPC-53-06\SP\RM062X\def2TZVP\C8H3Br1F3N1\MANTIND\17-Sep-2024\
 0\\#p M062X/def2tzvp geom=check guess=read scf(xqc,tight) integral(gri
 d=ultrafine) scrf(SMD, solvent=1,4-Dioxane) nmr=giao\\spe\\0,1\N,0,-1.
 8602191465,-3.0742356113,-0.0078350584\C,0,-1.2539345647,-2.08264347,-
 0.0018348463\C,0,-0.4655124197,-0.8888568768,0.0056554769\C,0,0.933756
 4081,-0.9892263502,0.0211244619\C,0,1.7157800827,0.1596446972,0.033374
 8857\C,0,3.21681395,0.05285606,-0.0055217096\F,0,3.6466178087,-1.13569
 15425,0.46425236\F,0,3.7969098662,1.0242038963,0.7313538806\F,0,3.6846
 969435,0.1801587534,-1.2664959639\C,0,1.1133654157,1.4205965338,0.0308
 229995\C,0,-0.272811445,1.5339859454,0.0150029457\C,0,-1.0602298925,0.
 385132077,0.0013211035\Br,0,-2.9450889185,0.5496536755,-0.0183156669\H
 ,0,1.3958965984,-1.968518332,0.0305224873\H,0,1.7289951467,2.312686751
 8,0.0496708733\H,0,-0.7475775046,2.5073643315,0.0162422393\\Version=ES
 64L-G16RevC.02\State=1-A\HF=-3235.1613459\RMSD=3.650e-09\Dipole=0.4108
 487,1.6823959,0.042211\Quadrupole=-3.9236118,0.9078223,3.0157895,-6.64
 44741,0.1677255,0.0216912\PG=C01 [X(C8H3Br1F3N1)]\\@
 The archive entry for this job was punched.


 Just remember, when you're over the hill, you begin to pick up speed.
 -- Charles Schulz
 Job cpu time:       0 days  0 hours 12 minutes 56.1 seconds.
 Elapsed time:       0 days  0 hours 12 minutes 58.9 seconds.
 File lengths (MBytes):  RWF=    272 Int=      0 D2E=      0 Chk=     32 Scr=     16
 Normal termination of Gaussian 16 at Tue Sep 17 10:46:13 2024.
