 Entering Gaussian System, Link 0=g16
 Input=smiles_00126_conf_3.gjf
 Output=smiles_00126_conf_3.log
 Initial command:
 /groups/ReismanLab/Software/Gaussian16_RevC/Linux_Binary_AVX2-enabled-CPU/g16/l1.exe "/central/groups/ReismanLab/DM/dft_final/smiles_00126/Gau-2411966.inp" -scrdir="/central/groups/ReismanLab/DM/dft_final/smiles_00126/"
 Entering Link 1 = /groups/ReismanLab/Software/Gaussian16_RevC/Linux_Binary_AVX2-enabled-CPU/g16/l1.exe PID=   2411967.
  
 Copyright (c) 1988-2021, Gaussian, Inc.  All Rights Reserved.
  
 This is part of the Gaussian(R) 16 program.  It is based on
 the Gaussian(R) 09 system (copyright 2009, Gaussian, Inc.),
 the Gaussian(R) 03 system (copyright 2003, Gaussian, Inc.),
 the Gaussian(R) 98 system (copyright 1998, Gaussian, Inc.),
 the Gaussian(R) 94 system (copyright 1995, Gaussian, Inc.),
 the Gaussian 92(TM) system (copyright 1992, Gaussian, Inc.),
 the Gaussian 90(TM) system (copyright 1990, Gaussian, Inc.),
 the Gaussian 88(TM) system (copyright 1988, Gaussian, Inc.),
 the Gaussian 86(TM) system (copyright 1986, Carnegie Mellon
 University), and the Gaussian 82(TM) system (copyright 1983,
 Carnegie Mellon University). Gaussian is a federally registered
 trademark of Gaussian, Inc.
  
 This software contains proprietary and confidential information,
 including trade secrets, belonging to Gaussian, Inc.
  
 This software is provided under written license and may be
 used, copied, transmitted, or stored only in accord with that
 written license.
  
 The following legend is applicable only to US Government
 contracts under FAR:
  
                    RESTRICTED RIGHTS LEGEND
  
 Use, reproduction and disclosure by the US Government is
 subject to restrictions as set forth in subparagraphs (a)
 and (c) of the Commercial Computer Software - Restricted
 Rights clause in FAR 52.227-19.
  
 Gaussian, Inc.
 340 Quinnipiac St., Bldg. 40, Wallingford CT 06492
  
  
 ---------------------------------------------------------------
 Warning -- This program may not be used in any manner that
 competes with the business of Gaussian, Inc. or will provide
 assistance to any competitor of Gaussian, Inc.  The licensee
 of this program is prohibited from giving any competitor of
 Gaussian, Inc. access to this program.  By using this program,
 the user acknowledges that Gaussian, Inc. is engaged in the
 business of creating and licensing software in the field of
 computational chemistry and represents and warrants to the
 licensee that it is not a competitor of Gaussian, Inc. and that
 it will not use this program in any manner prohibited above.
 ---------------------------------------------------------------
  

 Cite this work as:
 Gaussian 16, Revision C.02,
 M. J. Frisch, G. W. Trucks, H. B. Schlegel, G. E. Scuseria, 
 M. A. Robb, J. R. Cheeseman, G. Scalmani, V. Barone, 
 G. A. Petersson, H. Nakatsuji, X. Li, M. Caricato, A. V. Marenich, 
 J. Bloino, B. G. Janesko, R. Gomperts, B. Mennucci, H. P. Hratchian, 
 J. V. Ortiz, A. F. Izmaylov, J. L. Sonnenberg, D. Williams-Young, 
 F. Ding, F. Lipparini, F. Egidi, J. Goings, B. Peng, A. Petrone, 
 T. Henderson, D. Ranasinghe, V. G. Zakrzewski, J. Gao, N. Rega, 
 G. Zheng, W. Liang, M. Hada, M. Ehara, K. Toyota, R. Fukuda, 
 J. Hasegawa, M. Ishida, T. Nakajima, Y. Honda, O. Kitao, H. Nakai, 
 T. Vreven, K. Throssell, J. A. Montgomery, Jr., J. E. Peralta, 
 F. Ogliaro, M. J. Bearpark, J. J. Heyd, E. N. Brothers, K. N. Kudin, 
 V. N. Staroverov, T. A. Keith, R. Kobayashi, J. Normand, 
 K. Raghavachari, A. P. Rendell, J. C. Burant, S. S. Iyengar, 
 J. Tomasi, M. Cossi, J. M. Millam, M. Klene, C. Adamo, R. Cammi, 
 J. W. Ochterski, R. L. Martin, K. Morokuma, O. Farkas, 
 J. B. Foresman, and D. J. Fox, Gaussian, Inc., Wallingford CT, 2019.
 
 ******************************************
 Gaussian 16:  ES64L-G16RevC.02  7-Dec-2021
                17-Sep-2024 
 ******************************************
 %nprocshared=8
 Will use up to    8 processors via shared memory.
 %Mem=10GB
 %Chk=smiles_00126_conf_3.chk
 ----------------------------------------------------------------------
 #p B3LYP/6-31G(d,p) EmpiricalDispersion=GD3BJ opt freq scf(xqc,tight) 
 integral(grid=ultrafine)
 ----------------------------------------------------------------------
 1/18=20,19=15,26=4,38=1/1,3;
 2/9=110,12=2,17=6,18=5,40=1/2;
 3/5=1,6=6,7=101,11=2,25=1,30=1,71=1,74=-5,75=-5,124=41/1,2,3;
 4//1;
 5/5=2,8=3,13=1,32=2,38=5/2,8;
 6/7=2,8=2,9=2,10=2,28=1/1;
 7//1,2,3,16;
 1/18=20,19=15,26=4/3(2);
 2/9=110/2;
 99//99;
 2/9=110/2;
 3/5=1,6=6,7=101,11=2,25=1,30=1,71=1,74=-5,75=-5,124=41/1,2,3;
 4/5=5,16=3,69=1/1;
 5/5=2,8=3,13=1,32=2,38=5/2,8;
 7//1,2,3,16;
 1/18=20,19=15,26=4/3(-5);
 2/9=110/2;
 6/7=2,8=2,9=2,10=2,19=2,28=1/1;
 99/9=1/99;
 Leave Link    1 at Tue Sep 17 09:44:35 2024, MaxMem=  1342177280 cpu:               0.1 elap:               0.5
 (Enter /groups/ReismanLab/Software/Gaussian16_RevC/Linux_Binary_AVX2-enabled-CPU/g16/l101.exe)
 ----------------------------------
 opt-freq conformers_unique/conf_ad
 ----------------------------------
 Symbolic Z-matrix:
 Charge =  0 Multiplicity = 1
 C                     4.34856  -1.45415   0.86869 
 O                     3.12832  -0.72463   0.97211 
 C                     2.5639   -0.34302  -0.16982 
 O                     3.00783  -0.53453  -1.26611 
 C                     1.28022   0.39908   0.10642 
 C                     1.28443   1.69396   0.61997 
 C                     0.04122   2.28842   0.79149 
 N                    -1.08274   1.65996   0.4932 
 C                    -0.96216   0.43826   0.02135 
 Br                   -2.55449  -0.46073  -0.38818 
 N                     0.15218  -0.22787  -0.19291 
 H                     4.31014  -2.13135   0.01405 
 H                     4.45497  -2.00777   1.79806 
 H                     5.18342  -0.76275   0.74069 
 H                     2.20109   2.20275   0.86463 
 H                    -0.07124   3.29209   1.17901 
 
 ITRead=  0  0  0  0  0  0  0  0  0  0  0  0  0  0  0  0
 MicOpt= -1 -1 -1 -1 -1 -1 -1 -1 -1 -1 -1 -1 -1 -1 -1 -1
 NAtoms=     16 NQM=       16 NQMF=       0 NMMI=      0 NMMIF=      0
                NMic=       0 NMicF=      0.
                    Isotopes and Nuclear Properties:
 (Nuclear quadrupole moments (NQMom) in fm**2, nuclear magnetic moments (NMagM)
  in nuclear magnetons)

  Atom         1           2           3           4           5           6           7           8           9          10
 IAtWgt=          12          16          12          16          12          12          12          14          12          79
 AtmWgt=  12.0000000  15.9949146  12.0000000  15.9949146  12.0000000  12.0000000  12.0000000  14.0030740  12.0000000  78.9183361
 NucSpn=           0           0           0           0           0           0           0           2           0           3
 AtZEff=  -0.0000000  -0.0000000  -0.0000000  -0.0000000  -0.0000000  -0.0000000  -0.0000000  -0.0000000  -0.0000000  -0.0000000
 NQMom=    0.0000000   0.0000000   0.0000000   0.0000000   0.0000000   0.0000000   0.0000000   2.0440000   0.0000000  31.3000000
 NMagM=    0.0000000   0.0000000   0.0000000   0.0000000   0.0000000   0.0000000   0.0000000   0.4037610   0.0000000   2.1063990
 AtZNuc=   6.0000000   8.0000000   6.0000000   8.0000000   6.0000000   6.0000000   6.0000000   7.0000000   6.0000000  35.0000000

  Atom        11          12          13          14          15          16
 IAtWgt=          14           1           1           1           1           1
 AtmWgt=  14.0030740   1.0078250   1.0078250   1.0078250   1.0078250   1.0078250
 NucSpn=           2           1           1           1           1           1
 AtZEff=  -0.0000000  -0.0000000  -0.0000000  -0.0000000  -0.0000000  -0.0000000
 NQMom=    2.0440000   0.0000000   0.0000000   0.0000000   0.0000000   0.0000000
 NMagM=    0.4037610   2.7928460   2.7928460   2.7928460   2.7928460   2.7928460
 AtZNuc=   7.0000000   1.0000000   1.0000000   1.0000000   1.0000000   1.0000000
 Leave Link  101 at Tue Sep 17 09:44:35 2024, MaxMem=  1342177280 cpu:               0.2 elap:               0.3
 (Enter /groups/ReismanLab/Software/Gaussian16_RevC/Linux_Binary_AVX2-enabled-CPU/g16/l103.exe)

 GradGradGradGradGradGradGradGradGradGradGradGradGradGradGradGradGradGrad
 Berny optimization.
 Initialization pass.
                           ----------------------------
                           !    Initial Parameters    !
                           ! (Angstroms and Degrees)  !
 --------------------------                            --------------------------
 ! Name  Definition              Value          Derivative Info.                !
 --------------------------------------------------------------------------------
 ! R1    R(1,2)                  1.4254         estimate D2E/DX2                !
 ! R2    R(1,12)                 1.0911         estimate D2E/DX2                !
 ! R3    R(1,13)                 1.087          estimate D2E/DX2                !
 ! R4    R(1,14)                 1.0915         estimate D2E/DX2                !
 ! R5    R(2,3)                  1.3297         estimate D2E/DX2                !
 ! R6    R(3,4)                  1.1982         estimate D2E/DX2                !
 ! R7    R(3,5)                  1.5083         estimate D2E/DX2                !
 ! R8    R(5,6)                  1.393          estimate D2E/DX2                !
 ! R9    R(5,11)                 1.3248         estimate D2E/DX2                !
 ! R10   R(6,7)                  1.3887         estimate D2E/DX2                !
 ! R11   R(6,15)                 1.0766         estimate D2E/DX2                !
 ! R12   R(7,8)                  1.3218         estimate D2E/DX2                !
 ! R13   R(7,16)                 1.0817         estimate D2E/DX2                !
 ! R14   R(8,9)                  1.3152         estimate D2E/DX2                !
 ! R15   R(9,10)                 1.8739         estimate D2E/DX2                !
 ! R16   R(9,11)                 1.3158         estimate D2E/DX2                !
 ! A1    A(2,1,12)             110.1406         estimate D2E/DX2                !
 ! A2    A(2,1,13)             106.4055         estimate D2E/DX2                !
 ! A3    A(2,1,14)             109.8208         estimate D2E/DX2                !
 ! A4    A(12,1,13)            110.9184         estimate D2E/DX2                !
 ! A5    A(12,1,14)            109.1612         estimate D2E/DX2                !
 ! A6    A(13,1,14)            110.3656         estimate D2E/DX2                !
 ! A7    A(1,2,3)              116.6107         estimate D2E/DX2                !
 ! A8    A(2,3,4)              125.6345         estimate D2E/DX2                !
 ! A9    A(2,3,5)              110.1924         estimate D2E/DX2                !
 ! A10   A(4,3,5)              124.1637         estimate D2E/DX2                !
 ! A11   A(3,5,6)              121.4877         estimate D2E/DX2                !
 ! A12   A(3,5,11)             116.7728         estimate D2E/DX2                !
 ! A13   A(6,5,11)             121.7203         estimate D2E/DX2                !
 ! A14   A(5,6,7)              116.1525         estimate D2E/DX2                !
 ! A15   A(5,6,15)             121.7136         estimate D2E/DX2                !
 ! A16   A(7,6,15)             122.1334         estimate D2E/DX2                !
 ! A17   A(6,7,8)              121.9948         estimate D2E/DX2                !
 ! A18   A(6,7,16)             122.3107         estimate D2E/DX2                !
 ! A19   A(8,7,16)             115.6943         estimate D2E/DX2                !
 ! A20   A(7,8,9)              116.4012         estimate D2E/DX2                !
 ! A21   A(8,9,10)             116.4969         estimate D2E/DX2                !
 ! A22   A(8,9,11)             127.3236         estimate D2E/DX2                !
 ! A23   A(10,9,11)            116.1792         estimate D2E/DX2                !
 ! A24   A(5,11,9)             116.4056         estimate D2E/DX2                !
 ! D1    D(12,1,2,3)           -37.7478         estimate D2E/DX2                !
 ! D2    D(13,1,2,3)          -158.0402         estimate D2E/DX2                !
 ! D3    D(14,1,2,3)            82.5045         estimate D2E/DX2                !
 ! D4    D(1,2,3,4)             -1.7441         estimate D2E/DX2                !
 ! D5    D(1,2,3,5)            179.3367         estimate D2E/DX2                !
 ! D6    D(2,3,5,6)             73.194          estimate D2E/DX2                !
 ! D7    D(2,3,5,11)          -108.3752         estimate D2E/DX2                !
 ! D8    D(4,3,5,6)           -105.7444         estimate D2E/DX2                !
 ! D9    D(4,3,5,11)            72.6864         estimate D2E/DX2                !
 ! D10   D(3,5,6,7)            178.0026         estimate D2E/DX2                !
 ! D11   D(3,5,6,15)            -1.7458         estimate D2E/DX2                !
 ! D12   D(11,5,6,7)            -0.3504         estimate D2E/DX2                !
 ! D13   D(11,5,6,15)          179.9013         estimate D2E/DX2                !
 ! D14   D(3,5,11,9)          -178.4414         estimate D2E/DX2                !
 ! D15   D(6,5,11,9)            -0.0145         estimate D2E/DX2                !
 ! D16   D(5,6,7,8)              0.4199         estimate D2E/DX2                !
 ! D17   D(5,6,7,16)          -179.7341         estimate D2E/DX2                !
 ! D18   D(15,6,7,8)          -179.8329         estimate D2E/DX2                !
 ! D19   D(15,6,7,16)            0.0132         estimate D2E/DX2                !
 ! D20   D(6,7,8,9)             -0.1168         estimate D2E/DX2                !
 ! D21   D(16,7,8,9)          -179.9724         estimate D2E/DX2                !
 ! D22   D(7,8,9,10)           179.4774         estimate D2E/DX2                !
 ! D23   D(7,8,9,11)            -0.3114         estimate D2E/DX2                !
 ! D24   D(8,9,11,5)             0.3763         estimate D2E/DX2                !
 ! D25   D(10,9,11,5)         -179.413          estimate D2E/DX2                !
 --------------------------------------------------------------------------------
 Trust Radius=3.00D-01 FncErr=1.00D-07 GrdErr=1.00D-06 EigMax=2.50D+02 EigMin=1.00D-04
 Number of steps in this run=     75 maximum allowed number of steps=    100.
 GradGradGradGradGradGradGradGradGradGradGradGradGradGradGradGradGradGrad

 Leave Link  103 at Tue Sep 17 09:44:35 2024, MaxMem=  1342177280 cpu:               0.1 elap:               0.0
 (Enter /groups/ReismanLab/Software/Gaussian16_RevC/Linux_Binary_AVX2-enabled-CPU/g16/l202.exe)
                          Input orientation:                          
 ---------------------------------------------------------------------
 Center     Atomic      Atomic             Coordinates (Angstroms)
 Number     Number       Type             X           Y           Z
 ---------------------------------------------------------------------
      1          6           0        4.348563   -1.454153    0.868692
      2          8           0        3.128320   -0.724628    0.972106
      3          6           0        2.563902   -0.343022   -0.169823
      4          8           0        3.007831   -0.534528   -1.266108
      5          6           0        1.280219    0.399084    0.106418
      6          6           0        1.284428    1.693956    0.619966
      7          6           0        0.041225    2.288419    0.791487
      8          7           0       -1.082737    1.659962    0.493202
      9          6           0       -0.962163    0.438257    0.021352
     10         35           0       -2.554495   -0.460734   -0.388175
     11          7           0        0.152184   -0.227873   -0.192909
     12          1           0        4.310138   -2.131354    0.014051
     13          1           0        4.454972   -2.007775    1.798059
     14          1           0        5.183424   -0.762748    0.740688
     15          1           0        2.201086    2.202750    0.864634
     16          1           0       -0.071238    3.292095    1.179005
 ---------------------------------------------------------------------
                    Distance matrix (angstroms):
                    1          2          3          4          5
     1  C    0.000000
     2  O    1.425445   0.000000
     3  C    2.344812   1.329734   0.000000
     4  O    2.683402   2.249501   1.198160   0.000000
     5  C    3.664735   2.329725   1.508267   2.395850   0.000000
     6  C    4.400157   3.061616   2.531818   3.390211   1.392998
     7  C    5.706660   4.317550   3.769947   4.582955   2.360936
     8  N    6.271980   4.862985   4.213018   4.964242   2.706101
     9  C    5.701142   4.357556   3.616639   4.285407   2.244338
    10  Br   7.086523   5.849307   5.124404   5.631667   3.960927
    11  N    4.498929   3.234411   2.414576   3.066025   1.324815
    12  H    1.091095   2.072062   2.506249   2.425833   3.948678
    13  H    1.086988   2.022046   3.196890   3.695104   4.328241
    14  H    1.091520   2.068444   2.804835   2.968589   4.121548
    15  H    4.240826   3.072597   2.771767   3.561402   2.162429
    16  H    6.492904   5.139459   4.688003   5.486554   3.368440
                    6          7          8          9         10
     6  C    0.000000
     7  C    1.388654   0.000000
     8  N    2.370801   1.321826   0.000000
     9  C    2.642403   2.241205   1.315198   0.000000
    10  Br   4.516234   3.960708   2.727682   1.873877   0.000000
    11  N    2.374062   2.704270   2.357902   1.315829   2.723685
    12  H    4.914779   6.193741   6.609597   5.865161   7.076436
    13  H    5.014286   6.241124   6.769134   6.203637   7.503704
    14  H    4.610004   5.979500   6.722764   6.303023   7.825658
    15  H    1.076566   2.162797   3.349041   3.718966   5.592783
    16  H    2.168963   1.081749   2.038949   3.205979   4.765117
                   11         12         13         14         15
    11  N    0.000000
    12  H    4.577626   0.000000
    13  H    5.064187   1.794139   0.000000
    14  H    5.145005   1.778682   1.788510   0.000000
    15  H    3.350272   4.894491   4.866189   4.207598   0.000000
    16  H    3.784473   7.068760   6.997029   6.651717   2.539480
                   16
    16  H    0.000000
 Stoichiometry    C6H5BrN2O2
 Framework group  C1[X(C6H5BrN2O2)]
 Deg. of freedom    42
 Full point group                 C1      NOp   1
 Largest Abelian subgroup         C1      NOp   1
 Largest concise Abelian subgroup C1      NOp   1
                         Standard orientation:                         
 ---------------------------------------------------------------------
 Center     Atomic      Atomic             Coordinates (Angstroms)
 Number     Number       Type             X           Y           Z
 ---------------------------------------------------------------------
      1          6           0       -4.332973   -0.917838   -0.717311
      2          8           0       -3.068804   -0.259790   -0.744590
      3          6           0       -2.359757   -0.285091    0.380045
      4          8           0       -2.705940   -0.785029    1.412424
      5          6           0       -1.049082    0.435425    0.185473
      6          6           0       -0.988732    1.824137    0.094480
      7          6           0        0.279149    2.374114   -0.041031
      8          7           0        1.366414    1.623974   -0.089686
      9          6           0        1.184794    0.324443   -0.000365
     10         35           0        2.723037   -0.742414   -0.084258
     11          7           0        0.042460   -0.313838    0.137753
     12          1           0       -4.269367   -1.829110   -0.120631
     13          1           0       -4.582197   -1.146897   -1.750250
     14          1           0       -5.085018   -0.256802   -0.282712
     15          1           0       -1.875941    2.432801    0.131700
     16          1           0        0.441653    3.440960   -0.115957
 ---------------------------------------------------------------------
 Rotational constants (GHZ):           1.7443570           0.3799576           0.3339477
 Leave Link  202 at Tue Sep 17 09:44:35 2024, MaxMem=  1342177280 cpu:               0.1 elap:               0.0
 (Enter /groups/ReismanLab/Software/Gaussian16_RevC/Linux_Binary_AVX2-enabled-CPU/g16/l301.exe)
 Standard basis: 6-31G(d,p) (6D, 7F)
 Ernie: Thresh=  0.10000D-02 Tol=  0.10000D-05 Strict=F.
 There are   205 symmetry adapted cartesian basis functions of A   symmetry.
 There are   205 symmetry adapted basis functions of A   symmetry.
   205 basis functions,   398 primitive gaussians,   205 cartesian basis functions
    53 alpha electrons       53 beta electrons
       nuclear repulsion energy       824.7058968157 Hartrees.
 IExCor=  402 DFT=T Ex+Corr=B3LYP ExCW=0 ScaHFX=  0.200000
 ScaDFX=  0.800000  0.720000  1.000000  0.810000 ScalE2=  1.000000  1.000000
 IRadAn=      5 IRanWt=     -1 IRanGd=            0 ICorTp=0 IEmpDi=141
 NAtoms=   16 NActive=   16 NUniq=   16 SFac= 1.00D+00 NAtFMM=   60 NAOKFM=F Big=F
 Integral buffers will be    131072 words long.
 Raffenetti 2 integral format.
 Two-electron integral symmetry is turned on.
 R6Disp:  Grimme-D3(BJ) Dispersion energy=       -0.0305565224 Hartrees.
 Nuclear repulsion after empirical dispersion term =      824.6753402933 Hartrees.
 Leave Link  301 at Tue Sep 17 09:44:35 2024, MaxMem=  1342177280 cpu:               0.1 elap:               0.1
 (Enter /groups/ReismanLab/Software/Gaussian16_RevC/Linux_Binary_AVX2-enabled-CPU/g16/l302.exe)
 NPDir=0 NMtPBC=     1 NCelOv=     1 NCel=       1 NClECP=     1 NCelD=      1
         NCelK=      1 NCelE2=     1 NClLst=     1 CellRange=     0.0.
 One-electron integrals computed using PRISM.
 One-electron integral symmetry used in STVInt
 NBasis=   205 RedAO= T EigKep=  7.54D-04  NBF=   205
 NBsUse=   205 1.00D-06 EigRej= -1.00D+00 NBFU=   205
 Precomputing XC quadrature grid using
 IXCGrd= 4 IRadAn=           5 IRanWt=          -1 IRanGd=           0 AccXCQ= 0.00D+00.
 Generated NRdTot=       0 NPtTot=           0 NUsed=           0 NTot=          32
 NSgBfM=   204   204   204   204   204 MxSgAt=    16 MxSgA2=    16.
 Leave Link  302 at Tue Sep 17 09:44:36 2024, MaxMem=  1342177280 cpu:               0.7 elap:               0.1
 (Enter /groups/ReismanLab/Software/Gaussian16_RevC/Linux_Binary_AVX2-enabled-CPU/g16/l303.exe)
 DipDrv:  MaxL=1.
 Leave Link  303 at Tue Sep 17 09:44:36 2024, MaxMem=  1342177280 cpu:               0.1 elap:               0.0
 (Enter /groups/ReismanLab/Software/Gaussian16_RevC/Linux_Binary_AVX2-enabled-CPU/g16/l401.exe)
 ExpMin= 1.43D-01 ExpMax= 5.74D+05 ExpMxC= 5.74D+03 IAcc=3 IRadAn=         5 AccDes= 0.00D+00
 Harris functional with IExCor=  402 and IRadAn=       5 diagonalized for initial guess.
 HarFok:  IExCor=  402 AccDes= 0.00D+00 IRadAn=         5 IDoV= 1 UseB2=F ITyADJ=14
 ICtDFT=  3500011 ScaDFX=  1.000000  1.000000  1.000000  1.000000
 FoFCou: FMM=F IPFlag=           0 FMFlag=      100000 FMFlg1=           0
         NFxFlg=           0 DoJE=T BraDBF=F KetDBF=T FulRan=T
         wScrn=  0.000000 ICntrl=       500 IOpCl=  0 I1Cent=   200000004 NGrid=           0
         NMat0=    1 NMatS0=      1 NMatT0=    0 NMatD0=    1 NMtDS0=    0 NMtDT0=    0
 Petite list used in FoFCou.
 Harris En= -3063.40450012122    
 JPrj=0 DoOrth=F DoCkMO=F.
 Leave Link  401 at Tue Sep 17 09:44:36 2024, MaxMem=  1342177280 cpu:               3.3 elap:               0.5
 (Enter /groups/ReismanLab/Software/Gaussian16_RevC/Linux_Binary_AVX2-enabled-CPU/g16/l502.exe)
 Integral symmetry usage will be decided dynamically.
 Closed shell SCF:
 Using DIIS extrapolation, IDIIS=  1040.
 NGot=  1342177280 LenX=  1342089058 LenY=  1342046592
 Requested convergence on RMS density matrix=1.00D-08 within  32 cycles.
 Requested convergence on MAX density matrix=1.00D-06.
 Requested convergence on             energy=1.00D-06.
 No special actions if energy rises.
 Fock matrices will be formed incrementally for  20 cycles.
 Integral accuracy reduced to 1.0D-05 until final iterations.

 Cycle   1  Pass 0  IDiag  1:
 FoFJK:  IHMeth= 1 ICntrl=       0 DoSepK=F KAlg= 0 I1Cent=           0 FoldK=F
 IRaf= 840000000 NMat=       1 IRICut=       1 DoRegI=T DoRafI=F ISym2E= 0 IDoP0=0 IntGTp=1.
 FoFCou: FMM=F IPFlag=           0 FMFlag=      100000 FMFlg1=           0
         NFxFlg=           0 DoJE=F BraDBF=F KetDBF=F FulRan=T
         wScrn=  0.000000 ICntrl=         0 IOpCl=  0 I1Cent=           0 NGrid=           0
         NMat0=    1 NMatS0=      1 NMatT0=    0 NMatD0=    1 NMtDS0=    0 NMtDT0=    0
 Symmetry not used in FoFCou.
 E= -3063.13354149386    
 DIIS: error= 1.38D-01 at cycle   1 NSaved=   1.
 NSaved= 1 IEnMin= 1 EnMin= -3063.13354149386     IErMin= 1 ErrMin= 1.38D-01
 ErrMax= 1.38D-01  0.00D+00 EMaxC= 1.00D-01 BMatC= 5.78D-01 BMatP= 5.78D-01
 IDIUse=3 WtCom= 0.00D+00 WtEn= 1.00D+00
 Coeff-Com:  0.100D+01
 Coeff-En:   0.100D+01
 Coeff:      0.100D+01
 Gap=     0.187 Goal=   None    Shift=    0.000
 GapD=    0.187 DampG=1.000 DampE=0.250 DampFc=0.2500 IDamp=-1.
 Damping current iteration by 2.50D-01
 RMSDP=5.18D-03 MaxDP=1.96D-01              OVMax= 2.44D-01

 Cycle   2  Pass 0  IDiag  1:
 RMSU=  1.25D-03    CP:  9.93D-01
 E= -3063.19972029410     Delta-E=       -0.066178800236 Rises=F Damp=T
 DIIS: error= 1.02D-01 at cycle   2 NSaved=   2.
 NSaved= 2 IEnMin= 2 EnMin= -3063.19972029410     IErMin= 2 ErrMin= 1.02D-01
 ErrMax= 1.02D-01  0.00D+00 EMaxC= 1.00D-01 BMatC= 2.39D-01 BMatP= 5.78D-01
 IDIUse=3 WtCom= 0.00D+00 WtEn= 1.00D+00
 Coeff-Com: -0.103D+01 0.203D+01
 Coeff-En:   0.000D+00 0.100D+01
 Coeff:      0.000D+00 0.100D+01
 Gap=     0.212 Goal=   None    Shift=    0.000
 RMSDP=2.46D-03 MaxDP=1.09D-01 DE=-6.62D-02 OVMax= 1.32D-01

 Cycle   3  Pass 0  IDiag  1:
 RMSU=  1.32D-03    CP:  9.72D-01  2.48D+00
 E= -3063.29321253473     Delta-E=       -0.093492240629 Rises=F Damp=F
 DIIS: error= 9.07D-03 at cycle   3 NSaved=   3.
 NSaved= 3 IEnMin= 3 EnMin= -3063.29321253473     IErMin= 3 ErrMin= 9.07D-03
 ErrMax= 9.07D-03  0.00D+00 EMaxC= 1.00D-01 BMatC= 4.11D-02 BMatP= 2.39D-01
 IDIUse=3 WtCom= 9.09D-01 WtEn= 9.07D-02
 Coeff-Com:  0.528D+00-0.546D+00 0.102D+01
 Coeff-En:   0.836D-01 0.000D+00 0.916D+00
 Coeff:      0.488D+00-0.496D+00 0.101D+01
 Gap=     0.203 Goal=   None    Shift=    0.000
 RMSDP=1.47D-03 MaxDP=4.24D-02 DE=-9.35D-02 OVMax= 7.08D-02

 Cycle   4  Pass 0  IDiag  1:
 RMSU=  1.18D-03    CP:  9.73D-01  1.84D+00  7.13D-01
 E= -3063.30336244759     Delta-E=       -0.010149912866 Rises=F Damp=F
 DIIS: error= 8.57D-03 at cycle   4 NSaved=   4.
 NSaved= 4 IEnMin= 4 EnMin= -3063.30336244759     IErMin= 4 ErrMin= 8.57D-03
 ErrMax= 8.57D-03  0.00D+00 EMaxC= 1.00D-01 BMatC= 2.78D-02 BMatP= 4.11D-02
 IDIUse=3 WtCom= 9.14D-01 WtEn= 8.57D-02
 Coeff-Com:  0.448D+00-0.567D+00 0.680D+00 0.439D+00
 Coeff-En:   0.000D+00 0.000D+00 0.402D+00 0.598D+00
 Coeff:      0.409D+00-0.519D+00 0.657D+00 0.453D+00
 Gap=     0.210 Goal=   None    Shift=    0.000
 RMSDP=7.78D-04 MaxDP=2.82D-02 DE=-1.01D-02 OVMax= 5.07D-02

 Cycle   5  Pass 0  IDiag  1:
 RMSU=  2.02D-04    CP:  9.73D-01  1.89D+00  9.46D-01  4.21D-01
 E= -3063.32683009389     Delta-E=       -0.023467646296 Rises=F Damp=F
 DIIS: error= 1.20D-03 at cycle   5 NSaved=   5.
 NSaved= 5 IEnMin= 5 EnMin= -3063.32683009389     IErMin= 5 ErrMin= 1.20D-03
 ErrMax= 1.20D-03  0.00D+00 EMaxC= 1.00D-01 BMatC= 6.98D-04 BMatP= 2.78D-02
 IDIUse=3 WtCom= 9.88D-01 WtEn= 1.20D-02
 Coeff-Com:  0.183D+00-0.235D+00 0.288D+00 0.232D+00 0.532D+00
 Coeff-En:   0.000D+00 0.000D+00 0.000D+00 0.000D+00 0.100D+01
 Coeff:      0.180D+00-0.232D+00 0.285D+00 0.229D+00 0.538D+00
 Gap=     0.203 Goal=   None    Shift=    0.000
 RMSDP=1.25D-04 MaxDP=4.08D-03 DE=-2.35D-02 OVMax= 7.48D-03

 Cycle   6  Pass 0  IDiag  1:
 RMSU=  6.78D-05    CP:  9.73D-01  1.92D+00  9.38D-01  4.37D-01  5.38D-01
 E= -3063.32735405859     Delta-E=       -0.000523964702 Rises=F Damp=F
 DIIS: error= 3.34D-04 at cycle   6 NSaved=   6.
 NSaved= 6 IEnMin= 6 EnMin= -3063.32735405859     IErMin= 6 ErrMin= 3.34D-04
 ErrMax= 3.34D-04  0.00D+00 EMaxC= 1.00D-01 BMatC= 4.99D-05 BMatP= 6.98D-04
 IDIUse=3 WtCom= 9.97D-01 WtEn= 3.34D-03
 Coeff-Com:  0.661D-01-0.859D-01 0.983D-01 0.792D-01 0.275D+00 0.568D+00
 Coeff-En:   0.000D+00 0.000D+00 0.000D+00 0.000D+00 0.000D+00 0.100D+01
 Coeff:      0.658D-01-0.856D-01 0.979D-01 0.790D-01 0.274D+00 0.569D+00
 Gap=     0.202 Goal=   None    Shift=    0.000
 RMSDP=4.07D-05 MaxDP=1.31D-03 DE=-5.24D-04 OVMax= 1.55D-03

 Cycle   7  Pass 0  IDiag  1:
 RMSU=  2.06D-05    CP:  9.73D-01  1.92D+00  9.44D-01  4.47D-01  5.88D-01
                    CP:  5.67D-01
 E= -3063.32739577836     Delta-E=       -0.000041719773 Rises=F Damp=F
 DIIS: error= 1.06D-04 at cycle   7 NSaved=   7.
 NSaved= 7 IEnMin= 7 EnMin= -3063.32739577836     IErMin= 7 ErrMin= 1.06D-04
 ErrMax= 1.06D-04  0.00D+00 EMaxC= 1.00D-01 BMatC= 4.65D-06 BMatP= 4.99D-05
 IDIUse=3 WtCom= 9.99D-01 WtEn= 1.06D-03
 Coeff-Com:  0.249D-01-0.328D-01 0.338D-01 0.251D-01 0.110D+00 0.303D+00
 Coeff-Com:  0.536D+00
 Coeff-En:   0.000D+00 0.000D+00 0.000D+00 0.000D+00 0.000D+00 0.000D+00
 Coeff-En:   0.100D+01
 Coeff:      0.249D-01-0.328D-01 0.338D-01 0.251D-01 0.110D+00 0.303D+00
 Coeff:      0.537D+00
 Gap=     0.202 Goal=   None    Shift=    0.000
 RMSDP=1.28D-05 MaxDP=4.74D-04 DE=-4.17D-05 OVMax= 9.06D-04

 Cycle   8  Pass 0  IDiag  1:
 RMSU=  7.91D-06    CP:  9.73D-01  1.92D+00  9.46D-01  4.44D-01  5.82D-01
                    CP:  6.22D-01  5.84D-01
 E= -3063.32739980011     Delta-E=       -0.000004021744 Rises=F Damp=F
 DIIS: error= 5.44D-05 at cycle   8 NSaved=   8.
 NSaved= 8 IEnMin= 8 EnMin= -3063.32739980011     IErMin= 8 ErrMin= 5.44D-05
 ErrMax= 5.44D-05  0.00D+00 EMaxC= 1.00D-01 BMatC= 8.36D-07 BMatP= 4.65D-06
 IDIUse=1 WtCom= 1.00D+00 WtEn= 0.00D+00
 Coeff-Com:  0.831D-02-0.110D-01 0.968D-02 0.564D-02 0.325D-01 0.109D+00
 Coeff-Com:  0.330D+00 0.516D+00
 Coeff:      0.831D-02-0.110D-01 0.968D-02 0.564D-02 0.325D-01 0.109D+00
 Coeff:      0.330D+00 0.516D+00
 Gap=     0.202 Goal=   None    Shift=    0.000
 RMSDP=5.24D-06 MaxDP=1.97D-04 DE=-4.02D-06 OVMax= 3.74D-04

 Initial convergence to 1.0D-05 achieved.  Increase integral accuracy.
 Cycle   9  Pass 1  IDiag  1:
 E= -3063.32742645460     Delta-E=       -0.000026654491 Rises=F Damp=F
 DIIS: error= 3.02D-05 at cycle   1 NSaved=   1.
 NSaved= 1 IEnMin= 1 EnMin= -3063.32742645460     IErMin= 1 ErrMin= 3.02D-05
 ErrMax= 3.02D-05  0.00D+00 EMaxC= 1.00D-01 BMatC= 1.37D-07 BMatP= 1.37D-07
 IDIUse=1 WtCom= 1.00D+00 WtEn= 0.00D+00
 Coeff-Com:  0.100D+01
 Coeff:      0.100D+01
 Gap=     0.202 Goal=   None    Shift=    0.000
 RMSDP=5.24D-06 MaxDP=1.97D-04 DE=-2.67D-05 OVMax= 2.18D-04

 Cycle  10  Pass 1  IDiag  1:
 RMSU=  7.77D-06    CP:  1.00D+00
 E= -3063.32742632715     Delta-E=        0.000000127447 Rises=F Damp=F
 DIIS: error= 2.29D-05 at cycle   2 NSaved=   2.
 NSaved= 2 IEnMin= 1 EnMin= -3063.32742645460     IErMin= 2 ErrMin= 2.29D-05
 ErrMax= 2.29D-05  0.00D+00 EMaxC= 1.00D-01 BMatC= 2.50D-07 BMatP= 1.37D-07
 IDIUse=1 WtCom= 1.00D+00 WtEn= 0.00D+00
 Coeff-Com:  0.589D+00 0.411D+00
 Coeff:      0.589D+00 0.411D+00
 Gap=     0.202 Goal=   None    Shift=    0.000
 RMSDP=2.91D-06 MaxDP=1.06D-04 DE= 1.27D-07 OVMax= 1.74D-04

 Cycle  11  Pass 1  IDiag  1:
 RMSU=  2.60D-06    CP:  1.00D+00  8.33D-01
 E= -3063.32742654143     Delta-E=       -0.000000214276 Rises=F Damp=F
 DIIS: error= 7.63D-06 at cycle   3 NSaved=   3.
 NSaved= 3 IEnMin= 3 EnMin= -3063.32742654143     IErMin= 3 ErrMin= 7.63D-06
 ErrMax= 7.63D-06  0.00D+00 EMaxC= 1.00D-01 BMatC= 2.28D-08 BMatP= 1.37D-07
 IDIUse=1 WtCom= 1.00D+00 WtEn= 0.00D+00
 Coeff-Com:  0.869D-01 0.234D+00 0.680D+00
 Coeff:      0.869D-01 0.234D+00 0.680D+00
 Gap=     0.202 Goal=   None    Shift=    0.000
 RMSDP=8.41D-07 MaxDP=2.71D-05 DE=-2.14D-07 OVMax= 4.53D-05

 Cycle  12  Pass 1  IDiag  1:
 RMSU=  5.75D-07    CP:  1.00D+00  8.77D-01  8.04D-01
 E= -3063.32742655838     Delta-E=       -0.000000016950 Rises=F Damp=F
 DIIS: error= 3.28D-06 at cycle   4 NSaved=   4.
 NSaved= 4 IEnMin= 4 EnMin= -3063.32742655838     IErMin= 4 ErrMin= 3.28D-06
 ErrMax= 3.28D-06  0.00D+00 EMaxC= 1.00D-01 BMatC= 4.09D-09 BMatP= 2.28D-08
 IDIUse=1 WtCom= 1.00D+00 WtEn= 0.00D+00
 Coeff-Com:  0.183D-02 0.109D+00 0.421D+00 0.467D+00
 Coeff:      0.183D-02 0.109D+00 0.421D+00 0.467D+00
 Gap=     0.202 Goal=   None    Shift=    0.000
 RMSDP=3.26D-07 MaxDP=1.11D-05 DE=-1.69D-08 OVMax= 1.81D-05

 Cycle  13  Pass 1  IDiag  1:
 RMSU=  1.21D-07    CP:  1.00D+00  8.80D-01  8.09D-01  4.75D-01
 E= -3063.32742656187     Delta-E=       -0.000000003497 Rises=F Damp=F
 DIIS: error= 6.92D-07 at cycle   5 NSaved=   5.
 NSaved= 5 IEnMin= 5 EnMin= -3063.32742656187     IErMin= 5 ErrMin= 6.92D-07
 ErrMax= 6.92D-07  0.00D+00 EMaxC= 1.00D-01 BMatC= 2.39D-10 BMatP= 4.09D-09
 IDIUse=1 WtCom= 1.00D+00 WtEn= 0.00D+00
 Coeff-Com: -0.215D-02 0.611D-01 0.242D+00 0.301D+00 0.398D+00
 Coeff:     -0.215D-02 0.611D-01 0.242D+00 0.301D+00 0.398D+00
 Gap=     0.202 Goal=   None    Shift=    0.000
 RMSDP=7.34D-08 MaxDP=2.20D-06 DE=-3.50D-09 OVMax= 4.13D-06

 Cycle  14  Pass 1  IDiag  1:
 RMSU=  3.68D-08    CP:  1.00D+00  8.79D-01  8.12D-01  4.87D-01  4.84D-01
 E= -3063.32742656214     Delta-E=       -0.000000000263 Rises=F Damp=F
 DIIS: error= 1.61D-07 at cycle   6 NSaved=   6.
 NSaved= 6 IEnMin= 6 EnMin= -3063.32742656214     IErMin= 6 ErrMin= 1.61D-07
 ErrMax= 1.61D-07  0.00D+00 EMaxC= 1.00D-01 BMatC= 1.04D-11 BMatP= 2.39D-10
 IDIUse=1 WtCom= 1.00D+00 WtEn= 0.00D+00
 Coeff-Com: -0.137D-02 0.295D-01 0.117D+00 0.150D+00 0.234D+00 0.471D+00
 Coeff:     -0.137D-02 0.295D-01 0.117D+00 0.150D+00 0.234D+00 0.471D+00
 Gap=     0.202 Goal=   None    Shift=    0.000
 RMSDP=1.78D-08 MaxDP=4.69D-07 DE=-2.63D-10 OVMax= 9.53D-07

 Cycle  15  Pass 1  IDiag  1:
 RMSU=  1.17D-08    CP:  1.00D+00  8.80D-01  8.11D-01  4.95D-01  5.05D-01
                    CP:  6.90D-01
 E= -3063.32742656213     Delta-E=        0.000000000001 Rises=F Damp=F
 DIIS: error= 3.44D-08 at cycle   7 NSaved=   7.
 NSaved= 7 IEnMin= 6 EnMin= -3063.32742656214     IErMin= 7 ErrMin= 3.44D-08
 ErrMax= 3.44D-08  0.00D+00 EMaxC= 1.00D-01 BMatC= 5.00D-13 BMatP= 1.04D-11
 IDIUse=1 WtCom= 1.00D+00 WtEn= 0.00D+00
 Coeff-Com: -0.358D-03 0.607D-02 0.237D-01 0.321D-01 0.563D-01 0.218D+00
 Coeff-Com:  0.664D+00
 Coeff:     -0.358D-03 0.607D-02 0.237D-01 0.321D-01 0.563D-01 0.218D+00
 Coeff:      0.664D+00
 Gap=     0.202 Goal=   None    Shift=    0.000
 RMSDP=4.01D-09 MaxDP=1.11D-07 DE= 9.09D-13 OVMax= 1.87D-07

 SCF Done:  E(RB3LYP) =  -3063.32742656     A.U. after   15 cycles
            NFock= 15  Conv=0.40D-08     -V/T= 2.0065
 KE= 3.043554885193D+03 PE=-8.929542767027D+03 EE= 1.997985114979D+03
 Leave Link  502 at Tue Sep 17 09:44:45 2024, MaxMem=  1342177280 cpu:              62.2 elap:               8.6
 (Enter /groups/ReismanLab/Software/Gaussian16_RevC/Linux_Binary_AVX2-enabled-CPU/g16/l508.exe)
 QCSCF skips out because SCF is already converged.
 Leave Link  508 at Tue Sep 17 09:44:45 2024, MaxMem=  1342177280 cpu:               0.0 elap:               0.0
 (Enter /groups/ReismanLab/Software/Gaussian16_RevC/Linux_Binary_AVX2-enabled-CPU/g16/l601.exe)
 Copying SCF densities to generalized density rwf, IOpCl= 0 IROHF=0.

 **********************************************************************

            Population analysis using the SCF Density.

 **********************************************************************

 Orbital symmetries:
       Occupied  (A) (A) (A) (A) (A) (A) (A) (A) (A) (A) (A) (A)
                 (A) (A) (A) (A) (A) (A) (A) (A) (A) (A) (A) (A)
                 (A) (A) (A) (A) (A) (A) (A) (A) (A) (A) (A) (A)
                 (A) (A) (A) (A) (A) (A) (A) (A) (A) (A) (A) (A)
                 (A) (A) (A) (A) (A)
       Virtual   (A) (A) (A) (A) (A) (A) (A) (A) (A) (A) (A) (A)
                 (A) (A) (A) (A) (A) (A) (A) (A) (A) (A) (A) (A)
                 (A) (A) (A) (A) (A) (A) (A) (A) (A) (A) (A) (A)
                 (A) (A) (A) (A) (A) (A) (A) (A) (A) (A) (A) (A)
                 (A) (A) (A) (A) (A) (A) (A) (A) (A) (A) (A) (A)
                 (A) (A) (A) (A) (A) (A) (A) (A) (A) (A) (A) (A)
                 (A) (A) (A) (A) (A) (A) (A) (A) (A) (A) (A) (A)
                 (A) (A) (A) (A) (A) (A) (A) (A) (A) (A) (A) (A)
                 (A) (A) (A) (A) (A) (A) (A) (A) (A) (A) (A) (A)
                 (A) (A) (A) (A) (A) (A) (A) (A) (A) (A) (A) (A)
                 (A) (A) (A) (A) (A) (A) (A) (A) (A) (A) (A) (A)
                 (A) (A) (A) (A) (A) (A) (A) (A) (A) (A) (A) (A)
                 (A) (A) (A) (A) (A) (A) (A) (A)
 The electronic state is 1-A.
 Alpha  occ. eigenvalues -- -482.91370 -61.87612 -56.39739 -56.39340 -56.39314
 Alpha  occ. eigenvalues --  -19.21565 -19.15726 -14.36324 -14.36056 -10.33596
 Alpha  occ. eigenvalues --  -10.31676 -10.27401 -10.26342 -10.25472 -10.22928
 Alpha  occ. eigenvalues --   -8.58844  -6.54261  -6.53018  -6.52879  -2.65845
 Alpha  occ. eigenvalues --   -2.65508  -2.65398  -2.64406  -2.64403  -1.13235
 Alpha  occ. eigenvalues --   -1.04272  -1.02768  -0.92635  -0.84467  -0.77970
 Alpha  occ. eigenvalues --   -0.75910  -0.69444  -0.66714  -0.59754  -0.55707
 Alpha  occ. eigenvalues --   -0.55217  -0.50096  -0.49517  -0.49109  -0.47090
 Alpha  occ. eigenvalues --   -0.46052  -0.43856  -0.42459  -0.40742  -0.37394
 Alpha  occ. eigenvalues --   -0.34495  -0.33781  -0.32479  -0.32163  -0.30375
 Alpha  occ. eigenvalues --   -0.28942  -0.27304  -0.26499
 Alpha virt. eigenvalues --   -0.06282  -0.04744  -0.00399   0.02145   0.09191
 Alpha virt. eigenvalues --    0.10549   0.10821   0.13195   0.14474   0.15392
 Alpha virt. eigenvalues --    0.15958   0.19802   0.23753   0.25845   0.27193
 Alpha virt. eigenvalues --    0.28117   0.31029   0.33872   0.35755   0.38007
 Alpha virt. eigenvalues --    0.43402   0.45468   0.45700   0.46657   0.47011
 Alpha virt. eigenvalues --    0.47704   0.48472   0.49863   0.50759   0.51046
 Alpha virt. eigenvalues --    0.52102   0.54274   0.55653   0.56602   0.57986
 Alpha virt. eigenvalues --    0.61166   0.62242   0.62893   0.65194   0.65923
 Alpha virt. eigenvalues --    0.67695   0.70958   0.73707   0.74633   0.77772
 Alpha virt. eigenvalues --    0.78427   0.79493   0.80881   0.81686   0.82619
 Alpha virt. eigenvalues --    0.83218   0.84729   0.85694   0.88015   0.88034
 Alpha virt. eigenvalues --    0.90001   0.92640   0.95591   0.96847   0.98283
 Alpha virt. eigenvalues --    1.03387   1.05028   1.06175   1.12197   1.13136
 Alpha virt. eigenvalues --    1.18288   1.19299   1.21688   1.23898   1.31603
 Alpha virt. eigenvalues --    1.32673   1.38446   1.41582   1.42788   1.46695
 Alpha virt. eigenvalues --    1.48092   1.48750   1.55083   1.56038   1.57662
 Alpha virt. eigenvalues --    1.59047   1.62752   1.63587   1.68977   1.74154
 Alpha virt. eigenvalues --    1.76659   1.79709   1.80957   1.83127   1.84870
 Alpha virt. eigenvalues --    1.87330   1.89661   1.90061   1.91809   1.95144
 Alpha virt. eigenvalues --    1.96590   1.99642   2.00485   2.02930   2.05778
 Alpha virt. eigenvalues --    2.08033   2.09571   2.10091   2.17629   2.19639
 Alpha virt. eigenvalues --    2.25291   2.28959   2.31156   2.32716   2.34669
 Alpha virt. eigenvalues --    2.39255   2.40900   2.43094   2.46795   2.48839
 Alpha virt. eigenvalues --    2.50368   2.52077   2.55024   2.56220   2.60215
 Alpha virt. eigenvalues --    2.65712   2.66338   2.69584   2.73039   2.75363
 Alpha virt. eigenvalues --    2.82977   2.84162   2.88990   2.91284   2.95318
 Alpha virt. eigenvalues --    2.99595   3.03558   3.17344   3.19228   3.19725
 Alpha virt. eigenvalues --    3.23536   3.28084   3.40355   3.41028   3.69299
 Alpha virt. eigenvalues --    4.00383   4.03121   4.06965   4.11648   4.22043
 Alpha virt. eigenvalues --    4.25774   4.28972   4.37764   4.46251   4.65475
 Alpha virt. eigenvalues --    8.59559  72.69667
          Condensed to atoms (all electrons):
               1          2          3          4          5          6
     1  C    4.742466   0.207947  -0.020933   0.000084   0.007656  -0.000518
     2  O    0.207947   8.225782   0.267373  -0.079931  -0.100768   0.008288
     3  C   -0.020933   0.267373   4.448248   0.568757   0.307305  -0.062454
     4  O    0.000084  -0.079931   0.568757   7.996430  -0.062807   0.000784
     5  C    0.007656  -0.100768   0.307305  -0.062807   4.818913   0.465808
     6  C   -0.000518   0.008288  -0.062454   0.000784   0.465808   5.032985
     7  C    0.000005   0.000121   0.003954  -0.000050  -0.029596   0.467255
     8  N   -0.000000   0.000003   0.000050   0.000001  -0.037218  -0.033231
     9  C    0.000007  -0.000125   0.006249   0.000010  -0.043694  -0.050118
    10  Br  -0.000000   0.000001  -0.000229   0.000002   0.004872   0.000913
    11  N   -0.000086  -0.001159  -0.058302  -0.000741   0.460909  -0.035052
    12  H    0.382410  -0.030702  -0.007797   0.013184   0.000260   0.000005
    13  H    0.390691  -0.032870   0.004468   0.000595  -0.000157  -0.000010
    14  H    0.387598  -0.031850  -0.003028   0.001639  -0.000195   0.000013
    15  H   -0.000055   0.001082  -0.002261   0.000053  -0.036320   0.364038
    16  H   -0.000000   0.000000  -0.000103   0.000001   0.003791  -0.064257
               7          8          9         10         11         12
     1  C    0.000005  -0.000000   0.000007  -0.000000  -0.000086   0.382410
     2  O    0.000121   0.000003  -0.000125   0.000001  -0.001159  -0.030702
     3  C    0.003954   0.000050   0.006249  -0.000229  -0.058302  -0.007797
     4  O   -0.000050   0.000001   0.000010   0.000002  -0.000741   0.013184
     5  C   -0.029596  -0.037218  -0.043694   0.004872   0.460909   0.000260
     6  C    0.467255  -0.033231  -0.050118   0.000913  -0.035052   0.000005
     7  C    4.694998   0.477200  -0.058466   0.004520  -0.037529   0.000000
     8  N    0.477200   6.772570   0.418219  -0.085420  -0.063647  -0.000000
     9  C   -0.058466   0.418219   4.606694   0.310695   0.410498   0.000001
    10  Br   0.004520  -0.085420   0.310695  34.906555  -0.084484  -0.000000
    11  N   -0.037529  -0.063647   0.410498  -0.084484   6.837299  -0.000002
    12  H    0.000000  -0.000000   0.000001  -0.000000  -0.000002   0.558957
    13  H    0.000000   0.000000  -0.000000   0.000000   0.000006  -0.028397
    14  H   -0.000001   0.000000  -0.000000  -0.000000  -0.000008  -0.035672
    15  H   -0.031394   0.004196   0.000407   0.000023   0.004348   0.000002
    16  H    0.393598  -0.052880   0.005936  -0.000206  -0.000320  -0.000000
              13         14         15         16
     1  C    0.390691   0.387598  -0.000055  -0.000000
     2  O   -0.032870  -0.031850   0.001082   0.000000
     3  C    0.004468  -0.003028  -0.002261  -0.000103
     4  O    0.000595   0.001639   0.000053   0.000001
     5  C   -0.000157  -0.000195  -0.036320   0.003791
     6  C   -0.000010   0.000013   0.364038  -0.064257
     7  C    0.000000  -0.000001  -0.031394   0.393598
     8  N    0.000000   0.000000   0.004196  -0.052880
     9  C   -0.000000  -0.000000   0.000407   0.005936
    10  Br   0.000000  -0.000000   0.000023  -0.000206
    11  N    0.000006  -0.000008   0.004348  -0.000320
    12  H   -0.028397  -0.035672   0.000002  -0.000000
    13  H    0.568925  -0.035278   0.000002  -0.000000
    14  H   -0.035278   0.586567  -0.000007   0.000000
    15  H    0.000002  -0.000007   0.580473  -0.002188
    16  H   -0.000000   0.000000  -0.002188   0.591524
 Mulliken charges:
               1
     1  C   -0.097271
     2  O   -0.433190
     3  C    0.548704
     4  O   -0.438010
     5  C    0.241243
     6  C   -0.094447
     7  C    0.115387
     8  N   -0.399844
     9  C    0.393688
    10  Br  -0.057241
    11  N   -0.431729
    12  H    0.147753
    13  H    0.132028
    14  H    0.130222
    15  H    0.117603
    16  H    0.125103
 Sum of Mulliken charges =  -0.00000
 Mulliken charges with hydrogens summed into heavy atoms:
               1
     1  C    0.312733
     2  O   -0.433190
     3  C    0.548704
     4  O   -0.438010
     5  C    0.241243
     6  C    0.023156
     7  C    0.240490
     8  N   -0.399844
     9  C    0.393688
    10  Br  -0.057241
    11  N   -0.431729
 Electronic spatial extent (au):  <R**2>=           3007.5851
 Charge=             -0.0000 electrons
 Dipole moment (field-independent basis, Debye):
    X=             -3.3877    Y=              2.1594    Z=             -1.6064  Tot=              4.3267
 Quadrupole moment (field-independent basis, Debye-Ang):
   XX=            -64.8294   YY=            -67.8965   ZZ=            -77.3514
   XY=             -2.6573   XZ=              6.1043   YZ=              3.1861
 Traceless Quadrupole moment (field-independent basis, Debye-Ang):
   XX=              5.1964   YY=              2.1293   ZZ=             -7.3257
   XY=             -2.6573   XZ=              6.1043   YZ=              3.1861
 Octapole moment (field-independent basis, Debye-Ang**2):
  XXX=             -5.2207  YYY=             -7.6448  ZZZ=             -7.8532  XYY=             10.4031
  XXY=            -28.9179  XXZ=            -22.1034  XZZ=             28.3434  YZZ=             -8.1029
  YYZ=             -2.7766  XYZ=             -8.8624
 Hexadecapole moment (field-independent basis, Debye-Ang**3):
 XXXX=          -2236.4074 YYYY=           -561.5281 ZZZZ=           -193.2864 XXXY=            -35.7775
 XXXZ=             77.9665 YYYX=            -55.9393 YYYZ=             -0.9968 ZZZX=             12.9882
 ZZZY=              6.2907 XXYY=           -511.4454 XXZZ=           -479.3002 YYZZ=           -143.6885
 XXYZ=             35.2883 YYXZ=              3.0523 ZZXY=            -17.6990
 N-N= 8.246753402933D+02 E-N=-8.929542766244D+03  KE= 3.043554885193D+03
 No NMR shielding tensors so no spin-rotation constants.
 Leave Link  601 at Tue Sep 17 09:44:45 2024, MaxMem=  1342177280 cpu:               0.5 elap:               0.1
 (Enter /groups/ReismanLab/Software/Gaussian16_RevC/Linux_Binary_AVX2-enabled-CPU/g16/l701.exe)
 ... and contract with generalized density number  0.
 Compute integral first derivatives.
 R6Disp: Adding Grimme-D3(BJ) dispersion energy 1st derivatives to the gradient.
 Leave Link  701 at Tue Sep 17 09:44:45 2024, MaxMem=  1342177280 cpu:               0.5 elap:               0.1
 (Enter /groups/ReismanLab/Software/Gaussian16_RevC/Linux_Binary_AVX2-enabled-CPU/g16/l702.exe)
 L702 exits ... SP integral derivatives will be done elsewhere.
 Leave Link  702 at Tue Sep 17 09:44:45 2024, MaxMem=  1342177280 cpu:               0.1 elap:               0.0
 (Enter /groups/ReismanLab/Software/Gaussian16_RevC/Linux_Binary_AVX2-enabled-CPU/g16/l703.exe)
 Integral derivatives from FoFJK, PRISM(SPDF).
 Compute integral first derivatives, UseDBF=F ICtDFT=           0.
 Calling FoFJK, ICntrl=      2127 FMM=F ISym2X=0 I1Cent= 0 IOpClX= 0 NMat=1 NMatS=1 NMatT=0.
 FoFJK:  IHMeth= 1 ICntrl=    2127 DoSepK=F KAlg= 0 I1Cent=           0 FoldK=F
 IRaf=         0 NMat=       1 IRICut=       1 DoRegI=T DoRafI=F ISym2E= 0 IDoP0=0 IntGTp=1.
 FoFCou: FMM=F IPFlag=           0 FMFlag=      100000 FMFlg1=         800
         NFxFlg=           0 DoJE=F BraDBF=F KetDBF=F FulRan=T
         wScrn=  0.000000 ICntrl=      2127 IOpCl=  0 I1Cent=           0 NGrid=           0
         NMat0=    1 NMatS0=      1 NMatT0=    0 NMatD0=    1 NMtDS0=    0 NMtDT0=    0
 Symmetry not used in FoFCou.
 Leave Link  703 at Tue Sep 17 09:44:48 2024, MaxMem=  1342177280 cpu:              18.4 elap:               2.4
 (Enter /groups/ReismanLab/Software/Gaussian16_RevC/Linux_Binary_AVX2-enabled-CPU/g16/l716.exe)
 Dipole        =-1.33282603D+00 8.49569437D-01-6.32018374D-01
 ***** Axes restored to original set *****
 -------------------------------------------------------------------
 Center     Atomic                   Forces (Hartrees/Bohr)
 Number     Number              X              Y              Z
 -------------------------------------------------------------------
      1        6           0.006055004   -0.004583463   -0.003596932
      2        8          -0.003305341    0.001428384    0.013499653
      3        6          -0.008855166    0.006113915    0.005596195
      4        8           0.005246906   -0.003268464   -0.017024984
      5        6           0.006323804    0.006817586    0.003157039
      6        6           0.002841192   -0.000046053    0.000602055
      7        6           0.009195985    0.004123009    0.001697712
      8        7          -0.018536372    0.006485546    0.001741363
      9        6           0.001884750    0.000011456    0.000284388
     10       35          -0.011242778   -0.006195217   -0.002900415
     11        7           0.001928327   -0.016911973   -0.007771877
     12        1           0.000845234   -0.000530525    0.000229271
     13        1           0.000211450   -0.000218618    0.001616012
     14        1           0.001411740    0.000432882   -0.000253355
     15        1           0.003943049    0.002275058    0.001515121
     16        1           0.002052216    0.004066478    0.001608755
 -------------------------------------------------------------------
 Cartesian Forces:  Max     0.018536372 RMS     0.006321782
 Leave Link  716 at Tue Sep 17 09:44:48 2024, MaxMem=  1342177280 cpu:               0.1 elap:               0.0
 (Enter /groups/ReismanLab/Software/Gaussian16_RevC/Linux_Binary_AVX2-enabled-CPU/g16/l103.exe)

 GradGradGradGradGradGradGradGradGradGradGradGradGradGradGradGradGradGrad
 Berny optimization.
 FormGI is forming the generalized inverse of G from B-inverse, IUseBI=4.
 Internal  Forces:  Max     0.018080863 RMS     0.005377143
 Search for a local minimum.
 Step number   1 out of a maximum of   75
 All quantities printed in internal units (Hartrees-Bohrs-Radians)
 RMS Force = .53771D-02 SwitMx=.10000D-02 MixMth= 1
 Mixed Optimization -- RFO/linear search
 Second derivative matrix not updated -- first step.
 ITU=  0
     Eigenvalues ---    0.00657   0.01329   0.01355   0.01752   0.02210
     Eigenvalues ---    0.02286   0.02388   0.02598   0.02621   0.02782
     Eigenvalues ---    0.02809   0.10325   0.10638   0.16000   0.16000
     Eigenvalues ---    0.16000   0.16000   0.16000   0.19589   0.22428
     Eigenvalues ---    0.24445   0.24994   0.24997   0.24999   0.25000
     Eigenvalues ---    0.25000   0.25000   0.31525   0.34638   0.34686
     Eigenvalues ---    0.35163   0.35784   0.36412   0.41651   0.44527
     Eigenvalues ---    0.46300   0.57067   0.59569   0.59762   0.61132
     Eigenvalues ---    0.62831   1.05753
 RFO step:  Lambda=-4.15234464D-03 EMin= 6.56587042D-03
 Linear search not attempted -- first point.
 Iteration  1 RMS(Cart)=  0.06457083 RMS(Int)=  0.00205394
 Iteration  2 RMS(Cart)=  0.00237844 RMS(Int)=  0.00002026
 Iteration  3 RMS(Cart)=  0.00000419 RMS(Int)=  0.00002010
 Iteration  4 RMS(Cart)=  0.00000000 RMS(Int)=  0.00002010
 ITry= 1 IFail=0 DXMaxC= 1.88D-01 DCOld= 1.00D+10 DXMaxT= 3.00D-01 DXLimC= 3.00D+00 Rises=F
 Variable       Old X    -DE/DX   Delta X   Delta X   Delta X     New X
                                 (Linear)    (Quad)   (Total)
    R1        2.69370   0.00995   0.00000   0.02365   0.02365   2.71735
    R2        2.06187   0.00012   0.00000   0.00034   0.00034   2.06221
    R3        2.05411   0.00151   0.00000   0.00425   0.00425   2.05836
    R4        2.06267   0.00138   0.00000   0.00395   0.00395   2.06662
    R5        2.51283   0.01308   0.00000   0.02181   0.02181   2.53464
    R6        2.26419   0.01804   0.00000   0.01700   0.01700   2.28119
    R7        2.85021   0.00167   0.00000   0.00522   0.00522   2.85543
    R8        2.63238   0.00350   0.00000   0.00574   0.00573   2.63812
    R9        2.50354   0.01384   0.00000   0.02239   0.02239   2.52593
   R10        2.62418   0.00472   0.00000   0.00853   0.00851   2.63269
   R11        2.03442   0.00478   0.00000   0.01297   0.01297   2.04739
   R12        2.49789   0.01808   0.00000   0.02945   0.02945   2.52733
   R13        2.04421   0.00414   0.00000   0.01143   0.01143   2.05564
   R14        2.48536   0.01501   0.00000   0.02491   0.02492   2.51028
   R15        3.54111   0.01316   0.00000   0.06578   0.06578   3.60690
   R16        2.48656   0.01425   0.00000   0.02356   0.02358   2.51014
    A1        1.92232   0.00165   0.00000   0.01084   0.01083   1.93315
    A2        1.85713  -0.00089   0.00000  -0.00610  -0.00610   1.85103
    A3        1.91673   0.00062   0.00000   0.00367   0.00365   1.92038
    A4        1.93589  -0.00019   0.00000  -0.00090  -0.00090   1.93500
    A5        1.90522  -0.00063   0.00000  -0.00251  -0.00254   1.90268
    A6        1.92624  -0.00052   0.00000  -0.00487  -0.00488   1.92137
    A7        2.03524  -0.00104   0.00000  -0.00408  -0.00408   2.03116
    A8        2.19274   0.00093   0.00000   0.00370   0.00369   2.19642
    A9        1.92322   0.00072   0.00000   0.00289   0.00288   1.92610
   A10        2.16707  -0.00165   0.00000  -0.00643  -0.00644   2.16063
   A11        2.12036  -0.00173   0.00000  -0.00493  -0.00494   2.11542
   A12        2.03807  -0.00238   0.00000  -0.00749  -0.00750   2.03056
   A13        2.12442   0.00411   0.00000   0.01211   0.01207   2.13649
   A14        2.02724   0.00079   0.00000  -0.00344  -0.00347   2.02377
   A15        2.12430  -0.00019   0.00000   0.00299   0.00300   2.12731
   A16        2.13163  -0.00060   0.00000   0.00046   0.00047   2.13210
   A17        2.12921   0.00206   0.00000   0.00667   0.00665   2.13586
   A18        2.13473  -0.00358   0.00000  -0.01887  -0.01886   2.11586
   A19        2.01925   0.00152   0.00000   0.01219   0.01220   2.03145
   A20        2.03158  -0.00328   0.00000  -0.00805  -0.00803   2.02355
   A21        2.03325   0.00014   0.00000  -0.00185  -0.00187   2.03138
   A22        2.22222  -0.00070   0.00000   0.00206   0.00208   2.22430
   A23        2.02771   0.00056   0.00000  -0.00019  -0.00021   2.02750
   A24        2.03166  -0.00298   0.00000  -0.00939  -0.00936   2.02230
    D1       -0.65882  -0.00072   0.00000  -0.03302  -0.03305  -0.69187
    D2       -2.75832  -0.00088   0.00000  -0.03432  -0.03431  -2.79263
    D3        1.43998  -0.00007   0.00000  -0.02695  -0.02693   1.41305
    D4       -0.03044  -0.00011   0.00000  -0.00131  -0.00128  -0.03172
    D5        3.13002  -0.00025   0.00000  -0.01053  -0.01055   3.11946
    D6        1.27748  -0.00080   0.00000  -0.08110  -0.08115   1.19632
    D7       -1.89150  -0.00100   0.00000  -0.09336  -0.09333  -1.98483
    D8       -1.84559  -0.00097   0.00000  -0.09029  -0.09032  -1.93591
    D9        1.26862  -0.00117   0.00000  -0.10255  -0.10250   1.16612
   D10        3.10673  -0.00037   0.00000  -0.01439  -0.01442   3.09231
   D11       -0.03047  -0.00039   0.00000  -0.01558  -0.01561  -0.04608
   D12       -0.00612  -0.00005   0.00000  -0.00121  -0.00117  -0.00729
   D13        3.13987  -0.00007   0.00000  -0.00240  -0.00236   3.13750
   D14       -3.11439   0.00022   0.00000   0.00935   0.00938  -3.10501
   D15       -0.00025  -0.00008   0.00000  -0.00322  -0.00324  -0.00350
   D16        0.00733   0.00012   0.00000   0.00410   0.00410   0.01143
   D17       -3.13695   0.00006   0.00000   0.00182   0.00183  -3.13513
   D18       -3.13868   0.00014   0.00000   0.00530   0.00530  -3.13338
   D19        0.00023   0.00008   0.00000   0.00302   0.00303   0.00326
   D20       -0.00204  -0.00006   0.00000  -0.00229  -0.00230  -0.00434
   D21       -3.14111   0.00001   0.00000  -0.00011  -0.00009  -3.14120
   D22        3.13247   0.00013   0.00000   0.00452   0.00451   3.13699
   D23       -0.00544  -0.00009   0.00000  -0.00288  -0.00289  -0.00832
   D24        0.00657   0.00015   0.00000   0.00562   0.00561   0.01218
   D25       -3.13135  -0.00007   0.00000  -0.00177  -0.00178  -3.13312
         Item               Value     Threshold  Converged?
 Maximum Force            0.018081     0.000450     NO 
 RMS     Force            0.005377     0.000300     NO 
 Maximum Displacement     0.188348     0.001800     NO 
 RMS     Displacement     0.065315     0.001200     NO 
 Predicted change in Energy=-2.174838D-03
 Lowest energy point so far.  Saving SCF results.
 GradGradGradGradGradGradGradGradGradGradGradGradGradGradGradGradGradGrad

 Leave Link  103 at Tue Sep 17 09:44:48 2024, MaxMem=  1342177280 cpu:               0.1 elap:               0.0
 (Enter /groups/ReismanLab/Software/Gaussian16_RevC/Linux_Binary_AVX2-enabled-CPU/g16/l202.exe)
                          Input orientation:                          
 ---------------------------------------------------------------------
 Center     Atomic      Atomic             Coordinates (Angstroms)
 Number     Number       Type             X           Y           Z
 ---------------------------------------------------------------------
      1          6           0        4.382745   -1.434796    0.865963
      2          8           0        3.158727   -0.689257    0.982950
      3          6           0        2.547225   -0.363659   -0.165557
      4          8           0        2.949135   -0.613782   -1.276020
      5          6           0        1.265881    0.386287    0.115411
      6          6           0        1.284772    1.673793    0.654737
      7          6           0        0.043811    2.286974    0.812593
      8          7           0       -1.101709    1.680700    0.482628
      9          6           0       -0.987905    0.453365   -0.012654
     10         35           0       -2.615535   -0.426898   -0.480681
     11          7           0        0.130289   -0.231811   -0.223794
     12          1           0        4.306883   -2.181069    0.073369
     13          1           0        4.539284   -1.910618    1.833192
     14          1           0        5.212781   -0.759207    0.641019
     15          1           0        2.210139    2.165371    0.930178
     16          1           0       -0.040862    3.292315    1.219311
 ---------------------------------------------------------------------
                    Distance matrix (angstroms):
                    1          2          3          4          5
     1  C    0.000000
     2  O    1.437961   0.000000
     3  C    2.362308   1.341275   0.000000
     4  O    2.705068   2.269928   1.207154   0.000000
     5  C    3.687073   2.343562   1.511028   2.401991   0.000000
     6  C    4.393789   3.033717   2.533354   3.425044   1.396030
     7  C    5.716710   4.311575   3.774880   4.606257   2.364769
     8  N    6.319216   4.900851   4.232525   4.976628   2.723204
     9  C    5.760295   4.414904   3.631536   4.270267   2.258418
    10  Br   7.197585   5.962647   5.172755   5.624326   4.010236
    11  N    4.551717   3.291949   2.421230   3.032981   1.336666
    12  H    1.091276   2.090718   2.540957   2.474009   3.980047
    13  H    1.089240   2.029919   3.218133   3.725260   4.352207
    14  H    1.093609   2.083494   2.812865   2.969896   4.143240
    15  H    4.205418   3.008572   2.776735   3.624516   2.172696
    16  H    6.483728   5.113331   4.688518   5.515827   3.372117
                    6          7          8          9         10
     6  C    0.000000
     7  C    1.393160   0.000000
     8  N    2.392689   1.337408   0.000000
     9  C    2.664566   2.259998   1.328385   0.000000
    10  Br   4.573234   4.013699   2.767961   1.908689   0.000000
    11  N    2.394989   2.725042   2.382131   1.328309   2.764706
    12  H    4.932657   6.219618   6.658350   5.914594   7.162678
    13  H    4.982831   6.234635   6.822198   6.288512   7.664651
    14  H    4.620490   6.002242   6.771338   6.351860   7.915249
    15  H    1.083430   2.172922   3.376913   3.747984   5.656635
    16  H    2.166948   1.087796   2.065284   3.236397   4.832335
                   11         12         13         14         15
    11  N    0.000000
    12  H    4.618642   0.000000
    13  H    5.146730   1.795587   0.000000
    14  H    5.182449   1.778924   1.789029   0.000000
    15  H    3.376967   4.901224   4.780589   4.201503   0.000000
    16  H    3.811995   7.083361   6.958814   6.659580   2.533891
                   16
    16  H    0.000000
 Stoichiometry    C6H5BrN2O2
 Framework group  C1[X(C6H5BrN2O2)]
 Deg. of freedom    42
 Full point group                 C1      NOp   1
 RotChk:  IX=0 Diff= 6.65D-02
 Largest Abelian subgroup         C1      NOp   1
 Largest concise Abelian subgroup C1      NOp   1
                         Standard orientation:                         
 ---------------------------------------------------------------------
 Center     Atomic      Atomic             Coordinates (Angstroms)
 Number     Number       Type             X           Y           Z
 ---------------------------------------------------------------------
      1          6           0       -4.402178   -0.876710   -0.699626
      2          8           0       -3.136732   -0.194305   -0.726165
      3          6           0       -2.367074   -0.323462    0.364690
      4          8           0       -2.657135   -0.931144    1.366592
      5          6           0       -1.063803    0.418374    0.179303
      6          6           0       -1.026808    1.812825    0.124178
      7          6           0        0.238353    2.385213    0.011778
      8          7           0        1.353713    1.650123   -0.053615
      9          6           0        1.185903    0.333480    0.000223
     10         35           0        2.768844   -0.728294   -0.099918
     11          7           0        0.041733   -0.330577    0.119835
     12          1           0       -4.303050   -1.857445   -0.231423
     13          1           0       -4.714578   -0.972615   -1.738689
     14          1           0       -5.134001   -0.287163   -0.140294
     15          1           0       -1.928687    2.411484    0.169377
     16          1           0        0.367240    3.464457   -0.032052
 ---------------------------------------------------------------------
 Rotational constants (GHZ):           1.7461802           0.3716694           0.3263866
 Leave Link  202 at Tue Sep 17 09:44:48 2024, MaxMem=  1342177280 cpu:               0.1 elap:               0.0
 (Enter /groups/ReismanLab/Software/Gaussian16_RevC/Linux_Binary_AVX2-enabled-CPU/g16/l301.exe)
 Standard basis: 6-31G(d,p) (6D, 7F)
 Ernie: Thresh=  0.10000D-02 Tol=  0.10000D-05 Strict=F.
 There are   205 symmetry adapted cartesian basis functions of A   symmetry.
 There are   205 symmetry adapted basis functions of A   symmetry.
   205 basis functions,   398 primitive gaussians,   205 cartesian basis functions
    53 alpha electrons       53 beta electrons
       nuclear repulsion energy       817.1986746826 Hartrees.
 IExCor=  402 DFT=T Ex+Corr=B3LYP ExCW=0 ScaHFX=  0.200000
 ScaDFX=  0.800000  0.720000  1.000000  0.810000 ScalE2=  1.000000  1.000000
 IRadAn=      5 IRanWt=     -1 IRanGd=            0 ICorTp=0 IEmpDi=141
 NAtoms=   16 NActive=   16 NUniq=   16 SFac= 1.00D+00 NAtFMM=   60 NAOKFM=F Big=F
 Integral buffers will be    131072 words long.
 Raffenetti 2 integral format.
 Two-electron integral symmetry is turned on.
 R6Disp:  Grimme-D3(BJ) Dispersion energy=       -0.0304321750 Hartrees.
 Nuclear repulsion after empirical dispersion term =      817.1682425075 Hartrees.
 Leave Link  301 at Tue Sep 17 09:44:48 2024, MaxMem=  1342177280 cpu:               0.1 elap:               0.1
 (Enter /groups/ReismanLab/Software/Gaussian16_RevC/Linux_Binary_AVX2-enabled-CPU/g16/l302.exe)
 NPDir=0 NMtPBC=     1 NCelOv=     1 NCel=       1 NClECP=     1 NCelD=      1
         NCelK=      1 NCelE2=     1 NClLst=     1 CellRange=     0.0.
 One-electron integrals computed using PRISM.
 One-electron integral symmetry used in STVInt
 NBasis=   205 RedAO= T EigKep=  7.55D-04  NBF=   205
 NBsUse=   205 1.00D-06 EigRej= -1.00D+00 NBFU=   205
 Precomputing XC quadrature grid using
 IXCGrd= 4 IRadAn=           5 IRanWt=          -1 IRanGd=           0 AccXCQ= 0.00D+00.
 Generated NRdTot=       0 NPtTot=           0 NUsed=           0 NTot=          32
 NSgBfM=   204   204   204   204   204 MxSgAt=    16 MxSgA2=    16.
 Leave Link  302 at Tue Sep 17 09:44:48 2024, MaxMem=  1342177280 cpu:               0.9 elap:               0.2
 (Enter /groups/ReismanLab/Software/Gaussian16_RevC/Linux_Binary_AVX2-enabled-CPU/g16/l303.exe)
 DipDrv:  MaxL=1.
 Leave Link  303 at Tue Sep 17 09:44:48 2024, MaxMem=  1342177280 cpu:               0.1 elap:               0.0
 (Enter /groups/ReismanLab/Software/Gaussian16_RevC/Linux_Binary_AVX2-enabled-CPU/g16/l401.exe)
 Initial guess from the checkpoint file:  "smiles_00126_conf_3.chk"
 B after Tr=     0.000000   -0.000000   -0.000000
         Rot=    0.999846   -0.017160   -0.001896   -0.003019 Ang=  -2.01 deg.
 Guess basis will be translated and rotated to current coordinates.
 JPrj=2 DoOrth=T DoCkMO=T.
 Generating alternative initial guess.
 ExpMin= 1.43D-01 ExpMax= 5.74D+05 ExpMxC= 5.74D+03 IAcc=3 IRadAn=         5 AccDes= 0.00D+00
 Harris functional with IExCor=  402 and IRadAn=       5 diagonalized for initial guess.
 HarFok:  IExCor=  402 AccDes= 0.00D+00 IRadAn=         5 IDoV= 1 UseB2=F ITyADJ=14
 ICtDFT=  3500011 ScaDFX=  1.000000  1.000000  1.000000  1.000000
 FoFCou: FMM=F IPFlag=           0 FMFlag=      100000 FMFlg1=           0
         NFxFlg=           0 DoJE=T BraDBF=F KetDBF=T FulRan=T
         wScrn=  0.000000 ICntrl=       500 IOpCl=  0 I1Cent=   200000004 NGrid=           0
         NMat0=    1 NMatS0=      1 NMatT0=    0 NMatD0=    1 NMtDS0=    0 NMtDT0=    0
 Petite list used in FoFCou.
 Harris En= -3063.40554900225    
 Leave Link  401 at Tue Sep 17 09:44:49 2024, MaxMem=  1342177280 cpu:               3.4 elap:               0.5
 (Enter /groups/ReismanLab/Software/Gaussian16_RevC/Linux_Binary_AVX2-enabled-CPU/g16/l502.exe)
 Integral symmetry usage will be decided dynamically.
 Closed shell SCF:
 Using DIIS extrapolation, IDIIS=  1040.
 NGot=  1342177280 LenX=  1342089058 LenY=  1342046592
 Requested convergence on RMS density matrix=1.00D-08 within  32 cycles.
 Requested convergence on MAX density matrix=1.00D-06.
 Requested convergence on             energy=1.00D-06.
 No special actions if energy rises.
 Fock matrices will be formed incrementally for  20 cycles.
 Integral accuracy reduced to 1.0D-05 until final iterations.

 Cycle   1  Pass 0  IDiag  1:
 FoFJK:  IHMeth= 1 ICntrl=       0 DoSepK=F KAlg= 0 I1Cent=           0 FoldK=F
 IRaf= 840000000 NMat=       1 IRICut=       1 DoRegI=T DoRafI=F ISym2E= 0 IDoP0=0 IntGTp=1.
 FoFCou: FMM=F IPFlag=           0 FMFlag=      100000 FMFlg1=           0
         NFxFlg=           0 DoJE=F BraDBF=F KetDBF=F FulRan=T
         wScrn=  0.000000 ICntrl=         0 IOpCl=  0 I1Cent=           0 NGrid=           0
         NMat0=    1 NMatS0=      1 NMatT0=    0 NMatD0=    1 NMtDS0=    0 NMtDT0=    0
 Symmetry not used in FoFCou.
 E= -3063.31970481180    
 DIIS: error= 4.47D-03 at cycle   1 NSaved=   1.
 NSaved= 1 IEnMin= 1 EnMin= -3063.31970481180     IErMin= 1 ErrMin= 4.47D-03
 ErrMax= 4.47D-03  0.00D+00 EMaxC= 1.00D-01 BMatC= 8.61D-03 BMatP= 8.61D-03
 IDIUse=3 WtCom= 9.55D-01 WtEn= 4.47D-02
 Coeff-Com:  0.100D+01
 Coeff-En:   0.100D+01
 Coeff:      0.100D+01
 Gap=     1.514 Goal=   None    Shift=    0.000
 GapD=    1.514 DampG=2.000 DampE=1.000 DampFc=2.0000 IDamp=-1.
 RMSDP=6.12D-04 MaxDP=1.61D-02              OVMax= 2.69D-02

 Cycle   2  Pass 0  IDiag  1:
 RMSU=  6.12D-04    CP:  1.00D+00
 E= -3063.32938045783     Delta-E=       -0.009675646028 Rises=F Damp=F
 DIIS: error= 5.90D-04 at cycle   2 NSaved=   2.
 NSaved= 2 IEnMin= 2 EnMin= -3063.32938045783     IErMin= 2 ErrMin= 5.90D-04
 ErrMax= 5.90D-04  0.00D+00 EMaxC= 1.00D-01 BMatC= 2.27D-04 BMatP= 8.61D-03
 IDIUse=3 WtCom= 9.94D-01 WtEn= 5.90D-03
 Coeff-Com: -0.964D-02 0.101D+01
 Coeff-En:   0.000D+00 0.100D+01
 Coeff:     -0.959D-02 0.101D+01
 Gap=     0.200 Goal=   None    Shift=    0.000
 RMSDP=1.89D-04 MaxDP=5.68D-03 DE=-9.68D-03 OVMax= 8.69D-03

 Cycle   3  Pass 0  IDiag  1:
 RMSU=  1.83D-04    CP:  1.00D+00  1.08D+00
 E= -3063.32910794945     Delta-E=        0.000272508380 Rises=F Damp=F
 DIIS: error= 1.43D-03 at cycle   3 NSaved=   3.
 NSaved= 3 IEnMin= 2 EnMin= -3063.32938045783     IErMin= 2 ErrMin= 5.90D-04
 ErrMax= 1.43D-03  0.00D+00 EMaxC= 1.00D-01 BMatC= 5.43D-04 BMatP= 2.27D-04
 IDIUse=3 WtCom= 2.09D-01 WtEn= 7.91D-01
 Coeff-Com: -0.291D-01 0.639D+00 0.390D+00
 Coeff-En:   0.000D+00 0.669D+00 0.331D+00
 Coeff:     -0.608D-02 0.663D+00 0.343D+00
 Gap=     0.199 Goal=   None    Shift=    0.000
 RMSDP=1.17D-04 MaxDP=3.86D-03 DE= 2.73D-04 OVMax= 6.95D-03

 Cycle   4  Pass 0  IDiag  1:
 RMSU=  4.23D-05    CP:  1.00D+00  1.08D+00  4.06D-01
 E= -3063.32964570356     Delta-E=       -0.000537754116 Rises=F Damp=F
 DIIS: error= 1.93D-04 at cycle   4 NSaved=   4.
 NSaved= 4 IEnMin= 4 EnMin= -3063.32964570356     IErMin= 4 ErrMin= 1.93D-04
 ErrMax= 1.93D-04  0.00D+00 EMaxC= 1.00D-01 BMatC= 9.27D-06 BMatP= 2.27D-04
 IDIUse=3 WtCom= 9.98D-01 WtEn= 1.93D-03
 Coeff-Com: -0.123D-01 0.195D+00 0.143D+00 0.674D+00
 Coeff-En:   0.000D+00 0.000D+00 0.000D+00 0.100D+01
 Coeff:     -0.123D-01 0.195D+00 0.143D+00 0.675D+00
 Gap=     0.200 Goal=   None    Shift=    0.000
 RMSDP=2.55D-05 MaxDP=6.28D-04 DE=-5.38D-04 OVMax= 1.34D-03

 Cycle   5  Pass 0  IDiag  1:
 RMSU=  2.12D-05    CP:  1.00D+00  1.09D+00  4.07D-01  6.74D-01
 E= -3063.32965177832     Delta-E=       -0.000006074753 Rises=F Damp=F
 DIIS: error= 1.02D-04 at cycle   5 NSaved=   5.
 NSaved= 5 IEnMin= 5 EnMin= -3063.32965177832     IErMin= 5 ErrMin= 1.02D-04
 ErrMax= 1.02D-04  0.00D+00 EMaxC= 1.00D-01 BMatC= 3.99D-06 BMatP= 9.27D-06
 IDIUse=3 WtCom= 9.99D-01 WtEn= 1.02D-03
 Coeff-Com: -0.351D-02 0.364D-01 0.375D-01 0.407D+00 0.522D+00
 Coeff-En:   0.000D+00 0.000D+00 0.000D+00 0.280D+00 0.720D+00
 Coeff:     -0.350D-02 0.363D-01 0.375D-01 0.407D+00 0.523D+00
 Gap=     0.200 Goal=   None    Shift=    0.000
 RMSDP=1.17D-05 MaxDP=3.45D-04 DE=-6.07D-06 OVMax= 6.80D-04

 Cycle   6  Pass 0  IDiag  1:
 RMSU=  6.67D-06    CP:  1.00D+00  1.09D+00  4.22D-01  7.77D-01  6.20D-01
 E= -3063.32965547225     Delta-E=       -0.000003693929 Rises=F Damp=F
 DIIS: error= 4.07D-05 at cycle   6 NSaved=   6.
 NSaved= 6 IEnMin= 6 EnMin= -3063.32965547225     IErMin= 6 ErrMin= 4.07D-05
 ErrMax= 4.07D-05  0.00D+00 EMaxC= 1.00D-01 BMatC= 6.37D-07 BMatP= 3.99D-06
 IDIUse=1 WtCom= 1.00D+00 WtEn= 0.00D+00
 Coeff-Com: -0.673D-03-0.422D-02 0.441D-02 0.179D+00 0.335D+00 0.486D+00
 Coeff:     -0.673D-03-0.422D-02 0.441D-02 0.179D+00 0.335D+00 0.486D+00
 Gap=     0.200 Goal=   None    Shift=    0.000
 RMSDP=3.84D-06 MaxDP=1.71D-04 DE=-3.69D-06 OVMax= 2.92D-04

 Initial convergence to 1.0D-05 achieved.  Increase integral accuracy.
 Cycle   7  Pass 1  IDiag  1:
 E= -3063.32968129421     Delta-E=       -0.000025821960 Rises=F Damp=F
 DIIS: error= 2.82D-05 at cycle   1 NSaved=   1.
 NSaved= 1 IEnMin= 1 EnMin= -3063.32968129421     IErMin= 1 ErrMin= 2.82D-05
 ErrMax= 2.82D-05  0.00D+00 EMaxC= 1.00D-01 BMatC= 1.29D-07 BMatP= 1.29D-07
 IDIUse=1 WtCom= 1.00D+00 WtEn= 0.00D+00
 Coeff-Com:  0.100D+01
 Coeff:      0.100D+01
 Gap=     0.200 Goal=   None    Shift=    0.000
 RMSDP=3.84D-06 MaxDP=1.71D-04 DE=-2.58D-05 OVMax= 2.05D-04

 Cycle   8  Pass 1  IDiag  1:
 RMSU=  7.50D-06    CP:  1.00D+00
 E= -3063.32968117957     Delta-E=        0.000000114633 Rises=F Damp=F
 DIIS: error= 2.50D-05 at cycle   2 NSaved=   2.
 NSaved= 2 IEnMin= 1 EnMin= -3063.32968129421     IErMin= 2 ErrMin= 2.50D-05
 ErrMax= 2.50D-05  0.00D+00 EMaxC= 1.00D-01 BMatC= 2.59D-07 BMatP= 1.29D-07
 IDIUse=1 WtCom= 1.00D+00 WtEn= 0.00D+00
 Coeff-Com:  0.602D+00 0.398D+00
 Coeff:      0.602D+00 0.398D+00
 Gap=     0.200 Goal=   None    Shift=    0.000
 RMSDP=2.55D-06 MaxDP=1.11D-04 DE= 1.15D-07 OVMax= 1.82D-04

 Cycle   9  Pass 1  IDiag  1:
 RMSU=  2.35D-06    CP:  1.00D+00  8.68D-01
 E= -3063.32968137871     Delta-E=       -0.000000199139 Rises=F Damp=F
 DIIS: error= 8.28D-06 at cycle   3 NSaved=   3.
 NSaved= 3 IEnMin= 3 EnMin= -3063.32968137871     IErMin= 3 ErrMin= 8.28D-06
 ErrMax= 8.28D-06  0.00D+00 EMaxC= 1.00D-01 BMatC= 2.32D-08 BMatP= 1.29D-07
 IDIUse=1 WtCom= 1.00D+00 WtEn= 0.00D+00
 Coeff-Com:  0.861D-01 0.232D+00 0.682D+00
 Coeff:      0.861D-01 0.232D+00 0.682D+00
 Gap=     0.200 Goal=   None    Shift=    0.000
 RMSDP=8.45D-07 MaxDP=3.15D-05 DE=-1.99D-07 OVMax= 5.92D-05

 Cycle  10  Pass 1  IDiag  1:
 RMSU=  7.36D-07    CP:  1.00D+00  8.82D-01  8.29D-01
 E= -3063.32968139279     Delta-E=       -0.000000014075 Rises=F Damp=F
 DIIS: error= 3.78D-06 at cycle   4 NSaved=   4.
 NSaved= 4 IEnMin= 4 EnMin= -3063.32968139279     IErMin= 4 ErrMin= 3.78D-06
 ErrMax= 3.78D-06  0.00D+00 EMaxC= 1.00D-01 BMatC= 4.38D-09 BMatP= 2.32D-08
 IDIUse=1 WtCom= 1.00D+00 WtEn= 0.00D+00
 Coeff-Com:  0.112D-02 0.110D+00 0.431D+00 0.457D+00
 Coeff:      0.112D-02 0.110D+00 0.431D+00 0.457D+00
 Gap=     0.200 Goal=   None    Shift=    0.000
 RMSDP=3.97D-07 MaxDP=1.06D-05 DE=-1.41D-08 OVMax= 2.39D-05

 Cycle  11  Pass 1  IDiag  1:
 RMSU=  1.40D-07    CP:  1.00D+00  8.96D-01  8.20D-01  5.15D-01
 E= -3063.32968139708     Delta-E=       -0.000000004295 Rises=F Damp=F
 DIIS: error= 7.30D-07 at cycle   5 NSaved=   5.
 NSaved= 5 IEnMin= 5 EnMin= -3063.32968139708     IErMin= 5 ErrMin= 7.30D-07
 ErrMax= 7.30D-07  0.00D+00 EMaxC= 1.00D-01 BMatC= 2.13D-10 BMatP= 4.38D-09
 IDIUse=1 WtCom= 1.00D+00 WtEn= 0.00D+00
 Coeff-Com: -0.241D-02 0.606D-01 0.246D+00 0.288D+00 0.407D+00
 Coeff:     -0.241D-02 0.606D-01 0.246D+00 0.288D+00 0.407D+00
 Gap=     0.200 Goal=   None    Shift=    0.000
 RMSDP=8.72D-08 MaxDP=2.45D-06 DE=-4.30D-09 OVMax= 5.51D-06

 Cycle  12  Pass 1  IDiag  1:
 RMSU=  4.81D-08    CP:  1.00D+00  8.97D-01  8.25D-01  4.98D-01  4.98D-01
 E= -3063.32968139730     Delta-E=       -0.000000000220 Rises=F Damp=F
 DIIS: error= 1.44D-07 at cycle   6 NSaved=   6.
 NSaved= 6 IEnMin= 6 EnMin= -3063.32968139730     IErMin= 6 ErrMin= 1.44D-07
 ErrMax= 1.44D-07  0.00D+00 EMaxC= 1.00D-01 BMatC= 1.01D-11 BMatP= 2.13D-10
 IDIUse=1 WtCom= 1.00D+00 WtEn= 0.00D+00
 Coeff-Com: -0.155D-02 0.183D-01 0.773D-01 0.971D-01 0.213D+00 0.596D+00
 Coeff:     -0.155D-02 0.183D-01 0.773D-01 0.971D-01 0.213D+00 0.596D+00
 Gap=     0.200 Goal=   None    Shift=    0.000
 RMSDP=2.01D-08 MaxDP=5.70D-07 DE=-2.20D-10 OVMax= 8.99D-07

 Cycle  13  Pass 1  IDiag  1:
 RMSU=  1.51D-08    CP:  1.00D+00  8.97D-01  8.25D-01  5.04D-01  5.58D-01
                    CP:  8.08D-01
 E= -3063.32968139730     Delta-E=        0.000000000007 Rises=F Damp=F
 DIIS: error= 5.14D-08 at cycle   7 NSaved=   7.
 NSaved= 7 IEnMin= 6 EnMin= -3063.32968139730     IErMin= 7 ErrMin= 5.14D-08
 ErrMax= 5.14D-08  0.00D+00 EMaxC= 1.00D-01 BMatC= 8.23D-13 BMatP= 1.01D-11
 IDIUse=1 WtCom= 1.00D+00 WtEn= 0.00D+00
 Coeff-Com: -0.470D-03 0.205D-02 0.100D-01 0.143D-01 0.501D-01 0.255D+00
 Coeff-Com:  0.669D+00
 Coeff:     -0.470D-03 0.205D-02 0.100D-01 0.143D-01 0.501D-01 0.255D+00
 Coeff:      0.669D+00
 Gap=     0.200 Goal=   None    Shift=    0.000
 RMSDP=6.54D-09 MaxDP=2.63D-07 DE= 6.82D-12 OVMax= 3.14D-07

 SCF Done:  E(RB3LYP) =  -3063.32968140     A.U. after   13 cycles
            NFock= 13  Conv=0.65D-08     -V/T= 2.0066
 KE= 3.043216413358D+03 PE=-8.914288609059D+03 EE= 1.990574271797D+03
 Leave Link  502 at Tue Sep 17 09:44:57 2024, MaxMem=  1342177280 cpu:              55.9 elap:               7.9
 (Enter /groups/ReismanLab/Software/Gaussian16_RevC/Linux_Binary_AVX2-enabled-CPU/g16/l508.exe)
 QCSCF skips out because SCF is already converged.
 Leave Link  508 at Tue Sep 17 09:44:57 2024, MaxMem=  1342177280 cpu:               0.1 elap:               0.0
 (Enter /groups/ReismanLab/Software/Gaussian16_RevC/Linux_Binary_AVX2-enabled-CPU/g16/l701.exe)
 ... and contract with generalized density number  0.
 Compute integral first derivatives.
 R6Disp: Adding Grimme-D3(BJ) dispersion energy 1st derivatives to the gradient.
 Leave Link  701 at Tue Sep 17 09:44:57 2024, MaxMem=  1342177280 cpu:               0.5 elap:               0.1
 (Enter /groups/ReismanLab/Software/Gaussian16_RevC/Linux_Binary_AVX2-enabled-CPU/g16/l702.exe)
 L702 exits ... SP integral derivatives will be done elsewhere.
 Leave Link  702 at Tue Sep 17 09:44:57 2024, MaxMem=  1342177280 cpu:               0.1 elap:               0.0
 (Enter /groups/ReismanLab/Software/Gaussian16_RevC/Linux_Binary_AVX2-enabled-CPU/g16/l703.exe)
 Integral derivatives from FoFJK, PRISM(SPDF).
 Compute integral first derivatives, UseDBF=F ICtDFT=           0.
 Calling FoFJK, ICntrl=      2127 FMM=F ISym2X=0 I1Cent= 0 IOpClX= 0 NMat=1 NMatS=1 NMatT=0.
 FoFJK:  IHMeth= 1 ICntrl=    2127 DoSepK=F KAlg= 0 I1Cent=           0 FoldK=F
 IRaf=         0 NMat=       1 IRICut=       1 DoRegI=T DoRafI=F ISym2E= 0 IDoP0=0 IntGTp=1.
 FoFCou: FMM=F IPFlag=           0 FMFlag=      100000 FMFlg1=         800
         NFxFlg=           0 DoJE=F BraDBF=F KetDBF=F FulRan=T
         wScrn=  0.000000 ICntrl=      2127 IOpCl=  0 I1Cent=           0 NGrid=           0
         NMat0=    1 NMatS0=      1 NMatT0=    0 NMatD0=    1 NMtDS0=    0 NMtDT0=    0
 Symmetry not used in FoFCou.
 Leave Link  703 at Tue Sep 17 09:44:59 2024, MaxMem=  1342177280 cpu:              18.0 elap:               2.3
 (Enter /groups/ReismanLab/Software/Gaussian16_RevC/Linux_Binary_AVX2-enabled-CPU/g16/l716.exe)
 Dipole        =-1.41427767D+00 9.14875787D-01-5.90647615D-01
 ***** Axes restored to original set *****
 -------------------------------------------------------------------
 Center     Atomic                   Forces (Hartrees/Bohr)
 Number     Number              X              Y              Z
 -------------------------------------------------------------------
      1        6           0.002948530   -0.000971331   -0.001405731
      2        8          -0.000801237    0.000792340    0.002909666
      3        6          -0.002199736    0.000400568   -0.001609231
      4        8           0.000290943   -0.001117456   -0.000035653
      5        6           0.001424320    0.002541742    0.001054376
      6        6          -0.001090551   -0.001116498    0.000442814
      7        6           0.002177747   -0.000954048   -0.000114657
      8        7          -0.004532290   -0.000077743   -0.000332687
      9        6           0.004756960    0.002504545    0.001101728
     10       35           0.001628564    0.000873213    0.000617032
     11        7          -0.002303493   -0.003181404   -0.002584440
     12        1          -0.000794538    0.000244187    0.000113893
     13        1          -0.000429296    0.000488765    0.000208214
     14        1          -0.000435428    0.000172204   -0.000237683
     15        1          -0.000310503   -0.000293409    0.000177696
     16        1          -0.000329991   -0.000305674   -0.000305336
 -------------------------------------------------------------------
 Cartesian Forces:  Max     0.004756960 RMS     0.001625341
 Leave Link  716 at Tue Sep 17 09:44:59 2024, MaxMem=  1342177280 cpu:               0.1 elap:               0.0
 (Enter /groups/ReismanLab/Software/Gaussian16_RevC/Linux_Binary_AVX2-enabled-CPU/g16/l103.exe)

 GradGradGradGradGradGradGradGradGradGradGradGradGradGradGradGradGradGrad
 Berny optimization.
 Using GEDIIS/GDIIS optimizer.
 FormGI is forming the generalized inverse of G from B-inverse, IUseBI=4.
 Internal  Forces:  Max     0.004172804 RMS     0.001128820
 Search for a local minimum.
 Step number   2 out of a maximum of   75
 All quantities printed in internal units (Hartrees-Bohrs-Radians)
 RMS Force = .11288D-02 SwitMx=.10000D-02 MixMth= 1
 Mixed Optimization -- RFO/linear search
 Update second derivatives using D2CorX and points    1    2
 DE= -2.25D-03 DEPred=-2.17D-03 R= 1.04D+00
 TightC=F SS=  1.41D+00  RLast= 2.18D-01 DXNew= 5.0454D-01 6.5485D-01
 Trust test= 1.04D+00 RLast= 2.18D-01 DXMaxT set to 5.05D-01
 ITU=  1  0
 Use linear search instead of GDIIS.
[...]
   Eigenvalues:  -493.9041  -337.7917   341.3472
      5  C    Isotropic =     3.2155   Anisotropy =   193.5019
   XX=  -107.2472   YX=   -55.7109   ZX=     0.0007
   XY=   -39.1305   YY=   -15.3231   ZY=    -0.0188
   XZ=     0.0142   YZ=     0.0262   ZZ=   132.2167
   Eigenvalues:  -127.3248     4.7545   132.2167
      6  C    Isotropic =    44.7534   Anisotropy =   207.7663
   XX=   -59.2260   YX=    56.0236   ZX=     0.0545
   XY=    35.8200   YY=    10.2219   ZY=    -0.0155
   XZ=     0.0090   YZ=     0.0011   ZZ=   183.2643
   Eigenvalues:   -82.0743    33.0702   183.2643
      7  C    Isotropic =    -3.2585   Anisotropy =   224.6277
   XX=   -22.8713   YX=    32.5298   ZX=     0.0302
   XY=    10.9607   YY=  -133.3976   ZY=     0.0305
   XZ=     0.0154   YZ=     0.0002   ZZ=   146.4932
   Eigenvalues:  -137.5219   -18.7470   146.4932
      8  N    Isotropic =  -134.9321   Anisotropy =   553.5430
   XX=  -242.3291   YX=    68.0367   ZX=     0.0377
   XY=    56.7744   YY=  -396.5638   ZY=     0.0788
   XZ=     0.0209   YZ=     0.0079   ZZ=   234.0965
   Eigenvalues:  -418.6510  -220.2420   234.0965
      9  C    Isotropic =   -12.5993   Anisotropy =    99.8005
   XX=   -74.9026   YX=    55.4212   ZX=    -0.0173
   XY=    54.4610   YY=   -16.8296   ZY=     0.0143
   XZ=     0.0032   YZ=     0.0026   ZZ=    53.9344
   Eigenvalues:  -108.0082    16.2760    53.9344
     10  Br   Isotropic =  1799.4154   Anisotropy =  1651.5675
   XX=  2500.8921   YX=  -690.9811   ZX=     0.2837
   XY=  -679.5264   YY=  1725.2600   ZY=    -0.1811
   XZ=     0.1273   YZ=    -0.0941   ZZ=  1172.0941
   Eigenvalues:  1172.0940  1325.6918  2900.4604
     11  N    Isotropic =  -123.1106   Anisotropy =   528.9756
   XX=  -394.7345   YX=   -42.9546   ZX=    -0.0068
   XY=   -42.2528   YY=  -204.1370   ZY=    -0.0202
   XZ=     0.0663   YZ=     0.0250   ZZ=   229.5399
   Eigenvalues:  -403.8241  -195.0474   229.5399
     12  H    Isotropic =    27.8724   Anisotropy =     7.9498
   XX=    29.0331   YX=     3.3587   ZX=     2.8781
   XY=     1.6008   YY=    27.0233   ZY=     2.3962
   XZ=     2.6482   YZ=     2.6755   ZZ=    27.5609
   Eigenvalues:    24.7420    25.7030    33.1723
     13  H    Isotropic =    27.9568   Anisotropy =     7.4885
   XX=    32.7079   YX=    -2.0919   ZX=    -0.0004
   XY=    -0.2837   YY=    27.0996   ZY=     0.0001
   XZ=     0.0007   YZ=    -0.0008   ZZ=    24.0629
   Eigenvalues:    24.0629    26.8584    32.9491
     14  H    Isotropic =    27.8739   Anisotropy =     7.9530
   XX=    29.0320   YX=     3.3594   ZX=    -2.8784
   XY=     1.6036   YY=    27.0248   ZY=    -2.3978
   XZ=    -2.6495   YZ=    -2.6767   ZZ=    27.5649
   Eigenvalues:    24.7433    25.7025    33.1759
     15  H    Isotropic =    23.1019   Anisotropy =     9.4660
   XX=    22.6275   YX=     4.9019   ZX=     0.0008
   XY=     3.6053   YY=    26.7460   ZY=    -0.0003
   XZ=    -0.0035   YZ=     0.0008   ZZ=    19.9323
   Eigenvalues:    19.9322    19.9609    29.4126
     16  H    Isotropic =    22.1587   Anisotropy =     7.6091
   XX=    27.1084   YX=     0.8286   ZX=    -0.0012
   XY=     1.0151   YY=    20.3221   ZY=     0.0004
   XZ=    -0.0007   YZ=    -0.0025   ZZ=    19.0454
   Eigenvalues:    19.0454    20.1992    27.2314
 End of Minotr F.D. properties file   721 does not exist.
 End of Minotr F.D. properties file   722 does not exist.
 End of Minotr F.D. properties file   788 does not exist.
 Leave Link 1002 at Tue Sep 17 10:33:43 2024, MaxMem=  1342177280 cpu:             671.8 elap:             674.8
 (Enter /groups/ReismanLab/Software/Gaussian16_RevC/Linux_Binary_AVX2-enabled-CPU/g16/l601.exe)
 Copying SCF densities to generalized density rwf, IOpCl= 0 IROHF=0.

 **********************************************************************

            Population analysis using the SCF Density.

 **********************************************************************

 Orbital symmetries:
       Occupied  (A) (A) (A) (A) (A) (A) (A) (A) (A) (A) (A) (A)
                 (A) (A) (A) (A) (A) (A) (A) (A) (A) (A) (A) (A)
                 (A) (A) (A) (A) (A) (A) (A) (A) (A) (A) (A) (A)
                 (A) (A) (A) (A) (A) (A) (A) (A) (A) (A) (A) (A)
                 (A) (A) (A) (A) (A)
       Virtual   (A) (A) (A) (A) (A) (A) (A) (A) (A) (A) (A) (A)
                 (A) (A) (A) (A) (A) (A) (A) (A) (A) (A) (A) (A)
                 (A) (A) (A) (A) (A) (A) (A) (A) (A) (A) (A) (A)
                 (A) (A) (A) (A) (A) (A) (A) (A) (A) (A) (A) (A)
                 (A) (A) (A) (A) (A) (A) (A) (A) (A) (A) (A) (A)
                 (A) (A) (A) (A) (A) (A) (A) (A) (A) (A) (A) (A)
                 (A) (A) (A) (A) (A) (A) (A) (A) (A) (A) (A) (A)
                 (A) (A) (A) (A) (A) (A) (A) (A) (A) (A) (A) (A)
                 (A) (A) (A) (A) (A) (A) (A) (A) (A) (A) (A) (A)
                 (A) (A) (A) (A) (A) (A) (A) (A) (A) (A) (A) (A)
                 (A) (A) (A) (A) (A) (A) (A) (A) (A) (A) (A) (A)
                 (A) (A) (A) (A) (A) (A) (A) (A) (A) (A) (A) (A)
                 (A) (A) (A) (A) (A) (A) (A) (A) (A) (A) (A) (A)
                 (A) (A) (A) (A) (A) (A) (A) (A) (A) (A) (A) (A)
                 (A) (A) (A) (A) (A) (A) (A) (A) (A) (A) (A) (A)
                 (A) (A) (A) (A) (A) (A) (A) (A) (A) (A) (A) (A)
                 (A) (A) (A) (A) (A) (A) (A) (A) (A) (A) (A) (A)
                 (A) (A) (A) (A) (A) (A) (A) (A) (A) (A) (A) (A)
                 (A) (A) (A) (A) (A) (A) (A) (A) (A) (A) (A) (A)
                 (A) (A) (A) (A) (A) (A) (A) (A) (A) (A) (A) (A)
                 (A) (A) (A) (A) (A) (A) (A) (A) (A) (A) (A) (A)
                 (A) (A) (A) (A) (A) (A) (A) (A) (A) (A) (A) (A)
                 (A) (A) (A) (A) (A) (A) (A) (A) (A) (A) (A) (A)
                 (A) (A) (A) (A) (A) (A) (A) (A) (A) (A) (A) (A)
                 (A) (A) (A) (A) (A) (A) (A) (A) (A) (A) (A) (A)
                 (A) (A) (A) (A) (A) (A) (A) (A) (A) (A) (A) (A)
                 (A) (A) (A) (A) (A) (A) (A) (A) (A) (A) (A) (A)
                 (A) (A) (A) (A) (A) (A) (A) (A) (A) (A) (A)
 The electronic state is 1-A.
 Alpha  occ. eigenvalues -- -485.38067 -63.36573 -57.18517 -57.18285 -57.18260
 Alpha  occ. eigenvalues --  -19.69017 -19.63662 -14.78825 -14.78781 -10.69426
 Alpha  occ. eigenvalues --  -10.68017 -10.63175 -10.61919 -10.59767 -10.58172
 Alpha  occ. eigenvalues --   -9.03241  -6.85660  -6.84793  -6.84711  -2.89039
 Alpha  occ. eigenvalues --   -2.88739  -2.88656  -2.87851  -2.87849  -1.25040
 Alpha  occ. eigenvalues --   -1.15948  -1.13493  -1.02992  -0.94112  -0.87252
 Alpha  occ. eigenvalues --   -0.84385  -0.77955  -0.74992  -0.67664  -0.63661
 Alpha  occ. eigenvalues --   -0.61936  -0.58400  -0.57500  -0.55877  -0.53943
 Alpha  occ. eigenvalues --   -0.53894  -0.50538  -0.48331  -0.48257  -0.44795
 Alpha  occ. eigenvalues --   -0.40324  -0.39942  -0.39774  -0.39203  -0.38206
 Alpha  occ. eigenvalues --   -0.36402  -0.34485  -0.33374
 Alpha virt. eigenvalues --   -0.05921  -0.02145   0.03778   0.06719   0.07462
 Alpha virt. eigenvalues --    0.09454   0.10345   0.10954   0.13211   0.15031
 Alpha virt. eigenvalues --    0.15194   0.17149   0.17258   0.18060   0.20117
 Alpha virt. eigenvalues --    0.20518   0.21834   0.23498   0.23665   0.25406
 Alpha virt. eigenvalues --    0.27061   0.27230   0.27436   0.27908   0.29546
 Alpha virt. eigenvalues --    0.29778   0.30870   0.30895   0.30998   0.32527
 Alpha virt. eigenvalues --    0.32763   0.33881   0.34637   0.35034   0.35884
 Alpha virt. eigenvalues --    0.36412   0.39099   0.39426   0.40822   0.42356
 Alpha virt. eigenvalues --    0.43579   0.44512   0.45170   0.46271   0.47118
 Alpha virt. eigenvalues --    0.48196   0.48562   0.49995   0.50110   0.51305
 Alpha virt. eigenvalues --    0.52307   0.54427   0.54486   0.55943   0.57131
 Alpha virt. eigenvalues --    0.57363   0.60078   0.61652   0.62052   0.62825
 Alpha virt. eigenvalues --    0.64130   0.64158   0.65428   0.66122   0.68394
 Alpha virt. eigenvalues --    0.69866   0.69912   0.70726   0.70902   0.75157
 Alpha virt. eigenvalues --    0.76147   0.77625   0.80023   0.81846   0.83987
 Alpha virt. eigenvalues --    0.84965   0.84990   0.86730   0.88914   0.91149
 Alpha virt. eigenvalues --    0.92544   0.93203   0.95466   0.96845   1.00389
 Alpha virt. eigenvalues --    1.01917   1.03713   1.05766   1.08943   1.10570
 Alpha virt. eigenvalues --    1.10656   1.11875   1.16294   1.18965   1.21318
 Alpha virt. eigenvalues --    1.22151   1.25684   1.26832   1.28539   1.29273
 Alpha virt. eigenvalues --    1.31701   1.33004   1.36129   1.36478   1.36803
 Alpha virt. eigenvalues --    1.40449   1.41537   1.41919   1.46683   1.47275
 Alpha virt. eigenvalues --    1.47876   1.48314   1.49692   1.50520   1.50845
 Alpha virt. eigenvalues --    1.52769   1.54227   1.54684   1.56392   1.56897
 Alpha virt. eigenvalues --    1.56994   1.58204   1.58383   1.58424   1.58716
 Alpha virt. eigenvalues --    1.62115   1.62260   1.63680   1.63892   1.65210
 Alpha virt. eigenvalues --    1.66583   1.67349   1.67662   1.70688   1.73725
 Alpha virt. eigenvalues --    1.75631   1.76756   1.78176   1.78929   1.81068
 Alpha virt. eigenvalues --    1.83310   1.86114   1.87997   1.89005   1.89338
 Alpha virt. eigenvalues --    1.92375   1.92660   1.96561   1.98246   1.99531
 Alpha virt. eigenvalues --    2.02210   2.04132   2.04188   2.05229   2.10003
 Alpha virt. eigenvalues --    2.10485   2.14800   2.15098   2.15498   2.16447
 Alpha virt. eigenvalues --    2.17071   2.23316   2.25777   2.28842   2.31594
 Alpha virt. eigenvalues --    2.31873   2.32037   2.36025   2.38664   2.39909
 Alpha virt. eigenvalues --    2.40413   2.42801   2.43145   2.44208   2.50069
 Alpha virt. eigenvalues --    2.52271   2.54026   2.55565   2.56928   2.58045
 Alpha virt. eigenvalues --    2.61021   2.62247   2.66519   2.70278   2.71784
 Alpha virt. eigenvalues --    2.74605   2.75658   2.78584   2.80151   2.80347
 Alpha virt. eigenvalues --    2.81072   2.85814   2.87695   2.88485   2.88797
 Alpha virt. eigenvalues --    2.90112   2.92229   2.93570   2.94523   2.97242
 Alpha virt. eigenvalues --    3.00125   3.00629   3.02069   3.03340   3.03898
 Alpha virt. eigenvalues --    3.06585   3.08910   3.12182   3.12950   3.13207
 Alpha virt. eigenvalues --    3.15072   3.15954   3.18090   3.20193   3.20269
 Alpha virt. eigenvalues --    3.21996   3.23809   3.25784   3.27153   3.27839
 Alpha virt. eigenvalues --    3.30584   3.32213   3.32400   3.33281   3.34377
 Alpha virt. eigenvalues --    3.34662   3.37910   3.38725   3.40561   3.41430
 Alpha virt. eigenvalues --    3.44901   3.45098   3.48354   3.50792   3.51685
 Alpha virt. eigenvalues --    3.53548   3.57300   3.57785   3.59711   3.61562
 Alpha virt. eigenvalues --    3.63122   3.68962   3.70662   3.75364   3.76349
 Alpha virt. eigenvalues --    3.77571   3.81175   3.84906   3.87292   3.93221
 Alpha virt. eigenvalues --    3.94084   3.97797   3.99026   4.05192   4.07300
 Alpha virt. eigenvalues --    4.09754   4.10888   4.12156   4.14262   4.16995
 Alpha virt. eigenvalues --    4.17539   4.22585   4.27746   4.30329   4.34284
 Alpha virt. eigenvalues --    4.39594   4.42019   4.42563   4.45621   4.46199
 Alpha virt. eigenvalues --    4.50419   4.56084   4.59672   4.61139   4.64250
 Alpha virt. eigenvalues --    4.69424   4.72185   4.76763   4.78074   4.85582
 Alpha virt. eigenvalues --    4.86880   4.98363   4.99157   4.99248   4.99524
 Alpha virt. eigenvalues --    5.03958   5.08667   5.12949   5.17057   5.22659
 Alpha virt. eigenvalues --    5.26832   5.29073   5.29620   5.33103   5.35397
 Alpha virt. eigenvalues --    5.38725   5.38907   5.45017   5.47791   5.50094
 Alpha virt. eigenvalues --    5.57370   5.61263   5.64700   5.68325   5.72222
 Alpha virt. eigenvalues --    5.85100   5.93243   5.93923   6.05595   6.10571
 Alpha virt. eigenvalues --    6.15803   6.29575   6.33996   6.38391   6.53167
 Alpha virt. eigenvalues --    6.62489   6.67832   6.73439   6.85128   6.88047
 Alpha virt. eigenvalues --    7.00930   7.10403   7.27469   7.39488   7.81730
 Alpha virt. eigenvalues --   22.41441  22.60060  22.80255  22.99961  23.18908
 Alpha virt. eigenvalues --   23.44212  32.42224  32.66819  44.05303  44.26050
          Condensed to atoms (all electrons):
               1          2          3          4          5          6
     1  C    4.870450   0.203235  -0.051406   0.002688   0.008804  -0.001139
     2  O    0.203235   7.985752   0.394186  -0.082742  -0.174661   0.029820
     3  C   -0.051406   0.394186   4.478779   0.702564   0.279268  -0.081184
     4  O    0.002688  -0.082742   0.702564   7.776892  -0.097408   0.007180
     5  C    0.008804  -0.174661   0.279268  -0.097408   5.125433   0.400228
     6  C   -0.001139   0.029820  -0.081184   0.007180   0.400228   5.169358
     7  C    0.000018  -0.000379   0.011395  -0.000270  -0.031218   0.445656
     8  N   -0.000002   0.000114  -0.001389   0.000040  -0.025977  -0.043698
     9  C   -0.000006  -0.000344  -0.002399  -0.000728  -0.071238  -0.039042
    10  Br  -0.000003   0.000005  -0.002989   0.000053  -0.007914   0.012840
    11  N   -0.000310   0.001609  -0.045835  -0.009906   0.487756  -0.071306
    12  H    0.418948  -0.032646  -0.007930   0.003459  -0.001485   0.000384
    13  H    0.397561  -0.029854   0.003609   0.001546   0.003405  -0.001108
    14  H    0.418963  -0.032642  -0.007917   0.003448  -0.001502   0.000385
    15  H   -0.000283   0.012069  -0.013983   0.000332  -0.029136   0.411973
    16  H    0.000002  -0.000076   0.000237  -0.000000   0.006816  -0.062822
               7          8          9         10         11         12
     1  C    0.000018  -0.000002  -0.000006  -0.000003  -0.000310   0.418948
     2  O   -0.000379   0.000114  -0.000344   0.000005   0.001609  -0.032646
     3  C    0.011395  -0.001389  -0.002399  -0.002989  -0.045835  -0.007930
     4  O   -0.000270   0.000040  -0.000728   0.000053  -0.009906   0.003459
     5  C   -0.031218  -0.025977  -0.071238  -0.007914   0.487756  -0.001485
     6  C    0.445656  -0.043698  -0.039042   0.012840  -0.071306   0.000384
     7  C    4.788353   0.490173  -0.085331  -0.005393  -0.006569   0.000003
     8  N    0.490173   6.490748   0.494537  -0.087624  -0.065041  -0.000000
     9  C   -0.085331   0.494537   4.614773   0.361027   0.524185  -0.000004
    10  Br  -0.005393  -0.087624   0.361027  34.874017  -0.083773   0.000000
    11  N   -0.006569  -0.065041   0.524185  -0.083773   6.480787  -0.000043
    12  H    0.000003  -0.000000  -0.000004   0.000000  -0.000043   0.514792
    13  H   -0.000019  -0.000000   0.000003  -0.000000   0.000029  -0.022998
    14  H    0.000003  -0.000000  -0.000004   0.000000  -0.000043  -0.038626
    15  H   -0.036012   0.004123   0.001835   0.000203   0.003862   0.000098
    16  H    0.434224  -0.029134   0.004754  -0.000657  -0.001464  -0.000000
              13         14         15         16
     1  C    0.397561   0.418963  -0.000283   0.000002
     2  O   -0.029854  -0.032642   0.012069  -0.000076
     3  C    0.003609  -0.007917  -0.013983   0.000237
     4  O    0.001546   0.003448   0.000332  -0.000000
     5  C    0.003405  -0.001502  -0.029136   0.006816
     6  C   -0.001108   0.000385   0.411973  -0.062822
     7  C   -0.000019   0.000003  -0.036012   0.434224
     8  N   -0.000000  -0.000000   0.004123  -0.029134
     9  C    0.000003  -0.000004   0.001835   0.004754
    10  Br  -0.000000   0.000000   0.000203  -0.000657
    11  N    0.000029  -0.000043   0.003862  -0.001464
    12  H   -0.022998  -0.038626   0.000098  -0.000000
    13  H    0.511464  -0.022995  -0.000255   0.000001
    14  H   -0.022995   0.514783   0.000098  -0.000000
    15  H   -0.000255   0.000098   0.462480  -0.002197
    16  H    0.000001  -0.000000  -0.002197   0.467748
 Mulliken charges:
               1
     1  C   -0.267520
     2  O   -0.273446
     3  C    0.344995
     4  O   -0.307149
     5  C    0.128828
     6  C   -0.177525
     7  C   -0.004635
     8  N   -0.226869
     9  C    0.197981
    10  Br  -0.059793
    11  N   -0.213937
    12  H    0.166048
    13  H    0.159611
    14  H    0.166050
    15  H    0.184792
    16  H    0.182568
 Sum of Mulliken charges =  -0.00000
 Mulliken charges with hydrogens summed into heavy atoms:
               1
     1  C    0.224190
     2  O   -0.273446
     3  C    0.344995
     4  O   -0.307149
     5  C    0.128828
     6  C    0.007267
     7  C    0.177933
     8  N   -0.226869
     9  C    0.197981
    10  Br  -0.059793
    11  N   -0.213937
 Electronic spatial extent (au):  <R**2>=           3116.8272
 Charge=              0.0000 electrons
 Dipole moment (field-independent basis, Debye):
    X=             -4.6970    Y=              3.9985    Z=              0.0014  Tot=              6.1684
 Quadrupole moment (field-independent basis, Debye-Ang):
   XX=            -61.9016   YY=            -74.7965   ZZ=            -74.5710
   XY=             -5.9381   XZ=             -0.0028   YZ=             -0.0034
 Traceless Quadrupole moment (field-independent basis, Debye-Ang):
   XX=              8.5214   YY=             -4.3735   ZZ=             -4.1480
   XY=             -5.9381   XZ=             -0.0028   YZ=             -0.0034
 Octapole moment (field-independent basis, Debye-Ang**2):
  XXX=            -35.1671  YYY=             14.2342  ZZZ=              0.0045  XYY=             22.4220
  XXY=            -21.4178  XXZ=              0.0163  XZZ=             18.7596  YZZ=            -10.6290
  YYZ=              0.0072  XYZ=              0.0079
 Hexadecapole moment (field-independent basis, Debye-Ang**3):
 XXXX=          -2304.6113 YYYY=           -608.3144 ZZZZ=            -83.8197 XXXY=            -46.3028
 XXXZ=             -0.0272 YYYX=            -89.0050 YYYZ=             -0.0155 ZZZX=              0.0118
 ZZZY=             -0.0005 XXYY=           -601.1583 XXZZ=           -482.8588 YYZZ=           -129.9577
 XXYZ=             -0.0201 YYXZ=             -0.0092 ZZXY=             -6.4928
 N-N= 8.183928645539D+02 E-N=-8.937745767652D+03  KE= 3.060009884404D+03
 Calculating spin-rotation constants.
 Leave Link  601 at Tue Sep 17 10:33:46 2024, MaxMem=  1342177280 cpu:               3.5 elap:               3.5
 (Enter /groups/ReismanLab/Software/Gaussian16_RevC/Linux_Binary_AVX2-enabled-CPU/g16/l9999.exe)
 Unable to Open any file for archive entry.
 1\1\GINC-HPC-83-08\SP\RM062X\def2TZVP\C6H5Br1N2O2\MANTIND\17-Sep-2024\
 0\\#p M062X/def2tzvp geom=check guess=read scf(xqc,tight) integral(gri
 d=ultrafine) scrf(SMD, solvent=1,4-Dioxane) nmr=giao\\spe\\0,1\C,0,4.5
 615736414,-1.1118524601,0.6974310562\O,0,3.386619971,-0.2861605991,0.7
 816210862\C,0,2.3474167653,-0.6999228685,0.0257611627\O,0,2.3621399402
 ,-1.6794737689,-0.6786447361\C,0,1.1691616711,0.2294045354,0.183627974
 4\C,0,1.2076282595,1.3495889184,1.0141867618\C,0,0.0471123055,2.119497
 2536,1.0645659357\N,0,-1.0498339327,1.8152848376,0.3622862698\C,0,-0.9
 547471271,0.7218535656,-0.3905724704\Br,0,-2.5094644244,0.2730175838,-
 1.3993514309\N,0,0.080219106,-0.0923169122,-0.527829391\H,0,4.33473336
 11,-2.128884476,1.0246083725\H,0,5.2941579266,-0.6478028248,1.35604687
 43\H,0,4.9294107147,-1.1444263634,-0.330432874\H,0,2.0917949968,1.5999
 87277,1.5837697125\H,0,-0.0122643946,3.0099128542,1.6855718548\\Versio
 n=ES64L-G16RevC.02\State=1-A\HF=-3065.7958679\RMSD=4.233e-09\Dipole=1.
 7403582,0.9111124,1.4249755\Quadrupole=5.2757516,-4.2349278,-1.0408238
 ,1.6280501,4.8488478,-0.1184668\PG=C01 [X(C6H5Br1N2O2)]\\@
 The archive entry for this job was punched.


  ON THE CHOICE OF THE CORRECT LANGUAGE -
 I SPEAK SPANISH TO GOD, ITALIAN TO WOMEN,
 FRENCH TO MEN, AND GERMAN TO MY HORSE.
          -- CHARLES V
 Job cpu time:       0 days  0 hours 12 minutes 19.5 seconds.
 Elapsed time:       0 days  0 hours 12 minutes 23.9 seconds.
 File lengths (MBytes):  RWF=    248 Int=      0 D2E=      0 Chk=     24 Scr=     16
 Normal termination of Gaussian 16 at Tue Sep 17 10:33:46 2024.
