 Entering Gaussian System, Link 0=g16
 Input=smiles_00082_conf_0.gjf
 Output=smiles_00082_conf_0.log
 Initial command:
 /groups/ReismanLab/Software/Gaussian16_RevC/Linux_Binary_AVX2-enabled-CPU/g16/l1.exe "/central/groups/ReismanLab/DM/dft_final/smiles_00082/Gau-1626468.inp" -scrdir="/central/groups/ReismanLab/DM/dft_final/smiles_00082/"
 Entering Link 1 = /groups/ReismanLab/Software/Gaussian16_RevC/Linux_Binary_AVX2-enabled-CPU/g16/l1.exe PID=   1626469.
  
 Copyright (c) 1988-2021, Gaussian, Inc.  All Rights Reserved.
  
 This is part of the Gaussian(R) 16 program.  It is based on
 the Gaussian(R) 09 system (copyright 2009, Gaussian, Inc.),
 the Gaussian(R) 03 system (copyright 2003, Gaussian, Inc.),
 the Gaussian(R) 98 system (copyright 1998, Gaussian, Inc.),
 the Gaussian(R) 94 system (copyright 1995, Gaussian, Inc.),
 the Gaussian 92(TM) system (copyright 1992, Gaussian, Inc.),
 the Gaussian 90(TM) system (copyright 1990, Gaussian, Inc.),
 the Gaussian 88(TM) system (copyright 1988, Gaussian, Inc.),
 the Gaussian 86(TM) system (copyright 1986, Carnegie Mellon
 University), and the Gaussian 82(TM) system (copyright 1983,
 Carnegie Mellon University). Gaussian is a federally registered
 trademark of Gaussian, Inc.
  
 This software contains proprietary and confidential information,
 including trade secrets, belonging to Gaussian, Inc.
  
 This software is provided under written license and may be
 used, copied, transmitted, or stored only in accord with that
 written license.
  
 The following legend is applicable only to US Government
 contracts under FAR:
  
                    RESTRICTED RIGHTS LEGEND
  
 Use, reproduction and disclosure by the US Government is
 subject to restrictions as set forth in subparagraphs (a)
 and (c) of the Commercial Computer Software - Restricted
 Rights clause in FAR 52.227-19.
  
 Gaussian, Inc.
 340 Quinnipiac St., Bldg. 40, Wallingford CT 06492
  
  
 ---------------------------------------------------------------
 Warning -- This program may not be used in any manner that
 competes with the business of Gaussian, Inc. or will provide
 assistance to any competitor of Gaussian, Inc.  The licensee
 of this program is prohibited from giving any competitor of
 Gaussian, Inc. access to this program.  By using this program,
 the user acknowledges that Gaussian, Inc. is engaged in the
 business of creating and licensing software in the field of
 computational chemistry and represents and warrants to the
 licensee that it is not a competitor of Gaussian, Inc. and that
 it will not use this program in any manner prohibited above.
 ---------------------------------------------------------------
  

 Cite this work as:
 Gaussian 16, Revision C.02,
 M. J. Frisch, G. W. Trucks, H. B. Schlegel, G. E. Scuseria, 
 M. A. Robb, J. R. Cheeseman, G. Scalmani, V. Barone, 
 G. A. Petersson, H. Nakatsuji, X. Li, M. Caricato, A. V. Marenich, 
 J. Bloino, B. G. Janesko, R. Gomperts, B. Mennucci, H. P. Hratchian, 
 J. V. Ortiz, A. F. Izmaylov, J. L. Sonnenberg, D. Williams-Young, 
 F. Ding, F. Lipparini, F. Egidi, J. Goings, B. Peng, A. Petrone, 
 T. Henderson, D. Ranasinghe, V. G. Zakrzewski, J. Gao, N. Rega, 
 G. Zheng, W. Liang, M. Hada, M. Ehara, K. Toyota, R. Fukuda, 
 J. Hasegawa, M. Ishida, T. Nakajima, Y. Honda, O. Kitao, H. Nakai, 
 T. Vreven, K. Throssell, J. A. Montgomery, Jr., J. E. Peralta, 
 F. Ogliaro, M. J. Bearpark, J. J. Heyd, E. N. Brothers, K. N. Kudin, 
 V. N. Staroverov, T. A. Keith, R. Kobayashi, J. Normand, 
 K. Raghavachari, A. P. Rendell, J. C. Burant, S. S. Iyengar, 
 J. Tomasi, M. Cossi, J. M. Millam, M. Klene, C. Adamo, R. Cammi, 
 J. W. Ochterski, R. L. Martin, K. Morokuma, O. Farkas, 
 J. B. Foresman, and D. J. Fox, Gaussian, Inc., Wallingford CT, 2019.
 
 ******************************************
 Gaussian 16:  ES64L-G16RevC.02  7-Dec-2021
                17-Sep-2024 
 ******************************************
 %nprocshared=8
 Will use up to    8 processors via shared memory.
 %Mem=10GB
 %Chk=smiles_00082_conf_0.chk
 ----------------------------------------------------------------------
 #p B3LYP/6-31G(d,p) EmpiricalDispersion=GD3BJ opt freq scf(xqc,tight) 
 integral(grid=ultrafine)
 ----------------------------------------------------------------------
 1/18=20,19=15,26=4,38=1/1,3;
 2/9=110,12=2,17=6,18=5,40=1/2;
 3/5=1,6=6,7=101,11=2,25=1,30=1,71=1,74=-5,75=-5,124=41/1,2,3;
 4//1;
 5/5=2,8=3,13=1,32=2,38=5/2,8;
 6/7=2,8=2,9=2,10=2,28=1/1;
 7//1,2,3,16;
 1/18=20,19=15,26=4/3(2);
 2/9=110/2;
 99//99;
 2/9=110/2;
 3/5=1,6=6,7=101,11=2,25=1,30=1,71=1,74=-5,75=-5,124=41/1,2,3;
 4/5=5,16=3,69=1/1;
 5/5=2,8=3,13=1,32=2,38=5/2,8;
 7//1,2,3,16;
 1/18=20,19=15,26=4/3(-5);
 2/9=110/2;
 6/7=2,8=2,9=2,10=2,19=2,28=1/1;
 99/9=1/99;
 Leave Link    1 at Tue Sep 17 09:49:42 2024, MaxMem=  1342177280 cpu:               0.1 elap:               0.8
 (Enter /groups/ReismanLab/Software/Gaussian16_RevC/Linux_Binary_AVX2-enabled-CPU/g16/l101.exe)
 ----------------------------------
 opt-freq conformers_unique/conf_aa
 ----------------------------------
 Symbolic Z-matrix:
 Charge =  0 Multiplicity = 1
 C                    -4.09756   1.24      0.04852 
 N                    -3.37059  -0.00008  -0.06959 
 C                    -4.09747  -1.23995   0.05076 
 C                    -2.0013   0.        -0.03213 
 C                    -1.27059   1.19917  -0.02241 
 C                     0.10854   1.19948  -0.01247 
 C                     0.79701   0.00001  -0.00874 
 Br                    2.70689   0.00001   0.0093 
 C                     0.10855  -1.19948  -0.01371 
 C                    -1.27057  -1.1992   -0.0236 
 H                    -5.16524   1.03927   0.00655 
 H                    -3.85      1.91176  -0.77753 
 H                    -3.8814    1.75161   0.99333 
 H                    -5.1652   -1.03912   0.01128 
 H                    -3.87914  -1.75102   0.99535 
 H                    -3.85199  -1.91232  -0.77541 
 H                    -1.7755    2.15033  -0.02221 
 H                     0.64719   2.13491  -0.00515 
 H                     0.64721  -2.13491  -0.00744 
 H                    -1.77547  -2.15035  -0.02453 
 
 ITRead=  0  0  0  0  0  0  0  0  0  0  0  0  0  0  0  0  0  0  0  0
 MicOpt= -1 -1 -1 -1 -1 -1 -1 -1 -1 -1 -1 -1 -1 -1 -1 -1 -1 -1 -1 -1
 NAtoms=     20 NQM=       20 NQMF=       0 NMMI=      0 NMMIF=      0
                NMic=       0 NMicF=      0.
                    Isotopes and Nuclear Properties:
 (Nuclear quadrupole moments (NQMom) in fm**2, nuclear magnetic moments (NMagM)
  in nuclear magnetons)

  Atom         1           2           3           4           5           6           7           8           9          10
 IAtWgt=          12          14          12          12          12          12          12          79          12          12
 AtmWgt=  12.0000000  14.0030740  12.0000000  12.0000000  12.0000000  12.0000000  12.0000000  78.9183361  12.0000000  12.0000000
 NucSpn=           0           2           0           0           0           0           0           3           0           0
 AtZEff=  -0.0000000  -0.0000000  -0.0000000  -0.0000000  -0.0000000  -0.0000000  -0.0000000  -0.0000000  -0.0000000  -0.0000000
 NQMom=    0.0000000   2.0440000   0.0000000   0.0000000   0.0000000   0.0000000   0.0000000  31.3000000   0.0000000   0.0000000
 NMagM=    0.0000000   0.4037610   0.0000000   0.0000000   0.0000000   0.0000000   0.0000000   2.1063990   0.0000000   0.0000000
 AtZNuc=   6.0000000   7.0000000   6.0000000   6.0000000   6.0000000   6.0000000   6.0000000  35.0000000   6.0000000   6.0000000

  Atom        11          12          13          14          15          16          17          18          19          20
 IAtWgt=           1           1           1           1           1           1           1           1           1           1
 AtmWgt=   1.0078250   1.0078250   1.0078250   1.0078250   1.0078250   1.0078250   1.0078250   1.0078250   1.0078250   1.0078250
 NucSpn=           1           1           1           1           1           1           1           1           1           1
 AtZEff=  -0.0000000  -0.0000000  -0.0000000  -0.0000000  -0.0000000  -0.0000000  -0.0000000  -0.0000000  -0.0000000  -0.0000000
 NQMom=    0.0000000   0.0000000   0.0000000   0.0000000   0.0000000   0.0000000   0.0000000   0.0000000   0.0000000   0.0000000
 NMagM=    2.7928460   2.7928460   2.7928460   2.7928460   2.7928460   2.7928460   2.7928460   2.7928460   2.7928460   2.7928460
 AtZNuc=   1.0000000   1.0000000   1.0000000   1.0000000   1.0000000   1.0000000   1.0000000   1.0000000   1.0000000   1.0000000
 Leave Link  101 at Tue Sep 17 09:49:42 2024, MaxMem=  1342177280 cpu:               0.2 elap:               0.3
 (Enter /groups/ReismanLab/Software/Gaussian16_RevC/Linux_Binary_AVX2-enabled-CPU/g16/l103.exe)

 GradGradGradGradGradGradGradGradGradGradGradGradGradGradGradGradGradGrad
 Berny optimization.
 Initialization pass.
                           ----------------------------
                           !    Initial Parameters    !
                           ! (Angstroms and Degrees)  !
 --------------------------                            --------------------------
 ! Name  Definition              Value          Derivative Info.                !
 --------------------------------------------------------------------------------
 ! R1    R(1,2)                  1.4423         estimate D2E/DX2                !
 ! R2    R(1,11)                 1.0872         estimate D2E/DX2                !
 ! R3    R(1,12)                 1.0931         estimate D2E/DX2                !
 ! R4    R(1,13)                 1.096          estimate D2E/DX2                !
 ! R5    R(2,3)                  1.4423         estimate D2E/DX2                !
 ! R6    R(2,4)                  1.3698         estimate D2E/DX2                !
 ! R7    R(3,14)                 1.0872         estimate D2E/DX2                !
 ! R8    R(3,15)                 1.096          estimate D2E/DX2                !
 ! R9    R(3,16)                 1.0931         estimate D2E/DX2                !
 ! R10   R(4,5)                  1.4043         estimate D2E/DX2                !
 ! R11   R(4,10)                 1.4043         estimate D2E/DX2                !
 ! R12   R(5,6)                  1.3792         estimate D2E/DX2                !
 ! R13   R(5,17)                 1.0769         estimate D2E/DX2                !
 ! R14   R(6,7)                  1.383          estimate D2E/DX2                !
 ! R15   R(6,18)                 1.0795         estimate D2E/DX2                !
 ! R16   R(7,8)                  1.91           estimate D2E/DX2                !
 ! R17   R(7,9)                  1.383          estimate D2E/DX2                !
 ! R18   R(9,10)                 1.3792         estimate D2E/DX2                !
 ! R19   R(9,19)                 1.0795         estimate D2E/DX2                !
 ! R20   R(10,20)                1.0769         estimate D2E/DX2                !
 ! A1    A(2,1,11)             109.4564         estimate D2E/DX2                !
 ! A2    A(2,1,12)             110.6303         estimate D2E/DX2                !
 ! A3    A(2,1,13)             111.8723         estimate D2E/DX2                !
 ! A4    A(11,1,12)            107.8606         estimate D2E/DX2                !
 ! A5    A(11,1,13)            108.2496         estimate D2E/DX2                !
 ! A6    A(12,1,13)            108.658          estimate D2E/DX2                !
 ! A7    A(1,2,3)              118.5729         estimate D2E/DX2                !
 ! A8    A(1,2,4)              120.1036         estimate D2E/DX2                !
 ! A9    A(3,2,4)              120.1032         estimate D2E/DX2                !
 ! A10   A(2,3,14)             109.4595         estimate D2E/DX2                !
 ! A11   A(2,3,15)             111.8642         estimate D2E/DX2                !
 ! A12   A(2,3,16)             110.6427         estimate D2E/DX2                !
 ! A13   A(14,3,15)            108.2454         estimate D2E/DX2                !
 ! A14   A(14,3,16)            107.862          estimate D2E/DX2                !
 ! A15   A(15,3,16)            108.6534         estimate D2E/DX2                !
 ! A16   A(2,4,5)              121.3577         estimate D2E/DX2                !
 ! A17   A(2,4,10)             121.3505         estimate D2E/DX2                !
 ! A18   A(5,4,10)             117.284          estimate D2E/DX2                !
 ! A19   A(4,5,6)              121.3702         estimate D2E/DX2                !
 ! A20   A(4,5,17)             120.6826         estimate D2E/DX2                !
 ! A21   A(6,5,17)             117.9472         estimate D2E/DX2                !
 ! A22   A(5,6,7)              119.8424         estimate D2E/DX2                !
 ! A23   A(5,6,18)             119.949          estimate D2E/DX2                !
 ! A24   A(7,6,18)             120.2085         estimate D2E/DX2                !
 ! A25   A(6,7,8)              119.855          estimate D2E/DX2                !
 ! A26   A(6,7,9)              120.2901         estimate D2E/DX2                !
 ! A27   A(8,7,9)              119.8546         estimate D2E/DX2                !
 ! A28   A(7,9,10)             119.8431         estimate D2E/DX2                !
 ! A29   A(7,9,19)             120.2089         estimate D2E/DX2                !
 ! A30   A(10,9,19)            119.9478         estimate D2E/DX2                !
 ! A31   A(4,10,9)             121.3692         estimate D2E/DX2                !
 ! A32   A(4,10,20)            120.6825         estimate D2E/DX2                !
 ! A33   A(9,10,20)            117.9483         estimate D2E/DX2                !
 ! D1    D(11,1,2,3)           -12.0726         estimate D2E/DX2                !
 ! D2    D(11,1,2,4)          -179.4684         estimate D2E/DX2                !
 ! D3    D(12,1,2,3)          -130.7947         estimate D2E/DX2                !
 ! D4    D(12,1,2,4)            61.8096         estimate D2E/DX2                !
 ! D5    D(13,1,2,3)           107.9074         estimate D2E/DX2                !
 ! D6    D(13,1,2,4)           -59.4883         estimate D2E/DX2                !
 ! D7    D(1,2,3,14)            11.9127         estimate D2E/DX2                !
 ! D8    D(1,2,3,15)          -108.0589         estimate D2E/DX2                !
 ! D9    D(1,2,3,16)           130.646          estimate D2E/DX2                !
 ! D10   D(4,2,3,14)           179.3085         estimate D2E/DX2                !
 ! D11   D(4,2,3,15)            59.3369         estimate D2E/DX2                !
 ! D12   D(4,2,3,16)           -61.9582         estimate D2E/DX2                !
 ! D13   D(1,2,4,5)             -6.8382         estimate D2E/DX2                !
 ! D14   D(1,2,4,10)           174.2004         estimate D2E/DX2                !
 ! D15   D(3,2,4,5)           -174.0401         estimate D2E/DX2                !
 ! D16   D(3,2,4,10)             6.9985         estimate D2E/DX2                !
 ! D17   D(2,4,5,6)           -178.6481         estimate D2E/DX2                !
 ! D18   D(2,4,5,17)             1.3713         estimate D2E/DX2                !
 ! D19   D(10,4,5,6)             0.3539         estimate D2E/DX2                !
 ! D20   D(10,4,5,17)         -179.6266         estimate D2E/DX2                !
 ! D21   D(2,4,10,9)           178.6458         estimate D2E/DX2                !
 ! D22   D(2,4,10,20)           -1.3595         estimate D2E/DX2                !
 ! D23   D(5,4,10,9)            -0.3563         estimate D2E/DX2                !
 ! D24   D(5,4,10,20)          179.6384         estimate D2E/DX2                !
 ! D25   D(4,5,6,7)             -0.1541         estimate D2E/DX2                !
 ! D26   D(4,5,6,18)           179.9985         estimate D2E/DX2                !
 ! D27   D(17,5,6,7)           179.827          estimate D2E/DX2                !
 ! D28   D(17,5,6,18)           -0.0204         estimate D2E/DX2                !
 ! D29   D(5,6,7,8)           -179.8522         estimate D2E/DX2                !
 ! D30   D(5,6,7,9)             -0.0582         estimate D2E/DX2                !
 ! D31   D(18,6,7,8)            -0.0051         estimate D2E/DX2                !
 ! D32   D(18,6,7,9)           179.7889         estimate D2E/DX2                !
 ! D33   D(6,7,9,10)             0.0558         estimate D2E/DX2                !
 ! D34   D(6,7,9,19)          -179.7944         estimate D2E/DX2                !
 ! D35   D(8,7,9,10)           179.8498         estimate D2E/DX2                !
 ! D36   D(8,7,9,19)            -0.0003         estimate D2E/DX2                !
 ! D37   D(7,9,10,4)             0.1588         estimate D2E/DX2                !
 ! D38   D(7,9,10,20)         -179.836          estimate D2E/DX2                !
 ! D39   D(19,9,10,4)         -179.9906         estimate D2E/DX2                !
 ! D40   D(19,9,10,20)           0.0145         estimate D2E/DX2                !
 --------------------------------------------------------------------------------
 Trust Radius=3.00D-01 FncErr=1.00D-07 GrdErr=1.00D-06 EigMax=2.50D+02 EigMin=1.00D-04
 Number of steps in this run=    103 maximum allowed number of steps=    120.
 GradGradGradGradGradGradGradGradGradGradGradGradGradGradGradGradGradGrad

 Leave Link  103 at Tue Sep 17 09:49:42 2024, MaxMem=  1342177280 cpu:               0.1 elap:               0.0
 (Enter /groups/ReismanLab/Software/Gaussian16_RevC/Linux_Binary_AVX2-enabled-CPU/g16/l202.exe)
                          Input orientation:                          
 ---------------------------------------------------------------------
 Center     Atomic      Atomic             Coordinates (Angstroms)
 Number     Number       Type             X           Y           Z
 ---------------------------------------------------------------------
      1          6           0       -4.097564    1.239999    0.048516
      2          7           0       -3.370588   -0.000076   -0.069590
      3          6           0       -4.097466   -1.239951    0.050758
      4          6           0       -2.001303   -0.000002   -0.032126
      5          6           0       -1.270592    1.199172   -0.022413
      6          6           0        0.108540    1.199480   -0.012474
      7          6           0        0.797009    0.000009   -0.008738
      8         35           0        2.706893    0.000006    0.009298
      9          6           0        0.108553   -1.199476   -0.013710
     10          6           0       -1.270570   -1.199196   -0.023599
     11          1           0       -5.165235    1.039274    0.006548
     12          1           0       -3.849997    1.911758   -0.777532
     13          1           0       -3.881402    1.751609    0.993333
     14          1           0       -5.165201   -1.039125    0.011278
     15          1           0       -3.879142   -1.751021    0.995351
     16          1           0       -3.851990   -1.912324   -0.775413
     17          1           0       -1.775498    2.150330   -0.022208
     18          1           0        0.647188    2.134911   -0.005148
     19          1           0        0.647206   -2.134908   -0.007437
     20          1           0       -1.775465   -2.150353   -0.024526
 ---------------------------------------------------------------------
                    Distance matrix (angstroms):
                    1          2          3          4          5
     1  C    0.000000
     2  N    1.442301   0.000000
     3  C    2.479951   1.442264   0.000000
     4  C    2.436887   1.369797   2.436850   0.000000
     5  C    2.828157   2.418761   3.734420   1.404298   0.000000
     6  C    4.206742   3.680561   4.862644   2.427052   1.379168
     7  C    5.049525   4.168041   5.049448   2.798410   2.390220
     8  Br   6.916630   6.077993   6.916539   4.708379   4.154442
     9  C    4.862749   3.680503   4.206707   2.427049   2.766880
    10  C    3.734537   2.418693   2.828167   1.404318   2.398368
    11  H    1.087186   2.075285   2.517331   3.330474   3.898032
    12  H    1.093117   2.094308   3.268115   2.761906   2.780524
    13  H    1.095970   2.111668   3.143973   2.766674   2.855391
    14  H    2.517070   2.075282   1.087174   3.330452   4.492114
    15  H    3.144901   2.111524   1.095953   2.765511   4.067433
    16  H    3.267462   2.094428   1.093116   2.763059   4.112425
    17  H    2.495134   2.677836   4.109850   2.162179   1.076863
    18  H    4.828708   4.550257   5.822761   3.401924   2.133959
    19  H    5.822884   4.550169   4.828690   3.401916   3.846331
    20  H    4.109984   2.677711   2.495233   2.162191   3.387362
                    6          7          8          9         10
     6  C    0.000000
     7  C    1.383017   0.000000
     8  Br   2.861931   1.909969   0.000000
     9  C    2.398956   1.383026   2.861933   0.000000
    10  C    2.766896   2.390230   4.154442   1.379159   0.000000
    11  H    5.276243   6.052162   7.940434   5.729333   4.492223
    12  H    4.094224   5.083355   6.875079   5.092476   4.110947
    13  H    4.151643   5.095075   6.887821   5.063870   4.069133
    14  H    5.729246   6.052119   7.940382   5.276250   3.898074
    15  H    5.061894   5.093200   6.885801   4.150195   2.854368
    16  H    5.094232   5.085077   6.876899   4.095637   2.781637
    17  H    2.110406   3.352888   4.971591   3.843296   3.387371
    18  H    1.079456   2.140156   2.966549   3.377623   3.846349
    19  H    3.377622   2.140166   2.966555   1.079454   2.133937
    20  H    3.843306   3.352899   4.971592   2.110405   1.076857
                   11         12         13         14         15
    11  H    0.000000
    12  H    1.762345   0.000000
    13  H    1.769009   1.778369   0.000000
    14  H    2.078404   3.325611   3.225022   0.000000
    15  H    3.227617   4.069387   3.502631   1.768938   0.000000
    16  H    3.323855   3.824083   4.068629   1.762351   1.778304
    17  H    3.567294   2.220580   2.371737   4.654442   4.547668
    18  H    5.914796   4.568484   4.653172   6.622585   6.048894
    19  H    6.622696   6.098638   6.051021   5.914826   4.651966
    20  H    4.654592   4.622926   4.549321   3.567411   2.371724
                   16         17         18         19         20
    16  H    0.000000
    17  H    4.624316   0.000000
    18  H    6.100493   2.422795   0.000000
    19  H    4.569694   4.922701   4.269819   0.000000
    20  H    2.220911   4.300684   4.922714   2.422781   0.000000
 Stoichiometry    C8H10BrN
 Framework group  C1[X(C8H10BrN)]
 Deg. of freedom    54
 Full point group                 C1      NOp   1
 Largest Abelian subgroup         C1      NOp   1
 Largest concise Abelian subgroup C1      NOp   1
                         Standard orientation:                         
 ---------------------------------------------------------------------
 Center     Atomic      Atomic             Coordinates (Angstroms)
 Number     Number       Type             X           Y           Z
 ---------------------------------------------------------------------
      1          6           0        3.825199   -1.239994    0.041781
      2          7           0        3.098060    0.000079   -0.075340
      3          6           0        3.825101    1.239956    0.044000
      4          6           0        1.728828    0.000004   -0.035996
      5          6           0        0.998132   -1.199171   -0.025269
      6          6           0       -0.380985   -1.199480   -0.013439
      7          6           0       -1.069450   -0.000009   -0.008768
      8         35           0       -2.979307   -0.000009    0.011888
      9          6           0       -0.381002    1.199476   -0.014697
     10          6           0        0.998106    1.199197   -0.026478
     11          1           0        4.892811   -1.039269   -0.001654
     12          1           0        3.576499   -1.911761   -0.783920
     13          1           0        3.610334   -1.751596    0.986898
     14          1           0        4.892781    1.039130    0.003056
     15          1           0        3.608073    1.751034    0.988886
     16          1           0        3.578491    1.912321   -0.781841
     17          1           0        1.503039   -2.150329   -0.025749
     18          1           0       -0.919621   -2.134911   -0.005364
     19          1           0       -0.919647    2.134907   -0.007694
     20          1           0        1.502998    2.150355   -0.028107
 ---------------------------------------------------------------------
 Rotational constants (GHZ):           3.5205139           0.3717213           0.3377366
 Leave Link  202 at Tue Sep 17 09:49:43 2024, MaxMem=  1342177280 cpu:               0.0 elap:               0.0
 (Enter /groups/ReismanLab/Software/Gaussian16_RevC/Linux_Binary_AVX2-enabled-CPU/g16/l301.exe)
 Standard basis: 6-31G(d,p) (6D, 7F)
 Ernie: Thresh=  0.10000D-02 Tol=  0.10000D-05 Strict=F.
 There are   215 symmetry adapted cartesian basis functions of A   symmetry.
 There are   215 symmetry adapted basis functions of A   symmetry.
   215 basis functions,   405 primitive gaussians,   215 cartesian basis functions
    50 alpha electrons       50 beta electrons
       nuclear repulsion energy       722.1587279392 Hartrees.
 IExCor=  402 DFT=T Ex+Corr=B3LYP ExCW=0 ScaHFX=  0.200000
 ScaDFX=  0.800000  0.720000  1.000000  0.810000 ScalE2=  1.000000  1.000000
 IRadAn=      5 IRanWt=     -1 IRanGd=            0 ICorTp=0 IEmpDi=141
 NAtoms=   20 NActive=   20 NUniq=   20 SFac= 1.00D+00 NAtFMM=   60 NAOKFM=F Big=F
 Integral buffers will be    131072 words long.
 Raffenetti 2 integral format.
 Two-electron integral symmetry is turned on.
 R6Disp:  Grimme-D3(BJ) Dispersion energy=       -0.0391848370 Hartrees.
 Nuclear repulsion after empirical dispersion term =      722.1195431022 Hartrees.
 Leave Link  301 at Tue Sep 17 09:49:43 2024, MaxMem=  1342177280 cpu:               0.1 elap:               0.1
 (Enter /groups/ReismanLab/Software/Gaussian16_RevC/Linux_Binary_AVX2-enabled-CPU/g16/l302.exe)
 NPDir=0 NMtPBC=     1 NCelOv=     1 NCel=       1 NClECP=     1 NCelD=      1
         NCelK=      1 NCelE2=     1 NClLst=     1 CellRange=     0.0.
 One-electron integrals computed using PRISM.
 One-electron integral symmetry used in STVInt
 NBasis=   215 RedAO= T EigKep=  3.94D-04  NBF=   215
 NBsUse=   215 1.00D-06 EigRej= -1.00D+00 NBFU=   215
 Precomputing XC quadrature grid using
 IXCGrd= 4 IRadAn=           5 IRanWt=          -1 IRanGd=           0 AccXCQ= 0.00D+00.
 Generated NRdTot=       0 NPtTot=           0 NUsed=           0 NTot=          32
 NSgBfM=   214   214   214   214   214 MxSgAt=    20 MxSgA2=    20.
 Leave Link  302 at Tue Sep 17 09:49:43 2024, MaxMem=  1342177280 cpu:               1.1 elap:               0.2
 (Enter /groups/ReismanLab/Software/Gaussian16_RevC/Linux_Binary_AVX2-enabled-CPU/g16/l303.exe)
 DipDrv:  MaxL=1.
 Leave Link  303 at Tue Sep 17 09:49:43 2024, MaxMem=  1342177280 cpu:               0.1 elap:               0.0
 (Enter /groups/ReismanLab/Software/Gaussian16_RevC/Linux_Binary_AVX2-enabled-CPU/g16/l401.exe)
 ExpMin= 1.43D-01 ExpMax= 5.74D+05 ExpMxC= 5.74D+03 IAcc=3 IRadAn=         5 AccDes= 0.00D+00
 Harris functional with IExCor=  402 and IRadAn=       5 diagonalized for initial guess.
 HarFok:  IExCor=  402 AccDes= 0.00D+00 IRadAn=         5 IDoV= 1 UseB2=F ITyADJ=14
 ICtDFT=  3500011 ScaDFX=  1.000000  1.000000  1.000000  1.000000
 FoFCou: FMM=F IPFlag=           0 FMFlag=      100000 FMFlg1=           0
         NFxFlg=           0 DoJE=T BraDBF=F KetDBF=T FulRan=T
         wScrn=  0.000000 ICntrl=       500 IOpCl=  0 I1Cent=   200000004 NGrid=           0
         NMat0=    1 NMatS0=      1 NMatT0=    0 NMatD0=    1 NMtDS0=    0 NMtDT0=    0
 Petite list used in FoFCou.
 Harris En= -2937.49853639071    
 JPrj=0 DoOrth=F DoCkMO=F.
 Leave Link  401 at Tue Sep 17 09:49:44 2024, MaxMem=  1342177280 cpu:               4.9 elap:               0.7
 (Enter /groups/ReismanLab/Software/Gaussian16_RevC/Linux_Binary_AVX2-enabled-CPU/g16/l502.exe)
 Integral symmetry usage will be decided dynamically.
 Closed shell SCF:
 Using DIIS extrapolation, IDIIS=  1040.
 NGot=  1342177280 LenX=  1342080281 LenY=  1342033615
 Requested convergence on RMS density matrix=1.00D-08 within  32 cycles.
 Requested convergence on MAX density matrix=1.00D-06.
 Requested convergence on             energy=1.00D-06.
 No special actions if energy rises.
 Fock matrices will be formed incrementally for  20 cycles.
 Integral accuracy reduced to 1.0D-05 until final iterations.

 Cycle   1  Pass 0  IDiag  1:
 FoFJK:  IHMeth= 1 ICntrl=       0 DoSepK=F KAlg= 0 I1Cent=           0 FoldK=F
 IRaf= 880000000 NMat=       1 IRICut=       1 DoRegI=T DoRafI=F ISym2E= 0 IDoP0=0 IntGTp=1.
 FoFCou: FMM=F IPFlag=           0 FMFlag=      100000 FMFlg1=           0
         NFxFlg=           0 DoJE=F BraDBF=F KetDBF=F FulRan=T
         wScrn=  0.000000 ICntrl=         0 IOpCl=  0 I1Cent=           0 NGrid=           0
         NMat0=    1 NMatS0=      1 NMatT0=    0 NMatD0=    1 NMtDS0=    0 NMtDT0=    0
 Symmetry not used in FoFCou.
 E= -2937.13248829732    
 DIIS: error= 2.14D-01 at cycle   1 NSaved=   1.
 NSaved= 1 IEnMin= 1 EnMin= -2937.13248829732     IErMin= 1 ErrMin= 2.14D-01
 ErrMax= 2.14D-01  0.00D+00 EMaxC= 1.00D-01 BMatC= 5.71D-01 BMatP= 5.71D-01
 IDIUse=3 WtCom= 0.00D+00 WtEn= 1.00D+00
 Coeff-Com:  0.100D+01
 Coeff-En:   0.100D+01
 Coeff:      0.100D+01
 Gap=     0.245 Goal=   None    Shift=    0.000
 GapD=    0.245 DampG=1.000 DampE=0.250 DampFc=0.2500 IDamp=-1.
 Damping current iteration by 2.50D-01
 RMSDP=5.32D-03 MaxDP=1.43D-01              OVMax= 1.78D-01

 Cycle   2  Pass 0  IDiag  1:
 RMSU=  1.28D-03    CP:  9.92D-01
 E= -2937.21843142269     Delta-E=       -0.085943125375 Rises=F Damp=T
 DIIS: error= 1.58D-01 at cycle   2 NSaved=   2.
 NSaved= 2 IEnMin= 2 EnMin= -2937.21843142269     IErMin= 2 ErrMin= 1.58D-01
 ErrMax= 1.58D-01  0.00D+00 EMaxC= 1.00D-01 BMatC= 2.50D-01 BMatP= 5.71D-01
 IDIUse=3 WtCom= 0.00D+00 WtEn= 1.00D+00
 Coeff-Com: -0.147D+01 0.247D+01
 Coeff-En:   0.000D+00 0.100D+01
 Coeff:      0.000D+00 0.100D+01
 Gap=     0.199 Goal=   None    Shift=    0.000
 RMSDP=2.82D-03 MaxDP=1.12D-01 DE=-8.59D-02 OVMax= 7.45D-02

 Cycle   3  Pass 0  IDiag  1:
 RMSU=  9.37D-04    CP:  9.68D-01  2.91D+00
 E= -2937.32093472131     Delta-E=       -0.102503298617 Rises=F Damp=F
 DIIS: error= 2.01D-02 at cycle   3 NSaved=   3.
 NSaved= 3 IEnMin= 3 EnMin= -2937.32093472131     IErMin= 3 ErrMin= 2.01D-02
 ErrMax= 2.01D-02  0.00D+00 EMaxC= 1.00D-01 BMatC= 4.94D-02 BMatP= 2.50D-01
 IDIUse=3 WtCom= 7.99D-01 WtEn= 2.01D-01
 Coeff-Com:  0.181D+01-0.233D+01 0.153D+01
 Coeff-En:   0.113D+00 0.000D+00 0.887D+00
 Coeff:      0.147D+01-0.187D+01 0.140D+01
 Gap=     0.227 Goal=   None    Shift=    0.000
 RMSDP=1.38D-03 MaxDP=3.44D-02 DE=-1.03D-01 OVMax= 4.98D-02

 Cycle   4  Pass 0  IDiag  1:
 RMSU=  6.26D-04    CP:  9.69D-01  2.00D+00  1.39D+00
 E= -2937.36581139891     Delta-E=       -0.044876677603 Rises=F Damp=F
 DIIS: error= 7.17D-03 at cycle   4 NSaved=   4.
 NSaved= 4 IEnMin= 4 EnMin= -2937.36581139891     IErMin= 4 ErrMin= 7.17D-03
 ErrMax= 7.17D-03  0.00D+00 EMaxC= 1.00D-01 BMatC= 6.69D-03 BMatP= 4.94D-02
 IDIUse=3 WtCom= 9.28D-01 WtEn= 7.17D-02
 Coeff-Com:  0.954D+00-0.125D+01 0.835D+00 0.464D+00
 Coeff-En:   0.000D+00 0.000D+00 0.000D+00 0.100D+01
 Coeff:      0.886D+00-0.116D+01 0.775D+00 0.502D+00
 Gap=     0.189 Goal=   None    Shift=    0.000
 RMSDP=5.54D-04 MaxDP=1.72D-02 DE=-4.49D-02 OVMax= 4.26D-02

 Cycle   5  Pass 0  IDiag  1:
 RMSU=  1.97D-04    CP:  9.69D-01  2.11D+00  1.39D+00  2.07D-01
 E= -2937.37222254088     Delta-E=       -0.006411141963 Rises=F Damp=F
 DIIS: error= 2.34D-03 at cycle   5 NSaved=   5.
 NSaved= 5 IEnMin= 5 EnMin= -2937.37222254088     IErMin= 5 ErrMin= 2.34D-03
 ErrMax= 2.34D-03  0.00D+00 EMaxC= 1.00D-01 BMatC= 7.68D-04 BMatP= 6.69D-03
 IDIUse=3 WtCom= 9.77D-01 WtEn= 2.34D-02
 Coeff-Com:  0.205D+00-0.269D+00 0.205D+00 0.291D+00 0.568D+00
 Coeff-En:   0.000D+00 0.000D+00 0.000D+00 0.971D-01 0.903D+00
 Coeff:      0.200D+00-0.262D+00 0.200D+00 0.286D+00 0.576D+00
 Gap=     0.189 Goal=   None    Shift=    0.000
 RMSDP=1.79D-04 MaxDP=5.87D-03 DE=-6.41D-03 OVMax= 1.43D-02

 Cycle   6  Pass 0  IDiag  1:
 RMSU=  5.45D-05    CP:  9.69D-01  2.11D+00  1.40D+00  4.22D-01  4.77D-01
 E= -2937.37305759810     Delta-E=       -0.000835057226 Rises=F Damp=F
 DIIS: error= 4.46D-04 at cycle   6 NSaved=   6.
 NSaved= 6 IEnMin= 6 EnMin= -2937.37305759810     IErMin= 6 ErrMin= 4.46D-04
 ErrMax= 4.46D-04  0.00D+00 EMaxC= 1.00D-01 BMatC= 4.22D-05 BMatP= 7.68D-04
 IDIUse=3 WtCom= 9.96D-01 WtEn= 4.46D-03
 Coeff-Com:  0.490D-01-0.644D-01 0.563D-01 0.128D+00 0.319D+00 0.512D+00
 Coeff-En:   0.000D+00 0.000D+00 0.000D+00 0.000D+00 0.000D+00 0.100D+01
 Coeff:      0.488D-01-0.641D-01 0.560D-01 0.127D+00 0.318D+00 0.514D+00
 Gap=     0.189 Goal=   None    Shift=    0.000
 RMSDP=3.43D-05 MaxDP=8.41D-04 DE=-8.35D-04 OVMax= 2.33D-03

 Cycle   7  Pass 0  IDiag  1:
 RMSU=  1.37D-05    CP:  9.69D-01  2.11D+00  1.39D+00  4.13D-01  5.56D-01
                    CP:  5.63D-01
 E= -2937.37309988792     Delta-E=       -0.000042289812 Rises=F Damp=F
 DIIS: error= 7.93D-05 at cycle   7 NSaved=   7.
 NSaved= 7 IEnMin= 7 EnMin= -2937.37309988792     IErMin= 7 ErrMin= 7.93D-05
 ErrMax= 7.93D-05  0.00D+00 EMaxC= 1.00D-01 BMatC= 1.28D-06 BMatP= 4.22D-05
 IDIUse=1 WtCom= 1.00D+00 WtEn= 0.00D+00
 Coeff-Com:  0.116D-01-0.152D-01 0.146D-01 0.422D-01 0.113D+00 0.235D+00
 Coeff-Com:  0.599D+00
 Coeff:      0.116D-01-0.152D-01 0.146D-01 0.422D-01 0.113D+00 0.235D+00
 Coeff:      0.599D+00
 Gap=     0.189 Goal=   None    Shift=    0.000
 RMSDP=6.41D-06 MaxDP=2.09D-04 DE=-4.23D-05 OVMax= 3.92D-04

 Initial convergence to 1.0D-05 achieved.  Increase integral accuracy.
 Cycle   8  Pass 1  IDiag  1:
 E= -2937.37313033060     Delta-E=       -0.000030442687 Rises=F Damp=F
 DIIS: error= 2.87D-05 at cycle   1 NSaved=   1.
 NSaved= 1 IEnMin= 1 EnMin= -2937.37313033060     IErMin= 1 ErrMin= 2.87D-05
 ErrMax= 2.87D-05  0.00D+00 EMaxC= 1.00D-01 BMatC= 2.48D-07 BMatP= 2.48D-07
 IDIUse=1 WtCom= 1.00D+00 WtEn= 0.00D+00
 Coeff-Com:  0.100D+01
 Coeff:      0.100D+01
 Gap=     0.189 Goal=   None    Shift=    0.000
 RMSDP=6.41D-06 MaxDP=2.09D-04 DE=-3.04D-05 OVMax= 3.06D-04

 Cycle   9  Pass 1  IDiag  1:
 RMSU=  1.37D-05    CP:  1.00D+00
 E= -2937.37313018047     Delta-E=        0.000000150133 Rises=F Damp=F
 DIIS: error= 4.47D-05 at cycle   2 NSaved=   2.
 NSaved= 2 IEnMin= 1 EnMin= -2937.37313033060     IErMin= 1 ErrMin= 2.87D-05
 ErrMax= 4.47D-05  0.00D+00 EMaxC= 1.00D-01 BMatC= 3.95D-07 BMatP= 2.48D-07
 IDIUse=1 WtCom= 1.00D+00 WtEn= 0.00D+00
 Coeff-Com:  0.564D+00 0.436D+00
 Coeff:      0.564D+00 0.436D+00
 Gap=     0.189 Goal=   None    Shift=    0.000
 RMSDP=2.87D-06 MaxDP=1.44D-04 DE= 1.50D-07 OVMax= 2.33D-04

 Cycle  10  Pass 1  IDiag  1:
 RMSU=  2.83D-06    CP:  1.00D+00  9.68D-01
 E= -2937.37313051566     Delta-E=       -0.000000335194 Rises=F Damp=F
 DIIS: error= 9.73D-06 at cycle   3 NSaved=   3.
 NSaved= 3 IEnMin= 3 EnMin= -2937.37313051566     IErMin= 3 ErrMin= 9.73D-06
 ErrMax= 9.73D-06  0.00D+00 EMaxC= 1.00D-01 BMatC= 1.16D-08 BMatP= 2.48D-07
 IDIUse=1 WtCom= 1.00D+00 WtEn= 0.00D+00
 Coeff-Com:  0.802D-01 0.161D+00 0.759D+00
 Coeff:      0.802D-01 0.161D+00 0.759D+00
 Gap=     0.189 Goal=   None    Shift=    0.000
 RMSDP=7.69D-07 MaxDP=2.48D-05 DE=-3.35D-07 OVMax= 6.50D-05

 Cycle  11  Pass 1  IDiag  1:
 RMSU=  6.11D-07    CP:  1.00D+00  9.75D-01  8.39D-01
 E= -2937.37313052183     Delta-E=       -0.000000006171 Rises=F Damp=F
 DIIS: error= 4.90D-06 at cycle   4 NSaved=   4.
 NSaved= 4 IEnMin= 4 EnMin= -2937.37313052183     IErMin= 4 ErrMin= 4.90D-06
 ErrMax= 4.90D-06  0.00D+00 EMaxC= 1.00D-01 BMatC= 5.24D-09 BMatP= 1.16D-08
 IDIUse=1 WtCom= 1.00D+00 WtEn= 0.00D+00
 Coeff-Com:  0.240D-02 0.653D-01 0.492D+00 0.441D+00
 Coeff:      0.240D-02 0.653D-01 0.492D+00 0.441D+00
 Gap=     0.189 Goal=   None    Shift=    0.000
 RMSDP=3.79D-07 MaxDP=1.74D-05 DE=-6.17D-09 OVMax= 2.87D-05

 Cycle  12  Pass 1  IDiag  1:
 RMSU=  1.35D-07    CP:  1.00D+00  9.78D-01  8.77D-01  4.52D-01
 E= -2937.37313052706     Delta-E=       -0.000000005224 Rises=F Damp=F
 DIIS: error= 9.46D-07 at cycle   5 NSaved=   5.
 NSaved= 5 IEnMin= 5 EnMin= -2937.37313052706     IErMin= 5 ErrMin= 9.46D-07
 ErrMax= 9.46D-07  0.00D+00 EMaxC= 1.00D-01 BMatC= 2.19D-10 BMatP= 5.24D-09
 IDIUse=1 WtCom= 1.00D+00 WtEn= 0.00D+00
 Coeff-Com: -0.149D-02 0.340D-01 0.277D+00 0.275D+00 0.415D+00
 Coeff:     -0.149D-02 0.340D-01 0.277D+00 0.275D+00 0.415D+00
 Gap=     0.189 Goal=   None    Shift=    0.000
 RMSDP=8.64D-08 MaxDP=2.74D-06 DE=-5.22D-09 OVMax= 7.23D-06

 Cycle  13  Pass 1  IDiag  1:
 RMSU=  3.54D-08    CP:  1.00D+00  9.78D-01  8.75D-01  4.74D-01  4.30D-01
 E= -2937.37313052731     Delta-E=       -0.000000000250 Rises=F Damp=F
 DIIS: error= 1.75D-07 at cycle   6 NSaved=   6.
 NSaved= 6 IEnMin= 6 EnMin= -2937.37313052731     IErMin= 6 ErrMin= 1.75D-07
 ErrMax= 1.75D-07  0.00D+00 EMaxC= 1.00D-01 BMatC= 6.87D-12 BMatP= 2.19D-10
 IDIUse=1 WtCom= 1.00D+00 WtEn= 0.00D+00
 Coeff-Com: -0.959D-03 0.115D-01 0.990D-01 0.102D+00 0.210D+00 0.578D+00
 Coeff:     -0.959D-03 0.115D-01 0.990D-01 0.102D+00 0.210D+00 0.578D+00
 Gap=     0.189 Goal=   None    Shift=    0.000
 RMSDP=1.48D-08 MaxDP=3.95D-07 DE=-2.50D-10 OVMax= 1.05D-06

 Cycle  14  Pass 1  IDiag  1:
 RMSU=  9.42D-09    CP:  1.00D+00  9.78D-01  8.75D-01  4.72D-01  4.84D-01
                    CP:  7.56D-01
 E= -2937.37313052728     Delta-E=        0.000000000030 Rises=F Damp=F
 DIIS: error= 3.18D-08 at cycle   7 NSaved=   7.
 NSaved= 7 IEnMin= 6 EnMin= -2937.37313052731     IErMin= 7 ErrMin= 3.18D-08
 ErrMax= 3.18D-08  0.00D+00 EMaxC= 1.00D-01 BMatC= 2.82D-13 BMatP= 6.87D-12
 IDIUse=1 WtCom= 1.00D+00 WtEn= 0.00D+00
 Coeff-Com: -0.293D-03 0.244D-02 0.228D-01 0.244D-01 0.579D-01 0.233D+00
 Coeff-Com:  0.659D+00
 Coeff:     -0.293D-03 0.244D-02 0.228D-01 0.244D-01 0.579D-01 0.233D+00
 Coeff:      0.659D+00
 Gap=     0.189 Goal=   None    Shift=    0.000
 RMSDP=3.16D-09 MaxDP=9.96D-08 DE= 3.00D-11 OVMax= 1.96D-07

 SCF Done:  E(RB3LYP) =  -2937.37313053     A.U. after   14 cycles
            NFock= 14  Conv=0.32D-08     -V/T= 2.0065
 KE= 2.918349563957D+03 PE=-8.425191525937D+03 EE= 1.847349288350D+03
 Leave Link  502 at Tue Sep 17 09:49:55 2024, MaxMem=  1342177280 cpu:              82.1 elap:              10.7
 (Enter /groups/ReismanLab/Software/Gaussian16_RevC/Linux_Binary_AVX2-enabled-CPU/g16/l508.exe)
 QCSCF skips out because SCF is already converged.
 Leave Link  508 at Tue Sep 17 09:49:55 2024, MaxMem=  1342177280 cpu:               0.0 elap:               0.0
 (Enter /groups/ReismanLab/Software/Gaussian16_RevC/Linux_Binary_AVX2-enabled-CPU/g16/l601.exe)
 Copying SCF densities to generalized density rwf, IOpCl= 0 IROHF=0.

 **********************************************************************

            Population analysis using the SCF Density.

 **********************************************************************

 Orbital symmetries:
       Occupied  (A) (A) (A) (A) (A) (A) (A) (A) (A) (A) (A) (A)
                 (A) (A) (A) (A) (A) (A) (A) (A) (A) (A) (A) (A)
                 (A) (A) (A) (A) (A) (A) (A) (A) (A) (A) (A) (A)
                 (A) (A) (A) (A) (A) (A) (A) (A) (A) (A) (A) (A)
                 (A) (A)
       Virtual   (A) (A) (A) (A) (A) (A) (A) (A) (A) (A) (A) (A)
                 (A) (A) (A) (A) (A) (A) (A) (A) (A) (A) (A) (A)
                 (A) (A) (A) (A) (A) (A) (A) (A) (A) (A) (A) (A)
                 (A) (A) (A) (A) (A) (A) (A) (A) (A) (A) (A) (A)
                 (A) (A) (A) (A) (A) (A) (A) (A) (A) (A) (A) (A)
                 (A) (A) (A) (A) (A) (A) (A) (A) (A) (A) (A) (A)
                 (A) (A) (A) (A) (A) (A) (A) (A) (A) (A) (A) (A)
                 (A) (A) (A) (A) (A) (A) (A) (A) (A) (A) (A) (A)
                 (A) (A) (A) (A) (A) (A) (A) (A) (A) (A) (A) (A)
                 (A) (A) (A) (A) (A) (A) (A) (A) (A) (A) (A) (A)
                 (A) (A) (A) (A) (A) (A) (A) (A) (A) (A) (A) (A)
                 (A) (A) (A) (A) (A) (A) (A) (A) (A) (A) (A) (A)
                 (A) (A) (A) (A) (A) (A) (A) (A) (A) (A) (A) (A)
                 (A) (A) (A) (A) (A) (A) (A) (A) (A)
 The electronic state is 1-A.
 Alpha  occ. eigenvalues -- -482.89540 -61.85709 -56.37840 -56.37439 -56.37422
 Alpha  occ. eigenvalues --  -14.35622 -10.22753 -10.22292 -10.22190 -10.22189
 Alpha  occ. eigenvalues --  -10.19000 -10.19000 -10.18305 -10.18305  -8.56845
 Alpha  occ. eigenvalues --   -6.52224  -6.50965  -6.50960  -2.63800  -2.63434
 Alpha  occ. eigenvalues --   -2.63432  -2.62427  -2.62427  -0.95898  -0.85962
 Alpha  occ. eigenvalues --   -0.78694  -0.75673  -0.72937  -0.72534  -0.65362
 Alpha  occ. eigenvalues --   -0.61004  -0.57513  -0.53210  -0.49050  -0.47319
 Alpha  occ. eigenvalues --   -0.45703  -0.45317  -0.43076  -0.42575  -0.41548
 Alpha  occ. eigenvalues --   -0.40306  -0.38743  -0.37852  -0.35340  -0.34299
 Alpha  occ. eigenvalues --   -0.31544  -0.27266  -0.26219  -0.25372  -0.18870
 Alpha virt. eigenvalues --    0.00014   0.01549   0.02255   0.08642   0.10497
 Alpha virt. eigenvalues --    0.12189   0.13017   0.15376   0.15891   0.16707
 Alpha virt. eigenvalues --    0.16966   0.17229   0.17515   0.18894   0.21837
 Alpha virt. eigenvalues --    0.24549   0.24929   0.29974   0.30058   0.32373
 Alpha virt. eigenvalues --    0.33386   0.37621   0.42573   0.45543   0.46706
 Alpha virt. eigenvalues --    0.47846   0.47891   0.48093   0.50244   0.50389
 Alpha virt. eigenvalues --    0.51301   0.54334   0.55004   0.56183   0.56191
 Alpha virt. eigenvalues --    0.56988   0.58698   0.59723   0.60062   0.61537
 Alpha virt. eigenvalues --    0.63962   0.65231   0.69289   0.69865   0.71842
 Alpha virt. eigenvalues --    0.72222   0.74261   0.78168   0.79401   0.79781
 Alpha virt. eigenvalues --    0.81162   0.81991   0.82194   0.83951   0.85105
 Alpha virt. eigenvalues --    0.85871   0.87155   0.89406   0.91045   0.92207
 Alpha virt. eigenvalues --    0.93724   0.95622   0.95851   1.01530   1.02005
 Alpha virt. eigenvalues --    1.04099   1.06022   1.11682   1.18175   1.19298
 Alpha virt. eigenvalues --    1.21278   1.25008   1.26964   1.29178   1.32081
 Alpha virt. eigenvalues --    1.37253   1.37647   1.40590   1.41331   1.42340
 Alpha virt. eigenvalues --    1.44802   1.53571   1.55210   1.55616   1.59997
 Alpha virt. eigenvalues --    1.69815   1.70058   1.77602   1.82409   1.84614
 Alpha virt. eigenvalues --    1.84618   1.86695   1.87388   1.92514   1.93768
 Alpha virt. eigenvalues --    1.93910   1.96371   1.99043   2.00666   2.01682
 Alpha virt. eigenvalues --    2.02923   2.03049   2.04835   2.06351   2.07843
 Alpha virt. eigenvalues --    2.09031   2.10084   2.11822   2.14673   2.20087
 Alpha virt. eigenvalues --    2.20472   2.28303   2.29157   2.32516   2.32894
 Alpha virt. eigenvalues --    2.36930   2.41746   2.41908   2.44423   2.46159
 Alpha virt. eigenvalues --    2.49331   2.52415   2.53289   2.55457   2.57233
 Alpha virt. eigenvalues --    2.57483   2.60783   2.67119   2.67334   2.70043
 Alpha virt. eigenvalues --    2.71631   2.72242   2.74244   2.75799   2.80648
 Alpha virt. eigenvalues --    2.81000   2.82922   2.84786   2.92124   3.02964
 Alpha virt. eigenvalues --    3.06233   3.13924   3.17554   3.19067   3.23657
 Alpha virt. eigenvalues --    3.26902   3.34873   3.37312   3.40252   3.42338
 Alpha virt. eigenvalues --    3.45742   3.51703   3.53698   3.82143   4.09940
 Alpha virt. eigenvalues --    4.12484   4.15991   4.21587   4.39773   4.43973
 Alpha virt. eigenvalues --    4.48563   4.53517   4.83043   8.62239  72.82869
          Condensed to atoms (all electrons):
               1          2          3          4          5          6
     1  C    4.787176   0.331079  -0.058454  -0.040218  -0.010138   0.000053
     2  N    0.331079   6.943563   0.331059   0.318407  -0.075705   0.005753
     3  C   -0.058454   0.331059   4.787197  -0.040209   0.006137  -0.000089
     4  C   -0.040218   0.318407  -0.040209   4.524127   0.515241  -0.014622
     5  C   -0.010138  -0.075705   0.006137   0.515241   4.978363   0.508372
     6  C    0.000053   0.005753  -0.000089  -0.014622   0.508372   4.868841
     7  C    0.000000   0.000483   0.000001  -0.033348  -0.036787   0.534081
     8  Br  -0.000000   0.000002  -0.000000   0.000383   0.005925  -0.059327
     9  C   -0.000089   0.005751   0.000053  -0.014625  -0.047295  -0.031330
    10  C    0.006139  -0.075710  -0.010141   0.515215  -0.055625  -0.047293
    11  H    0.385607  -0.030920  -0.009020   0.003864   0.000383  -0.000011
    12  H    0.384751  -0.044772   0.004102  -0.007153   0.005129   0.000275
    13  H    0.378778  -0.050155   0.002292  -0.004175   0.005403   0.000057
    14  H   -0.009018  -0.030911   0.385607   0.003865  -0.000178   0.000003
    15  H    0.002303  -0.050128   0.378771  -0.004184   0.000043  -0.000008
    16  H    0.004094  -0.044814   0.384772  -0.007138  -0.000228   0.000001
    17  H    0.007623  -0.013088  -0.000021  -0.040477   0.362883  -0.037701
    18  H    0.000001  -0.000118   0.000002   0.003891  -0.036276   0.367135
    19  H    0.000002  -0.000118   0.000001   0.003892   0.000636   0.005592
    20  H   -0.000020  -0.013085   0.007624  -0.040481   0.005544   0.000620
               7          8          9         10         11         12
     1  C    0.000000  -0.000000  -0.000089   0.006139   0.385607   0.384751
     2  N    0.000483   0.000002   0.005751  -0.075710  -0.030920  -0.044772
     3  C    0.000001  -0.000000   0.000053  -0.010141  -0.009020   0.004102
     4  C   -0.033348   0.000383  -0.014625   0.515215   0.003864  -0.007153
     5  C   -0.036787   0.005925  -0.047295  -0.055625   0.000383   0.005129
     6  C    0.534081  -0.059327  -0.031330  -0.047293  -0.000011   0.000275
     7  C    4.818999   0.247547   0.534064  -0.036787   0.000000  -0.000012
     8  Br   0.247547  35.024236  -0.059326   0.005925  -0.000000   0.000000
     9  C    0.534064  -0.059326   4.868817   0.508409   0.000003   0.000001
    10  C   -0.036787   0.005925   0.508409   4.978324  -0.000178  -0.000227
    11  H    0.000000  -0.000000   0.000003  -0.000178   0.594261  -0.027721
    12  H   -0.000012   0.000000   0.000001  -0.000227  -0.027721   0.617107
    13  H   -0.000013   0.000000  -0.000008   0.000040  -0.031962  -0.053426
    14  H    0.000000  -0.000000  -0.000011   0.000382   0.005606   0.000407
    15  H   -0.000013   0.000000   0.000058   0.005431   0.000064  -0.000473
    16  H   -0.000012   0.000000   0.000274   0.005098   0.000414   0.000217
    17  H    0.004768  -0.000169   0.000620   0.005544   0.000004  -0.000231
    18  H   -0.042979  -0.003339   0.005592   0.000636  -0.000000  -0.000000
    19  H   -0.042980  -0.003339   0.367136  -0.036279  -0.000000   0.000000
    20  H    0.004768  -0.000169  -0.037697   0.362883  -0.000005  -0.000005
              13         14         15         16         17         18
     1  C    0.378778  -0.009018   0.002303   0.004094   0.007623   0.000001
     2  N   -0.050155  -0.030911  -0.050128  -0.044814  -0.013088  -0.000118
     3  C    0.002292   0.385607   0.378771   0.384772  -0.000021   0.000002
     4  C   -0.004175   0.003865  -0.004184  -0.007138  -0.040477   0.003891
     5  C    0.005403  -0.000178   0.000043  -0.000228   0.362883  -0.036276
     6  C    0.000057   0.000003  -0.000008   0.000001  -0.037701   0.367135
     7  C   -0.000013   0.000000  -0.000013  -0.000012   0.004768  -0.042979
     8  Br   0.000000  -0.000000   0.000000   0.000000  -0.000169  -0.003339
     9  C   -0.000008  -0.000011   0.000058   0.000274   0.000620   0.005592
    10  C    0.000040   0.000382   0.005431   0.005098   0.005544   0.000636
    11  H   -0.031962   0.005606   0.000064   0.000414   0.000004  -0.000000
    12  H   -0.053426   0.000407  -0.000473   0.000217  -0.000231  -0.000000
    13  H    0.636147   0.000072   0.001330  -0.000474   0.000403  -0.000001
    14  H    0.000072   0.594245  -0.031879  -0.027789  -0.000005  -0.000000
    15  H    0.001330  -0.031879   0.635997  -0.053440  -0.000001   0.000000
    16  H   -0.000474  -0.027789  -0.053440   0.617262  -0.000005   0.000000
    17  H    0.000403  -0.000005  -0.000001  -0.000005   0.633954  -0.007415
    18  H   -0.000001  -0.000000   0.000000   0.000000  -0.007415   0.612507
    19  H    0.000000  -0.000000  -0.000001  -0.000000   0.000017  -0.000194
    20  H   -0.000002   0.000004   0.000394  -0.000221  -0.000198   0.000017
              19         20
     1  C    0.000002  -0.000020
     2  N   -0.000118  -0.013085
     3  C    0.000001   0.007624
     4  C    0.003892  -0.040481
     5  C    0.000636   0.005544
     6  C    0.005592   0.000620
     7  C   -0.042980   0.004768
     8  Br  -0.003339  -0.000169
     9  C    0.367136  -0.037697
    10  C   -0.036279   0.362883
    11  H   -0.000000  -0.000005
    12  H    0.000000  -0.000005
    13  H    0.000000  -0.000002
    14  H   -0.000000   0.000004
    15  H   -0.000001   0.000394
    16  H   -0.000000  -0.000221
    17  H    0.000017  -0.000198
    18  H   -0.000194   0.000017
    19  H    0.612511  -0.007415
    20  H   -0.007415   0.633950
 Mulliken charges:
               1
     1  C   -0.169668
     2  N   -0.506575
     3  C   -0.169686
     4  C    0.357746
     5  C   -0.131825
     6  C   -0.100404
     7  C    0.048219
     8  Br  -0.158349
     9  C   -0.100397
    10  C   -0.131787
    11  H    0.109610
    12  H    0.122030
    13  H    0.115693
    14  H    0.109599
    15  H    0.115738
    16  H    0.121989
    17  H    0.083493
    18  H    0.100542
    19  H    0.100540
    20  H    0.083493
 Sum of Mulliken charges =  -0.00000
 Mulliken charges with hydrogens summed into heavy atoms:
               1
     1  C    0.177665
     2  N   -0.506575
     3  C    0.177639
     4  C    0.357746
     5  C   -0.048332
     6  C    0.000138
     7  C    0.048219
     8  Br  -0.158349
     9  C    0.000143
    10  C   -0.048294
 Electronic spatial extent (au):  <R**2>=           2965.1891
 Charge=             -0.0000 electrons
 Dipole moment (field-independent basis, Debye):
    X=              4.2474    Y=             -0.0001    Z=              0.1305  Tot=              4.2494
 Quadrupole moment (field-independent basis, Debye-Ang):
   XX=            -62.7011   YY=            -66.0905   ZZ=            -75.1742
   XY=             -0.0004   XZ=              0.4316   YZ=             -0.0011
 Traceless Quadrupole moment (field-independent basis, Debye-Ang):
   XX=              5.2875   YY=              1.8981   ZZ=             -7.1856
   XY=             -0.0004   XZ=              0.4316   YZ=             -0.0011
 Octapole moment (field-independent basis, Debye-Ang**2):
  XXX=            -23.2466  YYY=              0.0006  ZZZ=              0.7722  XYY=            -21.4986
  XXY=             -0.0006  XXZ=              1.4683  XZZ=            -29.2625  YZZ=             -0.0004
  YYZ=             -0.4669  XYZ=              0.0098
 Hexadecapole moment (field-independent basis, Debye-Ang**3):
 XXXX=          -2594.7482 YYYY=           -465.2731 ZZZZ=            -92.9095 XXXY=              0.0020
 XXXZ=              1.0637 YYYX=              0.0049 YYYZ=             -0.0225 ZZZX=             -0.2784
 ZZZY=              0.0092 XXYY=           -539.7526 XXZZ=           -510.9051 YYZZ=           -100.3904
 XXYZ=              0.0302 YYXZ=             -2.1955 ZZXY=             -0.0014
 N-N= 7.221195431022D+02 E-N=-8.425191531252D+03  KE= 2.918349563957D+03
 No NMR shielding tensors so no spin-rotation constants.
 Leave Link  601 at Tue Sep 17 09:49:55 2024, MaxMem=  1342177280 cpu:               0.7 elap:               0.1
 (Enter /groups/ReismanLab/Software/Gaussian16_RevC/Linux_Binary_AVX2-enabled-CPU/g16/l701.exe)
 ... and contract with generalized density number  0.
 Compute integral first derivatives.
 R6Disp: Adding Grimme-D3(BJ) dispersion energy 1st derivatives to the gradient.
 Leave Link  701 at Tue Sep 17 09:49:55 2024, MaxMem=  1342177280 cpu:               0.7 elap:               0.1
 (Enter /groups/ReismanLab/Software/Gaussian16_RevC/Linux_Binary_AVX2-enabled-CPU/g16/l702.exe)
 L702 exits ... SP integral derivatives will be done elsewhere.
 Leave Link  702 at Tue Sep 17 09:49:55 2024, MaxMem=  1342177280 cpu:               0.1 elap:               0.0
 (Enter /groups/ReismanLab/Software/Gaussian16_RevC/Linux_Binary_AVX2-enabled-CPU/g16/l703.exe)
 Integral derivatives from FoFJK, PRISM(SPDF).
 Compute integral first derivatives, UseDBF=F ICtDFT=           0.
 Calling FoFJK, ICntrl=      2127 FMM=F ISym2X=0 I1Cent= 0 IOpClX= 0 NMat=1 NMatS=1 NMatT=0.
 FoFJK:  IHMeth= 1 ICntrl=    2127 DoSepK=F KAlg= 0 I1Cent=           0 FoldK=F
 IRaf=         0 NMat=       1 IRICut=       1 DoRegI=T DoRafI=F ISym2E= 0 IDoP0=0 IntGTp=1.
 FoFCou: FMM=F IPFlag=           0 FMFlag=      100000 FMFlg1=         800
         NFxFlg=           0 DoJE=F BraDBF=F KetDBF=F FulRan=T
         wScrn=  0.000000 ICntrl=      2127 IOpCl=  0 I1Cent=           0 NGrid=           0
         NMat0=    1 NMatS0=      1 NMatT0=    0 NMatD0=    1 NMtDS0=    0 NMtDT0=    0
 Symmetry not used in FoFCou.
 Leave Link  703 at Tue Sep 17 09:49:58 2024, MaxMem=  1342177280 cpu:              23.9 elap:               3.1
 (Enter /groups/ReismanLab/Software/Gaussian16_RevC/Linux_Binary_AVX2-enabled-CPU/g16/l716.exe)
 Dipole        = 1.67106089D+00-4.64160522D-05 5.13329033D-02
 ***** Axes restored to original set *****
 -------------------------------------------------------------------
 Center     Atomic                   Forces (Hartrees/Bohr)
 Number     Number              X              Y              Z
 -------------------------------------------------------------------
      1        6           0.001210400    0.002060719   -0.000139289
      2        7          -0.010163260    0.000034103   -0.000562706
      3        6           0.001200070   -0.002091178   -0.000131813
      4        6           0.002317070   -0.000015412   -0.001554416
      5        6          -0.004544667    0.005414891    0.000420828
      6        6           0.005010535    0.003212292    0.000114790
      7        6           0.008269225   -0.000001496    0.000048212
      8       35           0.002016608    0.000000015   -0.000004106
      9        6           0.005010166   -0.003215513    0.000117444
     10        6          -0.004540087   -0.005396528    0.000424679
     11        1          -0.001710274   -0.000154804   -0.000224108
     12        1          -0.000196348    0.003346952   -0.000809912
     13        1          -0.000121798    0.002986796    0.001646999
     14        1          -0.001715561    0.000159072   -0.000223849
     15        1          -0.000116130   -0.002980497    0.001650510
     16        1          -0.000197389   -0.003354903   -0.000823173
     17        1          -0.002596596    0.003185962    0.000008145
     18        1           0.001732318    0.002735285    0.000019759
     19        1           0.001735454   -0.002735898    0.000017856
     20        1          -0.002599733   -0.003189859    0.000004152
 -------------------------------------------------------------------
 Cartesian Forces:  Max     0.010163260 RMS     0.002811667
 Leave Link  716 at Tue Sep 17 09:49:58 2024, MaxMem=  1342177280 cpu:               0.1 elap:               0.0
 (Enter /groups/ReismanLab/Software/Gaussian16_RevC/Linux_Binary_AVX2-enabled-CPU/g16/l103.exe)

 GradGradGradGradGradGradGradGradGradGradGradGradGradGradGradGradGradGrad
 Berny optimization.
 FormGI is forming the generalized inverse of G from B-inverse, IUseBI=4.
 Internal  Forces:  Max     0.011888178 RMS     0.003295260
 Search for a local minimum.
 Step number   1 out of a maximum of  103
 All quantities printed in internal units (Hartrees-Bohrs-Radians)
 RMS Force = .32953D-02 SwitMx=.10000D-02 MixMth= 1
 Mixed Optimization -- RFO/linear search
 Second derivative matrix not updated -- first step.
 ITU=  0
     Eigenvalues ---    0.01132   0.01133   0.01451   0.02043   0.02091
     Eigenvalues ---    0.02100   0.02176   0.02205   0.02285   0.02313
     Eigenvalues ---    0.02327   0.02339   0.02343   0.07368   0.07369
     Eigenvalues ---    0.07652   0.07653   0.16000   0.16000   0.16000
     Eigenvalues ---    0.16000   0.16000   0.16000   0.16000   0.16000
     Eigenvalues ---    0.16000   0.16000   0.17772   0.22000   0.22962
     Eigenvalues ---    0.23999   0.24413   0.24595   0.24996   0.25000
     Eigenvalues ---    0.34132   0.34134   0.34455   0.34455   0.35140
     Eigenvalues ---    0.35141   0.36060   0.36060   0.36376   0.36377
     Eigenvalues ---    0.39272   0.39277   0.42171   0.42829   0.46392
     Eigenvalues ---    0.47307   0.48716   0.49256   0.51016
 RFO step:  Lambda=-2.46978685D-03 EMin= 1.13222301D-02
 Linear search not attempted -- first point.
 Iteration  1 RMS(Cart)=  0.01853195 RMS(Int)=  0.00006713
 Iteration  2 RMS(Cart)=  0.00009456 RMS(Int)=  0.00002129
 Iteration  3 RMS(Cart)=  0.00000001 RMS(Int)=  0.00002129
 ITry= 1 IFail=0 DXMaxC= 5.38D-02 DCOld= 1.00D+10 DXMaxT= 3.00D-01 DXLimC= 3.00D+00 Rises=F
 Variable       Old X    -DE/DX   Delta X   Delta X   Delta X     New X
                                 (Linear)    (Quad)   (Total)
    R1        2.72555   0.00754   0.00000   0.01907   0.01907   2.74462
    R2        2.05448   0.00172   0.00000   0.00485   0.00485   2.05933
    R3        2.06569   0.00262   0.00000   0.00756   0.00756   2.07325
    R4        2.07108   0.00279   0.00000   0.00812   0.00812   2.07920
    R5        2.72548   0.00756   0.00000   0.01914   0.01914   2.74462
    R6        2.58854   0.01180   0.00000   0.02301   0.02301   2.61155
    R7        2.05446   0.00172   0.00000   0.00487   0.00487   2.05933
    R8        2.07105   0.00279   0.00000   0.00811   0.00811   2.07916
    R9        2.06569   0.00264   0.00000   0.00761   0.00761   2.07330
   R10        2.65374   0.00902   0.00000   0.01997   0.01998   2.67372
   R11        2.65378   0.00901   0.00000   0.01996   0.01996   2.67374
   R12        2.60625   0.01189   0.00000   0.02401   0.02401   2.63026
   R13        2.03498   0.00403   0.00000   0.01101   0.01101   2.04598
   R14        2.61352   0.00853   0.00000   0.01748   0.01747   2.63099
   R15        2.03988   0.00323   0.00000   0.00891   0.00891   2.04879
   R16        3.60932   0.00202   0.00000   0.01119   0.01119   3.62051
   R17        2.61354   0.00853   0.00000   0.01747   0.01747   2.63101
   R18        2.60623   0.01189   0.00000   0.02401   0.02401   2.63025
   R19        2.03987   0.00324   0.00000   0.00892   0.00892   2.04879
   R20        2.03496   0.00404   0.00000   0.01102   0.01102   2.04599
    A1        1.91038  -0.00058   0.00000  -0.00356  -0.00355   1.90682
    A2        1.93086   0.00253   0.00000   0.01554   0.01549   1.94635
    A3        1.95254   0.00211   0.00000   0.01297   0.01292   1.96546
    A4        1.88252  -0.00095   0.00000  -0.00585  -0.00585   1.87668
    A5        1.88931  -0.00076   0.00000  -0.00461  -0.00461   1.88470
    A6        1.89644  -0.00253   0.00000  -0.01561  -0.01569   1.88075
    A7        2.06949   0.00430   0.00000   0.01732   0.01732   2.08681
    A8        2.09620  -0.00214   0.00000  -0.00860  -0.00860   2.08761
    A9        2.09620  -0.00215   0.00000  -0.00862  -0.00862   2.08758
   A10        1.91043  -0.00059   0.00000  -0.00359  -0.00359   1.90684
   A11        1.95240   0.00210   0.00000   0.01294   0.01289   1.96529
   A12        1.93108   0.00253   0.00000   0.01553   0.01549   1.94657
   A13        1.88924  -0.00075   0.00000  -0.00458  -0.00458   1.88466
   A14        1.88255  -0.00095   0.00000  -0.00586  -0.00586   1.87669
   A15        1.89636  -0.00252   0.00000  -0.01556  -0.01564   1.88072
   A16        2.11809  -0.00002   0.00000   0.00005  -0.00001   2.11808
   A17        2.11797  -0.00001   0.00000   0.00009   0.00003   2.11800
   A18        2.04699   0.00004   0.00000   0.00014   0.00011   2.04710
   A19        2.11831  -0.00037   0.00000  -0.00178  -0.00177   2.11654
   A20        2.10631  -0.00063   0.00000  -0.00412  -0.00412   2.10218
   A21        2.05857   0.00100   0.00000   0.00590   0.00589   2.06446
   A22        2.09164   0.00081   0.00000   0.00352   0.00352   2.09517
   A23        2.09350  -0.00026   0.00000  -0.00091  -0.00091   2.09260
   A24        2.09803  -0.00054   0.00000  -0.00262  -0.00262   2.09542
   A25        2.09186   0.00045   0.00000   0.00183   0.00184   2.09370
   A26        2.09946  -0.00090   0.00000  -0.00367  -0.00368   2.09577
   A27        2.09186   0.00045   0.00000   0.00183   0.00184   2.09370
   A28        2.09166   0.00080   0.00000   0.00351   0.00350   2.09516
   A29        2.09804  -0.00054   0.00000  -0.00263  -0.00262   2.09542
   A30        2.09348  -0.00026   0.00000  -0.00088  -0.00088   2.09260
   A31        2.11829  -0.00037   0.00000  -0.00176  -0.00174   2.11655
   A32        2.10631  -0.00063   0.00000  -0.00414  -0.00414   2.10217
   A33        2.05859   0.00100   0.00000   0.00589   0.00589   2.06447
    D1       -0.21071  -0.00018   0.00000  -0.00616  -0.00617  -0.21687
    D2       -3.13231   0.00001   0.00000  -0.00560  -0.00560  -3.13792
    D3       -2.28280  -0.00018   0.00000  -0.00622  -0.00618  -2.28898
    D4        1.07878   0.00001   0.00000  -0.00566  -0.00562   1.07316
    D5        1.88334  -0.00017   0.00000  -0.00603  -0.00606   1.87728
    D6       -1.03827   0.00003   0.00000  -0.00547  -0.00550  -1.04377
    D7        0.20792   0.00018   0.00000   0.00618   0.00618   0.21410
    D8       -1.88598   0.00017   0.00000   0.00605   0.00609  -1.87990
    D9        2.28020   0.00018   0.00000   0.00620   0.00616   2.28636
   D10        3.12952  -0.00001   0.00000   0.00563   0.00562   3.13515
   D11        1.03562  -0.00002   0.00000   0.00549   0.00552   1.04115
   D12       -1.08138  -0.00001   0.00000   0.00564   0.00560  -1.07577
   D13       -0.11935   0.00051   0.00000   0.01011   0.01012  -0.10923
   D14        3.04037   0.00009   0.00000  -0.00818  -0.00817   3.03220
   D15       -3.03757  -0.00010   0.00000   0.00740   0.00740  -3.03018
   D16        0.12215  -0.00053   0.00000  -0.01089  -0.01090   0.11125
   D17       -3.11800  -0.00026   0.00000  -0.01124  -0.01124  -3.12924
   D18        0.02393  -0.00025   0.00000  -0.01088  -0.01088   0.01305
   D19        0.00618   0.00015   0.00000   0.00634   0.00634   0.01252
   D20       -3.13508   0.00016   0.00000   0.00670   0.00670  -3.12838
   D21        3.11796   0.00026   0.00000   0.01131   0.01131   3.12927
   D22       -0.02373   0.00025   0.00000   0.01086   0.01086  -0.01287
   D23       -0.00622  -0.00015   0.00000  -0.00626  -0.00627  -0.01248
   D24        3.13528  -0.00016   0.00000  -0.00672  -0.00672   3.12857
   D25       -0.00269  -0.00005   0.00000  -0.00230  -0.00229  -0.00498
   D26        3.14157  -0.00004   0.00000  -0.00171  -0.00171   3.13986
   D27        3.13857  -0.00006   0.00000  -0.00265  -0.00265   3.13593
   D28       -0.00036  -0.00005   0.00000  -0.00206  -0.00206  -0.00242
   D29       -3.13901  -0.00001   0.00000  -0.00037  -0.00037  -3.13938
   D30       -0.00102  -0.00005   0.00000  -0.00208  -0.00208  -0.00310
   D31       -0.00009  -0.00002   0.00000  -0.00095  -0.00095  -0.00104
   D32        3.13791  -0.00006   0.00000  -0.00267  -0.00266   3.13524
   D33        0.00097   0.00005   0.00000   0.00215   0.00215   0.00313
   D34       -3.13800   0.00006   0.00000   0.00267   0.00267  -3.13533
   D35        3.13897   0.00001   0.00000   0.00044   0.00044   3.13941
   D36       -0.00001   0.00002   0.00000   0.00096   0.00096   0.00095
   D37        0.00277   0.00005   0.00000   0.00215   0.00215   0.00492
   D38       -3.13873   0.00006   0.00000   0.00259   0.00259  -3.13614
   D39       -3.14143   0.00004   0.00000   0.00163   0.00163  -3.13980
   D40        0.00025   0.00005   0.00000   0.00207   0.00207   0.00232
         Item               Value     Threshold  Converged?
 Maximum Force            0.011888     0.000450     NO 
 RMS     Force            0.003295     0.000300     NO 
 Maximum Displacement     0.053818     0.001800     NO 
 RMS     Displacement     0.018489     0.001200     NO 
 Predicted change in Energy=-1.244999D-03
 Lowest energy point so far.  Saving SCF results.
 GradGradGradGradGradGradGradGradGradGradGradGradGradGradGradGradGradGrad

 Leave Link  103 at Tue Sep 17 09:49:58 2024, MaxMem=  1342177280 cpu:               0.1 elap:               0.0
 (Enter /groups/ReismanLab/Software/Gaussian16_RevC/Linux_Binary_AVX2-enabled-CPU/g16/l202.exe)
                          Input orientation:                          
 ---------------------------------------------------------------------
 Center     Atomic      Atomic             Coordinates (Angstroms)
 Number     Number       Type             X           Y           Z
 ---------------------------------------------------------------------
      1          6           0       -4.106505    1.255053    0.049733
      2          7           0       -3.386051   -0.000047   -0.073191
      3          6           0       -4.106407   -1.255032    0.051467
      4          6           0       -2.004388    0.000008   -0.043912
      5          6           0       -1.268354    1.208251   -0.027826
      6          6           0        0.123442    1.206218   -0.013037
      7          6           0        0.818725    0.000005   -0.007881
      8         35           0        2.734466   -0.000000    0.016147
      9          6           0        0.123450   -1.206217   -0.013776
     10          6           0       -1.268336   -1.208249   -0.028603
     11          1           0       -5.177870    1.059838    0.009347
     12          1           0       -3.864321    1.940237   -0.772179
     13          1           0       -3.891400    1.775509    0.994951
     14          1           0       -5.177835   -1.059669    0.013650
     15          1           0       -3.889123   -1.775295    0.996272
     16          1           0       -3.866320   -1.940496   -0.770862
     17          1           0       -1.780043    2.162391   -0.026097
     18          1           0        0.665131    2.145307   -0.002488
     19          1           0        0.665148   -2.145309   -0.003886
     20          1           0       -1.780033   -2.162388   -0.027661
 ---------------------------------------------------------------------
                    Distance matrix (angstroms):
                    1          2          3          4          5
     1  C    0.000000
     2  N    1.452391   0.000000
     3  C    2.510086   1.452392   0.000000
     4  C    2.450062   1.381973   2.450042   0.000000
     5  C    2.839597   2.438582   3.758803   1.414869   0.000000
     6  C    4.230695   3.711500   4.894235   2.446131   1.391876
     7  C    5.082948   4.205283   5.082870   2.823343   2.411670
     8  Br   6.955226   6.121169   6.955134   4.739234   4.181431
     9  C    4.894323   3.711465   4.230642   2.446136   2.786928
    10  C    3.758882   2.438535   2.839585   1.414881   2.416499
    11  H    1.089753   2.083454   2.551163   3.346201   3.912509
    12  H    1.097119   2.117080   3.308587   2.784639   2.798019
    13  H    1.100264   2.132815   3.181284   2.791497   2.871973
    14  H    2.550880   2.083466   1.089750   3.346191   4.519870
    15  H    3.182169   2.132683   1.100246   2.790324   4.101067
    16  H    3.307960   2.117250   1.097145   2.785822   4.149233
    17  H    2.498287   2.693997   4.134824   2.174063   1.082688
    18  H    4.854255   4.584716   5.859419   3.424961   2.148739
    19  H    5.859523   4.584667   4.854214   3.424968   3.871093
    20  H    4.134896   2.693898   2.498314   2.174064   3.409255
                    6          7          8          9         10
     6  C    0.000000
     7  C    1.392263   0.000000
     8  Br   2.876327   1.915891   0.000000
     9  C    2.412435   1.392269   2.876327   0.000000
    10  C    2.786923   2.411666   4.181422   1.391867   0.000000
    11  H    5.303379   6.089556   7.983004   5.765373   4.519968
    12  H    4.125207   5.126361   6.923147   5.135919   4.147891
    13  H    4.178407   5.132579   6.929111   5.101689   4.102552
    14  H    5.765283   6.089508   7.982945   5.303381   3.912549
    15  H    5.099883   5.130677   6.927066   4.176696   2.870616
    16  H    5.137539   5.128093   6.924975   4.126816   2.799403
    17  H    2.130186   3.380805   5.005847   3.869232   3.409261
    18  H    1.084171   2.150800   2.980744   3.395035   3.871087
    19  H    3.395034   2.150807   2.980742   1.084172   2.148733
    20  H    3.869229   3.380810   5.005850   2.130188   1.082689
                   11         12         13         14         15
    11  H    0.000000
    12  H    1.763886   0.000000
    13  H    1.771610   1.774999   0.000000
    14  H    2.119512   3.367830   3.264368   0.000000
    15  H    3.266935   4.114998   3.550804   1.771566   0.000000
    16  H    3.366139   3.880734   4.114294   1.763912   1.774985
    17  H    3.572409   2.224906   2.376983   4.682760   4.582448
    18  H    5.942982   4.598958   4.679061   6.664262   6.091787
    19  H    6.664383   6.148012   6.093654   5.943010   4.677458
    20  H    4.682884   4.661555   4.583736   3.572500   2.376245
                   16         17         18         19         20
    16  H    0.000000
    17  H    4.662715   0.000000
    18  H    6.149653   2.445347   0.000000
    19  H    4.600479   4.953355   4.290616   0.000000
    20  H    2.225799   4.324779   4.953352   2.445356   0.000000
 Stoichiometry    C8H10BrN
 Framework group  C1[X(C8H10BrN)]
 Deg. of freedom    54
 Full point group                 C1      NOp   1
 RotChk:  IX=0 Diff= 1.94D-03
 Largest Abelian subgroup         C1      NOp   1
 Largest concise Abelian subgroup C1      NOp   1
                         Standard orientation:                         
 ---------------------------------------------------------------------
 Center     Atomic      Atomic             Coordinates (Angstroms)
 Number     Number       Type             X           Y           Z
 ---------------------------------------------------------------------
      1          6           0        3.844278   -1.255044    0.047125
      2          7           0        3.123821    0.000054   -0.075799
      3          6           0        3.844175    1.255041    0.048858
      4          6           0        1.742158   -0.000004   -0.046520
      5          6           0        1.006127   -1.208248   -0.030435
      6          6           0       -0.385669   -1.206219   -0.015646
      7          6           0       -1.080955   -0.000007   -0.010490
      8         35           0       -2.996695   -0.000006    0.013539
      9          6           0       -0.385682    1.206216   -0.016384
     10          6           0        1.006104    1.208251   -0.031212
     11          1           0        4.915642   -1.059827    0.006739
     12          1           0        3.602096   -1.940229   -0.774788
     13          1           0        3.629174   -1.775500    0.992343
     14          1           0        4.915603    1.059680    0.011041
     15          1           0        3.626890    1.775303    0.993663
     16          1           0        3.604086    1.940504   -0.773470
     17          1           0        1.517818   -2.162388   -0.028705
     18          1           0       -0.927356   -2.145309   -0.005097
     19          1           0       -0.927383    2.145307   -0.006494
     20          1           0        1.517798    2.162391   -0.030269
 ---------------------------------------------------------------------
 Rotational constants (GHZ):           3.4598943           0.3673002           0.3335406
 Leave Link  202 at Tue Sep 17 09:49:58 2024, MaxMem=  1342177280 cpu:               0.1 elap:               0.0
 (Enter /groups/ReismanLab/Software/Gaussian16_RevC/Linux_Binary_AVX2-enabled-CPU/g16/l301.exe)
 Standard basis: 6-31G(d,p) (6D, 7F)
 Ernie: Thresh=  0.10000D-02 Tol=  0.10000D-05 Strict=F.
 There are   215 symmetry adapted cartesian basis functions of A   symmetry.
 There are   215 symmetry adapted basis functions of A   symmetry.
   215 basis functions,   405 primitive gaussians,   215 cartesian basis functions
    50 alpha electrons       50 beta electrons
       nuclear repulsion energy       717.5629449776 Hartrees.
 IExCor=  402 DFT=T Ex+Corr=B3LYP ExCW=0 ScaHFX=  0.200000
 ScaDFX=  0.800000  0.720000  1.000000  0.810000 ScalE2=  1.000000  1.000000
 IRadAn=      5 IRanWt=     -1 IRanGd=            0 ICorTp=0 IEmpDi=141
 NAtoms=   20 NActive=   20 NUniq=   20 SFac= 1.00D+00 NAtFMM=   60 NAOKFM=F Big=F
 Integral buffers will be    131072 words long.
 Raffenetti 2 integral format.
 Two-electron integral symmetry is turned on.
 R6Disp:  Grimme-D3(BJ) Dispersion energy=       -0.0389286378 Hartrees.
 Nuclear repulsion after empirical dispersion term =      717.5240163398 Hartrees.
 Leave Link  301 at Tue Sep 17 09:49:58 2024, MaxMem=  1342177280 cpu:               0.1 elap:               0.0
 (Enter /groups/ReismanLab/Software/Gaussian16_RevC/Linux_Binary_AVX2-enabled-CPU/g16/l302.exe)
 NPDir=0 NMtPBC=     1 NCelOv=     1 NCel=       1 NClECP=     1 NCelD=      1
         NCelK=      1 NCelE2=     1 NClLst=     1 CellRange=     0.0.
 One-electron integrals computed using PRISM.
 One-electron integral symmetry used in STVInt
 NBasis=   215 RedAO= T EigKep=  4.26D-04  NBF=   215
 NBsUse=   215 1.00D-06 EigRej= -1.00D+00 NBFU=   215
 Precomputing XC quadrature grid using
 IXCGrd= 4 IRadAn=           5 IRanWt=          -1 IRanGd=           0 AccXCQ= 0.00D+00.
 Generated NRdTot=       0 NPtTot=           0 NUsed=           0 NTot=          32
 NSgBfM=   214   214   214   214   214 MxSgAt=    20 MxSgA2=    20.
 Leave Link  302 at Tue Sep 17 09:49:58 2024, MaxMem=  1342177280 cpu:               1.0 elap:               0.2
 (Enter /groups/ReismanLab/Software/Gaussian16_RevC/Linux_Binary_AVX2-enabled-CPU/g16/l303.exe)
 DipDrv:  MaxL=1.
 Leave Link  303 at Tue Sep 17 09:49:58 2024, MaxMem=  1342177280 cpu:               0.1 elap:               0.0
 (Enter /groups/ReismanLab/Software/Gaussian16_RevC/Linux_Binary_AVX2-enabled-CPU/g16/l401.exe)
 Initial guess from the checkpoint file:  "smiles_00082_conf_0.chk"
 B after Tr=     0.000000   -0.000000   -0.000000
         Rot=    1.000000   -0.000017    0.000066    0.000000 Ang=  -0.01 deg.
 Guess basis will be translated and rotated to current coordinates.
 JPrj=2 DoOrth=T DoCkMO=T.
 Generating alternative initial guess.
 ExpMin= 1.43D-01 ExpMax= 5.74D+05 ExpMxC= 5.74D+03 IAcc=3 IRadAn=         5 AccDes= 0.00D+00
 Harris functional with IExCor=  402 and IRadAn=       5 diagonalized for initial guess.
 HarFok:  IExCor=  402 AccDes= 0.00D+00 IRadAn=         5 IDoV= 1 UseB2=F ITyADJ=14
 ICtDFT=  3500011 ScaDFX=  1.000000  1.000000  1.000000  1.000000
 FoFCou: FMM=F IPFlag=           0 FMFlag=      100000 FMFlg1=           0
         NFxFlg=           0 DoJE=T BraDBF=F KetDBF=T FulRan=T
         wScrn=  0.000000 ICntrl=       500 IOpCl=  0 I1Cent=   200000004 NGrid=           0
         NMat0=    1 NMatS0=      1 NMatT0=    0 NMatD0=    1 NMtDS0=    0 NMtDT0=    0
 Petite list used in FoFCou.
 Harris En= -2937.49155419731    
 Leave Link  401 at Tue Sep 17 09:49:59 2024, MaxMem=  1342177280 cpu:               4.8 elap:               0.7
 (Enter /groups/ReismanLab/Software/Gaussian16_RevC/Linux_Binary_AVX2-enabled-CPU/g16/l502.exe)
 Integral symmetry usage will be decided dynamically.
 Closed shell SCF:
 Using DIIS extrapolation, IDIIS=  1040.
 NGot=  1342177280 LenX=  1342080281 LenY=  1342033615
 Requested convergence on RMS density matrix=1.00D-08 within  32 cycles.
 Requested convergence on MAX density matrix=1.00D-06.
 Requested convergence on             energy=1.00D-06.
 No special actions if energy rises.
 Fock matrices will be formed incrementally for  20 cycles.
 Integral accuracy reduced to 1.0D-05 until final iterations.

 Cycle   1  Pass 0  IDiag  1:
 FoFJK:  IHMeth= 1 ICntrl=       0 DoSepK=F KAlg= 0 I1Cent=           0 FoldK=F
 IRaf= 870000000 NMat=       1 IRICut=       1 DoRegI=T DoRafI=F ISym2E= 0 IDoP0=0 IntGTp=1.
 FoFCou: FMM=F IPFlag=           0 FMFlag=      100000 FMFlg1=           0
         NFxFlg=           0 DoJE=F BraDBF=F KetDBF=F FulRan=T
         wScrn=  0.000000 ICntrl=         0 IOpCl=  0 I1Cent=           0 NGrid=           0
         NMat0=    1 NMatS0=      1 NMatT0=    0 NMatD0=    1 NMtDS0=    0 NMtDT0=    0
 Symmetry not used in FoFCou.
 E= -2937.37379572696    
 DIIS: error= 1.40D-03 at cycle   1 NSaved=   1.
 NSaved= 1 IEnMin= 1 EnMin= -2937.37379572696     IErMin= 1 ErrMin= 1.40D-03
 ErrMax= 1.40D-03  0.00D+00 EMaxC= 1.00D-01 BMatC= 6.43D-04 BMatP= 6.43D-04
 IDIUse=3 WtCom= 9.86D-01 WtEn= 1.40D-02
 Coeff-Com:  0.100D+01
 Coeff-En:   0.100D+01
 Coeff:      0.100D+01
 Gap=     1.862 Goal=   None    Shift=    0.000
 GapD=    1.862 DampG=2.000 DampE=1.000 DampFc=2.0000 IDamp=-1.
 RMSDP=1.79D-04 MaxDP=3.65D-03              OVMax= 3.78D-03

 Cycle   2  Pass 0  IDiag  1:
 RMSU=  1.79D-04    CP:  1.00D+00
 E= -2937.37410108741     Delta-E=       -0.000305360448 Rises=F Damp=F
 DIIS: error= 7.75D-04 at cycle   2 NSaved=   2.
 NSaved= 2 IEnMin= 2 EnMin= -2937.37410108741     IErMin= 2 ErrMin= 7.75D-04
 ErrMax= 7.75D-04  0.00D+00 EMaxC= 1.00D-01 BMatC= 5.36D-05 BMatP= 6.43D-04
 IDIUse=3 WtCom= 9.92D-01 WtEn= 7.75D-03
 Coeff-Com:  0.128D+00 0.872D+00
 Coeff-En:   0.000D+00 0.100D+01
 Coeff:      0.127D+00 0.873D+00
 Gap=     0.187 Goal=   None    Shift=    0.000
 RMSDP=7.59D-05 MaxDP=1.90D-03 DE=-3.05D-04 OVMax= 3.65D-03

 Cycle   3  Pass 0  IDiag  1:
 RMSU=  7.48D-05    CP:  1.00D+00  9.26D-01
 E= -2937.37410795376     Delta-E=       -0.000006866344 Rises=F Damp=F
 DIIS: error= 6.21D-04 at cycle   3 NSaved=   3.
 NSaved= 3 IEnMin= 3 EnMin= -2937.37410795376     IErMin= 3 ErrMin= 6.21D-04
 ErrMax= 6.21D-04  0.00D+00 EMaxC= 1.00D-01 BMatC= 4.57D-05 BMatP= 5.36D-05
 IDIUse=3 WtCom= 9.94D-01 WtEn= 6.21D-03
 Coeff-Com:  0.376D-03 0.480D+00 0.520D+00
 Coeff-En:   0.000D+00 0.471D+00 0.529D+00
 Coeff:      0.373D-03 0.480D+00 0.520D+00
 Gap=     0.187 Goal=   None    Shift=    0.000
 RMSDP=4.37D-05 MaxDP=1.34D-03 DE=-6.87D-06 OVMax= 2.20D-03

 Cycle   4  Pass 0  IDiag  1:
 RMSU=  1.34D-05    CP:  1.00D+00  9.73D-01  4.55D-01
 E= -2937.37415870942     Delta-E=       -0.000050755668 Rises=F Damp=F
 DIIS: error= 6.31D-05 at cycle   4 NSaved=   4.
 NSaved= 4 IEnMin= 4 EnMin= -2937.37415870942     IErMin= 4 ErrMin= 6.31D-05
 ErrMax= 6.31D-05  0.00D+00 EMaxC= 1.00D-01 BMatC= 8.53D-07 BMatP= 4.57D-05
 IDIUse=1 WtCom= 1.00D+00 WtEn= 0.00D+00
 Coeff-Com: -0.260D-02 0.201D+00 0.249D+00 0.552D+00
 Coeff:     -0.260D-02 0.201D+00 0.249D+00 0.552D+00
 Gap=     0.187 Goal=   None    Shift=    0.000
 RMSDP=6.13D-06 MaxDP=2.64D-04 DE=-5.08D-05 OVMax= 3.22D-04

 Initial convergence to 1.0D-05 achieved.  Increase integral accuracy.
 Cycle   5  Pass 1  IDiag  1:
 E= -2937.37419036541     Delta-E=       -0.000031655989 Rises=F Damp=F
 DIIS: error= 2.13D-05 at cycle   1 NSaved=   1.
 NSaved= 1 IEnMin= 1 EnMin= -2937.37419036541     IErMin= 1 ErrMin= 2.13D-05
 ErrMax= 2.13D-05  0.00D+00 EMaxC= 1.00D-01 BMatC= 1.72D-07 BMatP= 1.72D-07
 IDIUse=1 WtCom= 1.00D+00 WtEn= 0.00D+00
 Coeff-Com:  0.100D+01
 Coeff:      0.100D+01
 Gap=     0.187 Goal=   None    Shift=    0.000
 RMSDP=6.13D-06 MaxDP=2.64D-04 DE=-3.17D-05 OVMax= 4.27D-04

 Cycle   6  Pass 1  IDiag  1:
 RMSU=  1.10D-05    CP:  1.00D+00
 E= -2937.37419012324     Delta-E=        0.000000242171 Rises=F Damp=F
 DIIS: error= 3.27D-05 at cycle   2 NSaved=   2.
[...]
   XX=    30.0016   YX=     3.1538   ZX=    -0.0175
   XY=     2.8872   YY=    23.5700   ZY=     0.2628
   XZ=    -0.3265   YZ=    -0.3696   ZZ=    20.1013
   Eigenvalues:    20.0983    22.3740    31.2006
     18  H    Isotropic =    23.8196   Anisotropy =    10.3348
   XX=    27.9862   YX=    -4.5979   ZX=    -0.0481
   XY=    -3.9248   YY=    24.0392   ZY=     0.0762
   XZ=    -0.0722   YZ=     0.0501   ZZ=    19.4334
   Eigenvalues:    19.4326    21.3168    30.7095
     19  H    Isotropic =    23.8197   Anisotropy =    10.3350
   XX=    27.9864   YX=     4.5979   ZX=    -0.0457
   XY=     3.9248   YY=    24.0394   ZY=    -0.0744
   XZ=    -0.0711   YZ=    -0.0481   ZZ=    19.4332
   Eigenvalues:    19.4324    21.3170    30.7097
     20  H    Isotropic =    24.5579   Anisotropy =     9.9639
   XX=    30.0018   YX=    -3.1532   ZX=    -0.0213
   XY=    -2.8869   YY=    23.5702   ZY=    -0.2606
   XZ=    -0.3297   YZ=     0.3714   ZZ=    20.1018
   Eigenvalues:    20.0987    22.3745    31.2005
 End of Minotr F.D. properties file   721 does not exist.
 End of Minotr F.D. properties file   722 does not exist.
 End of Minotr F.D. properties file   788 does not exist.
 Leave Link 1002 at Tue Sep 17 10:41:02 2024, MaxMem=  1342177280 cpu:             671.7 elap:             673.9
 (Enter /groups/ReismanLab/Software/Gaussian16_RevC/Linux_Binary_AVX2-enabled-CPU/g16/l601.exe)
 Copying SCF densities to generalized density rwf, IOpCl= 0 IROHF=0.

 **********************************************************************

            Population analysis using the SCF Density.

 **********************************************************************

 Orbital symmetries:
       Occupied  (A) (A) (A) (A) (A) (A) (A) (A) (A) (A) (A) (A)
                 (A) (A) (A) (A) (A) (A) (A) (A) (A) (A) (A) (A)
                 (A) (A) (A) (A) (A) (A) (A) (A) (A) (A) (A) (A)
                 (A) (A) (A) (A) (A) (A) (A) (A) (A) (A) (A) (A)
                 (A) (A)
       Virtual   (A) (A) (A) (A) (A) (A) (A) (A) (A) (A) (A) (A)
                 (A) (A) (A) (A) (A) (A) (A) (A) (A) (A) (A) (A)
                 (A) (A) (A) (A) (A) (A) (A) (A) (A) (A) (A) (A)
                 (A) (A) (A) (A) (A) (A) (A) (A) (A) (A) (A) (A)
                 (A) (A) (A) (A) (A) (A) (A) (A) (A) (A) (A) (A)
                 (A) (A) (A) (A) (A) (A) (A) (A) (A) (A) (A) (A)
                 (A) (A) (A) (A) (A) (A) (A) (A) (A) (A) (A) (A)
                 (A) (A) (A) (A) (A) (A) (A) (A) (A) (A) (A) (A)
                 (A) (A) (A) (A) (A) (A) (A) (A) (A) (A) (A) (A)
                 (A) (A) (A) (A) (A) (A) (A) (A) (A) (A) (A) (A)
                 (A) (A) (A) (A) (A) (A) (A) (A) (A) (A) (A) (A)
                 (A) (A) (A) (A) (A) (A) (A) (A) (A) (A) (A) (A)
                 (A) (A) (A) (A) (A) (A) (A) (A) (A) (A) (A) (A)
                 (A) (A) (A) (A) (A) (A) (A) (A) (A) (A) (A) (A)
                 (A) (A) (A) (A) (A) (A) (A) (A) (A) (A) (A) (A)
                 (A) (A) (A) (A) (A) (A) (A) (A) (A) (A) (A) (A)
                 (A) (A) (A) (A) (A) (A) (A) (A) (A) (A) (A) (A)
                 (A) (A) (A) (A) (A) (A) (A) (A) (A) (A) (A) (A)
                 (A) (A) (A) (A) (A) (A) (A) (A) (A) (A) (A) (A)
                 (A) (A) (A) (A) (A) (A) (A) (A) (A) (A) (A) (A)
                 (A) (A) (A) (A) (A) (A) (A) (A) (A) (A) (A) (A)
                 (A) (A) (A) (A) (A) (A) (A) (A) (A) (A) (A) (A)
                 (A) (A) (A) (A) (A) (A) (A) (A) (A) (A) (A) (A)
                 (A) (A) (A) (A) (A) (A) (A) (A) (A) (A) (A) (A)
                 (A) (A) (A) (A) (A) (A) (A) (A) (A) (A) (A) (A)
                 (A) (A) (A) (A) (A) (A) (A) (A) (A) (A) (A) (A)
                 (A) (A) (A) (A) (A) (A) (A) (A) (A) (A) (A) (A)
                 (A) (A) (A) (A) (A) (A) (A) (A) (A) (A) (A) (A)
                 (A)
 The electronic state is 1-A.
 Alpha  occ. eigenvalues -- -485.36614 -63.35093 -57.17035 -57.16801 -57.16800
 Alpha  occ. eigenvalues --  -14.76586 -10.58759 -10.58556 -10.56394 -10.56393
 Alpha  occ. eigenvalues --  -10.54957 -10.54955 -10.54112 -10.54111  -9.01735
 Alpha  occ. eigenvalues --   -6.84132  -6.83267  -6.83264  -2.87509  -2.87192
 Alpha  occ. eigenvalues --   -2.87183  -2.86376  -2.86376  -1.05909  -0.96408
 Alpha  occ. eigenvalues --   -0.88596  -0.85178  -0.81669  -0.81355  -0.73617
 Alpha  occ. eigenvalues --   -0.69431  -0.65415  -0.60139  -0.55642  -0.53997
 Alpha  occ. eigenvalues --   -0.52750  -0.51968  -0.49525  -0.49094  -0.46893
 Alpha  occ. eigenvalues --   -0.45716  -0.45241  -0.44288  -0.41314  -0.40244
 Alpha  occ. eigenvalues --   -0.38366  -0.34347  -0.32853  -0.31420  -0.24459
 Alpha virt. eigenvalues --    0.01550   0.03141   0.04441   0.07311   0.09777
 Alpha virt. eigenvalues --    0.10350   0.11641   0.12481   0.12734   0.15236
 Alpha virt. eigenvalues --    0.15684   0.15770   0.17001   0.17093   0.18007
 Alpha virt. eigenvalues --    0.18575   0.19532   0.20305   0.22607   0.23607
 Alpha virt. eigenvalues --    0.24509   0.24668   0.25544   0.26227   0.27482
 Alpha virt. eigenvalues --    0.27577   0.28108   0.30247   0.31879   0.32145
 Alpha virt. eigenvalues --    0.32258   0.33033   0.33057   0.33518   0.35918
 Alpha virt. eigenvalues --    0.36019   0.36990   0.38281   0.38914   0.39968
 Alpha virt. eigenvalues --    0.40535   0.41399   0.42570   0.43307   0.43655
 Alpha virt. eigenvalues --    0.44743   0.45932   0.46358   0.46588   0.48195
 Alpha virt. eigenvalues --    0.48980   0.49002   0.50720   0.51060   0.52376
 Alpha virt. eigenvalues --    0.52697   0.53496   0.55265   0.55711   0.55775
 Alpha virt. eigenvalues --    0.57479   0.58609   0.59051   0.60882   0.63274
 Alpha virt. eigenvalues --    0.63533   0.65980   0.66644   0.68370   0.68589
 Alpha virt. eigenvalues --    0.70586   0.71186   0.72524   0.73998   0.74592
 Alpha virt. eigenvalues --    0.76511   0.78934   0.78949   0.81556   0.81973
 Alpha virt. eigenvalues --    0.84689   0.86478   0.86597   0.89720   0.90859
 Alpha virt. eigenvalues --    0.91085   0.92615   0.93202   0.95861   0.98240
 Alpha virt. eigenvalues --    1.00593   1.00987   1.02208   1.04289   1.06749
 Alpha virt. eigenvalues --    1.07183   1.08996   1.11364   1.11891   1.12013
 Alpha virt. eigenvalues --    1.16857   1.17321   1.21848   1.22293   1.23097
 Alpha virt. eigenvalues --    1.24320   1.25660   1.26487   1.26955   1.28968
 Alpha virt. eigenvalues --    1.30265   1.31110   1.35355   1.38459   1.41224
 Alpha virt. eigenvalues --    1.41913   1.42862   1.44079   1.45960   1.47252
 Alpha virt. eigenvalues --    1.47831   1.48119   1.48841   1.51195   1.51700
 Alpha virt. eigenvalues --    1.53851   1.55521   1.56699   1.57773   1.58530
 Alpha virt. eigenvalues --    1.58992   1.59256   1.60019   1.60146   1.61543
 Alpha virt. eigenvalues --    1.62811   1.63705   1.63838   1.66154   1.66337
 Alpha virt. eigenvalues --    1.67291   1.67569   1.69446   1.71659   1.71908
 Alpha virt. eigenvalues --    1.73377   1.75371   1.75938   1.77635   1.78137
 Alpha virt. eigenvalues --    1.80675   1.82559   1.83862   1.84804   1.89332
 Alpha virt. eigenvalues --    1.89741   1.90861   1.92485   1.92904   1.94561
 Alpha virt. eigenvalues --    1.94788   1.98322   2.00332   2.03376   2.04139
 Alpha virt. eigenvalues --    2.05939   2.06759   2.08999   2.09204   2.11444
 Alpha virt. eigenvalues --    2.13518   2.18809   2.19583   2.23479   2.23824
 Alpha virt. eigenvalues --    2.26572   2.27790   2.30205   2.30733   2.35014
 Alpha virt. eigenvalues --    2.35340   2.37138   2.38907   2.41156   2.42498
 Alpha virt. eigenvalues --    2.47310   2.48266   2.48280   2.50765   2.53257
 Alpha virt. eigenvalues --    2.56010   2.57143   2.58112   2.58703   2.60383
 Alpha virt. eigenvalues --    2.61570   2.62500   2.63183   2.63273   2.66663
 Alpha virt. eigenvalues --    2.69582   2.71217   2.71567   2.72845   2.73019
 Alpha virt. eigenvalues --    2.73856   2.76468   2.78632   2.79605   2.81290
 Alpha virt. eigenvalues --    2.81566   2.83104   2.85959   2.87121   2.87194
 Alpha virt. eigenvalues --    2.89667   2.90831   2.91876   2.92763   2.95095
 Alpha virt. eigenvalues --    3.00935   3.01673   3.07480   3.07538   3.08008
 Alpha virt. eigenvalues --    3.08062   3.11670   3.13521   3.14288   3.14309
 Alpha virt. eigenvalues --    3.16199   3.16864   3.18072   3.20035   3.22661
 Alpha virt. eigenvalues --    3.23173   3.25344   3.26115   3.26838   3.27194
 Alpha virt. eigenvalues --    3.27433   3.31428   3.31885   3.33752   3.35270
 Alpha virt. eigenvalues --    3.35283   3.35473   3.38654   3.39085   3.39500
 Alpha virt. eigenvalues --    3.41222   3.42504   3.44668   3.45179   3.46806
 Alpha virt. eigenvalues --    3.48122   3.49985   3.50971   3.51697   3.54048
 Alpha virt. eigenvalues --    3.54219   3.55624   3.59172   3.61487   3.66078
 Alpha virt. eigenvalues --    3.67904   3.71272   3.72871   3.76458   3.78535
 Alpha virt. eigenvalues --    3.82258   3.83697   3.89450   3.94493   3.96692
 Alpha virt. eigenvalues --    4.01487   4.02932   4.03324   4.04611   4.07240
 Alpha virt. eigenvalues --    4.08343   4.09911   4.11908   4.12596   4.15286
 Alpha virt. eigenvalues --    4.17015   4.19628   4.19747   4.20889   4.23318
 Alpha virt. eigenvalues --    4.23464   4.26817   4.28715   4.31325   4.32406
 Alpha virt. eigenvalues --    4.34954   4.35688   4.42256   4.44748   4.47943
 Alpha virt. eigenvalues --    4.48048   4.54436   4.56956   4.57645   4.66196
 Alpha virt. eigenvalues --    4.78855   4.81926   4.84362   4.86971   4.88120
 Alpha virt. eigenvalues --    4.98484   4.99862   5.01863   5.08858   5.09322
 Alpha virt. eigenvalues --    5.17759   5.21012   5.24410   5.30435   5.30885
 Alpha virt. eigenvalues --    5.33959   5.44666   5.45010   5.68816   5.82157
 Alpha virt. eigenvalues --    5.84401   5.94721   7.86783  22.22266  22.49674
 Alpha virt. eigenvalues --   22.57913  22.75369  22.77611  22.81550  22.92261
 Alpha virt. eigenvalues --   23.32316  32.94737
          Condensed to atoms (all electrons):
               1          2          3          4          5          6
     1  C    5.034187   0.294044  -0.063828  -0.097042  -0.016380  -0.003374
     2  N    0.294044   6.584062   0.294073   0.406755  -0.082282   0.005605
     3  C   -0.063828   0.294073   5.034112  -0.096997   0.013798  -0.000656
     4  C   -0.097042   0.406755  -0.096997   4.928054   0.353500   0.040770
     5  C   -0.016380  -0.082282   0.013798   0.353500   5.268158   0.328644
     6  C   -0.003374   0.005605  -0.000656   0.040770   0.328644   5.197286
     7  C    0.000344  -0.000759   0.000345  -0.101283   0.057753   0.356192
     8  Br  -0.000005  -0.000019  -0.000005  -0.007886   0.029438  -0.108372
     9  C   -0.000651   0.005609  -0.003371   0.040900  -0.160453   0.087457
    10  C    0.013790  -0.082382  -0.016372   0.353328   0.095748  -0.160503
    11  H    0.400963  -0.024540  -0.017192   0.010602   0.000438   0.000211
    12  H    0.409878  -0.033152   0.008096  -0.022475   0.004902   0.004212
    13  H    0.422388  -0.063636  -0.001480   0.002156   0.003203  -0.003864
    14  H   -0.017203  -0.024547   0.400985   0.010594  -0.000707   0.000120
    15  H   -0.001496  -0.063635   0.422431   0.002094   0.005597  -0.000881
    16  H    0.008111  -0.033125   0.409831  -0.022424  -0.003949   0.000474
    17  H   -0.000780  -0.002805  -0.000181  -0.036021   0.399948  -0.007123
    18  H    0.000078  -0.000055   0.000019   0.009763  -0.035229   0.419086
    19  H    0.000019  -0.000055   0.000078   0.009764  -0.004719   0.014095
    20  H   -0.000183  -0.002817  -0.000781  -0.036026   0.001819   0.000449
               7          8          9         10         11         12
     1  C    0.000344  -0.000005  -0.000651   0.013790   0.400963   0.409878
     2  N   -0.000759  -0.000019   0.005609  -0.082382  -0.024540  -0.033152
     3  C    0.000345  -0.000005  -0.003371  -0.016372  -0.017192   0.008096
     4  C   -0.101283  -0.007886   0.040900   0.353328   0.010602  -0.022475
     5  C    0.057753   0.029438  -0.160453   0.095748   0.000438   0.004902
     6  C    0.356192  -0.108372   0.087457  -0.160503   0.000211   0.004212
     7  C    5.004001   0.359967   0.356118   0.057866  -0.000037  -0.000479
     8  Br   0.359967  34.959450  -0.108373   0.029438  -0.000000   0.000002
     9  C    0.356118  -0.108373   5.197456   0.328377   0.000120   0.000473
    10  C    0.057866   0.029438   0.328377   5.268665  -0.000706  -0.003964
    11  H   -0.000037  -0.000000   0.000120  -0.000706   0.513466  -0.016865
    12  H   -0.000479   0.000002   0.000473  -0.003964  -0.016865   0.549888
    13  H    0.000481   0.000002  -0.000884   0.005632  -0.024089  -0.054914
    14  H   -0.000038  -0.000000   0.000211   0.000434   0.003518   0.001110
    15  H    0.000481   0.000002  -0.003859   0.003260  -0.000542  -0.001523
    16  H   -0.000481   0.000002   0.004222   0.004851   0.001103   0.000883
    17  H    0.001560  -0.000270   0.000449   0.001820   0.000461  -0.007726
    18  H   -0.050599  -0.007476   0.014096  -0.004720   0.000001   0.000025
    19  H   -0.050601  -0.007475   0.419091  -0.035233   0.000000   0.000001
    20  H    0.001564  -0.000270  -0.007138   0.399975  -0.000042  -0.000105
              13         14         15         16         17         18
     1  C    0.422388  -0.017203  -0.001496   0.008111  -0.000780   0.000078
     2  N   -0.063636  -0.024547  -0.063635  -0.033125  -0.002805  -0.000055
     3  C   -0.001480   0.400985   0.422431   0.409831  -0.000181   0.000019
     4  C    0.002156   0.010594   0.002094  -0.022424  -0.036021   0.009763
     5  C    0.003203  -0.000707   0.005597  -0.003949   0.399948  -0.035229
     6  C   -0.003864   0.000120  -0.000881   0.000474  -0.007123   0.419086
     7  C    0.000481  -0.000038   0.000481  -0.000481   0.001560  -0.050599
     8  Br   0.000002  -0.000000   0.000002   0.000002  -0.000270  -0.007476
     9  C   -0.000884   0.000211  -0.003859   0.004222   0.000449   0.014096
    10  C    0.005632   0.000434   0.003260   0.004851   0.001820  -0.004720
    11  H   -0.024089   0.003518  -0.000542   0.001103   0.000461   0.000001
    12  H   -0.054914   0.001110  -0.001523   0.000883  -0.007726   0.000025
    13  H    0.542881  -0.000547   0.005261  -0.001522   0.000121  -0.000040
    14  H   -0.000547   0.513478  -0.024163  -0.016817  -0.000042   0.000000
    15  H    0.005261  -0.024163   0.542913  -0.054898   0.000185  -0.000003
    16  H   -0.001522  -0.016817  -0.054898   0.549851  -0.000105   0.000001
    17  H    0.000121  -0.000042   0.000185  -0.000105   0.472968  -0.003669
    18  H   -0.000040   0.000000  -0.000003   0.000001  -0.003669   0.484090
    19  H   -0.000003   0.000001  -0.000040   0.000025   0.000051   0.000022
    20  H    0.000186   0.000459   0.000145  -0.007760  -0.000236   0.000051
              19         20
     1  C    0.000019  -0.000183
     2  N   -0.000055  -0.002817
     3  C    0.000078  -0.000781
     4  C    0.009764  -0.036026
     5  C   -0.004719   0.001819
     6  C    0.014095   0.000449
     7  C   -0.050601   0.001564
     8  Br  -0.007475  -0.000270
     9  C    0.419091  -0.007138
    10  C   -0.035233   0.399975
    11  H    0.000000  -0.000042
    12  H    0.000001  -0.000105
    13  H   -0.000003   0.000186
    14  H    0.000001   0.000459
    15  H   -0.000040   0.000145
    16  H    0.000025  -0.007760
    17  H    0.000051  -0.000236
    18  H    0.000022   0.000051
    19  H    0.484091  -0.003669
    20  H   -0.003669   0.472979
 Mulliken charges:
               1
     1  C   -0.382861
     2  N   -0.176338
     3  C   -0.382907
     4  C    0.251872
     5  C   -0.259225
     6  C   -0.169829
     7  C    0.007605
     8  Br  -0.138149
     9  C   -0.169852
    10  C   -0.259304
    11  H    0.153130
    12  H    0.161731
    13  H    0.168668
    14  H    0.153153
    15  H    0.168670
    16  H    0.161727
    17  H    0.181394
    18  H    0.174560
    19  H    0.174557
    20  H    0.181398
 Sum of Mulliken charges =  -0.00000
 Mulliken charges with hydrogens summed into heavy atoms:
               1
     1  C    0.100668
     2  N   -0.176338
     3  C    0.100643
     4  C    0.251872
     5  C   -0.077830
     6  C    0.004731
     7  C    0.007605
     8  Br  -0.138149
     9  C    0.004705
    10  C   -0.077906
 Electronic spatial extent (au):  <R**2>=           2994.7249
 Charge=              0.0000 electrons
 Dipole moment (field-independent basis, Debye):
    X=              4.8134    Y=              0.0001    Z=              0.2702  Tot=              4.8209
 Quadrupole moment (field-independent basis, Debye-Ang):
   XX=            -63.3564   YY=            -65.8313   ZZ=            -77.6115
   XY=              0.0003   XZ=              0.9429   YZ=              0.0010
 Traceless Quadrupole moment (field-independent basis, Debye-Ang):
   XX=              5.5767   YY=              3.1018   ZZ=             -8.6784
   XY=              0.0003   XZ=              0.9429   YZ=              0.0010
 Octapole moment (field-independent basis, Debye-Ang**2):
  XXX=            -10.7308  YYY=              0.0003  ZZZ=              1.7418  XYY=            -19.0470
  XXY=              0.0006  XXZ=              3.3081  XZZ=            -29.9745  YZZ=             -0.0002
  YYZ=             -0.7746  XYZ=             -0.0047
 Hexadecapole moment (field-independent basis, Debye-Ang**3):
 XXXX=          -2645.7155 YYYY=           -469.1522 ZZZZ=           -106.4917 XXXY=              0.0009
 XXXZ=              3.6592 YYYX=             -0.0021 YYYZ=              0.0161 ZZZX=              0.0691
 ZZZY=             -0.0040 XXYY=           -547.6420 XXZZ=           -530.8196 YYZZ=           -106.7452
 XXYZ=             -0.0153 YYXZ=             -3.7667 ZZXY=              0.0002
 N-N= 7.183895937227D+02 E-N=-8.437968041028D+03  KE= 2.934413579949D+03
 Calculating spin-rotation constants.
 Leave Link  601 at Tue Sep 17 10:41:06 2024, MaxMem=  1342177280 cpu:               3.9 elap:               3.9
 (Enter /groups/ReismanLab/Software/Gaussian16_RevC/Linux_Binary_AVX2-enabled-CPU/g16/l9999.exe)
 Unable to Open any file for archive entry.
 1\1\GINC-HPC-52-08\SP\RM062X\def2TZVP\C8H10Br1N1\MANTIND\17-Sep-2024\0
 \\#p M062X/def2tzvp geom=check guess=read scf(xqc,tight) integral(grid
 =ultrafine) scrf(SMD, solvent=1,4-Dioxane) nmr=giao\\spe\\0,1\C,0,-4.1
 044404589,1.2446544471,0.0630252306\N,0,-3.3892119641,0.0000287515,-0.
 1517619623\C,0,-4.1045768668,-1.2446396253,0.0621867559\C,0,-2.0026749
 418,-0.0000175301,-0.0856054105\C,0,-1.2695621093,1.2070861052,-0.0553
 671953\C,0,0.1207807554,1.2055763069,-0.0211325164\C,0,0.814710379,0.0
 000205362,-0.0061883434\Br,0,2.7267833772,0.0000469517,0.0461153428\C,
 0,0.1207890324,-1.2055434881,-0.0202870822\C,0,-1.2695614834,-1.207092
 4233,-0.0545071048\H,0,-5.1753502499,1.0609704474,-0.0303948364\H,0,-3
 .8314753574,1.988408086,-0.6933667267\H,0,-3.913711859,1.6828423523,1.
 0550707323\H,0,-5.1753729881,-1.0611266968,-0.0329163758\H,0,-3.915309
 1009,-1.6827408705,1.0545682984\H,0,-3.8303454787,-1.9883869254,-0.693
 7277504\H,0,-1.7809497616,2.1606446609,-0.0585199881\H,0,0.661883967,2
 .1446231993,-0.0008695074\H,0,0.6618947645,-2.1445735968,0.0006788349\
 H,0,-1.7809237108,-2.1606646737,-0.0568331309\\Version=ES64L-G16RevC.0
 2\State=1-A\HF=-2939.7863934\RMSD=1.694e-09\Dipole=-1.8943549,-0.00004
 2,0.0943802\Quadrupole=4.1545298,2.3060975,-6.4606272,0.0001922,-0.634
 1883,-0.0016823\PG=C01 [X(C8H10Br1N1)]\\@
 The archive entry for this job was punched.


 HONESTY IN A LAWYER IS LIKE A HEN'S HIND LEGS.
  -- MAGNUS OLESON, LAKE WOBEGON PATRIARCH, C.1875
 Job cpu time:       0 days  0 hours 12 minutes 19.2 seconds.
 Elapsed time:       0 days  0 hours 12 minutes 23.8 seconds.
 File lengths (MBytes):  RWF=    248 Int=      0 D2E=      0 Chk=     24 Scr=     16
 Normal termination of Gaussian 16 at Tue Sep 17 10:41:06 2024.
