 Entering Gaussian System, Link 0=g16
 Input=smiles_00115_conf_0.gjf
 Output=smiles_00115_conf_0.log
 Initial command:
 /groups/ReismanLab/Software/Gaussian16_RevC/Linux_Binary_AVX2-enabled-CPU/g16/l1.exe "/central/groups/ReismanLab/DM/dft_final/smiles_00115/Gau-797538.inp" -scrdir="/central/groups/ReismanLab/DM/dft_final/smiles_00115/"
 Entering Link 1 = /groups/ReismanLab/Software/Gaussian16_RevC/Linux_Binary_AVX2-enabled-CPU/g16/l1.exe PID=    797540.
  
 Copyright (c) 1988-2021, Gaussian, Inc.  All Rights Reserved.
  
 This is part of the Gaussian(R) 16 program.  It is based on
 the Gaussian(R) 09 system (copyright 2009, Gaussian, Inc.),
 the Gaussian(R) 03 system (copyright 2003, Gaussian, Inc.),
 the Gaussian(R) 98 system (copyright 1998, Gaussian, Inc.),
 the Gaussian(R) 94 system (copyright 1995, Gaussian, Inc.),
 the Gaussian 92(TM) system (copyright 1992, Gaussian, Inc.),
 the Gaussian 90(TM) system (copyright 1990, Gaussian, Inc.),
 the Gaussian 88(TM) system (copyright 1988, Gaussian, Inc.),
 the Gaussian 86(TM) system (copyright 1986, Carnegie Mellon
 University), and the Gaussian 82(TM) system (copyright 1983,
 Carnegie Mellon University). Gaussian is a federally registered
 trademark of Gaussian, Inc.
  
 This software contains proprietary and confidential information,
 including trade secrets, belonging to Gaussian, Inc.
  
 This software is provided under written license and may be
 used, copied, transmitted, or stored only in accord with that
 written license.
  
 The following legend is applicable only to US Government
 contracts under FAR:
  
                    RESTRICTED RIGHTS LEGEND
  
 Use, reproduction and disclosure by the US Government is
 subject to restrictions as set forth in subparagraphs (a)
 and (c) of the Commercial Computer Software - Restricted
 Rights clause in FAR 52.227-19.
  
 Gaussian, Inc.
 340 Quinnipiac St., Bldg. 40, Wallingford CT 06492
  
  
 ---------------------------------------------------------------
 Warning -- This program may not be used in any manner that
 competes with the business of Gaussian, Inc. or will provide
 assistance to any competitor of Gaussian, Inc.  The licensee
 of this program is prohibited from giving any competitor of
 Gaussian, Inc. access to this program.  By using this program,
 the user acknowledges that Gaussian, Inc. is engaged in the
 business of creating and licensing software in the field of
 computational chemistry and represents and warrants to the
 licensee that it is not a competitor of Gaussian, Inc. and that
 it will not use this program in any manner prohibited above.
 ---------------------------------------------------------------
  

 Cite this work as:
 Gaussian 16, Revision C.02,
 M. J. Frisch, G. W. Trucks, H. B. Schlegel, G. E. Scuseria, 
 M. A. Robb, J. R. Cheeseman, G. Scalmani, V. Barone, 
 G. A. Petersson, H. Nakatsuji, X. Li, M. Caricato, A. V. Marenich, 
 J. Bloino, B. G. Janesko, R. Gomperts, B. Mennucci, H. P. Hratchian, 
 J. V. Ortiz, A. F. Izmaylov, J. L. Sonnenberg, D. Williams-Young, 
 F. Ding, F. Lipparini, F. Egidi, J. Goings, B. Peng, A. Petrone, 
 T. Henderson, D. Ranasinghe, V. G. Zakrzewski, J. Gao, N. Rega, 
 G. Zheng, W. Liang, M. Hada, M. Ehara, K. Toyota, R. Fukuda, 
 J. Hasegawa, M. Ishida, T. Nakajima, Y. Honda, O. Kitao, H. Nakai, 
 T. Vreven, K. Throssell, J. A. Montgomery, Jr., J. E. Peralta, 
 F. Ogliaro, M. J. Bearpark, J. J. Heyd, E. N. Brothers, K. N. Kudin, 
 V. N. Staroverov, T. A. Keith, R. Kobayashi, J. Normand, 
 K. Raghavachari, A. P. Rendell, J. C. Burant, S. S. Iyengar, 
 J. Tomasi, M. Cossi, J. M. Millam, M. Klene, C. Adamo, R. Cammi, 
 J. W. Ochterski, R. L. Martin, K. Morokuma, O. Farkas, 
 J. B. Foresman, and D. J. Fox, Gaussian, Inc., Wallingford CT, 2019.
 
 ******************************************
 Gaussian 16:  ES64L-G16RevC.02  7-Dec-2021
                17-Sep-2024 
 ******************************************
 %nprocshared=8
 Will use up to    8 processors via shared memory.
 %Mem=10GB
 %Chk=smiles_00115_conf_0.chk
 ----------------------------------------------------------------------
 #p B3LYP/gen pseudo=read EmpiricalDispersion=GD3BJ opt freq scf(xqc,ti
 ght) integral(grid=ultrafine)
 ----------------------------------------------------------------------
 1/18=20,19=15,26=4,38=1/1,3;
 2/9=110,12=2,17=6,18=5,40=1/2;
 3/5=7,11=2,16=1,17=8,25=1,30=1,71=1,74=-5,75=-5,124=41/1,2,3;
 4//1;
 5/5=2,8=3,13=1,32=2,38=5/2,8;
 6/7=2,8=2,9=2,10=2,28=1/1;
 7//1,2,3,16;
 1/18=20,19=15,26=4/3(2);
 2/9=110/2;
 99//99;
 2/9=110/2;
 3/5=7,6=1,11=2,16=1,17=8,25=1,30=1,71=1,74=-5,75=-5,82=7,124=41/1,2,3;
 4/5=5,16=3,69=1/1;
 5/5=2,8=3,13=1,32=2,38=5/2,8;
 7//1,2,3,16;
 1/18=20,19=15,26=4/3(-5);
 2/9=110/2;
 6/7=2,8=2,9=2,10=2,19=2,28=1/1;
 99/9=1/99;
 Leave Link    1 at Tue Sep 17 09:56:52 2024, MaxMem=  1342177280 cpu:               0.1 elap:               0.7
 (Enter /groups/ReismanLab/Software/Gaussian16_RevC/Linux_Binary_AVX2-enabled-CPU/g16/l101.exe)
 ----------------------------------
 opt-freq conformers_unique/conf_aa
 ----------------------------------
 Symbolic Z-matrix:
 Charge =  0 Multiplicity = 1
 C                     0.11295  -3.41231  -0.42239 
 O                    -0.17433  -2.0241   -0.47479 
 C                    -1.29855  -1.6235    0.11837 
 O                    -2.07819  -2.37506   0.64908 
 C                    -1.52124  -0.15456   0.01842 
 C                    -2.8564    0.25187   0.00645 
 C                    -3.19883   1.58465  -0.09778 
 C                    -2.19924   2.54043  -0.18041 
 C                    -0.87038   2.15768  -0.147 
 C                    -0.52847   0.8179   -0.04967 
 I                     1.53183   0.37707   0.06311 
 H                    -0.6164   -3.96967  -1.01375 
 H                     1.11163  -3.52912  -0.83503 
 H                     0.07668  -3.76793   0.60913 
 H                    -3.61352  -0.51439   0.08016 
 H                    -4.23719   1.87745  -0.11175 
 H                    -2.44884   3.58748  -0.26209 
 H                    -0.09396   2.90609  -0.19413 
 
 ITRead=  0  0  0  0  0  0  0  0  0  0  0  0  0  0  0  0  0  0
 MicOpt= -1 -1 -1 -1 -1 -1 -1 -1 -1 -1 -1 -1 -1 -1 -1 -1 -1 -1
 NAtoms=     18 NQM=       18 NQMF=       0 NMMI=      0 NMMIF=      0
                NMic=       0 NMicF=      0.
                    Isotopes and Nuclear Properties:
 (Nuclear quadrupole moments (NQMom) in fm**2, nuclear magnetic moments (NMagM)
  in nuclear magnetons)

  Atom         1           2           3           4           5           6           7           8           9          10
 IAtWgt=          12          16          12          16          12          12          12          12          12          12
 AtmWgt=  12.0000000  15.9949146  12.0000000  15.9949146  12.0000000  12.0000000  12.0000000  12.0000000  12.0000000  12.0000000
 NucSpn=           0           0           0           0           0           0           0           0           0           0
 AtZEff=  -0.0000000  -0.0000000  -0.0000000  -0.0000000  -0.0000000  -0.0000000  -0.0000000  -0.0000000  -0.0000000  -0.0000000
 NQMom=    0.0000000   0.0000000   0.0000000   0.0000000   0.0000000   0.0000000   0.0000000   0.0000000   0.0000000   0.0000000
 NMagM=    0.0000000   0.0000000   0.0000000   0.0000000   0.0000000   0.0000000   0.0000000   0.0000000   0.0000000   0.0000000
 AtZNuc=   6.0000000   8.0000000   6.0000000   8.0000000   6.0000000   6.0000000   6.0000000   6.0000000   6.0000000   6.0000000

  Atom        11          12          13          14          15          16          17          18
 IAtWgt=         127           1           1           1           1           1           1           1
 AtmWgt= 126.9004000   1.0078250   1.0078250   1.0078250   1.0078250   1.0078250   1.0078250   1.0078250
 NucSpn=           5           1           1           1           1           1           1           1
 AtZEff=  -0.0000000  -0.0000000  -0.0000000  -0.0000000  -0.0000000  -0.0000000  -0.0000000  -0.0000000
 NQMom=  -71.0000000   0.0000000   0.0000000   0.0000000   0.0000000   0.0000000   0.0000000   0.0000000
 NMagM=    2.8132800   2.7928460   2.7928460   2.7928460   2.7928460   2.7928460   2.7928460   2.7928460
 AtZNuc=  53.0000000   1.0000000   1.0000000   1.0000000   1.0000000   1.0000000   1.0000000   1.0000000
 Leave Link  101 at Tue Sep 17 09:56:52 2024, MaxMem=  1342177280 cpu:               0.3 elap:               0.3
 (Enter /groups/ReismanLab/Software/Gaussian16_RevC/Linux_Binary_AVX2-enabled-CPU/g16/l103.exe)

 GradGradGradGradGradGradGradGradGradGradGradGradGradGradGradGradGradGrad
 Berny optimization.
 Initialization pass.
                           ----------------------------
                           !    Initial Parameters    !
                           ! (Angstroms and Degrees)  !
 --------------------------                            --------------------------
 ! Name  Definition              Value          Derivative Info.                !
 --------------------------------------------------------------------------------
 ! R1    R(1,2)                  1.4186         estimate D2E/DX2                !
 ! R2    R(1,12)                 1.0919         estimate D2E/DX2                !
 ! R3    R(1,13)                 1.0869         estimate D2E/DX2                !
 ! R4    R(1,14)                 1.0917         estimate D2E/DX2                !
 ! R5    R(2,3)                  1.3327         estimate D2E/DX2                !
 ! R6    R(3,4)                  1.206          estimate D2E/DX2                !
 ! R7    R(3,5)                  1.4891         estimate D2E/DX2                !
 ! R8    R(5,6)                  1.3957         estimate D2E/DX2                !
 ! R9    R(5,10)                 1.3914         estimate D2E/DX2                !
 ! R10   R(6,7)                  1.38           estimate D2E/DX2                !
 ! R11   R(6,15)                 1.0797         estimate D2E/DX2                !
 ! R12   R(7,8)                  1.3855         estimate D2E/DX2                !
 ! R13   R(7,16)                 1.0789         estimate D2E/DX2                !
 ! R14   R(8,9)                  1.3833         estimate D2E/DX2                !
 ! R15   R(8,17)                 1.0795         estimate D2E/DX2                !
 ! R16   R(9,10)                 1.3861         estimate D2E/DX2                !
 ! R17   R(9,18)                 1.0794         estimate D2E/DX2                !
 ! R18   R(10,11)                2.11           estimate D2E/DX2                !
 ! A1    A(2,1,12)             110.1351         estimate D2E/DX2                !
 ! A2    A(2,1,13)             106.0944         estimate D2E/DX2                !
 ! A3    A(2,1,14)             110.3003         estimate D2E/DX2                !
 ! A4    A(12,1,13)            110.6878         estimate D2E/DX2                !
 ! A5    A(12,1,14)            108.8604         estimate D2E/DX2                !
 ! A6    A(13,1,14)            110.7475         estimate D2E/DX2                !
 ! A7    A(1,2,3)              116.6491         estimate D2E/DX2                !
 ! A8    A(2,3,4)              123.6338         estimate D2E/DX2                !
 ! A9    A(2,3,5)              113.1283         estimate D2E/DX2                !
 ! A10   A(4,3,5)              123.2046         estimate D2E/DX2                !
 ! A11   A(3,5,6)              115.525          estimate D2E/DX2                !
 ! A12   A(3,5,10)             125.8769         estimate D2E/DX2                !
 ! A13   A(6,5,10)             118.5954         estimate D2E/DX2                !
 ! A14   A(5,6,7)              121.2823         estimate D2E/DX2                !
 ! A15   A(5,6,15)             117.6168         estimate D2E/DX2                !
 ! A16   A(7,6,15)             121.1007         estimate D2E/DX2                !
 ! A17   A(6,7,8)              119.4544         estimate D2E/DX2                !
 ! A18   A(6,7,16)             120.1238         estimate D2E/DX2                !
 ! A19   A(8,7,16)             120.4215         estimate D2E/DX2                !
 ! A20   A(7,8,9)              120.0509         estimate D2E/DX2                !
 ! A21   A(7,8,17)             120.4526         estimate D2E/DX2                !
 ! A22   A(9,8,17)             119.4941         estimate D2E/DX2                !
 ! A23   A(8,9,10)             120.4042         estimate D2E/DX2                !
 ! A24   A(8,9,18)             119.8735         estimate D2E/DX2                !
 ! A25   A(10,9,18)            119.7221         estimate D2E/DX2                !
 ! A26   A(5,10,9)             120.1978         estimate D2E/DX2                !
 ! A27   A(5,10,11)            123.2359         estimate D2E/DX2                !
 ! A28   A(9,10,11)            116.5227         estimate D2E/DX2                !
 ! D1    D(12,1,2,3)            67.3344         estimate D2E/DX2                !
 ! D2    D(13,1,2,3)          -172.8369         estimate D2E/DX2                !
 ! D3    D(14,1,2,3)           -52.8468         estimate D2E/DX2                !
 ! D4    D(1,2,3,4)             -2.1458         estimate D2E/DX2                !
 ! D5    D(1,2,3,5)            179.8936         estimate D2E/DX2                !
 ! D6    D(2,3,5,6)            150.3781         estimate D2E/DX2                !
 ! D7    D(2,3,5,10)           -30.2372         estimate D2E/DX2                !
 ! D8    D(4,3,5,6)            -27.5925         estimate D2E/DX2                !
 ! D9    D(4,3,5,10)           151.7922         estimate D2E/DX2                !
 ! D10   D(3,5,6,7)           -179.2601         estimate D2E/DX2                !
 ! D11   D(3,5,6,15)             0.6455         estimate D2E/DX2                !
 ! D12   D(10,5,6,7)             1.3077         estimate D2E/DX2                !
 ! D13   D(10,5,6,15)         -178.7867         estimate D2E/DX2                !
 ! D14   D(3,5,10,9)           179.6953         estimate D2E/DX2                !
 ! D15   D(3,5,10,11)           -2.791          estimate D2E/DX2                !
 ! D16   D(6,5,10,9)            -0.9371         estimate D2E/DX2                !
 ! D17   D(6,5,10,11)          176.5767         estimate D2E/DX2                !
 ! D18   D(5,6,7,8)             -0.5759         estimate D2E/DX2                !
 ! D19   D(5,6,7,16)           179.5968         estimate D2E/DX2                !
 ! D20   D(15,6,7,8)           179.5218         estimate D2E/DX2                !
 ! D21   D(15,6,7,16)           -0.3055         estimate D2E/DX2                !
 ! D22   D(6,7,8,9)             -0.538          estimate D2E/DX2                !
 ! D23   D(6,7,8,17)          -179.9799         estimate D2E/DX2                !
 ! D24   D(16,7,8,9)           179.2887         estimate D2E/DX2                !
 ! D25   D(16,7,8,17)           -0.1532         estimate D2E/DX2                !
 ! D26   D(7,8,9,10)             0.8997         estimate D2E/DX2                !
 ! D27   D(7,8,9,18)          -178.9283         estimate D2E/DX2                !
 ! D28   D(17,8,9,10)         -179.6531         estimate D2E/DX2                !
 ! D29   D(17,8,9,18)            0.519          estimate D2E/DX2                !
 ! D30   D(8,9,10,5)            -0.1477         estimate D2E/DX2                !
 ! D31   D(8,9,10,11)         -177.8236         estimate D2E/DX2                !
 ! D32   D(18,9,10,5)          179.6805         estimate D2E/DX2                !
 ! D33   D(18,9,10,11)           2.0046         estimate D2E/DX2                !
 --------------------------------------------------------------------------------
 Trust Radius=3.00D-01 FncErr=1.00D-07 GrdErr=1.00D-06 EigMax=2.50D+02 EigMin=1.00D-04
 Number of steps in this run=     89 maximum allowed number of steps=    108.
 GradGradGradGradGradGradGradGradGradGradGradGradGradGradGradGradGradGrad

 Leave Link  103 at Tue Sep 17 09:56:52 2024, MaxMem=  1342177280 cpu:               0.1 elap:               0.0
 (Enter /groups/ReismanLab/Software/Gaussian16_RevC/Linux_Binary_AVX2-enabled-CPU/g16/l202.exe)
                          Input orientation:                          
 ---------------------------------------------------------------------
 Center     Atomic      Atomic             Coordinates (Angstroms)
 Number     Number       Type             X           Y           Z
 ---------------------------------------------------------------------
      1          6           0        0.112948   -3.412314   -0.422389
      2          8           0       -0.174327   -2.024096   -0.474791
      3          6           0       -1.298546   -1.623502    0.118374
      4          8           0       -2.078193   -2.375065    0.649078
      5          6           0       -1.521243   -0.154562    0.018416
      6          6           0       -2.856399    0.251868    0.006454
      7          6           0       -3.198828    1.584651   -0.097778
      8          6           0       -2.199241    2.540430   -0.180413
      9          6           0       -0.870382    2.157678   -0.146995
     10          6           0       -0.528475    0.817899   -0.049673
     11         53           0        1.531830    0.377066    0.063110
     12          1           0       -0.616396   -3.969671   -1.013753
     13          1           0        1.111630   -3.529122   -0.835028
     14          1           0        0.076679   -3.767925    0.609128
     15          1           0       -3.613525   -0.514388    0.080164
     16          1           0       -4.237195    1.877453   -0.111753
     17          1           0       -2.448838    3.587477   -0.262095
     18          1           0       -0.093961    2.906087   -0.194130
 ---------------------------------------------------------------------
                    Distance matrix (angstroms):
                    1          2          3          4          5
     1  C    0.000000
     2  O    1.418599   0.000000
     3  C    2.341920   1.332737   0.000000
     4  O    2.650477   2.238519   1.205961   0.000000
     5  C    3.671218   2.356394   1.489084   2.374565   0.000000
     6  C    4.735732   3.550369   2.440583   2.814133   1.395697
     7  C    6.003574   4.723643   3.734976   4.182459   2.419226
     8  C    6.390613   5.002183   4.270698   4.986461   2.786072
     9  C    5.662826   4.251962   3.814586   4.757972   2.407786
    10  C    4.294770   2.895356   2.565480   3.617305   1.391368
    11  I    4.075333   2.994310   3.466462   4.577101   3.099336
    12  H    1.091926   2.066680   2.692870   2.728485   4.054526
    13  H    1.086867   2.012103   3.217034   3.702619   4.364406
    14  H    1.091697   2.068532   2.594347   2.566151   3.994833
    15  H    4.747329   3.796745   2.567240   2.478512   2.123895
    16  H    6.855792   5.644535   4.576604   4.829499   3.394469
    17  H    7.455570   6.058745   5.349975   6.043138   3.865485
    18  H    6.325908   4.938819   4.697432   5.704274   3.383767
                    6          7          8          9         10
     6  C    0.000000
     7  C    1.380012   0.000000
     8  C    2.388366   1.385467   0.000000
     9  C    2.756795   2.398425   1.383286   0.000000
    10  C    2.396408   2.778671   2.403262   1.386138   0.000000
    11  I    4.390380   4.885005   4.319761   2.997557   2.109955
    12  H    4.886699   6.193421   6.751391   6.193560   4.884466
    13  H    5.545199   6.728615   6.944771   6.061473   4.712039
    14  H    5.012475   6.314961   6.752669   6.048258   4.672260
    15  H    1.079732   2.146998   3.376391   3.836192   3.362942
    16  H    2.136141   1.078950   2.144180   3.378638   3.857605
    17  H    3.371129   2.144947   1.079480   2.132861   3.376904
    18  H    3.836167   3.375749   2.136843   1.079430   2.137803
                   11         12         13         14         15
    11  I    0.000000
    12  H    4.966753   0.000000
    13  H    4.030078   1.792233   0.000000
    14  H    4.426800   1.776175   1.792690   0.000000
    15  H    5.222036   4.703022   5.679197   4.948021   0.000000
    16  H    5.963504   6.936328   7.639640   7.141392   2.479254
    17  H    5.124277   7.812383   7.978168   7.825548   4.277725
    18  H    3.017501   6.944118   6.578458   6.724343   4.915508
                   16         17         18
    16  H    0.000000
    17  H    2.478911   0.000000
    18  H    4.269808   2.452419   0.000000
 Stoichiometry    C8H7IO2
 Framework group  C1[X(C8H7IO2)]
 Deg. of freedom    48
 Full point group                 C1      NOp   1
 Largest Abelian subgroup         C1      NOp   1
 Largest concise Abelian subgroup C1      NOp   1
                         Standard orientation:                         
 ---------------------------------------------------------------------
 Center     Atomic      Atomic             Coordinates (Angstroms)
 Number     Number       Type             X           Y           Z
 ---------------------------------------------------------------------
      1          6           0        1.360584    3.094008    0.397831
      2          8           0        0.638183    1.874498    0.455774
      3          6           0       -0.557315    1.859344   -0.133074
      4          8           0       -1.052484    2.822105   -0.664339
      5          6           0       -1.244687    0.542629   -0.027464
      6          6           0       -2.639410    0.591933   -0.010623
      7          6           0       -3.395784   -0.557106    0.099102
      8          6           0       -2.760535   -1.785534    0.182435
      9          6           0       -1.379535   -1.855238    0.144235
     10          6           0       -0.621358   -0.699396    0.041397
     11         53           0        1.470007   -0.951940   -0.078272
     12          1           0        0.853934    3.859471    0.989163
     13          1           0        2.344531    2.881102    0.807462
     14          1           0        1.438085    3.439620   -0.634811
     15          1           0       -3.106869    1.562383   -0.085007
     16          1           0       -4.472898   -0.496730    0.116793
     17          1           0       -3.336384   -2.694538    0.268382
     18          1           0       -0.888126   -2.815140    0.191933
 ---------------------------------------------------------------------
 Rotational constants (GHZ):           0.8396172           0.6633890           0.3796025
 Leave Link  202 at Tue Sep 17 09:56:52 2024, MaxMem=  1342177280 cpu:               0.0 elap:               0.0
 (Enter /groups/ReismanLab/Software/Gaussian16_RevC/Linux_Binary_AVX2-enabled-CPU/g16/l301.exe)
 General basis read from cards:  (5D, 7F)
 Centers:       1      3      5      6      7      8      9     10     12     13
 Centers:      14     15     16     17     18      2      4
 6-31G(d,p)
 ****
 Centers:      11
 LANL2DZ
 ****
 ======================================================================================================
                                       Pseudopotential Parameters
 ======================================================================================================
  Center     Atomic      Valence      Angular      Power
  Number     Number     Electrons     Momentum     of R      Exponent        Coefficient   SO-Coeffient
 ======================================================================================================
    1          6
                                   No pseudopotential on this center.
    2          8
                                   No pseudopotential on this center.
    3          6
                                   No pseudopotential on this center.
    4          8
                                   No pseudopotential on this center.
    5          6
                                   No pseudopotential on this center.
    6          6
                                   No pseudopotential on this center.
    7          6
                                   No pseudopotential on this center.
    8          6
                                   No pseudopotential on this center.
    9          6
                                   No pseudopotential on this center.
   10          6
                                   No pseudopotential on this center.
   11         53            7
                                      F and up 
                                                     0        1.0715702       -0.07476210    0.00000000
                                                     1       44.1936028      -30.08112240    0.00000000
                                                     2       12.9367609      -75.37227210    0.00000000
                                                     2        3.1956412      -22.05637580    0.00000000
                                                     2        0.8589806       -1.69795850    0.00000000
                                      S - F
                                                     0      127.9202670        2.93800360    0.00000000
                                                     1       78.6211465       41.24712670    0.00000000
                                                     2       36.5146237      287.86800950    0.00000000
                                                     2        9.9065681      114.37585060    0.00000000
                                                     2        1.9420086       37.65477140    0.00000000
                                      P - F
                                                     0       13.0035304        2.22226300    0.00000000
                                                     1       76.0331404       39.40908310    0.00000000
                                                     2       24.1961684      177.40750020    0.00000000
                                                     2        6.4053433       77.98894620    0.00000000
                                                     2        1.5851786       25.75476410    0.00000000
                                      D - F
                                                     0       40.4278108        7.05243600    0.00000000
                                                     1       28.9084375       33.30416350    0.00000000
                                                     2       15.6268936      186.94538750    0.00000000
                                                     2        4.1442856       71.96883610    0.00000000
                                                     2        0.9377235        9.36306570    0.00000000
   12          1
                                   No pseudopotential on this center.
   13          1
                                   No pseudopotential on this center.
   14          1
                                   No pseudopotential on this center.
   15          1
                                   No pseudopotential on this center.
   16          1
                                   No pseudopotential on this center.
   17          1
                                   No pseudopotential on this center.
   18          1
                                   No pseudopotential on this center.
 ======================================================================================================
 Ernie: Thresh=  0.10000D-02 Tol=  0.10000D-05 Strict=F.
 There are   193 symmetry adapted cartesian basis functions of A   symmetry.
 There are   183 symmetry adapted basis functions of A   symmetry.
   183 basis functions,   341 primitive gaussians,   193 cartesian basis functions
    39 alpha electrons       39 beta electrons
       nuclear repulsion energy       550.8110455560 Hartrees.
 IExCor=  402 DFT=T Ex+Corr=B3LYP ExCW=0 ScaHFX=  0.200000
 ScaDFX=  0.800000  0.720000  1.000000  0.810000 ScalE2=  1.000000  1.000000
 IRadAn=      5 IRanWt=     -1 IRanGd=            0 ICorTp=0 IEmpDi=141
 NAtoms=   18 NActive=   18 NUniq=   18 SFac= 1.00D+00 NAtFMM=   60 NAOKFM=F Big=F
 Integral buffers will be    131072 words long.
 Raffenetti 2 integral format.
 Two-electron integral symmetry is turned on.
 R6Disp:  Grimme-D3(BJ) Dispersion energy=       -0.0390784270 Hartrees.
 Nuclear repulsion after empirical dispersion term =      550.7719671290 Hartrees.
 Leave Link  301 at Tue Sep 17 09:56:52 2024, MaxMem=  1342177280 cpu:               0.1 elap:               0.1
 (Enter /groups/ReismanLab/Software/Gaussian16_RevC/Linux_Binary_AVX2-enabled-CPU/g16/l302.exe)
 NPDir=0 NMtPBC=     1 NCelOv=     1 NCel=       1 NClECP=     1 NCelD=      1
         NCelK=      1 NCelE2=     1 NClLst=     1 CellRange=     0.0.
 One-electron integrals computed using PRISM.
 One-electron integral symmetry used in STVInt
   1 Symmetry operations used in ECPInt.
 ECPInt:  NShTT=    2145 NPrTT=   11679 LenC2=    2002 LenP2D=    7579.
 LDataN:  DoStor=T MaxTD1= 5 Len=  102
 NBasis=   183 RedAO= T EigKep=  4.51D-04  NBF=   183
 NBsUse=   183 1.00D-06 EigRej= -1.00D+00 NBFU=   183
 Precomputing XC quadrature grid using
 IXCGrd= 4 IRadAn=           5 IRanWt=          -1 IRanGd=           0 AccXCQ= 0.00D+00.
 Defaulting to unpruned grid for atomic number  53.
 Generated NRdTot=       0 NPtTot=           0 NUsed=           0 NTot=          32
 NSgBfM=   193   193   193   193   193 MxSgAt=    18 MxSgA2=    18.
 Leave Link  302 at Tue Sep 17 09:56:53 2024, MaxMem=  1342177280 cpu:               1.3 elap:               0.2
 (Enter /groups/ReismanLab/Software/Gaussian16_RevC/Linux_Binary_AVX2-enabled-CPU/g16/l303.exe)
 DipDrv:  MaxL=1.
 Leave Link  303 at Tue Sep 17 09:56:53 2024, MaxMem=  1342177280 cpu:               0.1 elap:               0.0
 (Enter /groups/ReismanLab/Software/Gaussian16_RevC/Linux_Binary_AVX2-enabled-CPU/g16/l401.exe)
 ExpMin= 1.05D-01 ExpMax= 5.48D+03 ExpMxC= 8.25D+02 IAcc=3 IRadAn=         5 AccDes= 0.00D+00
 Harris functional with IExCor=  402 and IRadAn=       5 diagonalized for initial guess.
 HarFok:  IExCor=  402 AccDes= 0.00D+00 IRadAn=         5 IDoV= 1 UseB2=F ITyADJ=14
 ICtDFT=  3500011 ScaDFX=  1.000000  1.000000  1.000000  1.000000
 Defaulting to unpruned grid for atomic number  53.
 FoFCou: FMM=F IPFlag=           0 FMFlag=      100000 FMFlg1=           0
         NFxFlg=           0 DoJE=T BraDBF=F KetDBF=T FulRan=T
         wScrn=  0.000000 ICntrl=       500 IOpCl=  0 I1Cent=   200000004 NGrid=           0
         NMat0=    1 NMatS0=      1 NMatT0=    0 NMatD0=    1 NMtDS0=    0 NMtDT0=    0
 Petite list used in FoFCou.
 Harris En= -470.874133676272    
 JPrj=0 DoOrth=F DoCkMO=F.
 Leave Link  401 at Tue Sep 17 09:56:53 2024, MaxMem=  1342177280 cpu:               4.5 elap:               0.6
 (Enter /groups/ReismanLab/Software/Gaussian16_RevC/Linux_Binary_AVX2-enabled-CPU/g16/l502.exe)
 Integral symmetry usage will be decided dynamically.
 Closed shell SCF:
 Using DIIS extrapolation, IDIIS=  1040.
 NGot=  1342177280 LenX=  1342098694 LenY=  1342061004
 Requested convergence on RMS density matrix=1.00D-08 within  32 cycles.
 Requested convergence on MAX density matrix=1.00D-06.
 Requested convergence on             energy=1.00D-06.
 No special actions if energy rises.
 Fock matrices will be formed incrementally for  20 cycles.
 Integral accuracy reduced to 1.0D-05 until final iterations.

 Cycle   1  Pass 0  IDiag  1:
 FoFJK:  IHMeth= 1 ICntrl=       0 DoSepK=F KAlg= 0 I1Cent=           0 FoldK=F
 IRaf= 880000000 NMat=       1 IRICut=       1 DoRegI=T DoRafI=F ISym2E= 0 IDoP0=0 IntGTp=1.
 FoFCou: FMM=F IPFlag=           0 FMFlag=      100000 FMFlg1=           0
         NFxFlg=           0 DoJE=F BraDBF=F KetDBF=F FulRan=T
         wScrn=  0.000000 ICntrl=         0 IOpCl=  0 I1Cent=           0 NGrid=           0
         NMat0=    1 NMatS0=      1 NMatT0=    0 NMatD0=    1 NMtDS0=    0 NMtDT0=    0
 Symmetry not used in FoFCou.
 Defaulting to unpruned grid for atomic number  53.
 Defaulting to unpruned grid for atomic number  53.
 Defaulting to unpruned grid for atomic number  53.
 Defaulting to unpruned grid for atomic number  53.
 Defaulting to unpruned grid for atomic number  53.
 Defaulting to unpruned grid for atomic number  53.
 Defaulting to unpruned grid for atomic number  53.
 Defaulting to unpruned grid for atomic number  53.
 E= -470.690363903943    
 DIIS: error= 2.75D-02 at cycle   1 NSaved=   1.
 NSaved= 1 IEnMin= 1 EnMin= -470.690363903943     IErMin= 1 ErrMin= 2.75D-02
 ErrMax= 2.75D-02  0.00D+00 EMaxC= 1.00D-01 BMatC= 2.42D-01 BMatP= 2.42D-01
 IDIUse=3 WtCom= 7.25D-01 WtEn= 2.75D-01
 Coeff-Com:  0.100D+01
 Coeff-En:   0.100D+01
 Coeff:      0.100D+01
 Gap=     0.326 Goal=   None    Shift=    0.000
 GapD=    0.326 DampG=1.000 DampE=0.500 DampFc=0.5000 IDamp=-1.
 Damping current iteration by 5.00D-01
 RMSDP=6.15D-03 MaxDP=1.88D-01              OVMax= 2.55D-01

 Cycle   2  Pass 0  IDiag  1:
 RMSU=  3.05D-03    CP:  9.84D-01
 E= -470.765834034693     Delta-E=       -0.075470130750 Rises=F Damp=T
 DIIS: error= 7.61D-03 at cycle   2 NSaved=   2.
 NSaved= 2 IEnMin= 2 EnMin= -470.765834034693     IErMin= 2 ErrMin= 7.61D-03
 ErrMax= 7.61D-03  0.00D+00 EMaxC= 1.00D-01 BMatC= 3.39D-02 BMatP= 2.42D-01
 IDIUse=3 WtCom= 9.24D-01 WtEn= 7.61D-02
 Coeff-Com:  0.206D+00 0.794D+00
 Coeff-En:   0.305D+00 0.695D+00
 Coeff:      0.213D+00 0.787D+00
 Gap=     0.254 Goal=   None    Shift=    0.000
 RMSDP=1.90D-03 MaxDP=5.03D-02 DE=-7.55D-02 OVMax= 1.29D-01

 Cycle   3  Pass 0  IDiag  1:
 RMSU=  1.74D-03    CP:  9.77D-01  7.55D-01
 E= -470.901292474165     Delta-E=       -0.135458439472 Rises=F Damp=F
 DIIS: error= 9.07D-03 at cycle   3 NSaved=   3.
 NSaved= 3 IEnMin= 3 EnMin= -470.901292474165     IErMin= 2 ErrMin= 7.61D-03
 ErrMax= 9.07D-03  0.00D+00 EMaxC= 1.00D-01 BMatC= 3.49D-02 BMatP= 3.39D-02
 IDIUse=3 WtCom= 9.09D-01 WtEn= 9.07D-02
 Coeff-Com:  0.666D-01 0.500D+00 0.434D+00
 Coeff-En:   0.000D+00 0.000D+00 0.100D+01
 Coeff:      0.605D-01 0.454D+00 0.485D+00
 Gap=     0.193 Goal=   None    Shift=    0.000
 RMSDP=1.30D-03 MaxDP=4.14D-02 DE=-1.35D-01 OVMax= 8.01D-02

 Cycle   4  Pass 0  IDiag  1:
 RMSU=  1.03D-03    CP:  9.81D-01  7.96D-01  5.50D-01
 E= -470.926579581840     Delta-E=       -0.025287107675 Rises=F Damp=F
 DIIS: error= 3.15D-03 at cycle   4 NSaved=   4.
 NSaved= 4 IEnMin= 4 EnMin= -470.926579581840     IErMin= 4 ErrMin= 3.15D-03
 ErrMax= 3.15D-03  0.00D+00 EMaxC= 1.00D-01 BMatC= 5.85D-03 BMatP= 3.39D-02
 IDIUse=3 WtCom= 9.69D-01 WtEn= 3.15D-02
 Coeff-Com:  0.103D-01 0.129D+00 0.305D+00 0.556D+00
 Coeff-En:   0.000D+00 0.000D+00 0.171D+00 0.829D+00
 Coeff:      0.996D-02 0.125D+00 0.301D+00 0.564D+00
 Gap=     0.195 Goal=   None    Shift=    0.000
 RMSDP=4.64D-04 MaxDP=1.19D-02 DE=-2.53D-02 OVMax= 2.38D-02

 Cycle   5  Pass 0  IDiag  1:
 RMSU=  1.94D-04    CP:  9.80D-01  7.89D-01  6.45D-01  6.24D-01
 E= -470.931288526330     Delta-E=       -0.004708944490 Rises=F Damp=F
 DIIS: error= 7.22D-04 at cycle   5 NSaved=   5.
 NSaved= 5 IEnMin= 5 EnMin= -470.931288526330     IErMin= 5 ErrMin= 7.22D-04
 ErrMax= 7.22D-04  0.00D+00 EMaxC= 1.00D-01 BMatC= 2.75D-04 BMatP= 5.85D-03
 IDIUse=3 WtCom= 9.93D-01 WtEn= 7.22D-03
 Coeff-Com:  0.372D-03 0.254D-01 0.120D+00 0.297D+00 0.558D+00
 Coeff-En:   0.000D+00 0.000D+00 0.000D+00 0.000D+00 0.100D+01
 Coeff:      0.370D-03 0.253D-01 0.119D+00 0.295D+00 0.561D+00
 Gap=     0.196 Goal=   None    Shift=    0.000
 RMSDP=1.14D-04 MaxDP=4.01D-03 DE=-4.71D-03 OVMax= 5.92D-03

 Cycle   6  Pass 0  IDiag  1:
 RMSU=  7.54D-05    CP:  9.80D-01  7.94D-01  6.48D-01  6.59D-01  6.13D-01
 E= -470.931509535840     Delta-E=       -0.000221009510 Rises=F Damp=F
 DIIS: error= 3.36D-04 at cycle   6 NSaved=   6.
 NSaved= 6 IEnMin= 6 EnMin= -470.931509535840     IErMin= 6 ErrMin= 3.36D-04
 ErrMax= 3.36D-04  0.00D+00 EMaxC= 1.00D-01 BMatC= 3.80D-05 BMatP= 2.75D-04
 IDIUse=3 WtCom= 9.97D-01 WtEn= 3.36D-03
 Coeff-Com: -0.655D-03 0.124D-02 0.355D-01 0.106D+00 0.327D+00 0.531D+00
 Coeff-En:   0.000D+00 0.000D+00 0.000D+00 0.000D+00 0.112D+00 0.888D+00
 Coeff:     -0.653D-03 0.123D-02 0.354D-01 0.106D+00 0.326D+00 0.532D+00
 Gap=     0.196 Goal=   None    Shift=    0.000
 RMSDP=4.77D-05 MaxDP=1.60D-03 DE=-2.21D-04 OVMax= 2.60D-03

 Cycle   7  Pass 0  IDiag  1:
 RMSU=  2.57D-05    CP:  9.80D-01  7.92D-01  6.50D-01  6.55D-01  7.02D-01
                    CP:  5.32D-01
 E= -470.931545346769     Delta-E=       -0.000035810929 Rises=F Damp=F
 DIIS: error= 1.16D-04 at cycle   7 NSaved=   7.
 NSaved= 7 IEnMin= 7 EnMin= -470.931545346769     IErMin= 7 ErrMin= 1.16D-04
 ErrMax= 1.16D-04  0.00D+00 EMaxC= 1.00D-01 BMatC= 3.77D-06 BMatP= 3.80D-05
 IDIUse=3 WtCom= 9.99D-01 WtEn= 1.16D-03
 Coeff-Com: -0.378D-03-0.165D-02 0.109D-01 0.373D-01 0.150D+00 0.318D+00
 Coeff-Com:  0.486D+00
 Coeff-En:   0.000D+00 0.000D+00 0.000D+00 0.000D+00 0.000D+00 0.399D-01
 Coeff-En:   0.960D+00
 Coeff:     -0.377D-03-0.165D-02 0.109D-01 0.373D-01 0.150D+00 0.318D+00
 Coeff:      0.486D+00
 Gap=     0.196 Goal=   None    Shift=    0.000
 RMSDP=1.56D-05 MaxDP=3.74D-04 DE=-3.58D-05 OVMax= 7.97D-04

 Cycle   8  Pass 0  IDiag  1:
 RMSU=  5.65D-06    CP:  9.80D-01  7.91D-01  6.50D-01  6.60D-01  6.89D-01
                    CP:  6.12D-01  5.54D-01
 E= -470.931549327473     Delta-E=       -0.000003980704 Rises=F Damp=F
 DIIS: error= 3.22D-05 at cycle   8 NSaved=   8.
 NSaved= 8 IEnMin= 8 EnMin= -470.931549327473     IErMin= 8 ErrMin= 3.22D-05
 ErrMax= 3.22D-05  0.00D+00 EMaxC= 1.00D-01 BMatC= 2.26D-07 BMatP= 3.77D-06
 IDIUse=1 WtCom= 1.00D+00 WtEn= 0.00D+00
 Coeff-Com: -0.107D-03-0.109D-02 0.295D-02 0.108D-01 0.543D-01 0.123D+00
 Coeff-Com:  0.254D+00 0.556D+00
 Coeff:     -0.107D-03-0.109D-02 0.295D-02 0.108D-01 0.543D-01 0.123D+00
 Coeff:      0.254D+00 0.556D+00
 Gap=     0.196 Goal=   None    Shift=    0.000
 RMSDP=3.06D-06 MaxDP=8.25D-05 DE=-3.98D-06 OVMax= 1.79D-04

 Initial convergence to 1.0D-05 achieved.  Increase integral accuracy.
 Cycle   9  Pass 1  IDiag  1:
 E= -470.931578259219     Delta-E=       -0.000028931745 Rises=F Damp=F
 DIIS: error= 1.52D-05 at cycle   1 NSaved=   1.
 NSaved= 1 IEnMin= 1 EnMin= -470.931578259219     IErMin= 1 ErrMin= 1.52D-05
 ErrMax= 1.52D-05  0.00D+00 EMaxC= 1.00D-01 BMatC= 5.27D-08 BMatP= 5.27D-08
 IDIUse=1 WtCom= 1.00D+00 WtEn= 0.00D+00
 Coeff-Com:  0.100D+01
 Coeff:      0.100D+01
 Gap=     0.196 Goal=   None    Shift=    0.000
 RMSDP=3.06D-06 MaxDP=8.25D-05 DE=-2.89D-05 OVMax= 8.90D-05

 Cycle  10  Pass 1  IDiag  1:
 RMSU=  1.09D-05    CP:  1.00D+00
 E= -470.931578250018     Delta-E=        0.000000009200 Rises=F Damp=F
 DIIS: error= 1.20D-05 at cycle   2 NSaved=   2.
 NSaved= 2 IEnMin= 1 EnMin= -470.931578259219     IErMin= 2 ErrMin= 1.20D-05
 ErrMax= 1.20D-05  0.00D+00 EMaxC= 1.00D-01 BMatC= 6.94D-08 BMatP= 5.27D-08
 IDIUse=1 WtCom= 1.00D+00 WtEn= 0.00D+00
 Coeff-Com:  0.542D+00 0.458D+00
 Coeff:      0.542D+00 0.458D+00
 Gap=     0.196 Goal=   None    Shift=    0.000
 RMSDP=1.64D-06 MaxDP=6.20D-05 DE= 9.20D-09 OVMax= 9.30D-05

 Cycle  11  Pass 1  IDiag  1:
 RMSU=  1.61D-06    CP:  1.00D+00  9.72D-01
 E= -470.931578302337     Delta-E=       -0.000000052319 Rises=F Damp=F
 DIIS: error= 4.37D-06 at cycle   3 NSaved=   3.
 NSaved= 3 IEnMin= 3 EnMin= -470.931578302337     IErMin= 3 ErrMin= 4.37D-06
 ErrMax= 4.37D-06  0.00D+00 EMaxC= 1.00D-01 BMatC= 8.88D-09 BMatP= 5.27D-08
 IDIUse=1 WtCom= 1.00D+00 WtEn= 0.00D+00
 Coeff-Com:  0.717D-01 0.263D+00 0.665D+00
 Coeff:      0.717D-01 0.263D+00 0.665D+00
 Gap=     0.196 Goal=   None    Shift=    0.000
 RMSDP=5.69D-07 MaxDP=2.01D-05 DE=-5.23D-08 OVMax= 3.53D-05

 Cycle  12  Pass 1  IDiag  1:
 RMSU=  3.99D-07    CP:  1.00D+00  9.87D-01  7.70D-01
 E= -470.931578308249     Delta-E=       -0.000000005912 Rises=F Damp=F
 DIIS: error= 2.32D-06 at cycle   4 NSaved=   4.
 NSaved= 4 IEnMin= 4 EnMin= -470.931578308249     IErMin= 4 ErrMin= 2.32D-06
 ErrMax= 2.32D-06  0.00D+00 EMaxC= 1.00D-01 BMatC= 1.77D-09 BMatP= 8.88D-09
 IDIUse=1 WtCom= 1.00D+00 WtEn= 0.00D+00
 Coeff-Com: -0.192D-02 0.128D+00 0.426D+00 0.447D+00
 Coeff:     -0.192D-02 0.128D+00 0.426D+00 0.447D+00
 Gap=     0.196 Goal=   None    Shift=    0.000
 RMSDP=2.19D-07 MaxDP=9.01D-06 DE=-5.91D-09 OVMax= 1.08D-05

 Cycle  13  Pass 1  IDiag  1:
 RMSU=  9.12D-08    CP:  1.00D+00  9.87D-01  7.77D-01  5.02D-01
 E= -470.931578309714     Delta-E=       -0.000000001465 Rises=F Damp=F
 DIIS: error= 5.13D-07 at cycle   5 NSaved=   5.
 NSaved= 5 IEnMin= 5 EnMin= -470.931578309714     IErMin= 5 ErrMin= 5.13D-07
 ErrMax= 5.13D-07  0.00D+00 EMaxC= 1.00D-01 BMatC= 6.88D-11 BMatP= 1.77D-09
 IDIUse=1 WtCom= 1.00D+00 WtEn= 0.00D+00
 Coeff-Com: -0.385D-02 0.670D-01 0.229D+00 0.271D+00 0.437D+00
 Coeff:     -0.385D-02 0.670D-01 0.229D+00 0.271D+00 0.437D+00
 Gap=     0.196 Goal=   None    Shift=    0.000
 RMSDP=4.45D-08 MaxDP=1.47D-06 DE=-1.47D-09 OVMax= 1.67D-06

 Cycle  14  Pass 1  IDiag  1:
 RMSU=  3.34D-08    CP:  1.00D+00  9.87D-01  7.81D-01  5.09D-01  6.91D-01
 E= -470.931578309780     Delta-E=       -0.000000000066 Rises=F Damp=F
 DIIS: error= 1.41D-07 at cycle   6 NSaved=   6.
 NSaved= 6 IEnMin= 6 EnMin= -470.931578309780     IErMin= 6 ErrMin= 1.41D-07
 ErrMax= 1.41D-07  0.00D+00 EMaxC= 1.00D-01 BMatC= 4.03D-12 BMatP= 6.88D-11
 IDIUse=1 WtCom= 1.00D+00 WtEn= 0.00D+00
 Coeff-Com: -0.199D-02 0.276D-01 0.942D-01 0.118D+00 0.247D+00 0.515D+00
 Coeff:     -0.199D-02 0.276D-01 0.942D-01 0.118D+00 0.247D+00 0.515D+00
 Gap=     0.196 Goal=   None    Shift=    0.000
 RMSDP=2.17D-08 MaxDP=5.90D-07 DE=-6.58D-11 OVMax= 9.48D-07

 Cycle  15  Pass 1  IDiag  1:
 RMSU=  1.61D-08    CP:  1.00D+00  9.88D-01  7.78D-01  5.14D-01  7.18D-01
                    CP:  6.54D-01
 E= -470.931578309774     Delta-E=        0.000000000006 Rises=F Damp=F
 DIIS: error= 4.88D-08 at cycle   7 NSaved=   7.
 NSaved= 7 IEnMin= 6 EnMin= -470.931578309780     IErMin= 7 ErrMin= 4.88D-08
 ErrMax= 4.88D-08  0.00D+00 EMaxC= 1.00D-01 BMatC= 7.22D-13 BMatP= 4.03D-12
 IDIUse=1 WtCom= 1.00D+00 WtEn= 0.00D+00
 Coeff-Com: -0.596D-03 0.560D-02 0.183D-01 0.270D-01 0.752D-01 0.324D+00
 Coeff-Com:  0.550D+00
 Coeff:     -0.596D-03 0.560D-02 0.183D-01 0.270D-01 0.752D-01 0.324D+00
 Coeff:      0.550D+00
 Gap=     0.196 Goal=   None    Shift=    0.000
 RMSDP=4.93D-09 MaxDP=1.58D-07 DE= 5.91D-12 OVMax= 2.34D-07

 SCF Done:  E(RB3LYP) =  -470.931578310     A.U. after   15 cycles
            NFock= 15  Conv=0.49D-08     -V/T= 2.0239
 KE= 4.599190512691D+02 PE=-2.194718006837D+03 EE= 7.130954101287D+02
 Leave Link  502 at Tue Sep 17 09:57:03 2024, MaxMem=  1342177280 cpu:              69.9 elap:               9.3
 (Enter /groups/ReismanLab/Software/Gaussian16_RevC/Linux_Binary_AVX2-enabled-CPU/g16/l508.exe)
 QCSCF skips out because SCF is already converged.
 Leave Link  508 at Tue Sep 17 09:57:03 2024, MaxMem=  1342177280 cpu:               0.0 elap:               0.0
 (Enter /groups/ReismanLab/Software/Gaussian16_RevC/Linux_Binary_AVX2-enabled-CPU/g16/l601.exe)
 Copying SCF densities to generalized density rwf, IOpCl= 0 IROHF=0.

 **********************************************************************

            Population analysis using the SCF Density.

 **********************************************************************

 Orbital symmetries:
       Occupied  (A) (A) (A) (A) (A) (A) (A) (A) (A) (A) (A) (A)
                 (A) (A) (A) (A) (A) (A) (A) (A) (A) (A) (A) (A)
                 (A) (A) (A) (A) (A) (A) (A) (A) (A) (A) (A) (A)
                 (A) (A) (A)
       Virtual   (A) (A) (A) (A) (A) (A) (A) (A) (A) (A) (A) (A)
                 (A) (A) (A) (A) (A) (A) (A) (A) (A) (A) (A) (A)
                 (A) (A) (A) (A) (A) (A) (A) (A) (A) (A) (A) (A)
                 (A) (A) (A) (A) (A) (A) (A) (A) (A) (A) (A) (A)
                 (A) (A) (A) (A) (A) (A) (A) (A) (A) (A) (A) (A)
                 (A) (A) (A) (A) (A) (A) (A) (A) (A) (A) (A) (A)
                 (A) (A) (A) (A) (A) (A) (A) (A) (A) (A) (A) (A)
                 (A) (A) (A) (A) (A) (A) (A) (A) (A) (A) (A) (A)
                 (A) (A) (A) (A) (A) (A) (A) (A) (A) (A) (A) (A)
                 (A) (A) (A) (A) (A) (A) (A) (A) (A) (A) (A) (A)
                 (A) (A) (A) (A) (A) (A) (A) (A) (A) (A) (A) (A)
                 (A) (A) (A) (A) (A) (A) (A) (A) (A) (A) (A) (A)
 The electronic state is 1-A.
 Alpha  occ. eigenvalues --  -19.19036 -19.13316 -10.31507 -10.24439 -10.23722
 Alpha  occ. eigenvalues --  -10.21358 -10.20389 -10.20340 -10.20128 -10.19818
 Alpha  occ. eigenvalues --   -1.11447  -1.02115  -0.88301  -0.78903  -0.77555
 Alpha  occ. eigenvalues --   -0.73275  -0.68525  -0.63641  -0.61176  -0.57404
 Alpha  occ. eigenvalues --   -0.53656  -0.49552  -0.49197  -0.48237  -0.46151
 Alpha  occ. eigenvalues --   -0.44844  -0.42798  -0.41687  -0.40675  -0.38108
 Alpha  occ. eigenvalues --   -0.37412  -0.36009  -0.34533  -0.30787  -0.29988
 Alpha  occ. eigenvalues --   -0.28417  -0.26616  -0.25463  -0.24252
 Alpha virt. eigenvalues --   -0.04658  -0.02886  -0.01711   0.04647   0.10023
 Alpha virt. eigenvalues --    0.11426   0.13244   0.14759   0.15615   0.15871
 Alpha virt. eigenvalues --    0.17143   0.17612   0.18230   0.25004   0.27193
 Alpha virt. eigenvalues --    0.28593   0.29341   0.30381   0.34833   0.36785
 Alpha virt. eigenvalues --    0.38401   0.38994   0.42116   0.48427   0.50609
 Alpha virt. eigenvalues --    0.51185   0.52834   0.54272   0.55222   0.56536
 Alpha virt. eigenvalues --    0.57747   0.58951   0.59425   0.59667   0.60228
 Alpha virt. eigenvalues --    0.60944   0.63455   0.64697   0.65585   0.67474
 Alpha virt. eigenvalues --    0.70286   0.71555   0.75261   0.77111   0.80828
 Alpha virt. eigenvalues --    0.81702   0.82573   0.83163   0.84218   0.86926
 Alpha virt. eigenvalues --    0.88973   0.90199   0.92890   0.94405   0.96685
 Alpha virt. eigenvalues --    0.98486   1.00856   1.02561   1.06304   1.08024
 Alpha virt. eigenvalues --    1.09994   1.10815   1.14038   1.17461   1.21536
 Alpha virt. eigenvalues --    1.23584   1.24143   1.30418   1.31945   1.34326
 Alpha virt. eigenvalues --    1.36916   1.39490   1.40369   1.40872   1.44411
 Alpha virt. eigenvalues --    1.45262   1.49264   1.60447   1.64733   1.70720
 Alpha virt. eigenvalues --    1.73359   1.75414   1.77578   1.79459   1.83994
 Alpha virt. eigenvalues --    1.86523   1.88742   1.92285   1.92416   1.93117
 Alpha virt. eigenvalues --    1.95933   1.97220   1.98109   1.98651   2.00042
 Alpha virt. eigenvalues --    2.00322   2.01858   2.02923   2.04705   2.07620
 Alpha virt. eigenvalues --    2.12076   2.12459   2.15236   2.26296   2.29234
 Alpha virt. eigenvalues --    2.30109   2.34397   2.37105   2.38236   2.39031
 Alpha virt. eigenvalues --    2.42373   2.46113   2.46544   2.47237   2.50935
 Alpha virt. eigenvalues --    2.51194   2.53331   2.56640   2.57292   2.61916
 Alpha virt. eigenvalues --    2.62906   2.65667   2.69090   2.71644   2.73735
 Alpha virt. eigenvalues --    2.76762   2.81609   2.84388   2.85380   2.96187
 Alpha virt. eigenvalues --    2.98129   3.00375   3.11278   3.18134   3.20709
 Alpha virt. eigenvalues --    3.22487   3.24065   3.33982   3.34538   3.41075
 Alpha virt. eigenvalues --    3.43773   3.48557   3.87904  10.25998
          Condensed to atoms (all electrons):
               1          2          3          4          5          6
     1  C    4.702050   0.228472  -0.025817   0.002662   0.006840  -0.000129
     2  O    0.228472   8.211767   0.285440  -0.083247  -0.083693   0.002178
     3  C   -0.025817   0.285440   4.392580   0.603607   0.325042  -0.027591
     4  O    0.002662  -0.083247   0.603607   7.964128  -0.081579  -0.000610
     5  C    0.006840  -0.083693   0.325042  -0.081579   4.948552   0.523048
     6  C   -0.000129   0.002178  -0.027591  -0.000610   0.523048   4.871768
     7  C    0.000002  -0.000061   0.007828   0.000721  -0.013244   0.500513
     8  C    0.000000   0.000006   0.000295  -0.000011  -0.039439  -0.026848
     9  C    0.000005   0.000274   0.004317  -0.000057  -0.010313  -0.051708
    10  C   -0.000248   0.000535  -0.040259   0.003534   0.415924  -0.045123
    11  I    0.001157  -0.029673   0.000559  -0.000142  -0.058922   0.000224
    12  H    0.389180  -0.033279  -0.004437   0.004434  -0.000365   0.000051
    13  H    0.387730  -0.032482   0.003926   0.000637  -0.000016  -0.000001
    14  H    0.386057  -0.033522  -0.004644   0.007558   0.000301  -0.000029
    15  H   -0.000035   0.000361  -0.013108   0.013408  -0.043468   0.367984
    16  H   -0.000000   0.000000  -0.000179   0.000001   0.004585  -0.037404
    17  H    0.000000   0.000000   0.000003   0.000000   0.000429   0.005062
    18  H   -0.000000   0.000002  -0.000146   0.000000   0.002802   0.001064
               7          8          9         10         11         12
     1  C    0.000002   0.000000   0.000005  -0.000248   0.001157   0.389180
     2  O   -0.000061   0.000006   0.000274   0.000535  -0.029673  -0.033279
     3  C    0.007828   0.000295   0.004317  -0.040259   0.000559  -0.004437
     4  O    0.000721  -0.000011  -0.000057   0.003534  -0.000142   0.004434
     5  C   -0.013244  -0.039439  -0.010313   0.415924  -0.058922  -0.000365
     6  C    0.500513  -0.026848  -0.051708  -0.045123   0.000224   0.000051
     7  C    4.850463   0.531964  -0.012831  -0.064769   0.001472   0.000000
     8  C    0.531964   4.779083   0.545515  -0.027178   0.001712   0.000000
     9  C   -0.012831   0.545515   4.814032   0.466855  -0.076869   0.000001
    10  C   -0.064769  -0.027178   0.466855   5.443862   0.264365   0.000031
    11  I    0.001472   0.001712  -0.076869   0.264365   6.705618  -0.000113
    12  H    0.000000   0.000000   0.000001   0.000031  -0.000113   0.590205
    13  H   -0.000000   0.000000  -0.000000  -0.000044   0.001404  -0.034012
    14  H   -0.000000   0.000000   0.000000   0.000011   0.000097  -0.037979
    15  H   -0.042051   0.004793   0.000157   0.008779  -0.000253   0.000005
    16  H    0.369177  -0.042260   0.005104   0.000745   0.000032  -0.000000
    17  H   -0.042872   0.371702  -0.043066   0.006858  -0.000300   0.000000
    18  H    0.004507  -0.031839   0.371144  -0.037723  -0.002318   0.000000
              13         14         15         16         17         18
     1  C    0.387730   0.386057  -0.000035  -0.000000   0.000000  -0.000000
     2  O   -0.032482  -0.033522   0.000361   0.000000   0.000000   0.000002
     3  C    0.003926  -0.004644  -0.013108  -0.000179   0.000003  -0.000146
     4  O    0.000637   0.007558   0.013408   0.000001   0.000000   0.000000
     5  C   -0.000016   0.000301  -0.043468   0.004585   0.000429   0.002802
     6  C   -0.000001  -0.000029   0.367984  -0.037404   0.005062   0.001064
     7  C   -0.000000  -0.000000  -0.042051   0.369177  -0.042872   0.004507
     8  C    0.000000   0.000000   0.004793  -0.042260   0.371702  -0.031839
     9  C   -0.000000   0.000000   0.000157   0.005104  -0.043066   0.371144
    10  C   -0.000044   0.000011   0.008779   0.000745   0.006858  -0.037723
    11  I    0.001404   0.000097  -0.000253   0.000032  -0.000300  -0.002318
    12  H   -0.034012  -0.037979   0.000005  -0.000000   0.000000   0.000000
    13  H    0.580842  -0.031206  -0.000000   0.000000  -0.000000  -0.000000
    14  H   -0.031206   0.582251  -0.000005   0.000000   0.000000  -0.000000
    15  H   -0.000000  -0.000005   0.588055  -0.005856  -0.000177   0.000016
    16  H    0.000000   0.000000  -0.005856   0.613758  -0.006321  -0.000190
    17  H   -0.000000   0.000000  -0.000177  -0.006321   0.615972  -0.006659
    18  H   -0.000000  -0.000000   0.000016  -0.000190  -0.006659   0.592048
 Mulliken charges:
               1
     1  C   -0.077925
     2  O   -0.433077
     3  C    0.492583
     4  O   -0.435045
     5  C    0.103515
     6  C   -0.082448
     7  C   -0.090819
     8  C   -0.067495
     9  C   -0.012560
    10  C   -0.396152
    11  I    0.191952
    12  H    0.126279
    13  H    0.123223
    14  H    0.131110
    15  H    0.121393
    16  H    0.098807
    17  H    0.099369
    18  H    0.107292
 Sum of Mulliken charges =  -0.00000
 Mulliken charges with hydrogens summed into heavy atoms:
               1
     1  C    0.302687
     2  O   -0.433077
     3  C    0.492583
     4  O   -0.435045
     5  C    0.103515
     6  C    0.038945
     7  C    0.007987
     8  C    0.031873
     9  C    0.094732
    10  C   -0.396152
    11  I    0.191952
 Electronic spatial extent (au):  <R**2>=           2150.5841
 Charge=             -0.0000 electrons
 Dipole moment (field-independent basis, Debye):
    X=             -0.3663    Y=             -0.8849    Z=              0.9730  Tot=              1.3653
 Quadrupole moment (field-independent basis, Debye-Ang):
   XX=            -66.5533   YY=            -73.7320   ZZ=            -79.9166
   XY=              8.9702   XZ=             -1.6585   YZ=              3.2761
 Traceless Quadrupole moment (field-independent basis, Debye-Ang):
   XX=              6.8474   YY=             -0.3314   ZZ=             -6.5160
   XY=              8.9702   XZ=             -1.6585   YZ=              3.2761
 Octapole moment (field-independent basis, Debye-Ang**2):
  XXX=             83.8521  YYY=            -58.2803  ZZZ=             -6.1820  XYY=             49.1953
  XXY=            -20.1309  XXZ=              1.3745  XZZ=             40.6954  YZZ=            -13.0997
  YYZ=             12.9985  XYZ=             -1.7301
 Hexadecapole moment (field-independent basis, Debye-Ang**3):
 XXXX=          -1381.4938 YYYY=          -1390.3130 ZZZZ=           -132.3780 XXXY=            -75.6248
 XXXZ=             -9.2146 YYYX=              5.9401 YYYZ=             42.9916 ZZZX=             -3.3799
 ZZZY=              4.6413 XXYY=           -460.4927 XXZZ=           -302.8748 YYZZ=           -265.0438
 XXYZ=              5.7715 YYXZ=            -13.8432 ZZXY=            -31.7355
 N-N= 5.507719671290D+02 E-N=-2.194718002748D+03  KE= 4.599190512691D+02
 No NMR shielding tensors so no spin-rotation constants.
 Leave Link  601 at Tue Sep 17 09:57:03 2024, MaxMem=  1342177280 cpu:               0.6 elap:               0.1
 (Enter /groups/ReismanLab/Software/Gaussian16_RevC/Linux_Binary_AVX2-enabled-CPU/g16/l701.exe)
 ... and contract with generalized density number  0.
 Compute integral first derivatives.
 R6Disp: Adding Grimme-D3(BJ) dispersion energy 1st derivatives to the gradient.
   1 Symmetry operations used in ECPInt.
 ECPInt:  NShTT=    2145 NPrTT=   11679 LenC2=    2002 LenP2D=    7579.
 LDataN:  DoStor=T MaxTD1= 6 Len=  172
 Leave Link  701 at Tue Sep 17 09:57:03 2024, MaxMem=  1342177280 cpu:               1.2 elap:               0.2
 (Enter /groups/ReismanLab/Software/Gaussian16_RevC/Linux_Binary_AVX2-enabled-CPU/g16/l702.exe)
 L702 exits ... SP integral derivatives will be done elsewhere.
 Leave Link  702 at Tue Sep 17 09:57:03 2024, MaxMem=  1342177280 cpu:               0.1 elap:               0.0
 (Enter /groups/ReismanLab/Software/Gaussian16_RevC/Linux_Binary_AVX2-enabled-CPU/g16/l703.exe)
 Integral derivatives from FoFJK, PRISM(SPDF).
 Compute integral first derivatives, UseDBF=F ICtDFT=           0.
 Calling FoFJK, ICntrl=      2127 FMM=F ISym2X=0 I1Cent= 0 IOpClX= 0 NMat=1 NMatS=1 NMatT=0.
 FoFJK:  IHMeth= 1 ICntrl=    2127 DoSepK=F KAlg= 0 I1Cent=           0 FoldK=F
 IRaf=         0 NMat=       1 IRICut=       1 DoRegI=T DoRafI=F ISym2E= 0 IDoP0=0 IntGTp=1.
 FoFCou: FMM=F IPFlag=           0 FMFlag=      100000 FMFlg1=         800
         NFxFlg=           0 DoJE=F BraDBF=F KetDBF=F FulRan=T
         wScrn=  0.000000 ICntrl=      2127 IOpCl=  0 I1Cent=           0 NGrid=           0
         NMat0=    1 NMatS0=      1 NMatT0=    0 NMatD0=    1 NMtDS0=    0 NMtDT0=    0
 Symmetry not used in FoFCou.
 Defaulting to unpruned grid for atomic number  53.
 Defaulting to unpruned grid for atomic number  53.
 Defaulting to unpruned grid for atomic number  53.
 Defaulting to unpruned grid for atomic number  53.
 Defaulting to unpruned grid for atomic number  53.
 Defaulting to unpruned grid for atomic number  53.
 Defaulting to unpruned grid for atomic number  53.
 Defaulting to unpruned grid for atomic number  53.
 Leave Link  703 at Tue Sep 17 09:57:06 2024, MaxMem=  1342177280 cpu:              20.3 elap:               2.6
 (Enter /groups/ReismanLab/Software/Gaussian16_RevC/Linux_Binary_AVX2-enabled-CPU/g16/l716.exe)
 Dipole        =-1.44123323D-01-3.48156870D-01 3.82792133D-01
 ***** Axes restored to original set *****
 -------------------------------------------------------------------
 Center     Atomic                   Forces (Hartrees/Bohr)
 Number     Number              X              Y              Z
 -------------------------------------------------------------------
      1        6          -0.001157315   -0.006830051    0.002843402
      2        8           0.002995146    0.004902819   -0.006669898
      3        6           0.002823305    0.005836427   -0.002601551
      4        8          -0.011944816   -0.011202952    0.007057817
      5        6           0.000500685   -0.005938964   -0.000065878
      6        6          -0.003784222   -0.004089039    0.000832531
      7        6          -0.005555663    0.001225311   -0.000239993
      8        6          -0.001950815    0.004542762   -0.000160886
      9        6           0.005859121    0.006681211   -0.000423620
     10        6           0.001608988   -0.001547252   -0.001305372
     11       53           0.014035612    0.004098318    0.001727768
     12        1          -0.000265305   -0.001502821   -0.000423914
     13        1           0.001647827    0.000045621   -0.000933102
     14        1           0.000259710   -0.001332540    0.000354730
     15        1          -0.002133573   -0.002492132    0.000566046
     16        1          -0.004337319    0.001026816   -0.000192662
     17        1          -0.000902318    0.004359530   -0.000351633
     18        1           0.002300952    0.002216936   -0.000013786
 -------------------------------------------------------------------
 Cartesian Forces:  Max     0.014035612 RMS     0.004295438
 Leave Link  716 at Tue Sep 17 09:57:06 2024, MaxMem=  1342177280 cpu:               0.1 elap:               0.0
 (Enter /groups/ReismanLab/Software/Gaussian16_RevC/Linux_Binary_AVX2-enabled-CPU/g16/l103.exe)

 GradGradGradGradGradGradGradGradGradGradGradGradGradGradGradGradGradGrad
 Berny optimization.
 FormGI is forming the generalized inverse of G from B-inverse, IUseBI=4.
 Internal  Forces:  Max     0.021038173 RMS     0.005749821
 Search for a local minimum.
 Step number   1 out of a maximum of   89
 All quantities printed in internal units (Hartrees-Bohrs-Radians)
 RMS Force = .57498D-02 SwitMx=.10000D-02 MixMth= 1
 Mixed Optimization -- RFO/linear search
 Second derivative matrix not updated -- first step.
 ITU=  0
     Eigenvalues ---    0.00910   0.01446   0.01477   0.01785   0.02188
     Eigenvalues ---    0.02237   0.02254   0.02276   0.02288   0.02297
     Eigenvalues ---    0.02306   0.02323   0.02582   0.10330   0.10679
     Eigenvalues ---    0.13667   0.15999   0.16000   0.16000   0.16000
     Eigenvalues ---    0.16000   0.16000   0.16000   0.21999   0.22488
     Eigenvalues ---    0.24479   0.24978   0.24992   0.24999   0.25000
     Eigenvalues ---    0.25000   0.33550   0.34591   0.34617   0.35177
     Eigenvalues ---    0.36027   0.36057   0.36063   0.36122   0.42672
     Eigenvalues ---    0.42979   0.43565   0.47049   0.47643   0.48226
     Eigenvalues ---    0.48787   0.58864   1.01884
 RFO step:  Lambda=-8.69846045D-03 EMin= 9.10344305D-03
 Linear search not attempted -- first point.
 Iteration  1 RMS(Cart)=  0.12254972 RMS(Int)=  0.00399097
 Iteration  2 RMS(Cart)=  0.00902247 RMS(Int)=  0.00042546
 Iteration  3 RMS(Cart)=  0.00004869 RMS(Int)=  0.00042470
 Iteration  4 RMS(Cart)=  0.00000003 RMS(Int)=  0.00042470
 ITry= 1 IFail=0 DXMaxC= 5.72D-01 DCOld= 1.00D+10 DXMaxT= 3.00D-01 DXLimC= 3.00D+00 Rises=F
 Variable       Old X    -DE/DX   Delta X   Delta X   Delta X     New X
                                 (Linear)    (Quad)   (Total)
    R1        2.68076   0.00958   0.00000   0.02200   0.02200   2.70277
    R2        2.06344   0.00117   0.00000   0.00331   0.00331   2.06675
    R3        2.05388   0.00186   0.00000   0.00517   0.00517   2.05905
    R4        2.06301   0.00076   0.00000   0.00214   0.00214   2.06515
    R5        2.51851   0.00650   0.00000   0.01088   0.01088   2.52939
    R6        2.27894   0.01781   0.00000   0.01733   0.01733   2.29627
    R7        2.81396   0.00908   0.00000   0.02638   0.02638   2.84034
    R8        2.63748   0.00964   0.00000   0.02060   0.02061   2.65809
    R9        2.62930   0.02104   0.00000   0.04475   0.04481   2.67412
   R10        2.60784   0.00845   0.00000   0.01627   0.01621   2.62406
   R11        2.04040   0.00330   0.00000   0.00895   0.00895   2.04935
   R12        2.61815   0.00817   0.00000   0.01582   0.01575   2.63390
   R13        2.03892   0.00446   0.00000   0.01204   0.01204   2.05096
   R14        2.61403   0.00953   0.00000   0.01911   0.01910   2.63314
   R15        2.03992   0.00446   0.00000   0.01209   0.01209   2.05201
   R16        2.61942   0.01216   0.00000   0.02555   0.02561   2.64503
   R17        2.03983   0.00319   0.00000   0.00864   0.00864   2.04847
   R18        3.98724   0.01294   0.00000   0.08903   0.08903   4.07626
    A1        1.92222   0.00141   0.00000   0.00862   0.00859   1.93081
    A2        1.85170  -0.00108   0.00000  -0.00718  -0.00718   1.84452
    A3        1.92510   0.00174   0.00000   0.01089   0.01086   1.93596
    A4        1.93187  -0.00062   0.00000  -0.00485  -0.00484   1.92703
    A5        1.89997  -0.00097   0.00000  -0.00422  -0.00427   1.89570
    A6        1.93291  -0.00043   0.00000  -0.00299  -0.00298   1.92992
    A7        2.03591  -0.00252   0.00000  -0.00975  -0.00975   2.02616
    A8        2.15782  -0.00300   0.00000  -0.01267  -0.01432   2.14350
    A9        1.97446   0.00586   0.00000   0.02162   0.01998   1.99445
   A10        2.15033  -0.00294   0.00000  -0.01236  -0.01401   2.13632
   A11        2.01629  -0.01299   0.00000  -0.05110  -0.05117   1.96512
   A12        2.19697   0.01588   0.00000   0.06050   0.06043   2.25740
   A13        2.06988  -0.00289   0.00000  -0.00949  -0.00941   2.06047
   A14        2.11678   0.00341   0.00000   0.01350   0.01349   2.13027
   A15        2.05280  -0.00196   0.00000  -0.00826  -0.00827   2.04453
   A16        2.11361  -0.00145   0.00000  -0.00525  -0.00525   2.10836
   A17        2.08487   0.00004   0.00000  -0.00351  -0.00360   2.08127
   A18        2.09656  -0.00020   0.00000   0.00068   0.00072   2.09728
   A19        2.10175   0.00016   0.00000   0.00282   0.00286   2.10462
   A20        2.09528   0.00045   0.00000  -0.00068  -0.00071   2.09457
   A21        2.10230  -0.00009   0.00000   0.00111   0.00112   2.10341
   A22        2.08557  -0.00036   0.00000  -0.00049  -0.00049   2.08508
   A23        2.10145   0.00201   0.00000   0.00943   0.00950   2.11095
   A24        2.09219  -0.00100   0.00000  -0.00469  -0.00473   2.08745
   A25        2.08954  -0.00101   0.00000  -0.00477  -0.00482   2.08472
   A26        2.09785  -0.00303   0.00000  -0.00959  -0.00971   2.08814
   A27        2.15087   0.01512   0.00000   0.05674   0.05627   2.20714
   A28        2.03371  -0.01215   0.00000  -0.04876  -0.04902   1.98469
    D1        1.17521   0.00036   0.00000  -0.00062  -0.00057   1.17464
    D2       -3.01657  -0.00024   0.00000  -0.00596  -0.00596  -3.02253
    D3       -0.92235  -0.00045   0.00000  -0.00786  -0.00791  -0.93026
    D4       -0.03745  -0.00193   0.00000  -0.07271  -0.07263  -0.11008
    D5        3.13974   0.00053   0.00000   0.03202   0.03194  -3.11151
    D6        2.62459  -0.00244   0.00000  -0.12467  -0.12447   2.50012
    D7       -0.52774  -0.00278   0.00000  -0.13532  -0.13539  -0.66313
    D8       -0.48158   0.00001   0.00000  -0.02045  -0.02038  -0.50196
    D9        2.64927  -0.00033   0.00000  -0.03109  -0.03129   2.61798
   D10       -3.12868   0.00024   0.00000   0.00718   0.00718  -3.12149
   D11        0.01127   0.00009   0.00000   0.00138   0.00151   0.01278
   D12        0.02282   0.00042   0.00000   0.01652   0.01625   0.03907
   D13       -3.12042   0.00027   0.00000   0.01072   0.01058  -3.10984
   D14        3.13627   0.00018   0.00000   0.00170   0.00229   3.13856
   D15       -0.04871  -0.00160   0.00000  -0.04542  -0.04616  -0.09487
   D16       -0.01636  -0.00022   0.00000  -0.00946  -0.00933  -0.02568
   D17        3.08184  -0.00200   0.00000  -0.05657  -0.05777   3.02407
   D18       -0.01005  -0.00031   0.00000  -0.01112  -0.01094  -0.02099
   D19        3.13456  -0.00024   0.00000  -0.00792  -0.00784   3.12671
   D20        3.13325  -0.00015   0.00000  -0.00511  -0.00506   3.12819
   D21       -0.00533  -0.00008   0.00000  -0.00191  -0.00196  -0.00729
   D22       -0.00939  -0.00004   0.00000  -0.00151  -0.00148  -0.01087
   D23       -3.14124   0.00015   0.00000   0.00620   0.00601  -3.13523
   D24        3.12918  -0.00012   0.00000  -0.00472  -0.00459   3.12459
   D25       -0.00267   0.00007   0.00000   0.00299   0.00290   0.00022
   D26        0.01570   0.00019   0.00000   0.00826   0.00796   0.02366
   D27       -3.12289   0.00043   0.00000   0.01682   0.01638  -3.10651
   D28       -3.13554   0.00000   0.00000   0.00063   0.00056  -3.13498
   D29        0.00906   0.00024   0.00000   0.00919   0.00898   0.01803
   D30       -0.00258  -0.00004   0.00000  -0.00255  -0.00228  -0.00486
   D31       -3.10361   0.00097   0.00000   0.03899   0.03780  -3.06581
   D32        3.13602  -0.00028   0.00000  -0.01109  -0.01069   3.12533
   D33        0.03499   0.00073   0.00000   0.03045   0.02940   0.06438
         Item               Value     Threshold  Converged?
 Maximum Force            0.021038     0.000450     NO 
 RMS     Force            0.005750     0.000300     NO 
 Maximum Displacement     0.571672     0.001800     NO 
 RMS     Displacement     0.129231     0.001200     NO 
 Predicted change in Energy=-4.688195D-03
 Lowest energy point so far.  Saving SCF results.
 GradGradGradGradGradGradGradGradGradGradGradGradGradGradGradGradGradGrad

 Leave Link  103 at Tue Sep 17 09:57:06 2024, MaxMem=  1342177280 cpu:               0.1 elap:               0.0
 (Enter /groups/ReismanLab/Software/Gaussian16_RevC/Linux_Binary_AVX2-enabled-CPU/g16/l202.exe)
                          Input orientation:                          
 ---------------------------------------------------------------------
 Center     Atomic      Atomic             Coordinates (Angstroms)
 Number     Number       Type             X           Y           Z
 ---------------------------------------------------------------------
      1          6           0        0.024907   -3.504140   -0.461227
      2          8           0       -0.179089   -2.089769   -0.520639
      3          6           0       -1.226658   -1.616793    0.165268
      4          8           0       -2.034971   -2.339350    0.713984
      5          6           0       -1.426798   -0.132271    0.041683
      6          6           0       -2.785807    0.228340    0.001909
      7          6           0       -3.194319    1.548560   -0.133446
      8          6           0       -2.232690    2.554732   -0.208083
      9          6           0       -0.879206    2.232073   -0.133740
     10          6           0       -0.462019    0.901526   -0.012383
     11         53           0        1.669644    0.679582    0.231916
     12          1           0       -0.785000   -4.032044   -0.972597
     13          1           0        0.974218   -3.686188   -0.964117
     14          1           0        0.066741   -3.849219    0.574848
     15          1           0       -3.512695   -0.573158    0.074789
     16          1           0       -4.251453    1.790855   -0.174527
     17          1           0       -2.529220    3.594533   -0.308140
     18          1           0       -0.138046    3.022694   -0.159574
 ---------------------------------------------------------------------
                    Distance matrix (angstroms):
                    1          2          3          4          5
     1  C    0.000000
     2  O    1.430242   0.000000
     3  C    2.349679   1.338497   0.000000
     4  O    2.642150   2.242963   1.215133   0.000000
     5  C    3.705384   2.388468   1.503042   2.386014   0.000000
     6  C    4.695318   3.527274   2.421186   2.768364   1.406601
     7  C    6.000053   4.741198   3.739034   4.144643   2.445402
     8  C    6.470762   5.087863   4.307332   4.984109   2.816350
     9  C    5.816254   4.395244   3.876067   4.790860   2.433259
    10  C    4.455161   3.047330   2.637833   3.674924   1.415082
    11  I    4.548532   3.413716   3.696802   4.803178   3.206750
    12  H    1.093678   2.084185   2.706148   2.696701   4.080307
    13  H    1.089602   2.018749   3.225177   3.699354   4.405320
    14  H    1.092832   2.087149   2.612349   2.591574   4.041118
    15  H    4.625213   3.710467   2.514622   2.389911   2.132239
    16  H    6.812226   5.635883   4.569125   4.770832   3.424008
    17  H    7.545738   6.154637   5.392467   6.041523   3.902150
    18  H    6.535833   5.125361   4.776550   5.754384   3.413969
                    6          7          8          9         10
     6  C    0.000000
     7  C    1.388591   0.000000
     8  C    2.400445   1.393802   0.000000
     9  C    2.769201   2.413905   1.393396   0.000000
    10  C    2.419375   2.810475   2.430363   1.399689   0.000000
    11  I    4.484146   4.954467   4.351781   3.006754   2.157065
    12  H    4.806637   6.136133   6.787187   6.320737   5.036511
    13  H    5.513123   6.743093   7.057261   6.257038   4.900582
    14  H    5.009169   6.346039   6.849157   6.195081   4.816016
    15  H    1.084470   2.155553   3.391478   3.853319   3.389530
    16  H    2.149582   1.085323   2.158712   3.401233   3.895768
    17  H    3.390166   2.158444   1.085877   2.146918   3.407797
    18  H    3.852937   3.393310   2.146828   1.084005   2.150808
                   11         12         13         14         15
    11  I    0.000000
    12  H    5.447527   0.000000
    13  H    4.579745   1.792913   0.000000
    14  H    4.816321   1.775802   1.794020   0.000000
    15  H    5.333918   4.527829   5.559017   4.878012   0.000000
    16  H    6.038171   6.823442   7.611117   7.142744   2.489273
    17  H    5.139948   7.851655   8.106374   7.932726   4.299245
    18  H    2.985160   7.130840   6.847884   6.914080   4.936934
                   16         17         18
    16  H    0.000000
    17  H    2.497438   0.000000
    18  H    4.293921   2.463084   0.000000
 Stoichiometry    C8H7IO2
 Framework group  C1[X(C8H7IO2)]
 Deg. of freedom    48
 Full point group                 C1      NOp   1
 RotChk:  IX=1 Diff= 1.02D+00
 Largest Abelian subgroup         C1      NOp   1
 Largest concise Abelian subgroup C1      NOp   1
                         Standard orientation:                         
 ---------------------------------------------------------------------
 Center     Atomic      Atomic             Coordinates (Angstroms)
 Number     Number       Type             X           Y           Z
 ---------------------------------------------------------------------
      1          6           0       -1.321253    3.346630    0.447167
      2          8           0       -0.954389    1.966670    0.529108
      3          6           0       -1.697418    1.116362   -0.189541
      4          8           0       -2.698055    1.459547   -0.787453
      5          6           0       -1.302422   -0.326303   -0.041791
      6          6           0       -2.409867   -1.193486   -0.051110
      7          6           0       -2.271408   -2.567298    0.096040
      8          6           0       -0.995961   -3.112403    0.233081
      9          6           0        0.122988   -2.282403    0.208474
     10          6           0       -0.012235   -0.895628    0.075442
     11         53           0        1.868764    0.148081   -0.084079
     12          1           0       -2.296764    3.514239    0.912372
     13          1           0       -0.545221    3.890164    0.985293
     14          1           0       -1.369805    3.676397   -0.593591
     15          1           0       -3.389310   -0.743885   -0.172044
     16          1           0       -3.148383   -3.206702    0.098080
     17          1           0       -0.863457   -4.184495    0.343492
     18          1           0        1.113471   -2.716555    0.282773
 ---------------------------------------------------------------------
 Rotational constants (GHZ):           0.7985824           0.6033630           0.3542307
 Leave Link  202 at Tue Sep 17 09:57:06 2024, MaxMem=  1342177280 cpu:               0.0 elap:               0.0
 (Enter /groups/ReismanLab/Software/Gaussian16_RevC/Linux_Binary_AVX2-enabled-CPU/g16/l301.exe)
 Basis read from rwf:  (5D, 7F)
 Pseudo-potential data read from rwf file.
 There are   193 symmetry adapted cartesian basis functions of A   symmetry.
 There are   183 symmetry adapted basis functions of A   symmetry.
   183 basis functions,   341 primitive gaussians,   193 cartesian basis functions
    39 alpha electrons       39 beta electrons
       nuclear repulsion energy       543.7673882054 Hartrees.
 IExCor=  402 DFT=T Ex+Corr=B3LYP ExCW=0 ScaHFX=  0.200000
 ScaDFX=  0.800000  0.720000  1.000000  0.810000 ScalE2=  1.000000  1.000000
 IRadAn=      5 IRanWt=     -1 IRanGd=            0 ICorTp=0 IEmpDi=141
 NAtoms=   18 NActive=   18 NUniq=   18 SFac= 1.00D+00 NAtFMM=   60 NAOKFM=F Big=F
 Integral buffers will be    131072 words long.
 Raffenetti 2 integral format.
 Two-electron integral symmetry is turned on.
 R6Disp:  Grimme-D3(BJ) Dispersion energy=       -0.0378982883 Hartrees.
 Nuclear repulsion after empirical dispersion term =      543.7294899170 Hartrees.
 No density basis found on file    724.
 Leave Link  301 at Tue Sep 17 09:57:06 2024, MaxMem=  1342177280 cpu:               0.1 elap:               0.1
 (Enter /groups/ReismanLab/Software/Gaussian16_RevC/Linux_Binary_AVX2-enabled-CPU/g16/l302.exe)
 NPDir=0 NMtPBC=     1 NCelOv=     1 NCel=       1 NClECP=     1 NCelD=      1
         NCelK=      1 NCelE2=     1 NClLst=     1 CellRange=     0.0.
 One-electron integrals computed using PRISM.
 One-electron integral symmetry used in STVInt
   1 Symmetry operations used in ECPInt.
 ECPInt:  NShTT=    2145 NPrTT=   11679 LenC2=    1998 LenP2D=    7527.
 LDataN:  DoStor=T MaxTD1= 5 Len=  102
 NBasis=   183 RedAO= T EigKep=  5.06D-04  NBF=   183
 NBsUse=   183 1.00D-06 EigRej= -1.00D+00 NBFU=   183
 Precomputing XC quadrature grid using
 IXCGrd= 4 IRadAn=           5 IRanWt=          -1 IRanGd=           0 AccXCQ= 0.00D+00.
 Defaulting to unpruned grid for atomic number  53.
 Generated NRdTot=       0 NPtTot=           0 NUsed=           0 NTot=          32
 NSgBfM=   193   193   193   193   193 MxSgAt=    18 MxSgA2=    18.
 Leave Link  302 at Tue Sep 17 09:57:06 2024, MaxMem=  1342177280 cpu:               1.2 elap:               0.2
 (Enter /groups/ReismanLab/Software/Gaussian16_RevC/Linux_Binary_AVX2-enabled-CPU/g16/l303.exe)
 DipDrv:  MaxL=1.
 Leave Link  303 at Tue Sep 17 09:57:06 2024, MaxMem=  1342177280 cpu:               0.1 elap:               0.0
 (Enter /groups/ReismanLab/Software/Gaussian16_RevC/Linux_Binary_AVX2-enabled-CPU/g16/l401.exe)
 Initial guess from the checkpoint file:  "smiles_00115_conf_0.chk"
 B after Tr=     0.000000   -0.000000    0.000000
         Rot=    0.938745    0.006256    0.005537   -0.344511 Ang=  40.32 deg.
 Guess basis will be translated and rotated to current coordinates.
 JPrj=2 DoOrth=T DoCkMO=T.
 Generating alternative initial guess.
 ExpMin= 1.05D-01 ExpMax= 5.48D+03 ExpMxC= 8.25D+02 IAcc=3 IRadAn=         5 AccDes= 0.00D+00
 Harris functional with IExCor=  402 and IRadAn=       5 diagonalized for initial guess.
 HarFok:  IExCor=  402 AccDes= 0.00D+00 IRadAn=         5 IDoV= 1 UseB2=F ITyADJ=14
 ICtDFT=  3500011 ScaDFX=  1.000000  1.000000  1.000000  1.000000
 Defaulting to unpruned grid for atomic number  53.
 FoFCou: FMM=F IPFlag=           0 FMFlag=      100000 FMFlg1=           0
         NFxFlg=           0 DoJE=T BraDBF=F KetDBF=T FulRan=T
         wScrn=  0.000000 ICntrl=       500 IOpCl=  0 I1Cent=   200000004 NGrid=           0
         NMat0=    1 NMatS0=      1 NMatT0=    0 NMatD0=    1 NMtDS0=    0 NMtDT0=    0
 Petite list used in FoFCou.
 Harris En= -470.868355181163    
 Leave Link  401 at Tue Sep 17 09:57:07 2024, MaxMem=  1342177280 cpu:               4.8 elap:               0.7
 (Enter /groups/ReismanLab/Software/Gaussian16_RevC/Linux_Binary_AVX2-enabled-CPU/g16/l502.exe)
 Integral symmetry usage will be decided dynamically.
 Closed shell SCF:
 Using DIIS extrapolation, IDIIS=  1040.
 NGot=  1342177280 LenX=  1342098694 LenY=  1342061004
 Requested convergence on RMS density matrix=1.00D-08 within  32 cycles.
 Requested convergence on MAX density matrix=1.00D-06.
 Requested convergence on             energy=1.00D-06.
 No special actions if energy rises.
 Fock matrices will be formed incrementally for  20 cycles.
 Integral accuracy reduced to 1.0D-05 until final iterations.

 Cycle   1  Pass 0  IDiag  1:
 FoFJK:  IHMeth= 1 ICntrl=       0 DoSepK=F KAlg= 0 I1Cent=           0 FoldK=F
 IRaf= 880000000 NMat=       1 IRICut=       1 DoRegI=T DoRafI=F ISym2E= 0 IDoP0=0 IntGTp=1.
 FoFCou: FMM=F IPFlag=           0 FMFlag=      100000 FMFlg1=           0
         NFxFlg=           0 DoJE=F BraDBF=F KetDBF=F FulRan=T
         wScrn=  0.000000 ICntrl=         0 IOpCl=  0 I1Cent=           0 NGrid=           0
         NMat0=    1 NMatS0=      1 NMatT0=    0 NMatD0=    1 NMtDS0=    0 NMtDT0=    0
 Symmetry not used in FoFCou.
 Defaulting to unpruned grid for atomic number  53.
 Defaulting to unpruned grid for atomic number  53.
 Defaulting to unpruned grid for atomic number  53.
 Defaulting to unpruned grid for atomic number  53.
 Defaulting to unpruned grid for atomic number  53.
 Defaulting to unpruned grid for atomic number  53.
 Defaulting to unpruned grid for atomic number  53.
 Defaulting to unpruned grid for atomic number  53.
 E= -470.906978155068    
 DIIS: error= 5.61D-03 at cycle   1 NSaved=   1.
 NSaved= 1 IEnMin= 1 EnMin= -470.906978155068     IErMin= 1 ErrMin= 5.61D-03
 ErrMax= 5.61D-03  0.00D+00 EMaxC= 1.00D-01 BMatC= 1.52D-02 BMatP= 1.52D-02
 IDIUse=3 WtCom= 9.44D-01 WtEn= 5.61D-02
 Coeff-Com:  0.100D+01
 Coeff-En:   0.100D+01
 Coeff:      0.100D+01
 Gap=     0.807 Goal=   None    Shift=    0.000
 GapD=    0.807 DampG=2.000 DampE=1.000 DampFc=2.0000 IDamp=-1.
 RMSDP=1.23D-03 MaxDP=3.20D-02              OVMax= 3.68D-02

 Cycle   2  Pass 0  IDiag  1:
 RMSU=  1.23D-03    CP:  9.96D-01
 E= -470.930867503460     Delta-E=       -0.023889348391 Rises=F Damp=F
 DIIS: error= 2.12D-03 at cycle   2 NSaved=   2.
 NSaved= 2 IEnMin= 2 EnMin= -470.930867503460     IErMin= 2 ErrMin= 2.12D-03
 ErrMax= 2.12D-03  0.00D+00 EMaxC= 1.00D-01 BMatC= 7.94D-04 BMatP= 1.52D-02
 IDIUse=3 WtCom= 9.79D-01 WtEn= 2.12D-02
 Coeff-Com:  0.127D-01 0.987D+00
 Coeff-En:   0.000D+00 0.100D+01
 Coeff:      0.124D-01 0.988D+00
 Gap=     0.194 Goal=   None    Shift=    0.000
 RMSDP=5.43D-04 MaxDP=1.47D-02 DE=-2.39D-02 OVMax= 2.20D-02

 Cycle   3  Pass 0  IDiag  1:
 RMSU=  5.33D-04    CP:  9.97D-01  9.23D-01
 E= -470.929053585775     Delta-E=        0.001813917685 Rises=F Damp=F
 DIIS: error= 4.06D-03 at cycle   3 NSaved=   3.
 NSaved= 3 IEnMin= 2 EnMin= -470.930867503460     IErMin= 2 ErrMin= 2.12D-03
 ErrMax= 4.06D-03  0.00D+00 EMaxC= 1.00D-01 BMatC= 2.67D-03 BMatP= 7.94D-04
 IDIUse=3 WtCom= 1.36D-01 WtEn= 8.64D-01
 Coeff-Com: -0.410D-01 0.682D+00 0.359D+00
 Coeff-En:   0.000D+00 0.717D+00 0.283D+00
 Coeff:     -0.556D-02 0.712D+00 0.293D+00
 Gap=     0.195 Goal=   None    Shift=    0.000
 RMSDP=2.97D-04 MaxDP=8.92D-03 DE= 1.81D-03 OVMax= 1.20D-02

 Cycle   4  Pass 0  IDiag  1:
 RMSU=  1.13D-04    CP:  9.96D-01  9.81D-01  5.05D-01
[...]
   XZ=    -0.9115   YZ=     3.8649   ZZ=    25.5362
   Eigenvalues:    24.1061    25.7196    34.1396
     13  H    Isotropic =    27.9679   Anisotropy =     7.6372
   XX=    28.9497   YX=     1.7445   ZX=     2.2755
   XY=     3.4447   YY=    30.3927   ZY=     1.5773
   XZ=     2.2295   YZ=     1.0451   ZZ=    24.5614
   Eigenvalues:    23.6037    27.2406    33.0594
     14  H    Isotropic =    27.9480   Anisotropy =     8.3827
   XX=    25.7661   YX=     2.3609   ZX=    -1.9682
   XY=     1.2992   YY=    30.5975   ZY=    -3.8886
   XZ=    -1.2451   YZ=    -2.9323   ZZ=    27.4803
   Eigenvalues:    24.7824    25.5251    33.5364
     15  H    Isotropic =    22.7443   Anisotropy =     9.2432
   XX=    25.3856   YX=     4.3018   ZX=     0.0922
   XY=     4.1577   YY=    23.6526   ZY=    -0.5147
   XZ=    -0.8600   YZ=    -1.1461   ZZ=    19.1946
   Eigenvalues:    18.9931    20.3333    28.9064
     16  H    Isotropic =    23.6249   Anisotropy =     5.5964
   XX=    22.8158   YX=    -0.6224   ZX=     0.1590
   XY=    -0.5965   YY=    27.2198   ZY=    -0.5910
   XZ=     0.2820   YZ=    -0.5386   ZZ=    20.8392
   Eigenvalues:    20.7756    22.7433    27.3559
     17  H    Isotropic =    23.5827   Anisotropy =     6.3089
   XX=    27.5082   YX=    -1.3863   ZX=     0.2054
   XY=    -1.0288   YY=    22.5134   ZY=    -0.1710
   XZ=    -0.0347   YZ=    -0.5364   ZZ=    20.7264
   Eigenvalues:    20.6556    22.3038    27.7886
     18  H    Isotropic =    23.3311   Anisotropy =    13.7165
   XX=    26.2194   YX=     6.7730   ZX=    -0.6570
   XY=     5.9580   YY=    25.8532   ZY=    -0.8496
   XZ=    -0.6869   YZ=    -0.6851   ZZ=    17.9208
   Eigenvalues:    17.8461    19.6718    32.4754
 End of Minotr F.D. properties file   721 does not exist.
 End of Minotr F.D. properties file   722 does not exist.
 End of Minotr F.D. properties file   788 does not exist.
 Leave Link 1002 at Tue Sep 17 10:51:02 2024, MaxMem=  1342177280 cpu:             607.0 elap:             608.3
 (Enter /groups/ReismanLab/Software/Gaussian16_RevC/Linux_Binary_AVX2-enabled-CPU/g16/l601.exe)
 Copying SCF densities to generalized density rwf, IOpCl= 0 IROHF=0.

 **********************************************************************

            Population analysis using the SCF Density.

 **********************************************************************

 Orbital symmetries:
       Occupied  (A) (A) (A) (A) (A) (A) (A) (A) (A) (A) (A) (A)
                 (A) (A) (A) (A) (A) (A) (A) (A) (A) (A) (A) (A)
                 (A) (A) (A) (A) (A) (A) (A) (A) (A) (A) (A) (A)
                 (A) (A) (A) (A) (A) (A) (A) (A) (A) (A) (A) (A)
       Virtual   (A) (A) (A) (A) (A) (A) (A) (A) (A) (A) (A) (A)
                 (A) (A) (A) (A) (A) (A) (A) (A) (A) (A) (A) (A)
                 (A) (A) (A) (A) (A) (A) (A) (A) (A) (A) (A) (A)
                 (A) (A) (A) (A) (A) (A) (A) (A) (A) (A) (A) (A)
                 (A) (A) (A) (A) (A) (A) (A) (A) (A) (A) (A) (A)
                 (A) (A) (A) (A) (A) (A) (A) (A) (A) (A) (A) (A)
                 (A) (A) (A) (A) (A) (A) (A) (A) (A) (A) (A) (A)
                 (A) (A) (A) (A) (A) (A) (A) (A) (A) (A) (A) (A)
                 (A) (A) (A) (A) (A) (A) (A) (A) (A) (A) (A) (A)
                 (A) (A) (A) (A) (A) (A) (A) (A) (A) (A) (A) (A)
                 (A) (A) (A) (A) (A) (A) (A) (A) (A) (A) (A) (A)
                 (A) (A) (A) (A) (A) (A) (A) (A) (A) (A) (A) (A)
                 (A) (A) (A) (A) (A) (A) (A) (A) (A) (A) (A) (A)
                 (A) (A) (A) (A) (A) (A) (A) (A) (A) (A) (A) (A)
                 (A) (A) (A) (A) (A) (A) (A) (A) (A) (A) (A) (A)
                 (A) (A) (A) (A) (A) (A) (A) (A) (A) (A) (A) (A)
                 (A) (A) (A) (A) (A) (A) (A) (A) (A) (A) (A) (A)
                 (A) (A) (A) (A) (A) (A) (A) (A) (A) (A) (A) (A)
                 (A) (A) (A) (A) (A) (A) (A) (A) (A) (A) (A) (A)
                 (A) (A) (A) (A) (A) (A) (A) (A) (A) (A) (A) (A)
                 (A) (A) (A) (A) (A) (A) (A) (A) (A) (A) (A) (A)
                 (A) (A) (A) (A) (A) (A) (A) (A) (A) (A) (A) (A)
                 (A) (A) (A) (A) (A) (A) (A) (A) (A) (A) (A) (A)
                 (A) (A) (A) (A) (A) (A) (A) (A) (A) (A) (A) (A)
                 (A) (A) (A) (A) (A) (A) (A) (A) (A) (A) (A) (A)
                 (A) (A) (A) (A) (A) (A) (A) (A) (A) (A) (A) (A)
                 (A) (A) (A) (A) (A) (A) (A) (A) (A) (A) (A) (A)
                 (A) (A) (A) (A) (A) (A) (A) (A) (A) (A) (A) (A)
                 (A) (A) (A) (A) (A) (A) (A) (A) (A) (A) (A) (A)
                 (A) (A) (A) (A) (A) (A)
 The electronic state is 1-A.
 Alpha  occ. eigenvalues --  -19.67815 -19.62159 -10.68374 -10.61146 -10.58921
 Alpha  occ. eigenvalues --  -10.57917 -10.56283 -10.56188 -10.56176 -10.55640
 Alpha  occ. eigenvalues --   -7.10501  -5.09883  -5.08805  -5.08753  -2.06702
 Alpha  occ. eigenvalues --   -2.06277  -2.06238  -2.05338  -2.05335  -1.24023
 Alpha  occ. eigenvalues --   -1.14462  -0.98388  -0.88381  -0.86919  -0.82288
 Alpha  occ. eigenvalues --   -0.78059  -0.72079  -0.69535  -0.65664  -0.61653
 Alpha  occ. eigenvalues --   -0.57460  -0.57187  -0.56368  -0.53340  -0.51950
 Alpha  occ. eigenvalues --   -0.49530  -0.48308  -0.47097  -0.45225  -0.44007
 Alpha  occ. eigenvalues --   -0.42979  -0.39565  -0.38324  -0.36783  -0.35803
 Alpha  occ. eigenvalues --   -0.32558  -0.31609  -0.29731
 Alpha virt. eigenvalues --   -0.02560  -0.00878   0.00325   0.07497   0.08323
 Alpha virt. eigenvalues --    0.09302   0.11030   0.11811   0.13223   0.13802
 Alpha virt. eigenvalues --    0.14686   0.15302   0.15877   0.17008   0.17241
 Alpha virt. eigenvalues --    0.18100   0.19771   0.20838   0.21247   0.22538
 Alpha virt. eigenvalues --    0.23133   0.23379   0.23866   0.25146   0.25585
 Alpha virt. eigenvalues --    0.26061   0.27161   0.27817   0.28982   0.30058
 Alpha virt. eigenvalues --    0.31517   0.31657   0.32377   0.33253   0.33805
 Alpha virt. eigenvalues --    0.34609   0.36586   0.37336   0.37484   0.39508
 Alpha virt. eigenvalues --    0.40186   0.40598   0.41799   0.42276   0.43239
 Alpha virt. eigenvalues --    0.44176   0.44454   0.46206   0.47114   0.47199
 Alpha virt. eigenvalues --    0.49036   0.49729   0.50468   0.51452   0.51952
 Alpha virt. eigenvalues --    0.52779   0.53375   0.54611   0.55739   0.56429
 Alpha virt. eigenvalues --    0.58020   0.59315   0.60883   0.62190   0.64033
 Alpha virt. eigenvalues --    0.65715   0.66017   0.66595   0.68384   0.69982
 Alpha virt. eigenvalues --    0.70799   0.71776   0.73315   0.73619   0.76202
 Alpha virt. eigenvalues --    0.77184   0.77423   0.78707   0.79911   0.82944
 Alpha virt. eigenvalues --    0.82995   0.84725   0.86187   0.87546   0.88082
 Alpha virt. eigenvalues --    0.88416   0.90800   0.92220   0.93010   0.94098
 Alpha virt. eigenvalues --    0.95564   0.96199   0.97319   0.97500   0.98672
 Alpha virt. eigenvalues --    0.99853   1.00973   1.02458   1.03795   1.05342
 Alpha virt. eigenvalues --    1.06787   1.09295   1.10099   1.11955   1.13021
 Alpha virt. eigenvalues --    1.14320   1.17250   1.19124   1.21239   1.23202
 Alpha virt. eigenvalues --    1.23436   1.25649   1.26073   1.27694   1.28568
 Alpha virt. eigenvalues --    1.30645   1.33246   1.34022   1.34958   1.36994
 Alpha virt. eigenvalues --    1.38109   1.39408   1.43903   1.44588   1.45673
 Alpha virt. eigenvalues --    1.47260   1.48437   1.50117   1.50880   1.51318
 Alpha virt. eigenvalues --    1.52267   1.54210   1.54724   1.55927   1.57210
 Alpha virt. eigenvalues --    1.57519   1.58759   1.60314   1.60804   1.61213
 Alpha virt. eigenvalues --    1.63398   1.64056   1.66472   1.67711   1.69487
 Alpha virt. eigenvalues --    1.70730   1.72993   1.73071   1.74863   1.75908
 Alpha virt. eigenvalues --    1.78130   1.80190   1.84496   1.85191   1.87150
 Alpha virt. eigenvalues --    1.89095   1.93811   1.96406   1.98114   1.98580
 Alpha virt. eigenvalues --    2.02319   2.03017   2.03490   2.07395   2.08175
 Alpha virt. eigenvalues --    2.09364   2.11239   2.12863   2.14595   2.16452
 Alpha virt. eigenvalues --    2.17751   2.19399   2.20455   2.24694   2.25957
 Alpha virt. eigenvalues --    2.26440   2.29796   2.30277   2.33179   2.34878
 Alpha virt. eigenvalues --    2.37022   2.39412   2.40243   2.42087   2.45433
 Alpha virt. eigenvalues --    2.49185   2.50606   2.53268   2.56002   2.56394
 Alpha virt. eigenvalues --    2.57442   2.59094   2.59168   2.62156   2.64022
 Alpha virt. eigenvalues --    2.64839   2.65895   2.67290   2.68601   2.69840
 Alpha virt. eigenvalues --    2.71063   2.74622   2.76050   2.77035   2.78350
 Alpha virt. eigenvalues --    2.80266   2.81745   2.82369   2.82562   2.83839
 Alpha virt. eigenvalues --    2.84792   2.86808   2.88001   2.89702   2.95704
 Alpha virt. eigenvalues --    2.96622   2.98318   2.99724   3.00938   3.03212
 Alpha virt. eigenvalues --    3.05040   3.05949   3.07389   3.08583   3.09651
 Alpha virt. eigenvalues --    3.12529   3.13112   3.13851   3.14609   3.15276
 Alpha virt. eigenvalues --    3.16429   3.17900   3.18474   3.19442   3.20600
 Alpha virt. eigenvalues --    3.23147   3.23343   3.23810   3.25952   3.26235
 Alpha virt. eigenvalues --    3.27944   3.28665   3.28926   3.30316   3.32270
 Alpha virt. eigenvalues --    3.32744   3.33243   3.35304   3.36340   3.36971
 Alpha virt. eigenvalues --    3.39258   3.40765   3.41892   3.42499   3.43630
 Alpha virt. eigenvalues --    3.44683   3.45797   3.47362   3.49478   3.51584
 Alpha virt. eigenvalues --    3.51660   3.52419   3.53880   3.55100   3.56811
 Alpha virt. eigenvalues --    3.58940   3.59403   3.61851   3.63179   3.64770
 Alpha virt. eigenvalues --    3.69689   3.72279   3.75948   3.78594   3.86168
 Alpha virt. eigenvalues --    3.89477   3.90266   3.92381   3.94289   4.02826
 Alpha virt. eigenvalues --    4.06483   4.07862   4.10553   4.11350   4.14884
 Alpha virt. eigenvalues --    4.15353   4.17431   4.18010   4.19518   4.20075
 Alpha virt. eigenvalues --    4.23195   4.26597   4.30290   4.31992   4.36997
 Alpha virt. eigenvalues --    4.38195   4.45920   4.47349   4.50110   4.56493
 Alpha virt. eigenvalues --    4.58037   4.59970   4.62192   4.65988   4.70476
 Alpha virt. eigenvalues --    4.76890   4.82933   4.86504   5.02092   5.06950
 Alpha virt. eigenvalues --    5.09938   5.19307   5.22700   5.24018   5.28798
 Alpha virt. eigenvalues --    5.33927   5.35765   5.44011   5.48337   5.52369
 Alpha virt. eigenvalues --    5.64945   5.67901   5.83180   5.96777   6.05305
 Alpha virt. eigenvalues --    6.13855   6.20604   6.36127   6.37478   6.53187
 Alpha virt. eigenvalues --    6.64749   6.67404   6.76804   6.85523   6.88023
 Alpha virt. eigenvalues --    7.00827   7.10911   7.25517   7.36633  22.08393
 Alpha virt. eigenvalues --   22.42864  22.65534  22.70755  22.77412  22.86493
 Alpha virt. eigenvalues --   23.24707  23.49234  34.48646  34.58681  34.84097
 Alpha virt. eigenvalues --   42.88899  44.04924  44.22620 117.59080
          Condensed to atoms (all electrons):
               1          2          3          4          5          6
     1  C    4.869034   0.202037  -0.049021   0.001406   0.007203  -0.001539
     2  O    0.202037   8.004859   0.368155  -0.083306  -0.105598   0.002035
     3  C   -0.049021   0.368155   4.560716   0.642584   0.328918  -0.094888
     4  O    0.001406  -0.083306   0.642584   7.886150  -0.117785   0.015025
     5  C    0.007203  -0.105598   0.328918  -0.117785   5.590622   0.212924
     6  C   -0.001539   0.002035  -0.094888   0.015025   0.212924   5.211467
     7  C    0.000071   0.000209   0.012459   0.002071   0.017481   0.427916
     8  C   -0.000028  -0.000171  -0.008782   0.000076  -0.121909   0.033768
     9  C    0.000112   0.002040   0.024434  -0.000230   0.051782  -0.143812
    10  C   -0.000772   0.002209  -0.102588   0.000555   0.204331   0.095475
    11  I   -0.002190  -0.026427  -0.029694  -0.000321  -0.102701   0.026062
    12  H    0.418640  -0.029432  -0.009588   0.003985  -0.003945   0.000434
    13  H    0.394827  -0.030777   0.005578   0.001800   0.002006   0.000067
    14  H    0.421431  -0.036044  -0.006472   0.003641   0.000625  -0.000552
    15  H   -0.000131   0.000388  -0.005806   0.013792  -0.043445   0.413949
    16  H   -0.000000   0.000006  -0.000259  -0.000066   0.007115  -0.034538
    17  H    0.000000  -0.000001   0.000102  -0.000001   0.000921   0.003466
    18  H    0.000001   0.000044   0.000802   0.000005   0.017310  -0.003617
               7          8          9         10         11         12
     1  C    0.000071  -0.000028   0.000112  -0.000772  -0.002190   0.418640
     2  O    0.000209  -0.000171   0.002040   0.002209  -0.026427  -0.029432
     3  C    0.012459  -0.008782   0.024434  -0.102588  -0.029694  -0.009588
     4  O    0.002071   0.000076  -0.000230   0.000555  -0.000321   0.003985
     5  C    0.017481  -0.121909   0.051782   0.204331  -0.102701  -0.003945
     6  C    0.427916   0.033768  -0.143812   0.095475   0.026062   0.000434
     7  C    4.961965   0.453993  -0.005234  -0.072385  -0.004410  -0.000009
     8  C    0.453993   5.005234   0.374967   0.035780   0.023685   0.000003
     9  C   -0.005234   0.374967   5.201753   0.361714  -0.104699   0.000017
    10  C   -0.072385   0.035780   0.361714   5.148071   0.380166   0.000048
    11  I   -0.004410   0.023685  -0.104699   0.380166  24.932374  -0.000092
    12  H   -0.000009   0.000003   0.000017   0.000048  -0.000092   0.521906
    13  H   -0.000007   0.000002  -0.000015  -0.000301   0.001024  -0.023004
    14  H    0.000018  -0.000007   0.000015   0.000074   0.000418  -0.040044
    15  H   -0.029945   0.005190  -0.001072   0.007445  -0.000112   0.000061
    16  H    0.415463  -0.034497   0.004816  -0.000333   0.000047  -0.000000
    17  H   -0.029456   0.407289  -0.026672   0.001558  -0.000443   0.000000
    18  H    0.005199  -0.034876   0.430626  -0.061385  -0.012339   0.000000
              13         14         15         16         17         18
     1  C    0.394827   0.421431  -0.000131  -0.000000   0.000000   0.000001
     2  O   -0.030777  -0.036044   0.000388   0.000006  -0.000001   0.000044
     3  C    0.005578  -0.006472  -0.005806  -0.000259   0.000102   0.000802
     4  O    0.001800   0.003641   0.013792  -0.000066  -0.000001   0.000005
     5  C    0.002006   0.000625  -0.043445   0.007115   0.000921   0.017310
     6  C    0.000067  -0.000552   0.413949  -0.034538   0.003466  -0.003617
     7  C   -0.000007   0.000018  -0.029945   0.415463  -0.029456   0.005199
     8  C    0.000002  -0.000007   0.005190  -0.034497   0.407289  -0.034876
     9  C   -0.000015   0.000015  -0.001072   0.004816  -0.026672   0.430626
    10  C   -0.000301   0.000074   0.007445  -0.000333   0.001558  -0.061385
    11  I    0.001024   0.000418  -0.000112   0.000047  -0.000443  -0.012339
    12  H   -0.023004  -0.040044   0.000061  -0.000000   0.000000   0.000000
    13  H    0.514293  -0.023479   0.000005   0.000000   0.000000  -0.000000
    14  H   -0.023479   0.517515  -0.000063   0.000000  -0.000000  -0.000000
    15  H    0.000005  -0.000063   0.458261  -0.003364  -0.000158   0.000035
    16  H    0.000000   0.000000  -0.003364   0.478785  -0.003214  -0.000199
    17  H    0.000000  -0.000000  -0.000158  -0.003214   0.477298  -0.002363
    18  H   -0.000000  -0.000000   0.000035  -0.000199  -0.002363   0.477074
 Mulliken charges:
               1
     1  C   -0.261079
     2  O   -0.270224
     3  C    0.363353
     4  O   -0.369382
     5  C    0.054145
     6  C   -0.163643
     7  C   -0.155400
     8  C   -0.139716
     9  C   -0.170541
    10  C    0.000339
    11  I   -0.080349
    12  H    0.161021
    13  H    0.157981
    14  H    0.162926
    15  H    0.184972
    16  H    0.170239
    17  H    0.171675
    18  H    0.183684
 Sum of Mulliken charges =  -0.00000
 Mulliken charges with hydrogens summed into heavy atoms:
               1
     1  C    0.220848
     2  O   -0.270224
     3  C    0.363353
     4  O   -0.369382
     5  C    0.054145
     6  C    0.021329
     7  C    0.014839
     8  C    0.031959
     9  C    0.013143
    10  C    0.000339
    11  I   -0.080349
 Electronic spatial extent (au):  <R**2>=           2433.8219
 Charge=             -0.0000 electrons
 Dipole moment (field-independent basis, Debye):
    X=             -0.3085    Y=             -1.1521    Z=              1.0960  Tot=              1.6198
 Quadrupole moment (field-independent basis, Debye-Ang):
   XX=            -77.8989   YY=            -74.9876   ZZ=            -88.6300
   XY=             11.3421   XZ=             -2.5361   YZ=              2.8964
 Traceless Quadrupole moment (field-independent basis, Debye-Ang):
   XX=              2.6066   YY=              5.5179   ZZ=             -8.1245
   XY=             11.3421   XZ=             -2.5361   YZ=              2.8964
 Octapole moment (field-independent basis, Debye-Ang**2):
  XXX=             65.6659  YYY=            -13.6208  ZZZ=             -4.5684  XYY=             38.8924
  XXY=            -24.4509  XXZ=              4.0112  XZZ=             35.7283  YZZ=              0.3341
  YYZ=             14.3196  XYZ=             -4.5978
 Hexadecapole moment (field-independent basis, Debye-Ang**3):
 XXXX=          -1457.6771 YYYY=          -1446.7142 ZZZZ=           -145.6570 XXXY=              3.9331
 XXXZ=            -13.4209 YYYX=             55.8598 YYYZ=             34.4531 ZZZX=             -2.4883
 ZZZY=              4.6838 XXYY=           -537.2219 XXZZ=           -322.5025 YYZZ=           -303.6320
 XXYZ=             12.6741 YYXZ=            -21.5888 ZZXY=            -23.2962
 N-N= 7.312572853454D+02 E-N=-3.165385305863D+03  KE= 5.705870483142D+02
 Calculating spin-rotation constants.
 Leave Link  601 at Tue Sep 17 10:51:05 2024, MaxMem=  1342177280 cpu:               3.1 elap:               3.1
 (Enter /groups/ReismanLab/Software/Gaussian16_RevC/Linux_Binary_AVX2-enabled-CPU/g16/l9999.exe)
 Unable to Open any file for archive entry.
 1\1\GINC-HPC-54-28\SP\RM062X\def2TZVP\C8H7I1O2\MANTIND\17-Sep-2024\0\\
 #p M062X/def2tzvp geom=check guess=read scf(xqc,tight) integral(grid=u
 ltrafine) scrf(SMD, solvent=1,4-Dioxane) nmr=giao\\spe\\0,1\C,0,0.0935
 002889,-3.4582312822,-0.4193401276\O,0,-0.1579183139,-2.0467303518,-0.
 4930321136\C,0,-1.2873116744,-1.6318435448,0.0978446402\O,0,-2.0946377
 305,-2.3852595734,0.6064940563\C,0,-1.4929256016,-0.1508758776,0.01279
 2196\C,0,-2.8414231899,0.2469397407,-0.0008323168\C,0,-3.2066660483,1.
 5824742481,-0.1050288448\C,0,-2.2140825715,2.55900188,-0.1797932224\C,
 0,-0.8698360887,2.1934880536,-0.137769247\C,0,-0.5072961445,0.84751883
 89,-0.0443881718\I,0,1.6055214888,0.4895724895,0.1219496044\H,0,-0.690
 1465129,-4.0127157514,-0.9411743552\H,0,1.0589496646,-3.6065647995,-0.
 9014650668\H,0,0.1258097254,-3.7870487541,0.6218737759\H,0,-3.58935031
 97,-0.534449736,0.0725604284\H,0,-4.2556007155,1.8593888977,-0.1239893
 148\H,0,-2.4779526781,3.609128925,-0.2598712492\H,0,-0.1010951362,2.95
 61701242,-0.1709063698\\Version=ES64L-G16RevC.02\State=1-A\HF=-757.139
 5377\RMSD=3.672e-09\Dipole=-0.0799672,0.4671548,-0.4260125\Quadrupole=
 0.6165784,5.3017317,-5.9183101,-8.2348201,2.0331224,2.0329886\PG=C01 [
 X(C8H7I1O2)]\\@
 The archive entry for this job was punched.


 WE MIGHT AS WELL ATTEMPT TO INTRODUCE A NEW PLANET 
 INTO THE SOLAR SYSTEM, OR TO ANNIHILATE ONE ALREADYIN EXISTENCE, 
 AS TO CREATE OR DESTROY A PARTICLE OF HYDROGEN.
 ALL THE CHANGES WE CAN PRODUCE CONSIST IN SEPARATING PARTICLES
 THAT ARE IN A STATE OF ... COMBINATION, AND JOINING 
 THOSE THAT WERE PREVIOUSLY AT A DISTANCE.

                                    -- JOHN DALTON, 1810
 Job cpu time:       0 days  0 hours 11 minutes 12.0 seconds.
 Elapsed time:       0 days  0 hours 11 minutes 14.3 seconds.
 File lengths (MBytes):  RWF=    264 Int=      0 D2E=      0 Chk=     24 Scr=     16
 Normal termination of Gaussian 16 at Tue Sep 17 10:51:05 2024.
