 Entering Gaussian System, Link 0=g16
 Input=smiles_00124_conf_0.gjf
 Output=smiles_00124_conf_0.log
 Initial command:
 /groups/ReismanLab/Software/Gaussian16_RevC/Linux_Binary_AVX2-enabled-CPU/g16/l1.exe "/central/groups/ReismanLab/DM/dft_final/smiles_00124/Gau-824793.inp" -scrdir="/central/groups/ReismanLab/DM/dft_final/smiles_00124/"
 Entering Link 1 = /groups/ReismanLab/Software/Gaussian16_RevC/Linux_Binary_AVX2-enabled-CPU/g16/l1.exe PID=    824815.
  
 Copyright (c) 1988-2021, Gaussian, Inc.  All Rights Reserved.
  
 This is part of the Gaussian(R) 16 program.  It is based on
 the Gaussian(R) 09 system (copyright 2009, Gaussian, Inc.),
 the Gaussian(R) 03 system (copyright 2003, Gaussian, Inc.),
 the Gaussian(R) 98 system (copyright 1998, Gaussian, Inc.),
 the Gaussian(R) 94 system (copyright 1995, Gaussian, Inc.),
 the Gaussian 92(TM) system (copyright 1992, Gaussian, Inc.),
 the Gaussian 90(TM) system (copyright 1990, Gaussian, Inc.),
 the Gaussian 88(TM) system (copyright 1988, Gaussian, Inc.),
 the Gaussian 86(TM) system (copyright 1986, Carnegie Mellon
 University), and the Gaussian 82(TM) system (copyright 1983,
 Carnegie Mellon University). Gaussian is a federally registered
 trademark of Gaussian, Inc.
  
 This software contains proprietary and confidential information,
 including trade secrets, belonging to Gaussian, Inc.
  
 This software is provided under written license and may be
 used, copied, transmitted, or stored only in accord with that
 written license.
  
 The following legend is applicable only to US Government
 contracts under FAR:
  
                    RESTRICTED RIGHTS LEGEND
  
 Use, reproduction and disclosure by the US Government is
 subject to restrictions as set forth in subparagraphs (a)
 and (c) of the Commercial Computer Software - Restricted
 Rights clause in FAR 52.227-19.
  
 Gaussian, Inc.
 340 Quinnipiac St., Bldg. 40, Wallingford CT 06492
  
  
 ---------------------------------------------------------------
 Warning -- This program may not be used in any manner that
 competes with the business of Gaussian, Inc. or will provide
 assistance to any competitor of Gaussian, Inc.  The licensee
 of this program is prohibited from giving any competitor of
 Gaussian, Inc. access to this program.  By using this program,
 the user acknowledges that Gaussian, Inc. is engaged in the
 business of creating and licensing software in the field of
 computational chemistry and represents and warrants to the
 licensee that it is not a competitor of Gaussian, Inc. and that
 it will not use this program in any manner prohibited above.
 ---------------------------------------------------------------
  

 Cite this work as:
 Gaussian 16, Revision C.02,
 M. J. Frisch, G. W. Trucks, H. B. Schlegel, G. E. Scuseria, 
 M. A. Robb, J. R. Cheeseman, G. Scalmani, V. Barone, 
 G. A. Petersson, H. Nakatsuji, X. Li, M. Caricato, A. V. Marenich, 
 J. Bloino, B. G. Janesko, R. Gomperts, B. Mennucci, H. P. Hratchian, 
 J. V. Ortiz, A. F. Izmaylov, J. L. Sonnenberg, D. Williams-Young, 
 F. Ding, F. Lipparini, F. Egidi, J. Goings, B. Peng, A. Petrone, 
 T. Henderson, D. Ranasinghe, V. G. Zakrzewski, J. Gao, N. Rega, 
 G. Zheng, W. Liang, M. Hada, M. Ehara, K. Toyota, R. Fukuda, 
 J. Hasegawa, M. Ishida, T. Nakajima, Y. Honda, O. Kitao, H. Nakai, 
 T. Vreven, K. Throssell, J. A. Montgomery, Jr., J. E. Peralta, 
 F. Ogliaro, M. J. Bearpark, J. J. Heyd, E. N. Brothers, K. N. Kudin, 
 V. N. Staroverov, T. A. Keith, R. Kobayashi, J. Normand, 
 K. Raghavachari, A. P. Rendell, J. C. Burant, S. S. Iyengar, 
 J. Tomasi, M. Cossi, J. M. Millam, M. Klene, C. Adamo, R. Cammi, 
 J. W. Ochterski, R. L. Martin, K. Morokuma, O. Farkas, 
 J. B. Foresman, and D. J. Fox, Gaussian, Inc., Wallingford CT, 2019.
 
 ******************************************
 Gaussian 16:  ES64L-G16RevC.02  7-Dec-2021
                17-Sep-2024 
 ******************************************
 %nprocshared=8
 Will use up to    8 processors via shared memory.
 %Mem=10GB
 %Chk=smiles_00124_conf_0.chk
 ----------------------------------------------------------------------
 #p B3LYP/6-31G(d,p) EmpiricalDispersion=GD3BJ opt freq scf(xqc,tight) 
 integral(grid=ultrafine)
 ----------------------------------------------------------------------
 1/18=20,19=15,26=4,38=1/1,3;
 2/9=110,12=2,17=6,18=5,40=1/2;
 3/5=1,6=6,7=101,11=2,25=1,30=1,71=1,74=-5,75=-5,124=41/1,2,3;
 4//1;
 5/5=2,8=3,13=1,32=2,38=5/2,8;
 6/7=2,8=2,9=2,10=2,28=1/1;
 7//1,2,3,16;
 1/18=20,19=15,26=4/3(2);
 2/9=110/2;
 99//99;
 2/9=110/2;
 3/5=1,6=6,7=101,11=2,25=1,30=1,71=1,74=-5,75=-5,124=41/1,2,3;
 4/5=5,16=3,69=1/1;
 5/5=2,8=3,13=1,32=2,38=5/2,8;
 7//1,2,3,16;
 1/18=20,19=15,26=4/3(-5);
 2/9=110/2;
 6/7=2,8=2,9=2,10=2,19=2,28=1/1;
 99/9=1/99;
 Leave Link    1 at Tue Sep 17 09:55:50 2024, MaxMem=  1342177280 cpu:               0.1 elap:               0.9
 (Enter /groups/ReismanLab/Software/Gaussian16_RevC/Linux_Binary_AVX2-enabled-CPU/g16/l101.exe)
 ----------------------------------
 opt-freq conformers_unique/conf_aa
 ----------------------------------
 Symbolic Z-matrix:
 Charge =  0 Multiplicity = 1
 Br                    3.13591   0.71892   0.01329 
 C                     1.61894  -0.39581  -0.02067 
 C                     1.40315  -1.53018  -0.81435 
 N                     0.21885  -2.04162  -0.54697 
 N                    -0.32549  -1.28031   0.39294 
 C                    -1.66087  -1.53892   0.86832 
 C                    -2.61998  -0.48896   0.36136 
 C                    -2.75179  -0.29033  -1.00777 
 C                    -3.60593   0.683    -1.49215 
 C                    -4.33809   1.46389  -0.61265 
 C                    -4.21128   1.26941   0.75155 
 C                    -3.35132   0.29892   1.23756 
 C                     0.47919  -0.26127   0.74482 
 H                     2.05089  -1.97295  -1.54271 
 H                    -1.93626  -2.52596   0.48691 
 H                    -1.66024  -1.5619    1.96213 
 H                    -2.1778   -0.90218  -1.68875 
 H                    -3.70174   0.83232  -2.55718 
 H                    -5.00579   2.22344  -0.99075 
 H                    -4.77914   1.87659   1.4407 
 H                    -3.2528    0.15162   2.30384 
 H                     0.21002   0.46635   1.48231 
 
 ITRead=  0  0  0  0  0  0  0  0  0  0  0  0  0  0  0  0  0  0  0  0
 ITRead=  0  0
 MicOpt= -1 -1 -1 -1 -1 -1 -1 -1 -1 -1 -1 -1 -1 -1 -1 -1 -1 -1 -1 -1
 MicOpt= -1 -1
 NAtoms=     22 NQM=       22 NQMF=       0 NMMI=      0 NMMIF=      0
                NMic=       0 NMicF=      0.
                    Isotopes and Nuclear Properties:
 (Nuclear quadrupole moments (NQMom) in fm**2, nuclear magnetic moments (NMagM)
  in nuclear magnetons)

  Atom         1           2           3           4           5           6           7           8           9          10
 IAtWgt=          79          12          12          14          14          12          12          12          12          12
 AtmWgt=  78.9183361  12.0000000  12.0000000  14.0030740  14.0030740  12.0000000  12.0000000  12.0000000  12.0000000  12.0000000
 NucSpn=           3           0           0           2           2           0           0           0           0           0
 AtZEff=  -0.0000000  -0.0000000  -0.0000000  -0.0000000  -0.0000000  -0.0000000  -0.0000000  -0.0000000  -0.0000000  -0.0000000
 NQMom=   31.3000000   0.0000000   0.0000000   2.0440000   2.0440000   0.0000000   0.0000000   0.0000000   0.0000000   0.0000000
 NMagM=    2.1063990   0.0000000   0.0000000   0.4037610   0.4037610   0.0000000   0.0000000   0.0000000   0.0000000   0.0000000
 AtZNuc=  35.0000000   6.0000000   6.0000000   7.0000000   7.0000000   6.0000000   6.0000000   6.0000000   6.0000000   6.0000000

  Atom        11          12          13          14          15          16          17          18          19          20
 IAtWgt=          12          12          12           1           1           1           1           1           1           1
 AtmWgt=  12.0000000  12.0000000  12.0000000   1.0078250   1.0078250   1.0078250   1.0078250   1.0078250   1.0078250   1.0078250
 NucSpn=           0           0           0           1           1           1           1           1           1           1
 AtZEff=  -0.0000000  -0.0000000  -0.0000000  -0.0000000  -0.0000000  -0.0000000  -0.0000000  -0.0000000  -0.0000000  -0.0000000
 NQMom=    0.0000000   0.0000000   0.0000000   0.0000000   0.0000000   0.0000000   0.0000000   0.0000000   0.0000000   0.0000000
 NMagM=    0.0000000   0.0000000   0.0000000   2.7928460   2.7928460   2.7928460   2.7928460   2.7928460   2.7928460   2.7928460
 AtZNuc=   6.0000000   6.0000000   6.0000000   1.0000000   1.0000000   1.0000000   1.0000000   1.0000000   1.0000000   1.0000000

  Atom        21          22
 IAtWgt=           1           1
 AtmWgt=   1.0078250   1.0078250
 NucSpn=           1           1
 AtZEff=  -0.0000000  -0.0000000
 NQMom=    0.0000000   0.0000000
 NMagM=    2.7928460   2.7928460
 AtZNuc=   1.0000000   1.0000000
 Leave Link  101 at Tue Sep 17 09:55:51 2024, MaxMem=  1342177280 cpu:               0.2 elap:               0.3
 (Enter /groups/ReismanLab/Software/Gaussian16_RevC/Linux_Binary_AVX2-enabled-CPU/g16/l103.exe)

 GradGradGradGradGradGradGradGradGradGradGradGradGradGradGradGradGradGrad
 Berny optimization.
 Initialization pass.
                           ----------------------------
                           !    Initial Parameters    !
                           ! (Angstroms and Degrees)  !
 --------------------------                            --------------------------
 ! Name  Definition              Value          Derivative Info.                !
 --------------------------------------------------------------------------------
 ! R1    R(1,2)                  1.8828         estimate D2E/DX2                !
 ! R2    R(2,3)                  1.4012         estimate D2E/DX2                !
 ! R3    R(2,13)                 1.3795         estimate D2E/DX2                !
 ! R4    R(3,4)                  1.3174         estimate D2E/DX2                !
 ! R5    R(3,14)                 1.0706         estimate D2E/DX2                !
 ! R6    R(4,5)                  1.3264         estimate D2E/DX2                !
 ! R7    R(5,6)                  1.4409         estimate D2E/DX2                !
 ! R8    R(5,13)                 1.3453         estimate D2E/DX2                !
 ! R9    R(6,7)                  1.5097         estimate D2E/DX2                !
 ! R10   R(6,15)                 1.0934         estimate D2E/DX2                !
 ! R11   R(6,16)                 1.0941         estimate D2E/DX2                !
 ! R12   R(7,8)                  1.3897         estimate D2E/DX2                !
 ! R13   R(7,12)                 1.3868         estimate D2E/DX2                !
 ! R14   R(8,9)                  1.3826         estimate D2E/DX2                !
 ! R15   R(8,17)                 1.0805         estimate D2E/DX2                !
 ! R16   R(9,10)                 1.3854         estimate D2E/DX2                !
 ! R17   R(9,18)                 1.0797         estimate D2E/DX2                !
 ! R18   R(10,11)                1.3838         estimate D2E/DX2                !
 ! R19   R(10,19)                1.0797         estimate D2E/DX2                !
 ! R20   R(11,12)                1.3848         estimate D2E/DX2                !
 ! R21   R(11,20)                1.0798         estimate D2E/DX2                !
 ! R22   R(12,21)                1.0809         estimate D2E/DX2                !
 ! R23   R(13,22)                1.0704         estimate D2E/DX2                !
 ! A1    A(1,2,3)              127.8517         estimate D2E/DX2                !
 ! A2    A(1,2,13)             126.72           estimate D2E/DX2                !
 ! A3    A(3,2,13)             105.4281         estimate D2E/DX2                !
 ! A4    A(2,3,4)              109.741          estimate D2E/DX2                !
 ! A5    A(2,3,14)             128.8313         estimate D2E/DX2                !
 ! A6    A(4,3,14)             121.4276         estimate D2E/DX2                !
 ! A7    A(3,4,5)              106.853          estimate D2E/DX2                !
 ! A8    A(4,5,6)              120.7384         estimate D2E/DX2                !
 ! A9    A(4,5,13)             112.0025         estimate D2E/DX2                !
 ! A10   A(6,5,13)             127.1587         estimate D2E/DX2                !
 ! A11   A(5,6,7)              110.6809         estimate D2E/DX2                !
 ! A12   A(5,6,15)             106.2816         estimate D2E/DX2                !
 ! A13   A(5,6,16)             109.4569         estimate D2E/DX2                !
 ! A14   A(7,6,15)             110.5274         estimate D2E/DX2                !
 ! A15   A(7,6,16)             110.5294         estimate D2E/DX2                !
 ! A16   A(15,6,16)            109.2646         estimate D2E/DX2                !
 ! A17   A(6,7,8)              119.3714         estimate D2E/DX2                !
 ! A18   A(6,7,12)             121.1953         estimate D2E/DX2                !
 ! A19   A(8,7,12)             119.4203         estimate D2E/DX2                !
 ! A20   A(7,8,9)              120.2891         estimate D2E/DX2                !
 ! A21   A(7,8,17)             119.3122         estimate D2E/DX2                !
 ! A22   A(9,8,17)             120.3985         estimate D2E/DX2                !
 ! A23   A(8,9,10)             120.0587         estimate D2E/DX2                !
 ! A24   A(8,9,18)             119.8522         estimate D2E/DX2                !
 ! A25   A(10,9,18)            120.089          estimate D2E/DX2                !
 ! A26   A(9,10,11)            119.8797         estimate D2E/DX2                !
 ! A27   A(9,10,19)            120.0692         estimate D2E/DX2                !
 ! A28   A(11,10,19)           120.051          estimate D2E/DX2                !
 ! A29   A(10,11,12)           120.0924         estimate D2E/DX2                !
 ! A30   A(10,11,20)           120.1279         estimate D2E/DX2                !
 ! A31   A(12,11,20)           119.7792         estimate D2E/DX2                !
 ! A32   A(7,12,11)            120.2583         estimate D2E/DX2                !
 ! A33   A(7,12,21)            119.8519         estimate D2E/DX2                !
 ! A34   A(11,12,21)           119.8892         estimate D2E/DX2                !
 ! A35   A(2,13,5)             105.9725         estimate D2E/DX2                !
 ! A36   A(2,13,22)            131.0232         estimate D2E/DX2                !
 ! A37   A(5,13,22)            123.0043         estimate D2E/DX2                !
 ! D1    D(1,2,3,4)            179.8748         estimate D2E/DX2                !
 ! D2    D(1,2,3,14)            -0.0062         estimate D2E/DX2                !
 ! D3    D(13,2,3,4)             0.033          estimate D2E/DX2                !
 ! D4    D(13,2,3,14)         -179.848          estimate D2E/DX2                !
 ! D5    D(1,2,13,5)          -179.5549         estimate D2E/DX2                !
 ! D6    D(1,2,13,22)            0.4786         estimate D2E/DX2                !
 ! D7    D(3,2,13,5)             0.2893         estimate D2E/DX2                !
 ! D8    D(3,2,13,22)         -179.6772         estimate D2E/DX2                !
 ! D9    D(2,3,4,5)             -0.3475         estimate D2E/DX2                !
 ! D10   D(14,3,4,5)           179.5439         estimate D2E/DX2                !
 ! D11   D(3,4,5,6)            177.1613         estimate D2E/DX2                !
 ! D12   D(3,4,5,13)             0.5536         estimate D2E/DX2                !
 ! D13   D(4,5,6,7)           -107.472          estimate D2E/DX2                !
 ! D14   D(4,5,6,15)            12.5757         estimate D2E/DX2                !
 ! D15   D(4,5,6,16)           130.4618         estimate D2E/DX2                !
 ! D16   D(13,5,6,7)            68.5807         estimate D2E/DX2                !
 ! D17   D(13,5,6,15)         -171.3716         estimate D2E/DX2                !
 ! D18   D(13,5,6,16)          -53.4856         estimate D2E/DX2                !
 ! D19   D(4,5,13,2)            -0.5295         estimate D2E/DX2                !
 ! D20   D(4,5,13,22)          179.4404         estimate D2E/DX2                !
 ! D21   D(6,5,13,2)          -176.8705         estimate D2E/DX2                !
 ! D22   D(6,5,13,22)            3.0993         estimate D2E/DX2                !
 ! D23   D(5,6,7,8)             57.6716         estimate D2E/DX2                !
 ! D24   D(5,6,7,12)          -121.0095         estimate D2E/DX2                !
 ! D25   D(15,6,7,8)           -59.8013         estimate D2E/DX2                !
 ! D26   D(15,6,7,12)          121.5176         estimate D2E/DX2                !
 ! D27   D(16,6,7,8)           179.1074         estimate D2E/DX2                !
 ! D28   D(16,6,7,12)            0.4263         estimate D2E/DX2                !
 ! D29   D(6,7,8,9)           -178.7924         estimate D2E/DX2                !
 ! D30   D(6,7,8,17)             1.0213         estimate D2E/DX2                !
 ! D31   D(12,7,8,9)            -0.0877         estimate D2E/DX2                !
 ! D32   D(12,7,8,17)          179.7261         estimate D2E/DX2                !
 ! D33   D(6,7,12,11)          179.0684         estimate D2E/DX2                !
 ! D34   D(6,7,12,21)           -1.2077         estimate D2E/DX2                !
 ! D35   D(8,7,12,11)            0.3879         estimate D2E/DX2                !
 ! D36   D(8,7,12,21)         -179.8882         estimate D2E/DX2                !
 ! D37   D(7,8,9,10)            -0.1591         estimate D2E/DX2                !
 ! D38   D(7,8,9,18)           179.9049         estimate D2E/DX2                !
 ! D39   D(17,8,9,10)         -179.9708         estimate D2E/DX2                !
 ! D40   D(17,8,9,18)            0.0932         estimate D2E/DX2                !
 ! D41   D(8,9,10,11)            0.1068         estimate D2E/DX2                !
 ! D42   D(8,9,10,19)         -179.9468         estimate D2E/DX2                !
 ! D43   D(18,9,10,11)        -179.9574         estimate D2E/DX2                !
 ! D44   D(18,9,10,19)          -0.011          estimate D2E/DX2                !
 ! D45   D(9,10,11,12)           0.193          estimate D2E/DX2                !
 ! D46   D(9,10,11,20)         179.9262         estimate D2E/DX2                !
 ! D47   D(19,10,11,12)       -179.7534         estimate D2E/DX2                !
 ! D48   D(19,10,11,20)         -0.0202         estimate D2E/DX2                !
 ! D49   D(10,11,12,7)          -0.4422         estimate D2E/DX2                !
 ! D50   D(10,11,12,21)        179.834          estimate D2E/DX2                !
 ! D51   D(20,11,12,7)         179.8237         estimate D2E/DX2                !
 ! D52   D(20,11,12,21)          0.0999         estimate D2E/DX2                !
 --------------------------------------------------------------------------------
 Trust Radius=3.00D-01 FncErr=1.00D-07 GrdErr=1.00D-06 EigMax=2.50D+02 EigMin=1.00D-04
 Number of steps in this run=    122 maximum allowed number of steps=    132.
 GradGradGradGradGradGradGradGradGradGradGradGradGradGradGradGradGradGrad

 Leave Link  103 at Tue Sep 17 09:55:51 2024, MaxMem=  1342177280 cpu:               0.0 elap:               0.0
 (Enter /groups/ReismanLab/Software/Gaussian16_RevC/Linux_Binary_AVX2-enabled-CPU/g16/l202.exe)
                          Input orientation:                          
 ---------------------------------------------------------------------
 Center     Atomic      Atomic             Coordinates (Angstroms)
 Number     Number       Type             X           Y           Z
 ---------------------------------------------------------------------
      1         35           0        3.135909    0.718923    0.013285
      2          6           0        1.618942   -0.395807   -0.020673
      3          6           0        1.403151   -1.530180   -0.814353
      4          7           0        0.218848   -2.041622   -0.546966
      5          7           0       -0.325495   -1.280307    0.392943
      6          6           0       -1.660865   -1.538916    0.868322
      7          6           0       -2.619976   -0.488961    0.361363
      8          6           0       -2.751791   -0.290334   -1.007773
      9          6           0       -3.605931    0.682995   -1.492152
     10          6           0       -4.338092    1.463893   -0.612654
     11          6           0       -4.211280    1.269409    0.751550
     12          6           0       -3.351318    0.298916    1.237557
     13          6           0        0.479194   -0.261269    0.744818
     14          1           0        2.050885   -1.972951   -1.542715
     15          1           0       -1.936260   -2.525960    0.486907
     16          1           0       -1.660243   -1.561897    1.962131
     17          1           0       -2.177797   -0.902177   -1.688749
     18          1           0       -3.701745    0.832319   -2.557178
     19          1           0       -5.005790    2.223440   -0.990746
     20          1           0       -4.779138    1.876594    1.440700
     21          1           0       -3.252799    0.151618    2.303837
     22          1           0        0.210018    0.466349    1.482310
 ---------------------------------------------------------------------
                    Distance matrix (angstroms):
                    1          2          3          4          5
     1  Br   0.000000
     2  C    1.882807   0.000000
     3  C    2.957346   1.401177   0.000000
     4  N    4.055088   2.223951   1.317438   0.000000
     5  N    4.015267   2.175834   2.123256   1.326401   0.000000
     6  C    5.370099   3.585268   3.495664   2.406050   1.440860
     7  C    5.891549   4.257119   4.318796   3.360765   2.427318
     8  C    6.060211   4.482053   4.340296   3.479087   2.971357
     9  C    6.907969   5.534290   5.518012   4.790183   4.262558
    10  C    7.537072   6.268587   6.478196   5.749665   4.964151
    11  C    7.404678   6.112345   6.466188   5.681119   4.661435
    12  C    6.615085   5.173903   5.491894   4.626957   3.516095
    13  C    2.924730   1.379530   2.212430   2.214983   1.345281
    14  H    3.293114   2.233959   1.070569   2.086287   3.142246
    15  H    6.039907   4.175482   3.719748   2.438845   2.038393
    16  H    5.657138   4.005537   4.134520   3.171228   2.079230
    17  H    5.810366   4.177813   3.739271   2.888929   2.812019
    18  H    7.305727   6.020952   5.888870   5.260374   4.956356
    19  H    8.340198   7.189477   7.429354   6.759034   6.007994
    20  H    8.125619   6.945131   7.410268   6.654555   5.558665
    21  H    6.810583   5.425577   5.850591   4.998971   3.777702
    22  H    3.283697   2.233235   3.268693   3.226137   2.127040
                    6          7          8          9         10
     6  C    0.000000
     7  C    1.509738   0.000000
     8  C    2.503759   1.389734   0.000000
     9  C    3.780477   2.404393   1.382587   0.000000
    10  C    4.286922   2.777457   2.397870   1.385416   0.000000
    11  C    3.795385   2.403405   2.767331   2.396774   1.383820
    12  C    2.524202   1.386841   2.397531   2.768331   2.398786
    13  C    2.495494   3.131093   3.675824   4.752254   5.293879
    14  H    4.447311   5.257822   5.116939   6.249495   7.314092
    15  H    1.093424   2.152347   2.810193   4.123332   4.785056
    16  H    1.094051   2.152844   3.410084   4.556019   4.791221
    17  H    2.685380   2.137576   1.080532   2.142659   3.379814
    18  H    4.639180   3.381403   2.136216   1.079703   2.141261
    19  H    5.366561   3.857126   3.376368   2.141024   1.079669
    20  H    4.660146   3.379763   3.847172   3.376790   2.140352
    21  H    2.729993   2.141030   3.378326   3.849233   3.377254
    22  H    2.810387   3.190298   3.942764   4.843121   5.105807
                   11         12         13         14         15
    11  C    0.000000
    12  C    1.384772   0.000000
    13  C    4.933920   3.902489   0.000000
    14  H    7.415610   6.486532   3.260810   0.000000
    15  H    4.432898   3.247429   3.321109   4.508050   0.000000
    16  H    3.998698   2.616747   2.784003   5.121072   1.783785
    17  H    3.847843   3.373877   3.659593   4.364590   2.725526
    18  H    3.376145   3.848030   5.438691   6.480079   4.864301
    19  H    2.139396   3.377337   6.266659   8.228672   5.844850
    20  H    1.079845   2.137523   5.718808   8.388622   5.326740
    21  H    2.139565   1.080905   4.065561   6.887585   3.493413
    22  H    4.552668   3.573660   1.070410   4.299972   3.814610
                   16         17         18         19         20
    16  H    0.000000
    17  H    3.745933   0.000000
    18  H    5.506737   2.466791   0.000000
    19  H    5.851576   4.272497   2.467684   0.000000
    20  H    4.671468   4.927676   4.270166   2.466496   0.000000
    21  H    2.364134   4.266949   4.928932   4.268454   2.459728
    22  H    2.800336   4.198826   5.635005   6.033906   5.184804
                   21         22
    21  H    0.000000
    22  H    3.572822   0.000000
 Stoichiometry    C10H9BrN2
 Framework group  C1[X(C10H9BrN2)]
 Deg. of freedom    60
 Full point group                 C1      NOp   1
 Largest Abelian subgroup         C1      NOp   1
 Largest concise Abelian subgroup C1      NOp   1
                         Standard orientation:                         
 ---------------------------------------------------------------------
 Center     Atomic      Atomic             Coordinates (Angstroms)
 Number     Number       Type             X           Y           Z
 ---------------------------------------------------------------------
      1         35           0        3.330349   -0.844177   -0.020228
      2          6           0        1.843804    0.310565    0.021218
      3          6           0        1.660077    1.447278    0.819607
      4          7           0        0.489316    1.991205    0.556727
      5          7           0       -0.077148    1.248286   -0.384830
      6          6           0       -1.406116    1.544300   -0.856315
      7          6           0       -2.391897    0.518438   -0.351190
      8          6           0       -2.526117    0.318208    1.017479
      9          6           0       -3.404963   -0.633775    1.500082
     10          6           0       -4.159575   -1.391479    0.619273
     11          6           0       -4.030457   -1.195274   -0.744468
     12          6           0       -3.145870   -0.246276   -1.228722
     13          6           0        0.699271    0.209447   -0.742275
     14          1           0        2.320937    1.869809    1.548200
     15          1           0       -1.654225    2.536897   -0.470609
     16          1           0       -1.407163    1.571409   -1.950029
     17          1           0       -1.934549    0.911899    1.699481
     18          1           0       -3.502511   -0.784528    2.564749
     19          1           0       -4.846552   -2.134337    0.995982
     20          1           0       -4.615784   -1.784443   -1.434640
     21          1           0       -3.045674   -0.097615   -2.294657
     22          1           0        0.409197   -0.507910   -1.481892
 ---------------------------------------------------------------------
 Rotational constants (GHZ):           1.3064887           0.2543442           0.2383611
 Leave Link  202 at Tue Sep 17 09:55:51 2024, MaxMem=  1342177280 cpu:               0.0 elap:               0.0
 (Enter /groups/ReismanLab/Software/Gaussian16_RevC/Linux_Binary_AVX2-enabled-CPU/g16/l301.exe)
 Standard basis: 6-31G(d,p) (6D, 7F)
 Ernie: Thresh=  0.10000D-02 Tol=  0.10000D-05 Strict=F.
 There are   255 symmetry adapted cartesian basis functions of A   symmetry.
 There are   255 symmetry adapted basis functions of A   symmetry.
   255 basis functions,   482 primitive gaussians,   255 cartesian basis functions
    59 alpha electrons       59 beta electrons
       nuclear repulsion energy       978.7679258614 Hartrees.
 IExCor=  402 DFT=T Ex+Corr=B3LYP ExCW=0 ScaHFX=  0.200000
 ScaDFX=  0.800000  0.720000  1.000000  0.810000 ScalE2=  1.000000  1.000000
 IRadAn=      5 IRanWt=     -1 IRanGd=            0 ICorTp=0 IEmpDi=141
 NAtoms=   22 NActive=   22 NUniq=   22 SFac= 1.00D+00 NAtFMM=   60 NAOKFM=F Big=F
 Integral buffers will be    131072 words long.
 Raffenetti 2 integral format.
 Two-electron integral symmetry is turned on.
 R6Disp:  Grimme-D3(BJ) Dispersion energy=       -0.0466485300 Hartrees.
 Nuclear repulsion after empirical dispersion term =      978.7212773314 Hartrees.
 Leave Link  301 at Tue Sep 17 09:55:51 2024, MaxMem=  1342177280 cpu:               0.1 elap:               0.1
 (Enter /groups/ReismanLab/Software/Gaussian16_RevC/Linux_Binary_AVX2-enabled-CPU/g16/l302.exe)
 NPDir=0 NMtPBC=     1 NCelOv=     1 NCel=       1 NClECP=     1 NCelD=      1
         NCelK=      1 NCelE2=     1 NClLst=     1 CellRange=     0.0.
 One-electron integrals computed using PRISM.
 One-electron integral symmetry used in STVInt
 NBasis=   255 RedAO= T EigKep=  4.33D-04  NBF=   255
 NBsUse=   255 1.00D-06 EigRej= -1.00D+00 NBFU=   255
 Precomputing XC quadrature grid using
 IXCGrd= 4 IRadAn=           5 IRanWt=          -1 IRanGd=           0 AccXCQ= 0.00D+00.
 Generated NRdTot=       0 NPtTot=           0 NUsed=           0 NTot=          32
 NSgBfM=   254   254   254   254   254 MxSgAt=    22 MxSgA2=    22.
 Leave Link  302 at Tue Sep 17 09:55:51 2024, MaxMem=  1342177280 cpu:               1.2 elap:               0.2
 (Enter /groups/ReismanLab/Software/Gaussian16_RevC/Linux_Binary_AVX2-enabled-CPU/g16/l303.exe)
 DipDrv:  MaxL=1.
 Leave Link  303 at Tue Sep 17 09:55:51 2024, MaxMem=  1342177280 cpu:               0.1 elap:               0.0
 (Enter /groups/ReismanLab/Software/Gaussian16_RevC/Linux_Binary_AVX2-enabled-CPU/g16/l401.exe)
 ExpMin= 1.43D-01 ExpMax= 5.74D+05 ExpMxC= 5.74D+03 IAcc=3 IRadAn=         5 AccDes= 0.00D+00
 Harris functional with IExCor=  402 and IRadAn=       5 diagonalized for initial guess.
 HarFok:  IExCor=  402 AccDes= 0.00D+00 IRadAn=         5 IDoV= 1 UseB2=F ITyADJ=14
 ICtDFT=  3500011 ScaDFX=  1.000000  1.000000  1.000000  1.000000
 FoFCou: FMM=F IPFlag=           0 FMFlag=      100000 FMFlg1=           0
         NFxFlg=           0 DoJE=T BraDBF=F KetDBF=T FulRan=T
         wScrn=  0.000000 ICntrl=       500 IOpCl=  0 I1Cent=   200000004 NGrid=           0
         NMat0=    1 NMatS0=      1 NMatT0=    0 NMatD0=    1 NMtDS0=    0 NMtDT0=    0
 Petite list used in FoFCou.
 Harris En= -3067.82061754615    
 JPrj=0 DoOrth=F DoCkMO=F.
 Leave Link  401 at Tue Sep 17 09:55:52 2024, MaxMem=  1342177280 cpu:               6.7 elap:               0.9
 (Enter /groups/ReismanLab/Software/Gaussian16_RevC/Linux_Binary_AVX2-enabled-CPU/g16/l502.exe)
 Integral symmetry usage will be decided dynamically.
 Closed shell SCF:
 Using DIIS extrapolation, IDIIS=  1040.
 NGot=  1342177280 LenX=  1342041964 LenY=  1341976498
 Requested convergence on RMS density matrix=1.00D-08 within  32 cycles.
 Requested convergence on MAX density matrix=1.00D-06.
 Requested convergence on             energy=1.00D-06.
 No special actions if energy rises.
 Fock matrices will be formed incrementally for  20 cycles.
 Integral accuracy reduced to 1.0D-05 until final iterations.

 Cycle   1  Pass 0  IDiag  1:
 FoFJK:  IHMeth= 1 ICntrl=       0 DoSepK=F KAlg= 0 I1Cent=           0 FoldK=F
 IRaf= 840000000 NMat=       1 IRICut=       1 DoRegI=T DoRafI=F ISym2E= 0 IDoP0=0 IntGTp=1.
 FoFCou: FMM=F IPFlag=           0 FMFlag=      100000 FMFlg1=           0
         NFxFlg=           0 DoJE=F BraDBF=F KetDBF=F FulRan=T
         wScrn=  0.000000 ICntrl=         0 IOpCl=  0 I1Cent=           0 NGrid=           0
         NMat0=    1 NMatS0=      1 NMatT0=    0 NMatD0=    1 NMtDS0=    0 NMtDT0=    0
 Symmetry not used in FoFCou.
 E= -3067.45699544163    
 DIIS: error= 1.40D-01 at cycle   1 NSaved=   1.
 NSaved= 1 IEnMin= 1 EnMin= -3067.45699544163     IErMin= 1 ErrMin= 1.40D-01
 ErrMax= 1.40D-01  0.00D+00 EMaxC= 1.00D-01 BMatC= 6.00D-01 BMatP= 6.00D-01
 IDIUse=3 WtCom= 0.00D+00 WtEn= 1.00D+00
 Coeff-Com:  0.100D+01
 Coeff-En:   0.100D+01
 Coeff:      0.100D+01
 Gap=     0.294 Goal=   None    Shift=    0.000
 GapD=    0.294 DampG=1.000 DampE=0.250 DampFc=0.2500 IDamp=-1.
 Damping current iteration by 2.50D-01
 RMSDP=4.91D-03 MaxDP=1.45D-01              OVMax= 1.79D-01

 Cycle   2  Pass 0  IDiag  1:
 RMSU=  1.19D-03    CP:  9.92D-01
 E= -3067.55050352156     Delta-E=       -0.093508079931 Rises=F Damp=T
 DIIS: error= 1.03D-01 at cycle   2 NSaved=   2.
 NSaved= 2 IEnMin= 2 EnMin= -3067.55050352156     IErMin= 2 ErrMin= 1.03D-01
 ErrMax= 1.03D-01  0.00D+00 EMaxC= 1.00D-01 BMatC= 2.59D-01 BMatP= 6.00D-01
 IDIUse=3 WtCom= 0.00D+00 WtEn= 1.00D+00
 Coeff-Com: -0.134D+01 0.234D+01
 Coeff-En:   0.000D+00 0.100D+01
 Coeff:      0.000D+00 0.100D+01
 Gap=     0.240 Goal=   None    Shift=    0.000
 RMSDP=2.47D-03 MaxDP=1.10D-01 DE=-9.35D-02 OVMax= 9.08D-02

 Cycle   3  Pass 0  IDiag  1:
 RMSU=  9.36D-04    CP:  9.69D-01  2.78D+00
 E= -3067.67084645449     Delta-E=       -0.120342932926 Rises=F Damp=F
 DIIS: error= 1.26D-02 at cycle   3 NSaved=   3.
 NSaved= 3 IEnMin= 3 EnMin= -3067.67084645449     IErMin= 3 ErrMin= 1.26D-02
 ErrMax= 1.26D-02  0.00D+00 EMaxC= 1.00D-01 BMatC= 5.07D-02 BMatP= 2.59D-01
 IDIUse=3 WtCom= 8.74D-01 WtEn= 1.26D-01
 Coeff-Com:  0.109D+01-0.132D+01 0.123D+01
 Coeff-En:   0.844D-01 0.000D+00 0.916D+00
 Coeff:      0.966D+00-0.116D+01 0.119D+01
 Gap=     0.246 Goal=   None    Shift=    0.000
 RMSDP=1.37D-03 MaxDP=4.11D-02 DE=-1.20D-01 OVMax= 5.10D-02

 Cycle   4  Pass 0  IDiag  1:
 RMSU=  8.43D-04    CP:  9.70D-01  1.88D+00  1.09D+00
 E= -3067.70977785862     Delta-E=       -0.038931404129 Rises=F Damp=F
 DIIS: error= 4.97D-03 at cycle   4 NSaved=   4.
 NSaved= 4 IEnMin= 4 EnMin= -3067.70977785862     IErMin= 4 ErrMin= 4.97D-03
 ErrMax= 4.97D-03  0.00D+00 EMaxC= 1.00D-01 BMatC= 1.24D-02 BMatP= 5.07D-02
 IDIUse=3 WtCom= 9.50D-01 WtEn= 4.97D-02
 Coeff-Com:  0.704D+00-0.918D+00 0.712D+00 0.502D+00
 Coeff-En:   0.000D+00 0.000D+00 0.813D-01 0.919D+00
 Coeff:      0.669D+00-0.872D+00 0.680D+00 0.523D+00
 Gap=     0.224 Goal=   None    Shift=    0.000
 RMSDP=6.05D-04 MaxDP=1.47D-02 DE=-3.89D-02 OVMax= 3.50D-02

 Cycle   5  Pass 0  IDiag  1:
 RMSU=  1.54D-04    CP:  9.70D-01  2.01D+00  1.23D+00  3.50D-01
 E= -3067.72233777578     Delta-E=       -0.012559917159 Rises=F Damp=F
 DIIS: error= 1.27D-03 at cycle   5 NSaved=   5.
 NSaved= 5 IEnMin= 5 EnMin= -3067.72233777578     IErMin= 5 ErrMin= 1.27D-03
 ErrMax= 1.27D-03  0.00D+00 EMaxC= 1.00D-01 BMatC= 6.30D-04 BMatP= 1.24D-02
 IDIUse=3 WtCom= 9.87D-01 WtEn= 1.27D-02
 Coeff-Com:  0.217D+00-0.284D+00 0.236D+00 0.263D+00 0.568D+00
 Coeff-En:   0.000D+00 0.000D+00 0.000D+00 0.000D+00 0.100D+01
 Coeff:      0.215D+00-0.281D+00 0.233D+00 0.260D+00 0.573D+00
 Gap=     0.220 Goal=   None    Shift=    0.000
 RMSDP=1.28D-04 MaxDP=3.67D-03 DE=-1.26D-02 OVMax= 8.70D-03

 Cycle   6  Pass 0  IDiag  1:
 RMSU=  5.59D-05    CP:  9.70D-01  2.01D+00  1.21D+00  4.54D-01  5.28D-01
 E= -3067.72292202834     Delta-E=       -0.000584252567 Rises=F Damp=F
 DIIS: error= 5.01D-04 at cycle   6 NSaved=   6.
 NSaved= 6 IEnMin= 6 EnMin= -3067.72292202834     IErMin= 6 ErrMin= 5.01D-04
 ErrMax= 5.01D-04  0.00D+00 EMaxC= 1.00D-01 BMatC= 6.91D-05 BMatP= 6.30D-04
 IDIUse=3 WtCom= 9.95D-01 WtEn= 5.01D-03
 Coeff-Com:  0.563D-01-0.739D-01 0.684D-01 0.112D+00 0.352D+00 0.486D+00
 Coeff-En:   0.000D+00 0.000D+00 0.000D+00 0.000D+00 0.395D-02 0.996D+00
 Coeff:      0.561D-01-0.736D-01 0.680D-01 0.111D+00 0.350D+00 0.488D+00
 Gap=     0.219 Goal=   None    Shift=    0.000
 RMSDP=3.55D-05 MaxDP=1.07D-03 DE=-5.84D-04 OVMax= 2.93D-03

 Cycle   7  Pass 0  IDiag  1:
 RMSU=  1.39D-05    CP:  9.70D-01  2.01D+00  1.21D+00  4.55D-01  5.95D-01
                    CP:  4.47D-01
 E= -3067.72298792487     Delta-E=       -0.000065896531 Rises=F Damp=F
 DIIS: error= 1.05D-04 at cycle   7 NSaved=   7.
 NSaved= 7 IEnMin= 7 EnMin= -3067.72298792487     IErMin= 7 ErrMin= 1.05D-04
 ErrMax= 1.05D-04  0.00D+00 EMaxC= 1.00D-01 BMatC= 3.10D-06 BMatP= 6.91D-05
 IDIUse=3 WtCom= 9.99D-01 WtEn= 1.05D-03
 Coeff-Com:  0.148D-01-0.195D-01 0.198D-01 0.416D-01 0.144D+00 0.253D+00
 Coeff-Com:  0.547D+00
 Coeff-En:   0.000D+00 0.000D+00 0.000D+00 0.000D+00 0.000D+00 0.000D+00
 Coeff-En:   0.100D+01
 Coeff:      0.148D-01-0.195D-01 0.198D-01 0.415D-01 0.143D+00 0.253D+00
 Coeff:      0.547D+00
 Gap=     0.219 Goal=   None    Shift=    0.000
 RMSDP=9.16D-06 MaxDP=2.57D-04 DE=-6.59D-05 OVMax= 5.84D-04

 Initial convergence to 1.0D-05 achieved.  Increase integral accuracy.
 Cycle   8  Pass 1  IDiag  1:
 E= -3067.72300778794     Delta-E=       -0.000019863066 Rises=F Damp=F
 DIIS: error= 2.45D-05 at cycle   1 NSaved=   1.
 NSaved= 1 IEnMin= 1 EnMin= -3067.72300778794     IErMin= 1 ErrMin= 2.45D-05
 ErrMax= 2.45D-05  0.00D+00 EMaxC= 1.00D-01 BMatC= 4.83D-07 BMatP= 4.83D-07
 IDIUse=1 WtCom= 1.00D+00 WtEn= 0.00D+00
 Coeff-Com:  0.100D+01
 Coeff:      0.100D+01
 Gap=     0.219 Goal=   None    Shift=    0.000
 RMSDP=9.16D-06 MaxDP=2.57D-04 DE=-1.99D-05 OVMax= 4.38D-04

 Cycle   9  Pass 1  IDiag  1:
 RMSU=  1.97D-05    CP:  1.00D+00
 E= -3067.72300726146     Delta-E=        0.000000526483 Rises=F Damp=F
 DIIS: error= 4.26D-05 at cycle   2 NSaved=   2.
 NSaved= 2 IEnMin= 1 EnMin= -3067.72300778794     IErMin= 1 ErrMin= 2.45D-05
 ErrMax= 4.26D-05  0.00D+00 EMaxC= 1.00D-01 BMatC= 9.43D-07 BMatP= 4.83D-07
 IDIUse=1 WtCom= 1.00D+00 WtEn= 0.00D+00
 Coeff-Com:  0.592D+00 0.408D+00
 Coeff:      0.592D+00 0.408D+00
 Gap=     0.219 Goal=   None    Shift=    0.000
 RMSDP=4.68D-06 MaxDP=1.57D-04 DE= 5.26D-07 OVMax= 3.23D-04

 Cycle  10  Pass 1  IDiag  1:
 RMSU=  4.47D-06    CP:  1.00D+00  9.30D-01
 E= -3067.72300821336     Delta-E=       -0.000000951908 Rises=F Damp=F
 DIIS: error= 9.09D-06 at cycle   3 NSaved=   3.
 NSaved= 3 IEnMin= 3 EnMin= -3067.72300821336     IErMin= 3 ErrMin= 9.09D-06
 ErrMax= 9.09D-06  0.00D+00 EMaxC= 1.00D-01 BMatC= 3.87D-08 BMatP= 4.83D-07
 IDIUse=1 WtCom= 1.00D+00 WtEn= 0.00D+00
 Coeff-Com:  0.139D+00 0.188D+00 0.673D+00
 Coeff:      0.139D+00 0.188D+00 0.673D+00
 Gap=     0.219 Goal=   None    Shift=    0.000
 RMSDP=1.14D-06 MaxDP=5.20D-05 DE=-9.52D-07 OVMax= 7.24D-05

 Cycle  11  Pass 1  IDiag  1:
 RMSU=  8.44D-07    CP:  1.00D+00  9.46D-01  8.43D-01
 E= -3067.72300823917     Delta-E=       -0.000000025803 Rises=F Damp=F
 DIIS: error= 4.50D-06 at cycle   4 NSaved=   4.
 NSaved= 4 IEnMin= 4 EnMin= -3067.72300823917     IErMin= 4 ErrMin= 4.50D-06
 ErrMax= 4.50D-06  0.00D+00 EMaxC= 1.00D-01 BMatC= 1.45D-08 BMatP= 3.87D-08
 IDIUse=1 WtCom= 1.00D+00 WtEn= 0.00D+00
 Coeff-Com:  0.709D-02 0.665D-01 0.442D+00 0.484D+00
 Coeff:      0.709D-02 0.665D-01 0.442D+00 0.484D+00
 Gap=     0.219 Goal=   None    Shift=    0.000
 RMSDP=4.65D-07 MaxDP=2.33D-05 DE=-2.58D-08 OVMax= 3.26D-05

 Cycle  12  Pass 1  IDiag  1:
 RMSU=  1.55D-07    CP:  1.00D+00  9.46D-01  8.63D-01  4.92D-01
 E= -3067.72300825167     Delta-E=       -0.000000012504 Rises=F Damp=F
 DIIS: error= 9.56D-07 at cycle   5 NSaved=   5.
 NSaved= 5 IEnMin= 5 EnMin= -3067.72300825167     IErMin= 5 ErrMin= 9.56D-07
 ErrMax= 9.56D-07  0.00D+00 EMaxC= 1.00D-01 BMatC= 4.02D-10 BMatP= 1.45D-08
 IDIUse=1 WtCom= 1.00D+00 WtEn= 0.00D+00
 Coeff-Com: -0.219D-03 0.317D-01 0.230D+00 0.274D+00 0.465D+00
 Coeff:     -0.219D-03 0.317D-01 0.230D+00 0.274D+00 0.465D+00
 Gap=     0.219 Goal=   None    Shift=    0.000
 RMSDP=9.23D-08 MaxDP=2.85D-06 DE=-1.25D-08 OVMax= 7.22D-06

 Cycle  13  Pass 1  IDiag  1:
 RMSU=  5.20D-08    CP:  1.00D+00  9.46D-01  8.65D-01  5.11D-01  5.22D-01
 E= -3067.72300825208     Delta-E=       -0.000000000412 Rises=F Damp=F
 DIIS: error= 2.39D-07 at cycle   6 NSaved=   6.
 NSaved= 6 IEnMin= 6 EnMin= -3067.72300825208     IErMin= 6 ErrMin= 2.39D-07
 ErrMax= 2.39D-07  0.00D+00 EMaxC= 1.00D-01 BMatC= 3.92D-11 BMatP= 4.02D-10
 IDIUse=1 WtCom= 1.00D+00 WtEn= 0.00D+00
 Coeff-Com: -0.875D-03 0.127D-01 0.969D-01 0.119D+00 0.280D+00 0.492D+00
 Coeff:     -0.875D-03 0.127D-01 0.969D-01 0.119D+00 0.280D+00 0.492D+00
 Gap=     0.219 Goal=   None    Shift=    0.000
 RMSDP=2.64D-08 MaxDP=1.20D-06 DE=-4.12D-10 OVMax= 1.66D-06

 Cycle  14  Pass 1  IDiag  1:
 RMSU=  1.57D-08    CP:  1.00D+00  9.46D-01  8.65D-01  5.11D-01  5.81D-01
                    CP:  6.33D-01
 E= -3067.72300825207     Delta-E=        0.000000000012 Rises=F Damp=F
 DIIS: error= 6.97D-08 at cycle   7 NSaved=   7.
 NSaved= 7 IEnMin= 6 EnMin= -3067.72300825208     IErMin= 7 ErrMin= 6.97D-08
 ErrMax= 6.97D-08  0.00D+00 EMaxC= 1.00D-01 BMatC= 2.98D-12 BMatP= 3.92D-11
 IDIUse=1 WtCom= 1.00D+00 WtEn= 0.00D+00
 Coeff-Com: -0.511D-03 0.546D-02 0.425D-01 0.522D-01 0.138D+00 0.299D+00
 Coeff-Com:  0.463D+00
 Coeff:     -0.511D-03 0.546D-02 0.425D-01 0.522D-01 0.138D+00 0.299D+00
 Coeff:      0.463D+00
 Gap=     0.219 Goal=   None    Shift=    0.000
 RMSDP=6.38D-09 MaxDP=2.41D-07 DE= 1.18D-11 OVMax= 4.34D-07

 SCF Done:  E(RB3LYP) =  -3067.72300825     A.U. after   14 cycles
            NFock= 14  Conv=0.64D-08     -V/T= 2.0066
 KE= 3.047682782746D+03 PE=-9.241208680309D+03 EE= 2.147081611979D+03
 Leave Link  502 at Tue Sep 17 09:56:08 2024, MaxMem=  1342177280 cpu:             122.8 elap:              16.3
 (Enter /groups/ReismanLab/Software/Gaussian16_RevC/Linux_Binary_AVX2-enabled-CPU/g16/l508.exe)
 QCSCF skips out because SCF is already converged.
 Leave Link  508 at Tue Sep 17 09:56:08 2024, MaxMem=  1342177280 cpu:               0.0 elap:               0.0
 (Enter /groups/ReismanLab/Software/Gaussian16_RevC/Linux_Binary_AVX2-enabled-CPU/g16/l601.exe)
 Copying SCF densities to generalized density rwf, IOpCl= 0 IROHF=0.

 **********************************************************************

            Population analysis using the SCF Density.

 **********************************************************************

 Orbital symmetries:
       Occupied  (A) (A) (A) (A) (A) (A) (A) (A) (A) (A) (A) (A)
                 (A) (A) (A) (A) (A) (A) (A) (A) (A) (A) (A) (A)
                 (A) (A) (A) (A) (A) (A) (A) (A) (A) (A) (A) (A)
                 (A) (A) (A) (A) (A) (A) (A) (A) (A) (A) (A) (A)
                 (A) (A) (A) (A) (A) (A) (A) (A) (A) (A) (A)
       Virtual   (A) (A) (A) (A) (A) (A) (A) (A) (A) (A) (A) (A)
                 (A) (A) (A) (A) (A) (A) (A) (A) (A) (A) (A) (A)
                 (A) (A) (A) (A) (A) (A) (A) (A) (A) (A) (A) (A)
                 (A) (A) (A) (A) (A) (A) (A) (A) (A) (A) (A) (A)
                 (A) (A) (A) (A) (A) (A) (A) (A) (A) (A) (A) (A)
                 (A) (A) (A) (A) (A) (A) (A) (A) (A) (A) (A) (A)
                 (A) (A) (A) (A) (A) (A) (A) (A) (A) (A) (A) (A)
                 (A) (A) (A) (A) (A) (A) (A) (A) (A) (A) (A) (A)
                 (A) (A) (A) (A) (A) (A) (A) (A) (A) (A) (A) (A)
                 (A) (A) (A) (A) (A) (A) (A) (A) (A) (A) (A) (A)
                 (A) (A) (A) (A) (A) (A) (A) (A) (A) (A) (A) (A)
                 (A) (A) (A) (A) (A) (A) (A) (A) (A) (A) (A) (A)
                 (A) (A) (A) (A) (A) (A) (A) (A) (A) (A) (A) (A)
                 (A) (A) (A) (A) (A) (A) (A) (A) (A) (A) (A) (A)
                 (A) (A) (A) (A) (A) (A) (A) (A) (A) (A) (A) (A)
                 (A) (A) (A) (A) (A) (A) (A) (A) (A) (A) (A) (A)
                 (A) (A) (A) (A)
 The electronic state is 1-A.
 Alpha  occ. eigenvalues -- -482.91075 -61.87251 -56.39403 -56.38971 -56.38962
 Alpha  occ. eigenvalues --  -14.42071 -14.35187 -10.24252 -10.22950 -10.22563
 Alpha  occ. eigenvalues --  -10.20810 -10.20403 -10.19666 -10.19492 -10.19413
 Alpha  occ. eigenvalues --  -10.19348 -10.19219  -8.58400  -6.53830  -6.52496
 Alpha  occ. eigenvalues --   -6.52491  -2.65399  -2.65009  -2.65005  -2.63942
 Alpha  occ. eigenvalues --   -2.63941  -1.07060  -0.88020  -0.85179  -0.82069
 Alpha  occ. eigenvalues --   -0.77797  -0.75562  -0.74845  -0.69350  -0.61731
 Alpha  occ. eigenvalues --   -0.60577  -0.59980  -0.57419  -0.53669  -0.52181
 Alpha  occ. eigenvalues --   -0.48339  -0.46607  -0.45865  -0.45070  -0.42971
 Alpha  occ. eigenvalues --   -0.42201  -0.41666  -0.40896  -0.40033  -0.37067
 Alpha  occ. eigenvalues --   -0.35494  -0.34885  -0.31958  -0.30242  -0.27667
 Alpha  occ. eigenvalues --   -0.26606  -0.26034  -0.24942  -0.23269
 Alpha virt. eigenvalues --   -0.01330  -0.00703   0.01485   0.02216   0.06148
 Alpha virt. eigenvalues --    0.08909   0.11071   0.11959   0.13980   0.14533
 Alpha virt. eigenvalues --    0.15504   0.15967   0.16213   0.18197   0.18863
 Alpha virt. eigenvalues --    0.19975   0.21235   0.23315   0.25166   0.27863
 Alpha virt. eigenvalues --    0.28943   0.30255   0.31377   0.31679   0.34380
 Alpha virt. eigenvalues --    0.39138   0.40379   0.44318   0.45869   0.46460
 Alpha virt. eigenvalues --    0.46819   0.47002   0.47590   0.48463   0.50503
 Alpha virt. eigenvalues --    0.51272   0.52470   0.52748   0.54499   0.55629
 Alpha virt. eigenvalues --    0.56064   0.57676   0.58073   0.59048   0.59660
 Alpha virt. eigenvalues --    0.59904   0.60819   0.61106   0.61796   0.64223
 Alpha virt. eigenvalues --    0.64507   0.67036   0.69004   0.69893   0.70446
 Alpha virt. eigenvalues --    0.73296   0.75102   0.76228   0.76950   0.77264
 Alpha virt. eigenvalues --    0.78244   0.79568   0.80699   0.81998   0.82447
 Alpha virt. eigenvalues --    0.83662   0.84058   0.85955   0.87953   0.89677
 Alpha virt. eigenvalues --    0.90983   0.91354   0.94100   0.94733   0.97341
 Alpha virt. eigenvalues --    0.98887   1.02585   1.06489   1.08214   1.10576
 Alpha virt. eigenvalues --    1.11838   1.14920   1.15341   1.17485   1.21997
 Alpha virt. eigenvalues --    1.22763   1.24402   1.25877   1.32274   1.32457
 Alpha virt. eigenvalues --    1.33496   1.35814   1.39681   1.39862   1.40706
 Alpha virt. eigenvalues --    1.41580   1.43964   1.44627   1.45512   1.49348
 Alpha virt. eigenvalues --    1.52945   1.53549   1.55836   1.61921   1.62861
 Alpha virt. eigenvalues --    1.76682   1.77142   1.78897   1.82739   1.84769
 Alpha virt. eigenvalues --    1.86560   1.88026   1.90048   1.91587   1.92846
 Alpha virt. eigenvalues --    1.93104   1.94095   1.97252   1.98177   1.98545
 Alpha virt. eigenvalues --    2.00061   2.01471   2.01915   2.06955   2.08920
 Alpha virt. eigenvalues --    2.10388   2.10755   2.12562   2.18216   2.21030
 Alpha virt. eigenvalues --    2.22335   2.25786   2.27241   2.28191   2.30257
 Alpha virt. eigenvalues --    2.31105   2.31979   2.36095   2.37426   2.38083
 Alpha virt. eigenvalues --    2.40417   2.40960   2.42495   2.44381   2.47123
 Alpha virt. eigenvalues --    2.49346   2.50329   2.51785   2.54904   2.55420
 Alpha virt. eigenvalues --    2.58207   2.59493   2.60242   2.61965   2.63433
 Alpha virt. eigenvalues --    2.65418   2.66556   2.68188   2.70411   2.75382
 Alpha virt. eigenvalues --    2.75766   2.79506   2.84277   2.84544   2.88140
 Alpha virt. eigenvalues --    2.89108   2.93656   3.00002   3.07269   3.10828
 Alpha virt. eigenvalues --    3.18493   3.21059   3.24473   3.25581   3.27441
 Alpha virt. eigenvalues --    3.37359   3.43502   3.47159   3.50216   3.52664
 Alpha virt. eigenvalues --    3.58901   3.87641   3.93113   4.07838   4.13806
 Alpha virt. eigenvalues --    4.14174   4.15529   4.19658   4.36618   4.41921
 Alpha virt. eigenvalues --    4.44562   4.50347   4.61745   4.85253   8.60217
 Alpha virt. eigenvalues --   72.73291
          Condensed to atoms (all electrons):
               1          2          3          4          5          6
     1  Br  34.973886   0.256678  -0.051358   0.005310   0.004410  -0.000119
     2  C    0.256678   4.895253   0.501641  -0.014340  -0.023354   0.004849
     3  C   -0.051358   0.501641   4.786865   0.445814  -0.134852   0.007767
     4  N    0.005310  -0.014340   0.445814   6.761656   0.318377  -0.059039
     5  N    0.004410  -0.023354  -0.134852   0.318377   6.661042   0.286047
     6  C   -0.000119   0.004849   0.007767  -0.059039   0.286047   4.973771
     7  C    0.000000  -0.000259   0.000217  -0.002482  -0.070125   0.346885
     8  C   -0.000001  -0.000418   0.000116  -0.000710  -0.005008  -0.065041
     9  C    0.000000  -0.000014   0.000008   0.000084  -0.000074   0.005785
    10  C   -0.000000   0.000000   0.000000   0.000001   0.000015   0.000423
    11  C    0.000000   0.000002  -0.000001   0.000001  -0.000113   0.006661
    12  C    0.000000  -0.000013   0.000016  -0.000094  -0.000896  -0.046493
    13  C   -0.061433   0.521299  -0.054981  -0.135035   0.310352  -0.055658
    14  H    0.001012  -0.047716   0.388795  -0.045187   0.005693  -0.000157
    15  H    0.000001  -0.000405   0.000326   0.008385  -0.036464   0.364727
    16  H   -0.000005   0.000136  -0.000260   0.003086  -0.036616   0.371228
    17  H   -0.000003  -0.000277   0.000635   0.007549  -0.000629  -0.010538
    18  H    0.000000  -0.000000  -0.000001  -0.000001   0.000005  -0.000204
    19  H    0.000000   0.000000  -0.000000   0.000000   0.000000   0.000008
    20  H    0.000000  -0.000000   0.000000  -0.000000   0.000001  -0.000186
    21  H   -0.000000  -0.000001   0.000000  -0.000002   0.000168  -0.011444
    22  H    0.001116  -0.029274   0.003542   0.004492  -0.041469   0.000163
               7          8          9         10         11         12
     1  Br   0.000000  -0.000001   0.000000  -0.000000   0.000000   0.000000
     2  C   -0.000259  -0.000418  -0.000014   0.000000   0.000002  -0.000013
     3  C    0.000217   0.000116   0.000008   0.000000  -0.000001   0.000016
     4  N   -0.002482  -0.000710   0.000084   0.000001   0.000001  -0.000094
     5  N   -0.070125  -0.005008  -0.000074   0.000015  -0.000113  -0.000896
     6  C    0.346885  -0.065041   0.005785   0.000423   0.006661  -0.046493
     7  C    4.756227   0.541042  -0.023561  -0.037855  -0.024463   0.553190
     8  C    0.541042   4.894904   0.530799  -0.039398  -0.048161  -0.045989
     9  C   -0.023561   0.530799   4.805062   0.548046  -0.028687  -0.047128
    10  C   -0.037855  -0.039398   0.548046   4.796895   0.557438  -0.040691
    11  C   -0.024463  -0.048161  -0.028687   0.557438   4.806224   0.526310
    12  C    0.553190  -0.045989  -0.047128  -0.040691   0.526310   4.892561
    13  C    0.005339   0.001845  -0.000161   0.000004  -0.000052   0.000767
    14  H    0.000005   0.000012   0.000000  -0.000000   0.000000  -0.000000
    15  H   -0.026087  -0.005884  -0.000014   0.000035  -0.000248   0.002451
    16  H   -0.043165   0.005831  -0.000167  -0.000005   0.000087  -0.006851
    17  H   -0.045435   0.365689  -0.037716   0.004952   0.000376   0.005885
    18  H    0.004053  -0.038031   0.367778  -0.042227   0.004754   0.001052
    19  H    0.000807   0.005049  -0.042319   0.370251  -0.042246   0.005084
    20  H    0.004277   0.000918   0.004837  -0.041887   0.367016  -0.038624
    21  H   -0.045872   0.006374   0.000393   0.005131  -0.043002   0.365128
    22  H    0.001212   0.000085  -0.000013  -0.000007   0.000013   0.000825
              13         14         15         16         17         18
     1  Br  -0.061433   0.001012   0.000001  -0.000005  -0.000003   0.000000
     2  C    0.521299  -0.047716  -0.000405   0.000136  -0.000277  -0.000000
     3  C   -0.054981   0.388795   0.000326  -0.000260   0.000635  -0.000001
     4  N   -0.135035  -0.045187   0.008385   0.003086   0.007549  -0.000001
     5  N    0.310352   0.005693  -0.036464  -0.036616  -0.000629   0.000005
     6  C   -0.055658  -0.000157   0.364727   0.371228  -0.010538  -0.000204
     7  C    0.005339   0.000005  -0.026087  -0.043165  -0.045435   0.004053
     8  C    0.001845   0.000012  -0.005884   0.005831   0.365689  -0.038031
     9  C   -0.000161   0.000000  -0.000014  -0.000167  -0.037716   0.367778
    10  C    0.000004  -0.000000   0.000035  -0.000005   0.004952  -0.042227
    11  C   -0.000052   0.000000  -0.000248   0.000087   0.000376   0.004754
    12  C    0.000767  -0.000000   0.002451  -0.006851   0.005885   0.001052
    13  C    4.942472   0.005431   0.006631  -0.000814   0.000731   0.000001
    14  H    0.005431   0.578298  -0.000031   0.000006  -0.000013   0.000000
    15  H    0.006631  -0.000031   0.558589  -0.027211   0.002650  -0.000002
    16  H   -0.000814   0.000006  -0.027211   0.605150   0.000144   0.000003
    17  H    0.000731  -0.000013   0.002650   0.000144   0.605981  -0.006053
    18  H    0.000001   0.000000  -0.000002   0.000003  -0.006053   0.624225
    19  H   -0.000000  -0.000000  -0.000000  -0.000000  -0.000188  -0.006480
    20  H    0.000000  -0.000000   0.000003  -0.000006   0.000018  -0.000208
    21  H    0.000037  -0.000000   0.000179   0.007214  -0.000184   0.000020
    22  H    0.372832  -0.000121   0.000033   0.000873  -0.000038   0.000000
              19         20         21         22
     1  Br   0.000000   0.000000  -0.000000   0.001116
     2  C    0.000000  -0.000000  -0.000001  -0.029274
     3  C   -0.000000   0.000000   0.000000   0.003542
     4  N    0.000000  -0.000000  -0.000002   0.004492
     5  N    0.000000   0.000001   0.000168  -0.041469
     6  C    0.000008  -0.000186  -0.011444   0.000163
     7  C    0.000807   0.004277  -0.045872   0.001212
     8  C    0.005049   0.000918   0.006374   0.000085
     9  C   -0.042319   0.004837   0.000393  -0.000013
    10  C    0.370251  -0.041887   0.005131  -0.000007
    11  C   -0.042246   0.367016  -0.043002   0.000013
    12  C    0.005084  -0.038624   0.365128   0.000825
    13  C   -0.000000   0.000000   0.000037   0.372832
    14  H   -0.000000  -0.000000  -0.000000  -0.000121
    15  H   -0.000000   0.000003   0.000179   0.000033
    16  H   -0.000000  -0.000006   0.007214   0.000873
    17  H   -0.000188   0.000018  -0.000184  -0.000038
    18  H   -0.006480  -0.000208   0.000020   0.000000
    19  H    0.628538  -0.006595  -0.000202  -0.000000
    20  H   -0.006595   0.628920  -0.006527  -0.000000
    21  H   -0.000202  -0.006527   0.642476   0.000111
    22  H   -0.000000  -0.000000   0.000111   0.555984
 Mulliken charges:
               1
     1  Br  -0.129496
     2  C   -0.063786
     3  C    0.105710
     4  N   -0.297865
     5  N   -0.236508
     6  C   -0.119434
     7  C    0.106050
     8  C   -0.104023
     9  C   -0.082938
    10  C   -0.081122
    11  C   -0.081910
    12  C   -0.126491
    13  C    0.140394
    14  H    0.113974
    15  H    0.152337
    16  H    0.121343
    17  H    0.106464
    18  H    0.091316
    19  H    0.088294
    20  H    0.088044
    21  H    0.080005
    22  H    0.129641
 Sum of Mulliken charges =  -0.00000
 Mulliken charges with hydrogens summed into heavy atoms:
               1
     1  Br  -0.129496
     2  C   -0.063786
     3  C    0.219684
     4  N   -0.297865
     5  N   -0.236508
     6  C    0.154246
     7  C    0.106050
     8  C    0.002442
     9  C    0.008378
    10  C    0.007172
    11  C    0.006134
    12  C   -0.046486
    13  C    0.270035
 Electronic spatial extent (au):  <R**2>=           4259.0719
 Charge=             -0.0000 electrons
 Dipole moment (field-independent basis, Debye):
    X=             -2.5132    Y=             -0.5306    Z=             -1.1818  Tot=              2.8274
 Quadrupole moment (field-independent basis, Debye-Ang):
   XX=            -85.2316   YY=            -88.3429   ZZ=            -80.8795
   XY=              2.8207   XZ=              2.2635   YZ=             -0.9477
 Traceless Quadrupole moment (field-independent basis, Debye-Ang):
   XX=             -0.4136   YY=             -3.5249   ZZ=              3.9385
   XY=              2.8207   XZ=              2.2635   YZ=             -0.9477
 Octapole moment (field-independent basis, Debye-Ang**2):
  XXX=             94.1982  YYY=            -32.5920  ZZZ=             -1.3173  XYY=             28.7280
  XXY=            -26.8508  XXZ=              5.0814  XZZ=             22.9662  YZZ=             -8.1762
  YYZ=             -4.1604  XYZ=              6.9862
 Hexadecapole moment (field-independent basis, Debye-Ang**3):
 XXXX=          -3930.7437 YYYY=           -732.1951 ZZZZ=           -422.2496 XXXY=             10.6468
 XXXZ=             12.4856 YYYX=            -94.9532 YYYZ=             -9.9546 ZZZX=              0.3062
 ZZZY=             -0.1253 XXYY=           -715.1528 XXZZ=           -691.6593 YYZZ=           -188.5085
 XXYZ=              4.6431 YYXZ=              7.7005 ZZXY=            -12.7108
 N-N= 9.787212773314D+02 E-N=-9.241208679094D+03  KE= 3.047682782746D+03
 No NMR shielding tensors so no spin-rotation constants.
 Leave Link  601 at Tue Sep 17 09:56:08 2024, MaxMem=  1342177280 cpu:               0.7 elap:               0.1
 (Enter /groups/ReismanLab/Software/Gaussian16_RevC/Linux_Binary_AVX2-enabled-CPU/g16/l701.exe)
 ... and contract with generalized density number  0.
 Compute integral first derivatives.
 R6Disp: Adding Grimme-D3(BJ) dispersion energy 1st derivatives to the gradient.
 Leave Link  701 at Tue Sep 17 09:56:09 2024, MaxMem=  1342177280 cpu:               0.8 elap:               0.1
 (Enter /groups/ReismanLab/Software/Gaussian16_RevC/Linux_Binary_AVX2-enabled-CPU/g16/l702.exe)
 L702 exits ... SP integral derivatives will be done elsewhere.
 Leave Link  702 at Tue Sep 17 09:56:09 2024, MaxMem=  1342177280 cpu:               0.1 elap:               0.0
 (Enter /groups/ReismanLab/Software/Gaussian16_RevC/Linux_Binary_AVX2-enabled-CPU/g16/l703.exe)
 Integral derivatives from FoFJK, PRISM(SPDF).
 Compute integral first derivatives, UseDBF=F ICtDFT=           0.
 Calling FoFJK, ICntrl=      2127 FMM=F ISym2X=0 I1Cent= 0 IOpClX= 0 NMat=1 NMatS=1 NMatT=0.
 FoFJK:  IHMeth= 1 ICntrl=    2127 DoSepK=F KAlg= 0 I1Cent=           0 FoldK=F
 IRaf=         0 NMat=       1 IRICut=       1 DoRegI=T DoRafI=F ISym2E= 0 IDoP0=0 IntGTp=1.
 FoFCou: FMM=F IPFlag=           0 FMFlag=      100000 FMFlg1=         800
         NFxFlg=           0 DoJE=F BraDBF=F KetDBF=F FulRan=T
         wScrn=  0.000000 ICntrl=      2127 IOpCl=  0 I1Cent=           0 NGrid=           0
         NMat0=    1 NMatS0=      1 NMatT0=    0 NMatD0=    1 NMtDS0=    0 NMtDT0=    0
 Symmetry not used in FoFCou.
 Leave Link  703 at Tue Sep 17 09:56:14 2024, MaxMem=  1342177280 cpu:              40.5 elap:               5.2
 (Enter /groups/ReismanLab/Software/Gaussian16_RevC/Linux_Binary_AVX2-enabled-CPU/g16/l716.exe)
 Dipole        =-9.88767509D-01-2.08739968D-01-4.64941363D-01
 ***** Axes restored to original set *****
 -------------------------------------------------------------------
 Center     Atomic                   Forces (Hartrees/Bohr)
 Number     Number              X              Y              Z
 -------------------------------------------------------------------
      1       35           0.000204659    0.000157514    0.000100557
      2        6           0.004145172    0.006258728    0.002606622
      3        6           0.007713274    0.005821796   -0.000506543
      4        7          -0.011132014   -0.027567584   -0.015861096
      5        7           0.001969292    0.002670517    0.007898334
      6        6          -0.010099546   -0.000145832    0.000609745
      7        6           0.002395977   -0.004323126    0.003576502
      8        6           0.002228906   -0.003406867   -0.004274603
      9        6           0.000308526   -0.000204790   -0.006268193
     10        6          -0.004630218    0.005257121   -0.001320118
     11        6          -0.004211978    0.004467335    0.003835045
     12        6           0.001126579   -0.002261699    0.004977737
     13        6           0.007260963    0.010230417    0.004918732
     14        1           0.003937063   -0.002900046   -0.004687981
     15        1           0.002302068   -0.000165383    0.001868230
     16        1           0.000130442   -0.001447723   -0.000117030
     17        1           0.002681181   -0.002011088   -0.002426827
     18        1          -0.000385321    0.000514574   -0.004247757
     19        1          -0.002672109    0.003061947   -0.001463726
     20        1          -0.002229967    0.002490558    0.002652280
     21        1           0.000755153   -0.000756608    0.004252173
     22        1          -0.001798102    0.004260240    0.003877915
 -------------------------------------------------------------------
 Cartesian Forces:  Max     0.027567584 RMS     0.005614522
 Leave Link  716 at Tue Sep 17 09:56:14 2024, MaxMem=  1342177280 cpu:               0.1 elap:               0.1
 (Enter /groups/ReismanLab/Software/Gaussian16_RevC/Linux_Binary_AVX2-enabled-CPU/g16/l103.exe)

 GradGradGradGradGradGradGradGradGradGradGradGradGradGradGradGradGradGrad
 Berny optimization.
 FormGI is forming the generalized inverse of G from B-inverse, IUseBI=4.
 Internal  Forces:  Max     0.020950467 RMS     0.004586823
 Search for a local minimum.
 Step number   1 out of a maximum of  122
 All quantities printed in internal units (Hartrees-Bohrs-Radians)
 RMS Force = .45868D-02 SwitMx=.10000D-02 MixMth= 1
 Mixed Optimization -- RFO/linear search
 Second derivative matrix not updated -- first step.
 ITU=  0
     Eigenvalues ---    0.00637   0.01151   0.01599   0.01765   0.02189
     Eigenvalues ---    0.02248   0.02272   0.02277   0.02288   0.02290
     Eigenvalues ---    0.02291   0.02296   0.02297   0.02304   0.02315
     Eigenvalues ---    0.02385   0.02441   0.05382   0.06682   0.09753
     Eigenvalues ---    0.13101   0.16000   0.16000   0.16000   0.16000
     Eigenvalues ---    0.16000   0.16000   0.16000   0.19117   0.22000
     Eigenvalues ---    0.22000   0.22040   0.23365   0.23478   0.24070
     Eigenvalues ---    0.24952   0.24993   0.25000   0.31377   0.34349
     Eigenvalues ---    0.34420   0.35885   0.35930   0.36013   0.36030
     Eigenvalues ---    0.36034   0.37158   0.37178   0.39468   0.42277
     Eigenvalues ---    0.43442   0.43539   0.46247   0.47702   0.47998
     Eigenvalues ---    0.48283   0.48500   0.52744   0.57752   0.60597
 RFO step:  Lambda=-5.30381931D-03 EMin= 6.37134506D-03
 Linear search not attempted -- first point.
 Iteration  1 RMS(Cart)=  0.04355866 RMS(Int)=  0.00023357
 Iteration  2 RMS(Cart)=  0.00043237 RMS(Int)=  0.00006568
 Iteration  3 RMS(Cart)=  0.00000020 RMS(Int)=  0.00006568
 ITry= 1 IFail=0 DXMaxC= 1.52D-01 DCOld= 1.00D+10 DXMaxT= 3.00D-01 DXLimC= 3.00D+00 Rises=F
 Variable       Old X    -DE/DX   Delta X   Delta X   Delta X     New X
                                 (Linear)    (Quad)   (Total)
    R1        3.55799   0.00026   0.00000   0.00132   0.00132   3.55931
    R2        2.64784   0.01088   0.00000   0.02152   0.02150   2.66934
    R3        2.60693   0.00370   0.00000   0.00524   0.00517   2.61210
    R4        2.48960   0.01699   0.00000   0.02767   0.02773   2.51732
    R5        2.02308   0.00677   0.00000   0.01797   0.01797   2.04105
    R6        2.50653   0.02095   0.00000   0.03656   0.03661   2.54315
    R7        2.72283   0.01175   0.00000   0.02938   0.02938   2.75221
    R8        2.54221   0.01507   0.00000   0.02734   0.02732   2.56953
    R9        2.85299   0.00515   0.00000   0.01614   0.01614   2.86913
   R10        2.06627  -0.00108   0.00000  -0.00310  -0.00310   2.06317
   R11        2.06746  -0.00009   0.00000  -0.00025  -0.00025   2.06721
   R12        2.62622   0.01031   0.00000   0.02137   0.02137   2.64758
   R13        2.62075   0.00956   0.00000   0.01961   0.01961   2.64036
   R14        2.61271   0.01026   0.00000   0.02086   0.02086   2.63357
   R15        2.04191   0.00409   0.00000   0.01122   0.01122   2.05313
   R16        2.61806   0.01183   0.00000   0.02445   0.02445   2.64251
   R17        2.04034   0.00430   0.00000   0.01175   0.01175   2.05209
   R18        2.61504   0.01009   0.00000   0.02077   0.02077   2.63581
   R19        2.04028   0.00432   0.00000   0.01181   0.01181   2.05209
   R20        2.61684   0.01164   0.00000   0.02388   0.02388   2.64072
   R21        2.04061   0.00427   0.00000   0.01167   0.01167   2.05228
   R22        2.04261   0.00437   0.00000   0.01199   0.01199   2.05460
   R23        2.02278   0.00602   0.00000   0.01596   0.01596   2.03875
    A1        2.23143  -0.00143   0.00000  -0.00144  -0.00139   2.23004
    A2        2.21168  -0.00168   0.00000  -0.00243  -0.00238   2.20930
    A3        1.84007   0.00311   0.00000   0.00388   0.00378   1.84385
    A4        1.91534   0.00438   0.00000   0.01674   0.01676   1.93211
    A5        2.24853  -0.00199   0.00000  -0.00718  -0.00719   2.24134
    A6        2.11931  -0.00239   0.00000  -0.00957  -0.00958   2.10973
    A7        1.86494  -0.01006   0.00000  -0.03103  -0.03088   1.83405
    A8        2.10728  -0.00340   0.00000  -0.01594  -0.01595   2.09133
    A9        1.95481   0.00380   0.00000   0.01970   0.01971   1.97452
   A10        2.21934  -0.00041   0.00000  -0.00423  -0.00426   2.21508
   A11        1.93175   0.00643   0.00000   0.03271   0.03259   1.96433
   A12        1.85496  -0.00346   0.00000  -0.02052  -0.02079   1.83417
   A13        1.91038  -0.00176   0.00000  -0.00611  -0.00634   1.90404
   A14        1.92907   0.00044   0.00000   0.01085   0.01097   1.94003
   A15        1.92910  -0.00139   0.00000  -0.00061  -0.00065   1.92845
   A16        1.90703  -0.00040   0.00000  -0.01767  -0.01784   1.88918
   A17        2.08342   0.00121   0.00000   0.00509   0.00507   2.08850
   A18        2.11526  -0.00094   0.00000  -0.00334  -0.00335   2.11190
   A19        2.08428  -0.00026   0.00000  -0.00156  -0.00157   2.08271
   A20        2.09944   0.00004   0.00000  -0.00023  -0.00023   2.09921
   A21        2.08239  -0.00020   0.00000  -0.00099  -0.00100   2.08139
   A22        2.10135   0.00016   0.00000   0.00119   0.00118   2.10253
   A23        2.09542   0.00034   0.00000   0.00175   0.00176   2.09717
   A24        2.09182  -0.00023   0.00000  -0.00123  -0.00123   2.09058
   A25        2.09595  -0.00011   0.00000  -0.00052  -0.00052   2.09543
   A26        2.09230  -0.00044   0.00000  -0.00135  -0.00135   2.09095
   A27        2.09560   0.00027   0.00000   0.00099   0.00099   2.09659
   A28        2.09529   0.00017   0.00000   0.00036   0.00036   2.09564
   A29        2.09601  -0.00051   0.00000  -0.00194  -0.00194   2.09407
   A30        2.09663   0.00016   0.00000   0.00039   0.00039   2.09702
   A31        2.09054   0.00035   0.00000   0.00155   0.00155   2.09209
   A32        2.09890   0.00083   0.00000   0.00335   0.00335   2.10225
   A33        2.09181  -0.00078   0.00000  -0.00391  -0.00391   2.08790
   A34        2.09246  -0.00004   0.00000   0.00057   0.00057   2.09303
   A35        1.84957  -0.00122   0.00000  -0.00924  -0.00935   1.84022
   A36        2.28679   0.00075   0.00000   0.00544   0.00548   2.29227
   A37        2.14683   0.00048   0.00000   0.00380   0.00383   2.15066
    D1        3.13941  -0.00004   0.00000  -0.00193  -0.00196   3.13745
    D2       -0.00011   0.00005   0.00000   0.00166   0.00165   0.00155
    D3        0.00058  -0.00015   0.00000  -0.00533  -0.00541  -0.00483
    D4       -3.13894  -0.00005   0.00000  -0.00173  -0.00179  -3.14073
    D5       -3.13382  -0.00004   0.00000  -0.00147  -0.00151  -3.13533
    D6        0.00835   0.00022   0.00000   0.00755   0.00755   0.01591
    D7        0.00505   0.00006   0.00000   0.00188   0.00188   0.00693
    D8       -3.13596   0.00032   0.00000   0.01090   0.01095  -3.12501
    D9       -0.00607   0.00020   0.00000   0.00669   0.00663   0.00056
   D10        3.13363   0.00012   0.00000   0.00340   0.00333   3.13696
   D11        3.09205  -0.00038   0.00000  -0.01346  -0.01343   3.07862
   D12        0.00966  -0.00017   0.00000  -0.00554  -0.00549   0.00418
   D13       -1.87574  -0.00012   0.00000   0.00727   0.00732  -1.86842
   D14        0.21949   0.00190   0.00000   0.02611   0.02587   0.24536
   D15        2.27699  -0.00141   0.00000  -0.00927  -0.00921   2.26778
   D16        1.19696  -0.00024   0.00000  -0.00118  -0.00104   1.19592
   D17       -2.99100   0.00178   0.00000   0.01766   0.01751  -2.97349
   D18       -0.93350  -0.00152   0.00000  -0.01772  -0.01757  -0.95107
   D19       -0.00924   0.00003   0.00000   0.00204   0.00206  -0.00718
   D20        3.13183  -0.00021   0.00000  -0.00607  -0.00607   3.12575
   D21       -3.08697   0.00036   0.00000   0.01098   0.01107  -3.07590
   D22        0.05409   0.00013   0.00000   0.00287   0.00294   0.05704
   D23        1.00656  -0.00042   0.00000  -0.01090  -0.01083   0.99572
   D24       -2.11201  -0.00062   0.00000  -0.02055  -0.02050  -2.13251
   D25       -1.04373  -0.00041   0.00000  -0.01251  -0.01265  -1.05638
   D26        2.12088  -0.00061   0.00000  -0.02217  -0.02231   2.09857
   D27        3.12601   0.00073   0.00000   0.00290   0.00298   3.12899
   D28        0.00744   0.00052   0.00000  -0.00676  -0.00669   0.00075
   D29       -3.12052  -0.00018   0.00000  -0.00805  -0.00807  -3.12859
   D30        0.01783  -0.00040   0.00000  -0.01585  -0.01586   0.00197
   D31       -0.00153   0.00001   0.00000   0.00141   0.00140  -0.00013
   D32        3.13681  -0.00021   0.00000  -0.00639  -0.00638   3.13043
   D33        3.12533   0.00016   0.00000   0.00655   0.00653   3.13186
   D34       -0.02108   0.00024   0.00000   0.00975   0.00973  -0.01135
   D35        0.00677  -0.00006   0.00000  -0.00320  -0.00319   0.00358
   D36       -3.13964   0.00002   0.00000   0.00000   0.00001  -3.13963
   D37       -0.00278   0.00003   0.00000   0.00060   0.00060  -0.00218
   D38        3.13993  -0.00003   0.00000  -0.00144  -0.00143   3.13850
   D39       -3.14108   0.00025   0.00000   0.00849   0.00848  -3.13260
   D40        0.00163   0.00019   0.00000   0.00645   0.00645   0.00808
   D41        0.00186  -0.00002   0.00000  -0.00082  -0.00082   0.00105
   D42       -3.14066  -0.00005   0.00000  -0.00171  -0.00171   3.14081
   D43       -3.14085   0.00004   0.00000   0.00122   0.00122  -3.13963
   D44       -0.00019   0.00001   0.00000   0.00033   0.00033   0.00013
   D45        0.00337  -0.00004   0.00000  -0.00098  -0.00098   0.00239
   D46        3.14030  -0.00004   0.00000  -0.00112  -0.00112   3.13918
   D47       -3.13729  -0.00000   0.00000  -0.00009  -0.00009  -3.13738
   D48       -0.00035  -0.00001   0.00000  -0.00023  -0.00023  -0.00059
   D49       -0.00772   0.00007   0.00000   0.00300   0.00299  -0.00473
   D50        3.13870  -0.00001   0.00000  -0.00019  -0.00020   3.13849
   D51        3.13852   0.00008   0.00000   0.00314   0.00314  -3.14153
   D52        0.00174  -0.00000   0.00000  -0.00005  -0.00006   0.00169
         Item               Value     Threshold  Converged?
 Maximum Force            0.020950     0.000450     NO 
 RMS     Force            0.004587     0.000300     NO 
 Maximum Displacement     0.151596     0.001800     NO 
 RMS     Displacement     0.043512     0.001200     NO 
 Predicted change in Energy=-2.694794D-03
 Lowest energy point so far.  Saving SCF results.
 GradGradGradGradGradGradGradGradGradGradGradGradGradGradGradGradGradGrad

 Leave Link  103 at Tue Sep 17 09:56:14 2024, MaxMem=  1342177280 cpu:               0.1 elap:               0.0
 (Enter /groups/ReismanLab/Software/Gaussian16_RevC/Linux_Binary_AVX2-enabled-CPU/g16/l202.exe)
                          Input orientation:                          
 ---------------------------------------------------------------------
 Center     Atomic      Atomic             Coordinates (Angstroms)
 Number     Number       Type             X           Y           Z
 ---------------------------------------------------------------------
      1         35           0        3.207710    0.668639    0.016830
      2          6           0        1.673026   -0.422940   -0.011388
      3          6           0        1.439191   -1.566544   -0.806880
      4          7           0        0.238663   -2.082635   -0.548227
      5          7           0       -0.289832   -1.283522    0.396877
      6          6           0       -1.649720   -1.515354    0.863870
      7          6           0       -2.626307   -0.470380    0.354485
      8          6           0       -2.764717   -0.264499   -1.024418
      9          6           0       -3.645920    0.702031   -1.505551
     10          6           0       -4.400072    1.471267   -0.613964
     11          6           0       -4.267181    1.269521    0.759767
     12          6           0       -3.380194    0.302878    1.241021
     13          6           0        0.533061   -0.261492    0.753508
     14          1           0        2.092342   -2.021123   -1.537163
     15          1           0       -1.910416   -2.510173    0.497309
     16          1           0       -1.652916   -1.541661    1.957468
     17          1           0       -2.170200   -0.859219   -1.712369
     18          1           0       -3.744744    0.856868   -2.575823
     19          1           0       -5.086011    2.224746   -0.989436
     20          1           0       -4.848458    1.865297    1.457341
     21          1           0       -3.275237    0.148419    2.312114
     22          1           0        0.266359    0.483949    1.486394
 ---------------------------------------------------------------------
                    Distance matrix (angstroms):
                    1          2          3          4          5
     1  Br   0.000000
     2  C    1.883506   0.000000
     3  C    2.966850   1.412556   0.000000
     4  N    4.087057   2.258357   1.332110   0.000000
     5  N    4.023453   2.181764   2.125712   1.345775   0.000000
     6  C    5.392767   3.605563   3.512178   2.425245   1.456408
     7  C    5.953750   4.315134   4.367908   3.409151   2.474290
     8  C    6.133908   4.554657   4.406301   3.542975   3.030436
     9  C    7.020755   5.638197   5.611856   4.874507   4.338776
    10  C    7.675966   6.390120   6.585021   5.844006   5.050221
    11  C    7.535715   6.224561   6.562036   5.766318   4.740150
    12  C    6.710656   5.256461   5.560136   4.689159   3.574854
    13  C    2.926019   1.382264   2.226891   2.257819   1.359737
    14  H    3.300570   2.249001   1.080076   2.101881   3.155840
    15  H    6.044082   4.178083   3.716344   2.427854   2.034957
    16  H    5.681302   4.023659   4.147694   3.185786   2.088081
    17  H    5.852042   4.225407   3.787865   2.941870   2.857400
    18  H    7.422526   6.129149   5.989597   5.349706   5.035338
    19  H    8.498227   7.324712   7.548872   6.862970   6.101897
    20  H    8.270968   7.065618   7.512574   6.744426   5.640986
    21  H    6.896924   5.496401   5.907203   5.050410   3.825079
    22  H    3.293217   2.245999   3.292288   3.275332   2.149500
                    6          7          8          9         10
     6  C    0.000000
     7  C    1.518278   0.000000
     8  C    2.524577   1.401042   0.000000
     9  C    3.809957   2.423611   1.393624   0.000000
    10  C    4.320687   2.802522   2.419864   1.398355   0.000000
    11  C    3.823280   2.425690   2.791760   2.416542   1.394811
    12  C    2.538258   1.397219   2.415149   2.788116   2.417903
    13  C    2.519699   3.191311   3.746515   4.847227   5.404464
    14  H    4.474795   5.314960   5.190344   6.351710   7.429706
    15  H    1.091785   2.166485   2.844035   4.164334   4.825472
    16  H    1.093920   2.159789   3.429124   4.582436   4.820463
    17  H    2.708952   2.152003   1.086472   2.158246   3.407343
    18  H    4.674190   3.405759   2.150529   1.085921   2.157738
    19  H    5.406588   3.888441   3.403817   2.158448   1.085920
    20  H    4.691795   3.407291   3.877774   3.402648   2.155601
    21  H    2.740047   2.153214   3.400525   3.875365   3.402516
    22  H    2.838328   3.249535   4.006467   4.930033   5.211706
                   11         12         13         14         15
    11  C    0.000000
    12  C    1.397408   0.000000
    13  C    5.038488   3.983686   0.000000
    14  H    7.519824   6.562618   3.282505   0.000000
    15  H    4.461986   3.259849   3.330584   4.516671   0.000000
    16  H    4.021394   2.626616   2.804791   5.144832   1.770985
    17  H    3.878185   3.396627   3.707486   4.421537   2.770526
    18  H    3.401380   3.874030   5.534871   6.590389   4.913845
    19  H    2.154681   3.402694   6.386956   8.358001   5.891883
    20  H    1.086022   2.154935   5.829182   8.499767   5.357098
    21  H    2.156526   1.087250   4.135264   6.952320   3.496336
    22  H    4.658121   3.659282   1.078858   4.330300   3.831632
                   16         17         18         19         20
    16  H    0.000000
    17  H    3.768424   0.000000
    18  H    5.538900   2.483888   0.000000
    19  H    5.886952   4.305280   2.487311   0.000000
    20  H    4.697763   4.964184   4.301341   2.484422   0.000000
    21  H    2.369402   4.293356   4.961277   4.300031   2.480591
    22  H    2.829951   4.239458   5.720981   6.148819   5.298144
                   21         22
    21  H    0.000000
    22  H    3.652026   0.000000
 Stoichiometry    C10H9BrN2
 Framework group  C1[X(C10H9BrN2)]
 Deg. of freedom    60
 Full point group                 C1      NOp   1
 RotChk:  IX=0 Diff= 1.62D-02
 Largest Abelian subgroup         C1      NOp   1
 Largest concise Abelian subgroup C1      NOp   1
                         Standard orientation:                         
 ---------------------------------------------------------------------
 Center     Atomic      Atomic             Coordinates (Angstroms)
 Number     Number       Type             X           Y           Z
 ---------------------------------------------------------------------
      1         35           0        3.372916   -0.846553   -0.013742
      2          6           0        1.880116    0.301630    0.014914
      3          6           0        1.689446    1.453203    0.810428
      4          7           0        0.508966    2.013799    0.552132
      5          7           0       -0.049332    1.234968   -0.392766
      6          6           0       -1.399753    1.517455   -0.859338
      7          6           0       -2.414556    0.509732   -0.349594
      8          6           0       -2.560124    0.309215    1.029362
      9          6           0       -3.476686   -0.623684    1.510819
     10          6           0       -4.259349   -1.364223    0.619508
     11          6           0       -4.119448   -1.167632   -0.754274
     12          6           0       -3.197103   -0.234836   -1.235856
     13          6           0        0.734669    0.182880   -0.749612
     14          1           0        2.359366    1.883075    1.540483
     15          1           0       -1.622964    2.521335   -0.492739
     16          1           0       -1.402313    1.543825   -1.952936
     17          1           0       -1.943572    0.881321    1.717097
     18          1           0       -3.580887   -0.774682    2.581130
     19          1           0       -4.972854   -2.091523    0.995232
     20          1           0       -4.722813   -1.741287   -1.451637
     21          1           0       -3.086787   -0.084444   -2.306988
     22          1           0        0.440055   -0.552095   -1.482379
 ---------------------------------------------------------------------
 Rotational constants (GHZ):           1.3101232           0.2466253           0.2319654
 Leave Link  202 at Tue Sep 17 09:56:14 2024, MaxMem=  1342177280 cpu:               0.0 elap:               0.0
 (Enter /groups/ReismanLab/Software/Gaussian16_RevC/Linux_Binary_AVX2-enabled-CPU/g16/l301.exe)
 Standard basis: 6-31G(d,p) (6D, 7F)
 Ernie: Thresh=  0.10000D-02 Tol=  0.10000D-05 Strict=F.
 There are   255 symmetry adapted cartesian basis functions of A   symmetry.
 There are   255 symmetry adapted basis functions of A   symmetry.
[...]
                 (A) (A) (A) (A) (A) (A) (A) (A) (A) (A) (A) (A)
                 (A) (A) (A) (A) (A) (A) (A) (A) (A) (A) (A) (A)
                 (A) (A) (A) (A) (A) (A) (A) (A) (A) (A) (A) (A)
                 (A) (A) (A) (A) (A) (A) (A) (A) (A) (A) (A) (A)
                 (A) (A) (A) (A) (A) (A) (A) (A) (A) (A) (A) (A)
                 (A) (A) (A) (A) (A) (A) (A) (A) (A) (A) (A) (A)
                 (A) (A) (A) (A) (A) (A) (A) (A) (A) (A) (A) (A)
                 (A) (A) (A) (A) (A) (A) (A) (A) (A) (A) (A) (A)
                 (A) (A) (A) (A) (A) (A) (A) (A) (A) (A) (A) (A)
                 (A) (A) (A) (A) (A) (A) (A) (A) (A) (A) (A) (A)
                 (A) (A) (A) (A) (A) (A) (A) (A) (A) (A) (A) (A)
                 (A) (A) (A) (A) (A) (A) (A) (A) (A) (A) (A) (A)
                 (A) (A) (A) (A) (A) (A) (A) (A) (A) (A) (A) (A)
                 (A) (A) (A) (A) (A) (A) (A) (A) (A) (A) (A) (A)
                 (A) (A) (A) (A) (A) (A) (A) (A) (A) (A) (A) (A)
                 (A) (A) (A) (A) (A) (A) (A) (A) (A) (A) (A) (A)
                 (A) (A) (A) (A) (A) (A) (A) (A) (A) (A) (A) (A)
                 (A) (A) (A) (A) (A) (A) (A) (A) (A) (A) (A) (A)
                 (A) (A) (A) (A) (A) (A) (A)
 The electronic state is 1-A.
 Alpha  occ. eigenvalues -- -485.37910 -63.36380 -57.18334 -57.18085 -57.18082
 Alpha  occ. eigenvalues --  -14.83818 -14.78201 -10.59187 -10.58888 -10.58675
 Alpha  occ. eigenvalues --  -10.56896 -10.55866 -10.54844 -10.54691 -10.54623
 Alpha  occ. eigenvalues --  -10.54517 -10.54469  -9.03033  -6.85472  -6.84544
 Alpha  occ. eigenvalues --   -6.84534  -2.88851  -2.88503  -2.88500  -2.87631
 Alpha  occ. eigenvalues --   -2.87630  -1.17492  -0.97783  -0.94921  -0.92249
 Alpha  occ. eigenvalues --   -0.87302  -0.84684  -0.84062  -0.77902  -0.69560
 Alpha  occ. eigenvalues --   -0.68482  -0.67732  -0.65495  -0.60843  -0.59249
 Alpha  occ. eigenvalues --   -0.55260  -0.52927  -0.52624  -0.51693  -0.49142
 Alpha  occ. eigenvalues --   -0.48726  -0.48000  -0.47157  -0.46320  -0.43607
 Alpha  occ. eigenvalues --   -0.41298  -0.40404  -0.38956  -0.38479  -0.34805
 Alpha  occ. eigenvalues --   -0.32584  -0.31358  -0.30537  -0.29253
 Alpha virt. eigenvalues --    0.01025   0.01541   0.03489   0.04812   0.07694
 Alpha virt. eigenvalues --    0.08120   0.09333   0.10881   0.11664   0.12331
 Alpha virt. eigenvalues --    0.12613   0.13618   0.13811   0.14782   0.15523
 Alpha virt. eigenvalues --    0.16088   0.16958   0.18410   0.18738   0.20352
 Alpha virt. eigenvalues --    0.21490   0.22622   0.22908   0.23848   0.24341
 Alpha virt. eigenvalues --    0.24855   0.25669   0.26611   0.27151   0.27437
 Alpha virt. eigenvalues --    0.28010   0.28693   0.29339   0.29715   0.29955
 Alpha virt. eigenvalues --    0.30946   0.31372   0.33024   0.33844   0.34578
 Alpha virt. eigenvalues --    0.34809   0.35830   0.36673   0.37199   0.37745
 Alpha virt. eigenvalues --    0.38819   0.38962   0.39461   0.39848   0.40824
 Alpha virt. eigenvalues --    0.41507   0.42257   0.43215   0.44036   0.44171
 Alpha virt. eigenvalues --    0.44865   0.46015   0.46647   0.46995   0.47796
 Alpha virt. eigenvalues --    0.48161   0.49111   0.49682   0.50276   0.51499
 Alpha virt. eigenvalues --    0.52147   0.52933   0.53356   0.54063   0.55918
 Alpha virt. eigenvalues --    0.56486   0.57451   0.58118   0.58590   0.60524
 Alpha virt. eigenvalues --    0.62505   0.62758   0.64060   0.66315   0.67950
 Alpha virt. eigenvalues --    0.68279   0.68921   0.69034   0.69847   0.71396
 Alpha virt. eigenvalues --    0.71758   0.73263   0.73546   0.74754   0.75506
 Alpha virt. eigenvalues --    0.77272   0.78033   0.78734   0.79317   0.80975
 Alpha virt. eigenvalues --    0.82980   0.84374   0.85930   0.86591   0.87713
 Alpha virt. eigenvalues --    0.88765   0.91075   0.92054   0.93096   0.93951
 Alpha virt. eigenvalues --    0.97077   0.97516   0.98919   1.00494   1.01199
 Alpha virt. eigenvalues --    1.02087   1.03864   1.04749   1.06349   1.06495
 Alpha virt. eigenvalues --    1.08290   1.11010   1.11471   1.12152   1.13236
 Alpha virt. eigenvalues --    1.14479   1.15787   1.17920   1.19551   1.21843
 Alpha virt. eigenvalues --    1.22601   1.22992   1.24650   1.24968   1.26059
 Alpha virt. eigenvalues --    1.27188   1.29135   1.29468   1.30388   1.32050
 Alpha virt. eigenvalues --    1.32823   1.33635   1.35196   1.35745   1.38949
 Alpha virt. eigenvalues --    1.39652   1.41430   1.41938   1.43421   1.44441
 Alpha virt. eigenvalues --    1.46919   1.48026   1.48652   1.49568   1.49947
 Alpha virt. eigenvalues --    1.50942   1.52984   1.54261   1.55237   1.55473
 Alpha virt. eigenvalues --    1.56550   1.57584   1.57996   1.58671   1.58865
 Alpha virt. eigenvalues --    1.59248   1.60658   1.61634   1.62967   1.64217
 Alpha virt. eigenvalues --    1.65543   1.66118   1.67162   1.67634   1.70122
 Alpha virt. eigenvalues --    1.70734   1.71823   1.72831   1.73046   1.74077
 Alpha virt. eigenvalues --    1.74579   1.75672   1.77045   1.77316   1.78202
 Alpha virt. eigenvalues --    1.78991   1.79974   1.82153   1.83519   1.84962
 Alpha virt. eigenvalues --    1.88111   1.88673   1.90528   1.91008   1.93284
 Alpha virt. eigenvalues --    1.95248   1.97575   1.98858   2.00470   2.02097
 Alpha virt. eigenvalues --    2.04395   2.06012   2.06791   2.08775   2.10093
 Alpha virt. eigenvalues --    2.11504   2.13926   2.15050   2.17455   2.18350
 Alpha virt. eigenvalues --    2.18973   2.19712   2.23227   2.24131   2.24624
 Alpha virt. eigenvalues --    2.25945   2.28327   2.29066   2.30542   2.34057
 Alpha virt. eigenvalues --    2.37119   2.38688   2.40675   2.41575   2.45162
 Alpha virt. eigenvalues --    2.45657   2.46134   2.49446   2.50292   2.51682
 Alpha virt. eigenvalues --    2.53698   2.54898   2.55606   2.58083   2.61261
 Alpha virt. eigenvalues --    2.61955   2.63026   2.64558   2.65391   2.66419
 Alpha virt. eigenvalues --    2.66822   2.67141   2.68740   2.69501   2.70767
 Alpha virt. eigenvalues --    2.71314   2.71599   2.72376   2.73894   2.74557
 Alpha virt. eigenvalues --    2.77450   2.78265   2.79203   2.79416   2.80127
 Alpha virt. eigenvalues --    2.80937   2.82742   2.83427   2.84377   2.85987
 Alpha virt. eigenvalues --    2.86400   2.88867   2.90362   2.90972   2.93007
 Alpha virt. eigenvalues --    2.95727   2.97583   2.98624   2.99270   3.00384
 Alpha virt. eigenvalues --    3.01344   3.01753   3.03180   3.06790   3.06941
 Alpha virt. eigenvalues --    3.09789   3.10733   3.12166   3.12931   3.13393
 Alpha virt. eigenvalues --    3.14142   3.14545   3.16076   3.17730   3.19090
 Alpha virt. eigenvalues --    3.19804   3.21625   3.22528   3.22728   3.23706
 Alpha virt. eigenvalues --    3.26005   3.26962   3.27810   3.29112   3.30356
 Alpha virt. eigenvalues --    3.30721   3.31030   3.33665   3.34116   3.34598
 Alpha virt. eigenvalues --    3.35446   3.37183   3.37886   3.39839   3.39981
 Alpha virt. eigenvalues --    3.41121   3.42136   3.43870   3.44955   3.45167
 Alpha virt. eigenvalues --    3.47065   3.47357   3.49497   3.51430   3.51898
 Alpha virt. eigenvalues --    3.54095   3.54860   3.57782   3.59518   3.62393
 Alpha virt. eigenvalues --    3.63555   3.64596   3.67513   3.68834   3.69479
 Alpha virt. eigenvalues --    3.73477   3.77019   3.78423   3.80150   3.84802
 Alpha virt. eigenvalues --    3.85333   3.86821   3.88422   3.90175   3.92511
 Alpha virt. eigenvalues --    3.94837   3.97273   4.01048   4.02793   4.04662
 Alpha virt. eigenvalues --    4.05252   4.06547   4.07939   4.09371   4.10978
 Alpha virt. eigenvalues --    4.11839   4.13282   4.15896   4.16233   4.17579
 Alpha virt. eigenvalues --    4.17830   4.18974   4.20131   4.21386   4.21648
 Alpha virt. eigenvalues --    4.23157   4.26168   4.26894   4.28121   4.29821
 Alpha virt. eigenvalues --    4.34701   4.36682   4.38941   4.43790   4.45567
 Alpha virt. eigenvalues --    4.49175   4.51997   4.58848   4.59347   4.61496
 Alpha virt. eigenvalues --    4.62425   4.64519   4.65690   4.72762   4.73890
 Alpha virt. eigenvalues --    4.76170   4.78433   4.82183   4.82975   4.83960
 Alpha virt. eigenvalues --    4.84945   4.91724   4.92052   4.96167   5.00149
 Alpha virt. eigenvalues --    5.02251   5.08410   5.12849   5.14854   5.15876
 Alpha virt. eigenvalues --    5.18497   5.20390   5.22774   5.28511   5.29923
 Alpha virt. eigenvalues --    5.31492   5.36097   5.38831   5.49270   5.54041
 Alpha virt. eigenvalues --    5.57337   5.60146   5.68378   5.80981   6.04236
 Alpha virt. eigenvalues --    6.13329   6.91501   7.88822  22.11697  22.63364
 Alpha virt. eigenvalues --   22.64128  22.69090  22.75959  22.81160  22.81820
 Alpha virt. eigenvalues --   22.89334  22.95069  23.28696  32.29906  32.90371
          Condensed to atoms (all electrons):
               1          2          3          4          5          6
     1  Br  34.877191   0.356835  -0.071790   0.008167   0.007492  -0.000700
     2  C    0.356835   5.020020   0.447786  -0.032930  -0.100210   0.006508
     3  C   -0.071790   0.447786   4.953431   0.478583  -0.123928   0.002079
     4  N    0.008167  -0.032930   0.478583   6.781185   0.230437  -0.037694
     5  N    0.007492  -0.100210  -0.123928   0.230437   6.363767   0.242787
     6  C   -0.000700   0.006508   0.002079  -0.037694   0.242787   5.185746
     7  C    0.000162  -0.005121   0.005875  -0.027693  -0.045377   0.191757
     8  C    0.000057  -0.001692  -0.000267   0.007119   0.006532  -0.055529
     9  C   -0.000003  -0.000070   0.000109  -0.000058   0.002358   0.004124
    10  C    0.000002   0.000000  -0.000037   0.000266  -0.000162  -0.001095
    11  C   -0.000002  -0.000014   0.000042  -0.000228  -0.000562   0.007041
    12  C    0.000019   0.000304  -0.000532   0.000734   0.005531  -0.048642
    13  C   -0.082827   0.470518  -0.046877  -0.120605   0.403421  -0.064815
    14  H    0.000217  -0.052370   0.427100  -0.032165   0.005891  -0.000333
    15  H    0.000017  -0.000424   0.000550   0.001111  -0.036538   0.409028
    16  H   -0.000038   0.001355  -0.001229   0.005349  -0.028221   0.457842
    17  H    0.000014  -0.000369  -0.000779   0.013051  -0.003083   0.002850
    18  H   -0.000000   0.000005  -0.000001  -0.000071   0.000072  -0.000311
    19  H    0.000000   0.000000  -0.000000   0.000001  -0.000002   0.000094
    20  H   -0.000000  -0.000000   0.000000  -0.000001   0.000011  -0.000294
    21  H    0.000001  -0.000023  -0.000008   0.000008   0.000246  -0.004803
    22  H   -0.000685  -0.025162   0.006616   0.003274  -0.028076   0.003425
               7          8          9         10         11         12
     1  Br   0.000162   0.000057  -0.000003   0.000002  -0.000002   0.000019
     2  C   -0.005121  -0.001692  -0.000070   0.000000  -0.000014   0.000304
     3  C    0.005875  -0.000267   0.000109  -0.000037   0.000042  -0.000532
     4  N   -0.027693   0.007119  -0.000058   0.000266  -0.000228   0.000734
     5  N   -0.045377   0.006532   0.002358  -0.000162  -0.000562   0.005531
     6  C    0.191757  -0.055529   0.004124  -0.001095   0.007041  -0.048642
     7  C    5.224798   0.398874  -0.047016  -0.057339  -0.050951   0.484180
     8  C    0.398874   5.090131   0.491352  -0.023978  -0.057752  -0.039958
     9  C   -0.047016   0.491352   4.934441   0.488542  -0.039105  -0.045632
    10  C   -0.057339  -0.023978   0.488542   4.943892   0.502553  -0.032991
    11  C   -0.050951  -0.057752  -0.039105   0.502553   4.928144   0.501287
    12  C    0.484180  -0.039958  -0.045632  -0.032991   0.501287   5.008169
    13  C    0.023726  -0.009943   0.000654  -0.000656   0.000694  -0.001780
    14  H    0.000124   0.000046   0.000003  -0.000001   0.000001  -0.000005
    15  H   -0.033246  -0.008820  -0.000856   0.000317  -0.000680   0.003623
    16  H   -0.096885   0.013056  -0.000553   0.000323   0.000069  -0.001008
    17  H   -0.039956   0.398318  -0.018348   0.004311  -0.001188   0.004616
    18  H    0.005902  -0.032805   0.414128  -0.034407   0.004375  -0.000344
    19  H    0.000516   0.004256  -0.033250   0.413120  -0.032791   0.003709
    20  H    0.006732  -0.001366   0.005237  -0.034121   0.417004  -0.037408
    21  H   -0.037870   0.008420  -0.001107   0.003629  -0.024328   0.403739
    22  H    0.002224  -0.000923  -0.000026  -0.000081   0.000073   0.000347
              13         14         15         16         17         18
     1  Br  -0.082827   0.000217   0.000017  -0.000038   0.000014  -0.000000
     2  C    0.470518  -0.052370  -0.000424   0.001355  -0.000369   0.000005
     3  C   -0.046877   0.427100   0.000550  -0.001229  -0.000779  -0.000001
     4  N   -0.120605  -0.032165   0.001111   0.005349   0.013051  -0.000071
     5  N    0.403421   0.005891  -0.036538  -0.028221  -0.003083   0.000072
     6  C   -0.064815  -0.000333   0.409028   0.457842   0.002850  -0.000311
     7  C    0.023726   0.000124  -0.033246  -0.096885  -0.039956   0.005902
     8  C   -0.009943   0.000046  -0.008820   0.013056   0.398318  -0.032805
     9  C    0.000654   0.000003  -0.000856  -0.000553  -0.018348   0.414128
    10  C   -0.000656  -0.000001   0.000317   0.000323   0.004311  -0.034407
    11  C    0.000694   0.000001  -0.000680   0.000069  -0.001188   0.004375
    12  C   -0.001780  -0.000005   0.003623  -0.001008   0.004616  -0.000344
    13  C    5.107929   0.010529   0.007147  -0.009775   0.000196   0.000061
    14  H    0.010529   0.462582  -0.000078   0.000001  -0.000187   0.000001
    15  H    0.007147  -0.000078   0.475794  -0.017019   0.000984  -0.000001
    16  H   -0.009775   0.000001  -0.017019   0.487194   0.000087   0.000004
    17  H    0.000196  -0.000187   0.000984   0.000087   0.455622  -0.003268
    18  H    0.000061   0.000001  -0.000001   0.000004  -0.003268   0.486623
    19  H   -0.000004  -0.000000  -0.000002  -0.000001  -0.000176  -0.003605
    20  H    0.000009   0.000000   0.000008  -0.000052   0.000036  -0.000202
    21  H    0.000088  -0.000000   0.000504   0.002515  -0.000145   0.000059
    22  H    0.405882   0.000001   0.000204  -0.001663  -0.000172   0.000003
              19         20         21         22
     1  Br   0.000000  -0.000000   0.000001  -0.000685
     2  C    0.000000  -0.000000  -0.000023  -0.025162
     3  C   -0.000000   0.000000  -0.000008   0.006616
     4  N    0.000001  -0.000001   0.000008   0.003274
     5  N   -0.000002   0.000011   0.000246  -0.028076
     6  C    0.000094  -0.000294  -0.004803   0.003425
     7  C    0.000516   0.006732  -0.037870   0.002224
     8  C    0.004256  -0.001366   0.008420  -0.000923
     9  C   -0.033250   0.005237  -0.001107  -0.000026
    10  C    0.413120  -0.034121   0.003629  -0.000081
    11  C   -0.032791   0.417004  -0.024328   0.000073
    12  C    0.003709  -0.037408   0.403739   0.000347
    13  C   -0.000004   0.000009   0.000088   0.405882
    14  H   -0.000000   0.000000  -0.000000   0.000001
    15  H   -0.000002   0.000008   0.000504   0.000204
    16  H   -0.000001  -0.000052   0.002515  -0.001663
    17  H   -0.000176   0.000036  -0.000145  -0.000172
    18  H   -0.003605  -0.000202   0.000059   0.000003
    19  H    0.488825  -0.003671  -0.000235  -0.000000
    20  H   -0.003671   0.489294  -0.003358   0.000000
    21  H   -0.000235  -0.003358   0.489517   0.000095
    22  H   -0.000000   0.000000   0.000095   0.434243
 Mulliken charges:
               1
     1  Br  -0.094127
     2  C   -0.084949
     3  C   -0.076723
     4  N   -0.277839
     5  N    0.097614
     6  C   -0.299064
     7  C    0.096585
     8  C   -0.185128
     9  C   -0.154924
    10  C   -0.172087
    11  C   -0.153683
    12  C   -0.207958
    13  C   -0.093571
    14  H    0.178643
    15  H    0.198377
    16  H    0.188648
    17  H    0.187586
    18  H    0.163780
    19  H    0.163217
    20  H    0.162144
    21  H    0.163055
    22  H    0.200403
 Sum of Mulliken charges =  -0.00000
 Mulliken charges with hydrogens summed into heavy atoms:
               1
     1  Br  -0.094127
     2  C   -0.084949
     3  C    0.101920
     4  N   -0.277839
     5  N    0.097614
     6  C    0.087961
     7  C    0.096585
     8  C    0.002458
     9  C    0.008856
    10  C   -0.008870
    11  C    0.008462
    12  C   -0.044903
    13  C    0.106831
 Electronic spatial extent (au):  <R**2>=           4396.3896
 Charge=             -0.0000 electrons
 Dipole moment (field-independent basis, Debye):
    X=             -2.6699    Y=             -0.4458    Z=             -1.7329  Tot=              3.2141
 Quadrupole moment (field-independent basis, Debye-Ang):
   XX=            -86.6817   YY=            -90.8219   ZZ=            -81.3966
   XY=              3.2192   XZ=              4.2002   YZ=             -3.1179
 Traceless Quadrupole moment (field-independent basis, Debye-Ang):
   XX=             -0.3816   YY=             -4.5218   ZZ=              4.9035
   XY=              3.2192   XZ=              4.2002   YZ=             -3.1179
 Octapole moment (field-independent basis, Debye-Ang**2):
  XXX=             84.6893  YYY=            -28.9105  ZZZ=             -6.5849  XYY=             28.5839
  XXY=            -32.0255  XXZ=             -3.9682  XZZ=             25.1152  YZZ=             -8.9830
  YYZ=             -5.9969  XYZ=             12.2854
 Hexadecapole moment (field-independent basis, Debye-Ang**3):
 XXXX=          -4172.2027 YYYY=           -698.5411 ZZZZ=           -435.4313 XXXY=             52.4097
 XXXZ=             51.5265 YYYX=            -99.5606 YYYZ=            -17.2489 ZZZX=              4.8971
 ZZZY=             -6.9567 XXYY=           -763.5493 XXZZ=           -731.7409 YYZZ=           -188.4905
 XXYZ=             -3.0218 YYXZ=             -3.6373 ZZXY=             -8.2781
 N-N= 9.705973373921D+02 E-N=-9.245448004250D+03  KE= 3.064112698909D+03
 Calculating spin-rotation constants.
 Leave Link  601 at Tue Sep 17 11:09:04 2024, MaxMem=  1342177280 cpu:               5.0 elap:               5.0
 (Enter /groups/ReismanLab/Software/Gaussian16_RevC/Linux_Binary_AVX2-enabled-CPU/g16/l9999.exe)
 Unable to Open any file for archive entry.
 1\1\GINC-HPC-53-11\SP\RM062X\def2TZVP\C10H9Br1N2\MANTIND\17-Sep-2024\0
 \\#p M062X/def2tzvp geom=check guess=read scf(xqc,tight) integral(grid
 =ultrafine) scrf(SMD, solvent=1,4-Dioxane) nmr=giao\\spe\\0,1\Br,0,3.2
 623659683,0.5540496242,-0.1232823198\C,0,1.6833003469,-0.4702088329,-0
 .0827531994\C,0,1.3565718152,-1.5761053913,-0.8931038814\N,0,0.1541384
 415,-2.0559035073,-0.5732918197\N,0,-0.280480598,-1.2719415547,0.44135
 35852\C,0,-1.6325354048,-1.4446602097,0.9541800094\C,0,-2.6052082652,-
 0.4268363269,0.3959303055\C,0,-2.6447665868,-0.173794201,-0.9803180116
 \C,0,-3.5481155961,0.7519293064,-1.496164735\C,0,-4.4229765471,1.43098
 41083,-0.6443880031\C,0,-4.3872866526,1.1820106921,0.7265711996\C,0,-3
 .4773517564,0.2583762308,1.2440868602\C,0,0.6047330556,-0.2932001403,0
 .7623459586\H,0,1.9456030936,-2.0321624795,-1.6751085859\H,0,-1.918046
 6868,-2.4622445192,0.676173152\H,0,-1.603058699,-1.38832617,2.04620134
 59\H,0,-1.9598066263,-0.7018466683,-1.6367151041\H,0,-3.5708581559,0.9
 447804503,-2.5643357607\H,0,-5.1260153741,2.152589393,-1.0487787916\H,
 0,-5.0600949539,1.7102287761,1.3951415362\H,0,-3.445248497,0.070488656
 9,2.3142973128\H,0,0.4135650453,0.4358687206,1.5337236143\\Version=ES6
 4L-G16RevC.02\State=1-A\HF=-3070.1397867\RMSD=2.247e-09\Dipole=-1.0190
 21,0.3279492,0.6730673\Quadrupole=-0.7105232,-3.5992999,4.309823,-3.02
 56839,-2.6632853,-0.9619552\PG=C01 [X(C10H9Br1N2)]\\@
 The archive entry for this job was punched.


 HE WHO LOVES TO READ, AND KNOWS HOW TO REFLECT,
 HAS LAID BY A PERPETUAL FEAST FOR HIS OLD AGE.
 -- UNCLE ESEK, "SCRIBNER'S MONTHLY", SEPT. 1880
 Job cpu time:       0 days  0 hours 17 minutes 21.7 seconds.
 Elapsed time:       0 days  0 hours 17 minutes 25.1 seconds.
 File lengths (MBytes):  RWF=    312 Int=      0 D2E=      0 Chk=     32 Scr=     16
 Normal termination of Gaussian 16 at Tue Sep 17 11:09:04 2024.
