 Entering Gaussian System, Link 0=g16
 Input=smiles_00069_conf_1.gjf
 Output=smiles_00069_conf_1.log
 Initial command:
 /groups/ReismanLab/Software/Gaussian16_RevC/Linux_Binary_AVX2-enabled-CPU/g16/l1.exe "/central/groups/ReismanLab/DM/dft_final/smiles_00069/Gau-807679.inp" -scrdir="/central/groups/ReismanLab/DM/dft_final/smiles_00069/"
 Entering Link 1 = /groups/ReismanLab/Software/Gaussian16_RevC/Linux_Binary_AVX2-enabled-CPU/g16/l1.exe PID=    807680.
  
 Copyright (c) 1988-2021, Gaussian, Inc.  All Rights Reserved.
  
 This is part of the Gaussian(R) 16 program.  It is based on
 the Gaussian(R) 09 system (copyright 2009, Gaussian, Inc.),
 the Gaussian(R) 03 system (copyright 2003, Gaussian, Inc.),
 the Gaussian(R) 98 system (copyright 1998, Gaussian, Inc.),
 the Gaussian(R) 94 system (copyright 1995, Gaussian, Inc.),
 the Gaussian 92(TM) system (copyright 1992, Gaussian, Inc.),
 the Gaussian 90(TM) system (copyright 1990, Gaussian, Inc.),
 the Gaussian 88(TM) system (copyright 1988, Gaussian, Inc.),
 the Gaussian 86(TM) system (copyright 1986, Carnegie Mellon
 University), and the Gaussian 82(TM) system (copyright 1983,
 Carnegie Mellon University). Gaussian is a federally registered
 trademark of Gaussian, Inc.
  
 This software contains proprietary and confidential information,
 including trade secrets, belonging to Gaussian, Inc.
  
 This software is provided under written license and may be
 used, copied, transmitted, or stored only in accord with that
 written license.
  
 The following legend is applicable only to US Government
 contracts under FAR:
  
                    RESTRICTED RIGHTS LEGEND
  
 Use, reproduction and disclosure by the US Government is
 subject to restrictions as set forth in subparagraphs (a)
 and (c) of the Commercial Computer Software - Restricted
 Rights clause in FAR 52.227-19.
  
 Gaussian, Inc.
 340 Quinnipiac St., Bldg. 40, Wallingford CT 06492
  
  
 ---------------------------------------------------------------
 Warning -- This program may not be used in any manner that
 competes with the business of Gaussian, Inc. or will provide
 assistance to any competitor of Gaussian, Inc.  The licensee
 of this program is prohibited from giving any competitor of
 Gaussian, Inc. access to this program.  By using this program,
 the user acknowledges that Gaussian, Inc. is engaged in the
 business of creating and licensing software in the field of
 computational chemistry and represents and warrants to the
 licensee that it is not a competitor of Gaussian, Inc. and that
 it will not use this program in any manner prohibited above.
 ---------------------------------------------------------------
  

 Cite this work as:
 Gaussian 16, Revision C.02,
 M. J. Frisch, G. W. Trucks, H. B. Schlegel, G. E. Scuseria, 
 M. A. Robb, J. R. Cheeseman, G. Scalmani, V. Barone, 
 G. A. Petersson, H. Nakatsuji, X. Li, M. Caricato, A. V. Marenich, 
 J. Bloino, B. G. Janesko, R. Gomperts, B. Mennucci, H. P. Hratchian, 
 J. V. Ortiz, A. F. Izmaylov, J. L. Sonnenberg, D. Williams-Young, 
 F. Ding, F. Lipparini, F. Egidi, J. Goings, B. Peng, A. Petrone, 
 T. Henderson, D. Ranasinghe, V. G. Zakrzewski, J. Gao, N. Rega, 
 G. Zheng, W. Liang, M. Hada, M. Ehara, K. Toyota, R. Fukuda, 
 J. Hasegawa, M. Ishida, T. Nakajima, Y. Honda, O. Kitao, H. Nakai, 
 T. Vreven, K. Throssell, J. A. Montgomery, Jr., J. E. Peralta, 
 F. Ogliaro, M. J. Bearpark, J. J. Heyd, E. N. Brothers, K. N. Kudin, 
 V. N. Staroverov, T. A. Keith, R. Kobayashi, J. Normand, 
 K. Raghavachari, A. P. Rendell, J. C. Burant, S. S. Iyengar, 
 J. Tomasi, M. Cossi, J. M. Millam, M. Klene, C. Adamo, R. Cammi, 
 J. W. Ochterski, R. L. Martin, K. Morokuma, O. Farkas, 
 J. B. Foresman, and D. J. Fox, Gaussian, Inc., Wallingford CT, 2019.
 
 ******************************************
 Gaussian 16:  ES64L-G16RevC.02  7-Dec-2021
                17-Sep-2024 
 ******************************************
 %nprocshared=8
 Will use up to    8 processors via shared memory.
 %Mem=10GB
 %Chk=smiles_00069_conf_1.chk
 ----------------------------------------------------------------------
 #p B3LYP/6-31G(d,p) EmpiricalDispersion=GD3BJ opt freq scf(xqc,tight) 
 integral(grid=ultrafine)
 ----------------------------------------------------------------------
 1/18=20,19=15,26=4,38=1/1,3;
 2/9=110,12=2,17=6,18=5,40=1/2;
 3/5=1,6=6,7=101,11=2,25=1,30=1,71=1,74=-5,75=-5,124=41/1,2,3;
 4//1;
 5/5=2,8=3,13=1,32=2,38=5/2,8;
 6/7=2,8=2,9=2,10=2,28=1/1;
 7//1,2,3,16;
 1/18=20,19=15,26=4/3(2);
 2/9=110/2;
 99//99;
 2/9=110/2;
 3/5=1,6=6,7=101,11=2,25=1,30=1,71=1,74=-5,75=-5,124=41/1,2,3;
 4/5=5,16=3,69=1/1;
 5/5=2,8=3,13=1,32=2,38=5/2,8;
 7//1,2,3,16;
 1/18=20,19=15,26=4/3(-5);
 2/9=110/2;
 6/7=2,8=2,9=2,10=2,19=2,28=1/1;
 99/9=1/99;
 Leave Link    1 at Tue Sep 17 09:53:27 2024, MaxMem=  1342177280 cpu:               0.1 elap:              11.1
 (Enter /groups/ReismanLab/Software/Gaussian16_RevC/Linux_Binary_AVX2-enabled-CPU/g16/l101.exe)
 ----------------------------------
 opt-freq conformers_unique/conf_ab
 ----------------------------------
 Symbolic Z-matrix:
 Charge =  0 Multiplicity = 1
 C                     3.99562   2.90942  -0.0428 
 C                     4.27777   1.4341    0.17175 
 O                     3.45526   0.67817  -0.72258 
 C                     3.19604  -0.58583  -0.39501 
 O                     3.62532  -1.13976   0.58052 
 C                     2.23571  -1.20979  -1.39495 
 C                     0.8471   -0.89636  -0.90726 
 C                     0.23356   0.29993  -1.26008 
 C                    -1.0259    0.6152   -0.78455 
 C                    -1.66982  -0.2755    0.0571 
 Br                   -3.40808   0.14935   0.71408 
 C                    -1.07401  -1.46763   0.43032 
 C                     0.18597  -1.77036  -0.05296 
 H                     2.95296   3.12826   0.1721 
 H                     4.20419   3.18419  -1.07318 
 H                     4.62501   3.49984   0.61648 
 H                     4.05558   1.12594   1.19891 
 H                     5.32635   1.19765  -0.04046 
 H                     2.40833  -0.77216  -2.37704 
 H                     2.40444  -2.28551  -1.41707 
 H                     0.7464    0.99211  -1.91102 
 H                    -1.50281   1.54242  -1.06289 
 H                    -1.58695  -2.14913   1.09125 
 H                     0.6612   -2.69383   0.24088 
 
 ITRead=  0  0  0  0  0  0  0  0  0  0  0  0  0  0  0  0  0  0  0  0
 ITRead=  0  0  0  0
 MicOpt= -1 -1 -1 -1 -1 -1 -1 -1 -1 -1 -1 -1 -1 -1 -1 -1 -1 -1 -1 -1
 MicOpt= -1 -1 -1 -1
 NAtoms=     24 NQM=       24 NQMF=       0 NMMI=      0 NMMIF=      0
                NMic=       0 NMicF=      0.
                    Isotopes and Nuclear Properties:
 (Nuclear quadrupole moments (NQMom) in fm**2, nuclear magnetic moments (NMagM)
  in nuclear magnetons)

  Atom         1           2           3           4           5           6           7           8           9          10
 IAtWgt=          12          12          16          12          16          12          12          12          12          12
 AtmWgt=  12.0000000  12.0000000  15.9949146  12.0000000  15.9949146  12.0000000  12.0000000  12.0000000  12.0000000  12.0000000
 NucSpn=           0           0           0           0           0           0           0           0           0           0
 AtZEff=  -0.0000000  -0.0000000  -0.0000000  -0.0000000  -0.0000000  -0.0000000  -0.0000000  -0.0000000  -0.0000000  -0.0000000
 NQMom=    0.0000000   0.0000000   0.0000000   0.0000000   0.0000000   0.0000000   0.0000000   0.0000000   0.0000000   0.0000000
 NMagM=    0.0000000   0.0000000   0.0000000   0.0000000   0.0000000   0.0000000   0.0000000   0.0000000   0.0000000   0.0000000
 AtZNuc=   6.0000000   6.0000000   8.0000000   6.0000000   8.0000000   6.0000000   6.0000000   6.0000000   6.0000000   6.0000000

  Atom        11          12          13          14          15          16          17          18          19          20
 IAtWgt=          79          12          12           1           1           1           1           1           1           1
 AtmWgt=  78.9183361  12.0000000  12.0000000   1.0078250   1.0078250   1.0078250   1.0078250   1.0078250   1.0078250   1.0078250
 NucSpn=           3           0           0           1           1           1           1           1           1           1
 AtZEff=  -0.0000000  -0.0000000  -0.0000000  -0.0000000  -0.0000000  -0.0000000  -0.0000000  -0.0000000  -0.0000000  -0.0000000
 NQMom=   31.3000000   0.0000000   0.0000000   0.0000000   0.0000000   0.0000000   0.0000000   0.0000000   0.0000000   0.0000000
 NMagM=    2.1063990   0.0000000   0.0000000   2.7928460   2.7928460   2.7928460   2.7928460   2.7928460   2.7928460   2.7928460
 AtZNuc=  35.0000000   6.0000000   6.0000000   1.0000000   1.0000000   1.0000000   1.0000000   1.0000000   1.0000000   1.0000000

  Atom        21          22          23          24
 IAtWgt=           1           1           1           1
 AtmWgt=   1.0078250   1.0078250   1.0078250   1.0078250
 NucSpn=           1           1           1           1
 AtZEff=  -0.0000000  -0.0000000  -0.0000000  -0.0000000
 NQMom=    0.0000000   0.0000000   0.0000000   0.0000000
 NMagM=    2.7928460   2.7928460   2.7928460   2.7928460
 AtZNuc=   1.0000000   1.0000000   1.0000000   1.0000000
 Leave Link  101 at Tue Sep 17 09:53:27 2024, MaxMem=  1342177280 cpu:               0.3 elap:               0.4
 (Enter /groups/ReismanLab/Software/Gaussian16_RevC/Linux_Binary_AVX2-enabled-CPU/g16/l103.exe)

 GradGradGradGradGradGradGradGradGradGradGradGradGradGradGradGradGradGrad
 Berny optimization.
 Initialization pass.
                           ----------------------------
                           !    Initial Parameters    !
                           ! (Angstroms and Degrees)  !
 --------------------------                            --------------------------
 ! Name  Definition              Value          Derivative Info.                !
 --------------------------------------------------------------------------------
 ! R1    R(1,2)                  1.5173         estimate D2E/DX2                !
 ! R2    R(1,14)                 1.0868         estimate D2E/DX2                !
 ! R3    R(1,15)                 1.0866         estimate D2E/DX2                !
 ! R4    R(1,16)                 1.086          estimate D2E/DX2                !
 ! R5    R(2,3)                  1.431          estimate D2E/DX2                !
 ! R6    R(2,17)                 1.0952         estimate D2E/DX2                !
 ! R7    R(2,18)                 1.0957         estimate D2E/DX2                !
 ! R8    R(3,4)                  1.3312         estimate D2E/DX2                !
 ! R9    R(4,5)                  1.2012         estimate D2E/DX2                !
 ! R10   R(4,6)                  1.5203         estimate D2E/DX2                !
 ! R11   R(6,7)                  1.5048         estimate D2E/DX2                !
 ! R12   R(6,19)                 1.089          estimate D2E/DX2                !
 ! R13   R(6,20)                 1.0891         estimate D2E/DX2                !
 ! R14   R(7,8)                  1.39           estimate D2E/DX2                !
 ! R15   R(7,13)                 1.3895         estimate D2E/DX2                !
 ! R16   R(8,9)                  1.3827         estimate D2E/DX2                !
 ! R17   R(8,21)                 1.0797         estimate D2E/DX2                !
 ! R18   R(9,10)                 1.3843         estimate D2E/DX2                !
 ! R19   R(9,22)                 1.0792         estimate D2E/DX2                !
 ! R20   R(10,11)                1.9062         estimate D2E/DX2                !
 ! R21   R(10,12)                1.384          estimate D2E/DX2                !
 ! R22   R(12,13)                1.383          estimate D2E/DX2                !
 ! R23   R(12,23)                1.0791         estimate D2E/DX2                !
 ! R24   R(13,24)                1.0793         estimate D2E/DX2                !
 ! A1    A(2,1,14)             110.2561         estimate D2E/DX2                !
 ! A2    A(2,1,15)             110.1373         estimate D2E/DX2                !
 ! A3    A(2,1,16)             109.5732         estimate D2E/DX2                !
 ! A4    A(14,1,15)            108.7068         estimate D2E/DX2                !
 ! A5    A(14,1,16)            109.0561         estimate D2E/DX2                !
 ! A6    A(15,1,16)            109.0839         estimate D2E/DX2                !
 ! A7    A(1,2,3)              108.565          estimate D2E/DX2                !
 ! A8    A(1,2,17)             111.6231         estimate D2E/DX2                !
 ! A9    A(1,2,18)             111.1256         estimate D2E/DX2                !
 ! A10   A(3,2,17)             108.7176         estimate D2E/DX2                !
 ! A11   A(3,2,18)             108.3629         estimate D2E/DX2                !
 ! A12   A(17,2,18)            108.3663         estimate D2E/DX2                !
 ! A13   A(2,3,4)              117.3682         estimate D2E/DX2                !
 ! A14   A(3,4,5)              124.6198         estimate D2E/DX2                !
 ! A15   A(3,4,6)              110.5384         estimate D2E/DX2                !
 ! A16   A(5,4,6)              124.7949         estimate D2E/DX2                !
 ! A17   A(4,6,7)              106.5138         estimate D2E/DX2                !
 ! A18   A(4,6,19)             109.1536         estimate D2E/DX2                !
 ! A19   A(4,6,20)             108.7152         estimate D2E/DX2                !
 ! A20   A(7,6,19)             110.7853         estimate D2E/DX2                !
 ! A21   A(7,6,20)             110.8108         estimate D2E/DX2                !
 ! A22   A(19,6,20)            110.7366         estimate D2E/DX2                !
 ! A23   A(6,7,8)              120.2868         estimate D2E/DX2                !
 ! A24   A(6,7,13)             120.485          estimate D2E/DX2                !
 ! A25   A(8,7,13)             119.1691         estimate D2E/DX2                !
 ! A26   A(7,8,9)              120.7313         estimate D2E/DX2                !
 ! A27   A(7,8,21)             119.677          estimate D2E/DX2                !
 ! A28   A(9,8,21)             119.5915         estimate D2E/DX2                !
 ! A29   A(8,9,10)             119.0846         estimate D2E/DX2                !
 ! A30   A(8,9,22)             120.6466         estimate D2E/DX2                !
 ! A31   A(10,9,22)            120.2688         estimate D2E/DX2                !
 ! A32   A(9,10,11)            119.3612         estimate D2E/DX2                !
 ! A33   A(9,10,12)            121.1927         estimate D2E/DX2                !
 ! A34   A(11,10,12)           119.4461         estimate D2E/DX2                !
 ! A35   A(10,12,13)           119.1118         estimate D2E/DX2                !
 ! A36   A(10,12,23)           120.3007         estimate D2E/DX2                !
 ! A37   A(13,12,23)           120.5874         estimate D2E/DX2                !
 ! A38   A(7,13,12)            120.7051         estimate D2E/DX2                !
 ! A39   A(7,13,24)            119.7384         estimate D2E/DX2                !
 ! A40   A(12,13,24)           119.556          estimate D2E/DX2                !
 ! D1    D(14,1,2,3)            60.9596         estimate D2E/DX2                !
 ! D2    D(14,1,2,17)          -58.8604         estimate D2E/DX2                !
 ! D3    D(14,1,2,18)         -179.9597         estimate D2E/DX2                !
 ! D4    D(15,1,2,3)           -59.0039         estimate D2E/DX2                !
 ! D5    D(15,1,2,17)         -178.8239         estimate D2E/DX2                !
 ! D6    D(15,1,2,18)           60.0767         estimate D2E/DX2                !
 ! D7    D(16,1,2,3)          -179.0023         estimate D2E/DX2                !
 ! D8    D(16,1,2,17)           61.1777         estimate D2E/DX2                !
 ! D9    D(16,1,2,18)          -59.9217         estimate D2E/DX2                !
 ! D10   D(1,2,3,4)           -157.0891         estimate D2E/DX2                !
 ! D11   D(17,2,3,4)           -35.4725         estimate D2E/DX2                !
 ! D12   D(18,2,3,4)            82.1086         estimate D2E/DX2                !
 ! D13   D(2,3,4,5)             -1.5824         estimate D2E/DX2                !
 ! D14   D(2,3,4,6)            176.025          estimate D2E/DX2                !
 ! D15   D(3,4,6,7)            -87.5706         estimate D2E/DX2                !
 ! D16   D(3,4,6,19)            32.0859         estimate D2E/DX2                !
 ! D17   D(3,4,6,20)           152.9774         estimate D2E/DX2                !
 ! D18   D(5,4,6,7)             90.0317         estimate D2E/DX2                !
 ! D19   D(5,4,6,19)          -150.3118         estimate D2E/DX2                !
 ! D20   D(5,4,6,20)           -29.4204         estimate D2E/DX2                !
 ! D21   D(4,6,7,8)             86.4813         estimate D2E/DX2                !
 ! D22   D(4,6,7,13)           -90.7011         estimate D2E/DX2                !
 ! D23   D(19,6,7,8)           -32.111          estimate D2E/DX2                !
 ! D24   D(19,6,7,13)          150.7066         estimate D2E/DX2                !
 ! D25   D(20,6,7,8)          -155.4383         estimate D2E/DX2                !
 ! D26   D(20,6,7,13)           27.3794         estimate D2E/DX2                !
 ! D27   D(6,7,8,9)           -178.0453         estimate D2E/DX2                !
 ! D28   D(6,7,8,21)             1.8264         estimate D2E/DX2                !
 ! D29   D(13,7,8,9)            -0.8261         estimate D2E/DX2                !
 ! D30   D(13,7,8,21)          179.0457         estimate D2E/DX2                !
 ! D31   D(6,7,13,12)          178.0277         estimate D2E/DX2                !
 ! D32   D(6,7,13,24)           -1.7118         estimate D2E/DX2                !
 ! D33   D(8,7,13,12)            0.8141         estimate D2E/DX2                !
 ! D34   D(8,7,13,24)         -178.9254         estimate D2E/DX2                !
 ! D35   D(7,8,9,10)             0.3351         estimate D2E/DX2                !
 ! D36   D(7,8,9,22)          -179.726          estimate D2E/DX2                !
 ! D37   D(21,8,9,10)         -179.5367         estimate D2E/DX2                !
 ! D38   D(21,8,9,22)            0.4021         estimate D2E/DX2                !
 ! D39   D(8,9,10,11)         -179.8589         estimate D2E/DX2                !
 ! D40   D(8,9,10,12)            0.1809         estimate D2E/DX2                !
 ! D41   D(22,9,10,11)           0.2021         estimate D2E/DX2                !
 ! D42   D(22,9,10,12)        -179.7581         estimate D2E/DX2                !
 ! D43   D(9,10,12,13)          -0.1925         estimate D2E/DX2                !
 ! D44   D(9,10,12,23)         179.6832         estimate D2E/DX2                !
 ! D45   D(11,10,12,13)        179.8473         estimate D2E/DX2                !
 ! D46   D(11,10,12,23)         -0.277          estimate D2E/DX2                !
 ! D47   D(10,12,13,7)          -0.3119         estimate D2E/DX2                !
 ! D48   D(10,12,13,24)        179.4281         estimate D2E/DX2                !
 ! D49   D(23,12,13,7)         179.8128         estimate D2E/DX2                !
 ! D50   D(23,12,13,24)         -0.4473         estimate D2E/DX2                !
 --------------------------------------------------------------------------------
 Trust Radius=3.00D-01 FncErr=1.00D-07 GrdErr=1.00D-06 EigMax=2.50D+02 EigMin=1.00D-04
 Number of steps in this run=    124 maximum allowed number of steps=    144.
 GradGradGradGradGradGradGradGradGradGradGradGradGradGradGradGradGradGrad

 Leave Link  103 at Tue Sep 17 09:53:27 2024, MaxMem=  1342177280 cpu:               0.1 elap:               0.0
 (Enter /groups/ReismanLab/Software/Gaussian16_RevC/Linux_Binary_AVX2-enabled-CPU/g16/l202.exe)
                          Input orientation:                          
 ---------------------------------------------------------------------
 Center     Atomic      Atomic             Coordinates (Angstroms)
 Number     Number       Type             X           Y           Z
 ---------------------------------------------------------------------
      1          6           0        3.995621    2.909423   -0.042799
      2          6           0        4.277768    1.434105    0.171752
      3          8           0        3.455258    0.678174   -0.722581
      4          6           0        3.196040   -0.585830   -0.395009
      5          8           0        3.625318   -1.139764    0.580518
      6          6           0        2.235713   -1.209791   -1.394951
      7          6           0        0.847098   -0.896360   -0.907255
      8          6           0        0.233560    0.299930   -1.260080
      9          6           0       -1.025897    0.615197   -0.784548
     10          6           0       -1.669823   -0.275496    0.057097
     11         35           0       -3.408082    0.149354    0.714084
     12          6           0       -1.074009   -1.467628    0.430315
     13          6           0        0.185971   -1.770358   -0.052957
     14          1           0        2.952962    3.128259    0.172096
     15          1           0        4.204187    3.184192   -1.073176
     16          1           0        4.625008    3.499837    0.616479
     17          1           0        4.055583    1.125937    1.198908
     18          1           0        5.326349    1.197653   -0.040459
     19          1           0        2.408332   -0.772158   -2.377045
     20          1           0        2.404443   -2.285508   -1.417069
     21          1           0        0.746404    0.992112   -1.911024
     22          1           0       -1.502814    1.542422   -1.062890
     23          1           0       -1.586948   -2.149127    1.091254
     24          1           0        0.661200   -2.693835    0.240877
 ---------------------------------------------------------------------
                    Distance matrix (angstroms):
                    1          2          3          4          5
     1  C    0.000000
     2  C    1.517301   0.000000
     3  O    2.394279   1.431009   0.000000
     4  C    3.602801   2.360400   1.331241   0.000000
     5  O    4.113583   2.686555   2.243187   1.201156   0.000000
     6  C    4.679051   3.689815   2.346014   1.520342   2.416276
     7  C    5.014426   4.285419   3.052173   2.424119   3.160890
     8  C    4.737544   4.437579   3.288055   3.210795   4.118803
     9  C    5.570396   5.451054   4.482026   4.406695   5.155298
    10  C    6.500073   6.189485   5.271038   4.896666   5.390682
    11  Br   7.937611   7.811337   7.032004   6.736840   7.151810
    12  C    6.714430   6.093310   5.142751   4.437572   4.713145
    13  C    6.034392   5.202103   4.139074   3.252787   3.553597
    14  H    1.086834   2.150644   2.656250   3.764990   4.339918
    15  H    1.086588   2.148969   2.638928   3.960977   4.665446
    16  H    1.085986   2.141404   3.335144   4.444967   4.746216
    17  H    2.173995   1.095164   2.062281   2.491893   2.387663
    18  H    2.168179   1.095657   2.058187   2.800845   2.956795
    19  H    4.639206   3.854705   2.436548   2.140951   3.219219
    20  H    5.604264   4.457490   3.220239   2.135448   2.606458
    21  H    4.209959   4.123572   2.974701   3.284649   4.363580
    22  H    5.756915   5.911954   5.044325   5.201419   6.016033
    23  H    7.618405   6.933970   6.058669   5.246890   5.333610
    24  H    6.526510   5.488554   4.483910   3.357596   3.363999
                    6          7          8          9         10
     6  C    0.000000
     7  C    1.504772   0.000000
     8  C    2.511188   1.389973   0.000000
     9  C    3.786988   2.409974   1.382663   0.000000
    10  C    4.270195   2.765925   2.385150   1.384319   0.000000
    11  Br   6.176384   4.672132   4.145064   2.852667   1.906219
    12  C    3.788448   2.409584   2.773344   2.411715   1.384004
    13  C    2.513289   1.389527   2.396978   2.773936   2.385519
    14  H    4.667844   4.668749   4.176807   4.802288   5.741856
    15  H    4.825507   5.286632   4.911189   5.834109   6.910207
    16  H    5.651122   5.993407   5.748538   6.497443   7.361450
    17  H    3.936453   4.338201   4.619174   5.478722   6.004001
    18  H    4.145174   5.019952   5.313180   6.422146   7.150253
    19  H    1.088957   2.147826   2.669572   4.031716   4.775256
    20  H    1.089094   2.148247   3.379626   4.536674   4.776292
    21  H    2.707905   2.141032   1.079747   2.133557   3.364295
    22  H    4.654195   3.390276   2.144217   1.079199   2.141749
    23  H    4.655782   3.389402   3.852389   3.387462   2.141692
    24  H    2.712454   2.140953   3.376148   3.853243   3.363898
                   11         12         13         14         15
    11  Br   0.000000
    12  C    2.853604   0.000000
    13  C    4.146187   1.383021   0.000000
    14  H    7.044892   6.115991   5.630571   0.000000
    15  H    8.387561   7.194392   6.460222   1.766181   0.000000
    16  H    8.704355   7.562352   6.923016   1.769544   1.769649
    17  H    7.542881   5.799140   4.992954   2.505875   3.069342
    18  H    8.829414   6.949096   5.935716   3.066820   2.504414
    19  H    6.650934   4.526770   3.366997   4.691268   4.536284
    20  H    6.652504   4.022609   2.654769   5.668791   5.768445
    21  H    4.986099   3.853063   3.376053   3.710985   4.178931
    22  H    2.954373   3.387321   3.853112   4.888150   5.938466
    23  H    2.956654   1.079068   2.143812   7.021855   8.164944
    24  H    4.986653   2.133171   1.079347   6.257290   6.987896
                   16         17         18         19         20
    16  H    0.000000
    17  H    2.509755   0.000000
    18  H    2.494695   1.776519   0.000000
    19  H    5.667873   4.370772   4.225472   0.000000
    20  H    6.521998   4.605167   4.750263   1.792149   0.000000
    21  H    5.265029   4.543155   4.951481   2.468163   3.706195
    22  H    6.648455   6.015394   6.913878   4.730893   5.481346
    23  H    8.409793   6.525013   7.763723   5.466937   4.716088
    24  H    7.363045   5.199069   6.081648   3.687658   2.440166
                   21         22         23         24
    21  H    0.000000
    22  H    2.466000   0.000000
    23  H    4.932098   4.274921   0.000000
    24  H    4.268974   4.932407   2.464553   0.000000
 Stoichiometry    C10H11BrO2
 Framework group  C1[X(C10H11BrO2)]
 Deg. of freedom    66
 Full point group                 C1      NOp   1
 Largest Abelian subgroup         C1      NOp   1
 Largest concise Abelian subgroup C1      NOp   1
                         Standard orientation:                         
 ---------------------------------------------------------------------
 Center     Atomic      Atomic             Coordinates (Angstroms)
 Number     Number       Type             X           Y           Z
 ---------------------------------------------------------------------
      1          6           0       -4.004965    2.529711   -0.175881
      2          6           0       -4.107566    1.073845   -0.590767
      3          8           0       -3.326634    0.286287    0.313492
      4          6           0       -2.902499   -0.899766   -0.117310
      5          8           0       -3.152091   -1.362730   -1.197192
      6          6           0       -2.011673   -1.558133    0.924047
      7          6           0       -0.613414   -1.067327    0.662668
      8          6           0       -0.171922    0.124174    1.226082
      9          6           0        1.097145    0.604099    0.959815
     10          6           0        1.925342   -0.115548    0.115696
     11         35           0        3.677989    0.536761   -0.253618
     12          6           0        1.503394   -1.298862   -0.464990
     13          6           0        0.231599   -1.767406   -0.189756
     14          1           0       -2.971678    2.863047   -0.225004
     15          1           0       -4.363442    2.654705    0.842228
     16          1           0       -4.606785    3.141060   -0.841786
     17          1           0       -3.732633    0.916616   -1.607668
     18          1           0       -5.144584    0.722918   -0.547056
     19          1           0       -2.345382   -1.263028    1.917716
     20          1           0       -2.071543   -2.638740    0.802267
     21          1           0       -0.827433    0.682745    1.877354
     22          1           0        1.440106    1.527124    1.401489
     23          1           0        2.159122   -1.845619   -1.124887
     24          1           0       -0.108202   -2.684647   -0.646040
 ---------------------------------------------------------------------
 Rotational constants (GHZ):           1.2490113           0.2262104           0.2068826
 Leave Link  202 at Tue Sep 17 09:53:27 2024, MaxMem=  1342177280 cpu:               0.1 elap:               0.0
 (Enter /groups/ReismanLab/Software/Gaussian16_RevC/Linux_Binary_AVX2-enabled-CPU/g16/l301.exe)
 Standard basis: 6-31G(d,p) (6D, 7F)
 Ernie: Thresh=  0.10000D-02 Tol=  0.10000D-05 Strict=F.
 There are   265 symmetry adapted cartesian basis functions of A   symmetry.
 There are   265 symmetry adapted basis functions of A   symmetry.
   265 basis functions,   496 primitive gaussians,   265 cartesian basis functions
    61 alpha electrons       61 beta electrons
       nuclear repulsion energy      1016.5288629873 Hartrees.
 IExCor=  402 DFT=T Ex+Corr=B3LYP ExCW=0 ScaHFX=  0.200000
 ScaDFX=  0.800000  0.720000  1.000000  0.810000 ScalE2=  1.000000  1.000000
 IRadAn=      5 IRanWt=     -1 IRanGd=            0 ICorTp=0 IEmpDi=141
 NAtoms=   24 NActive=   24 NUniq=   24 SFac= 1.00D+00 NAtFMM=   60 NAOKFM=F Big=F
 Integral buffers will be    131072 words long.
 Raffenetti 2 integral format.
 Two-electron integral symmetry is turned on.
 R6Disp:  Grimme-D3(BJ) Dispersion energy=       -0.0458693634 Hartrees.
 Nuclear repulsion after empirical dispersion term =     1016.4829936239 Hartrees.
 Leave Link  301 at Tue Sep 17 09:53:27 2024, MaxMem=  1342177280 cpu:               0.1 elap:               0.1
 (Enter /groups/ReismanLab/Software/Gaussian16_RevC/Linux_Binary_AVX2-enabled-CPU/g16/l302.exe)
 NPDir=0 NMtPBC=     1 NCelOv=     1 NCel=       1 NClECP=     1 NCelD=      1
         NCelK=      1 NCelE2=     1 NClLst=     1 CellRange=     0.0.
 One-electron integrals computed using PRISM.
 One-electron integral symmetry used in STVInt
 NBasis=   265 RedAO= T EigKep=  4.12D-04  NBF=   265
 NBsUse=   265 1.00D-06 EigRej= -1.00D+00 NBFU=   265
 Precomputing XC quadrature grid using
 IXCGrd= 4 IRadAn=           5 IRanWt=          -1 IRanGd=           0 AccXCQ= 0.00D+00.
 Generated NRdTot=       0 NPtTot=           0 NUsed=           0 NTot=          32
 NSgBfM=   262   262   262   262   262 MxSgAt=    24 MxSgA2=    24.
 Leave Link  302 at Tue Sep 17 09:53:28 2024, MaxMem=  1342177280 cpu:               1.5 elap:               0.3
 (Enter /groups/ReismanLab/Software/Gaussian16_RevC/Linux_Binary_AVX2-enabled-CPU/g16/l303.exe)
 DipDrv:  MaxL=1.
 Leave Link  303 at Tue Sep 17 09:53:28 2024, MaxMem=  1342177280 cpu:               0.1 elap:               0.1
 (Enter /groups/ReismanLab/Software/Gaussian16_RevC/Linux_Binary_AVX2-enabled-CPU/g16/l401.exe)
 ExpMin= 1.43D-01 ExpMax= 5.74D+05 ExpMxC= 5.74D+03 IAcc=3 IRadAn=         5 AccDes= 0.00D+00
 Harris functional with IExCor=  402 and IRadAn=       5 diagonalized for initial guess.
 HarFok:  IExCor=  402 AccDes= 0.00D+00 IRadAn=         5 IDoV= 1 UseB2=F ITyADJ=14
 ICtDFT=  3500011 ScaDFX=  1.000000  1.000000  1.000000  1.000000
 FoFCou: FMM=F IPFlag=           0 FMFlag=      100000 FMFlg1=           0
         NFxFlg=           0 DoJE=T BraDBF=F KetDBF=T FulRan=T
         wScrn=  0.000000 ICntrl=       500 IOpCl=  0 I1Cent=   200000004 NGrid=           0
         NMat0=    1 NMatS0=      1 NMatT0=    0 NMatD0=    1 NMtDS0=    0 NMtDT0=    0
 Petite list used in FoFCou.
 Harris En= -3110.06589489025    
 JPrj=0 DoOrth=F DoCkMO=F.
 Leave Link  401 at Tue Sep 17 09:53:29 2024, MaxMem=  1342177280 cpu:               8.0 elap:               1.1
 (Enter /groups/ReismanLab/Software/Gaussian16_RevC/Linux_Binary_AVX2-enabled-CPU/g16/l502.exe)
 Integral symmetry usage will be decided dynamically.
 Closed shell SCF:
 Using DIIS extrapolation, IDIIS=  1040.
 NGot=  1342177280 LenX=  1342031300 LenY=  1341960634
 Requested convergence on RMS density matrix=1.00D-08 within  32 cycles.
 Requested convergence on MAX density matrix=1.00D-06.
 Requested convergence on             energy=1.00D-06.
 No special actions if energy rises.
 Fock matrices will be formed incrementally for  20 cycles.
 Integral accuracy reduced to 1.0D-05 until final iterations.

 Cycle   1  Pass 0  IDiag  1:
 FoFJK:  IHMeth= 1 ICntrl=       0 DoSepK=F KAlg= 0 I1Cent=           0 FoldK=F
 IRaf= 820000000 NMat=       1 IRICut=       1 DoRegI=T DoRafI=F ISym2E= 0 IDoP0=0 IntGTp=1.
 FoFCou: FMM=F IPFlag=           0 FMFlag=      100000 FMFlg1=           0
         NFxFlg=           0 DoJE=F BraDBF=F KetDBF=F FulRan=T
         wScrn=  0.000000 ICntrl=         0 IOpCl=  0 I1Cent=           0 NGrid=           0
         NMat0=    1 NMatS0=      1 NMatT0=    0 NMatD0=    1 NMtDS0=    0 NMtDT0=    0
 Symmetry not used in FoFCou.
 E= -3109.59512905655    
 DIIS: error= 1.73D-01 at cycle   1 NSaved=   1.
 NSaved= 1 IEnMin= 1 EnMin= -3109.59512905655     IErMin= 1 ErrMin= 1.73D-01
 ErrMax= 1.73D-01  0.00D+00 EMaxC= 1.00D-01 BMatC= 6.87D-01 BMatP= 6.87D-01
 IDIUse=3 WtCom= 0.00D+00 WtEn= 1.00D+00
 Coeff-Com:  0.100D+01
 Coeff-En:   0.100D+01
 Coeff:      0.100D+01
 Gap=     0.291 Goal=   None    Shift=    0.000
 GapD=    0.291 DampG=1.000 DampE=0.250 DampFc=0.2500 IDamp=-1.
 Damping current iteration by 2.50D-01
 RMSDP=4.86D-03 MaxDP=1.87D-01              OVMax= 2.39D-01

 Cycle   2  Pass 0  IDiag  1:
 RMSU=  1.18D-03    CP:  9.92D-01
 E= -3109.71087293709     Delta-E=       -0.115743880546 Rises=F Damp=T
 DIIS: error= 1.28D-01 at cycle   2 NSaved=   2.
 NSaved= 2 IEnMin= 2 EnMin= -3109.71087293709     IErMin= 2 ErrMin= 1.28D-01
 ErrMax= 1.28D-01  0.00D+00 EMaxC= 1.00D-01 BMatC= 2.69D-01 BMatP= 6.87D-01
 IDIUse=3 WtCom= 0.00D+00 WtEn= 1.00D+00
 Coeff-Com: -0.109D+01 0.209D+01
 Coeff-En:   0.000D+00 0.100D+01
 Coeff:      0.000D+00 0.100D+01
 Gap=     0.241 Goal=   None    Shift=    0.000
 RMSDP=2.35D-03 MaxDP=1.11D-01 DE=-1.16D-01 OVMax= 1.20D-01

 Cycle   3  Pass 0  IDiag  1:
 RMSU=  1.02D-03    CP:  9.70D-01  2.65D+00
 E= -3109.85039349625     Delta-E=       -0.139520559155 Rises=F Damp=F
 DIIS: error= 1.31D-02 at cycle   3 NSaved=   3.
 NSaved= 3 IEnMin= 3 EnMin= -3109.85039349625     IErMin= 3 ErrMin= 1.31D-02
 ErrMax= 1.31D-02  0.00D+00 EMaxC= 1.00D-01 BMatC= 7.27D-02 BMatP= 2.69D-01
 IDIUse=3 WtCom= 8.69D-01 WtEn= 1.31D-01
 Coeff-Com:  0.779D+00-0.853D+00 0.107D+01
 Coeff-En:   0.126D+00 0.000D+00 0.874D+00
 Coeff:      0.694D+00-0.741D+00 0.105D+01
 Gap=     0.220 Goal=   None    Shift=    0.000
 RMSDP=1.45D-03 MaxDP=4.69D-02 DE=-1.40D-01 OVMax= 5.60D-02

 Cycle   4  Pass 0  IDiag  1:
 RMSU=  1.00D-03    CP:  9.71D-01  1.77D+00  8.69D-01
 E= -3109.89300941400     Delta-E=       -0.042615917749 Rises=F Damp=F
 DIIS: error= 8.19D-03 at cycle   4 NSaved=   4.
 NSaved= 4 IEnMin= 4 EnMin= -3109.89300941400     IErMin= 4 ErrMin= 8.19D-03
 ErrMax= 8.19D-03  0.00D+00 EMaxC= 1.00D-01 BMatC= 2.97D-02 BMatP= 7.27D-02
 IDIUse=3 WtCom= 9.18D-01 WtEn= 8.19D-02
 Coeff-Com:  0.649D+00-0.839D+00 0.719D+00 0.471D+00
 Coeff-En:   0.000D+00 0.000D+00 0.227D+00 0.773D+00
 Coeff:      0.596D+00-0.770D+00 0.679D+00 0.496D+00
 Gap=     0.222 Goal=   None    Shift=    0.000
 RMSDP=6.98D-04 MaxDP=2.51D-02 DE=-4.26D-02 OVMax= 5.31D-02

 Cycle   5  Pass 0  IDiag  1:
 RMSU=  1.81D-04    CP:  9.71D-01  1.91D+00  1.07D+00  3.76D-01
 E= -3109.91895550144     Delta-E=       -0.025946087439 Rises=F Damp=F
 DIIS: error= 1.74D-03 at cycle   5 NSaved=   5.
 NSaved= 5 IEnMin= 5 EnMin= -3109.91895550144     IErMin= 5 ErrMin= 1.74D-03
 ErrMax= 1.74D-03  0.00D+00 EMaxC= 1.00D-01 BMatC= 1.04D-03 BMatP= 2.97D-02
 IDIUse=3 WtCom= 9.83D-01 WtEn= 1.74D-02
 Coeff-Com:  0.263D+00-0.343D+00 0.301D+00 0.260D+00 0.519D+00
 Coeff-En:   0.000D+00 0.000D+00 0.000D+00 0.000D+00 0.100D+01
 Coeff:      0.259D+00-0.337D+00 0.296D+00 0.255D+00 0.528D+00
 Gap=     0.217 Goal=   None    Shift=    0.000
 RMSDP=1.31D-04 MaxDP=5.64D-03 DE=-2.59D-02 OVMax= 1.02D-02

 Cycle   6  Pass 0  IDiag  1:
 RMSU=  4.97D-05    CP:  9.71D-01  1.92D+00  1.06D+00  4.58D-01  5.13D-01
 E= -3109.91976213607     Delta-E=       -0.000806634631 Rises=F Damp=F
 DIIS: error= 4.45D-04 at cycle   6 NSaved=   6.
 NSaved= 6 IEnMin= 6 EnMin= -3109.91976213607     IErMin= 6 ErrMin= 4.45D-04
 ErrMax= 4.45D-04  0.00D+00 EMaxC= 1.00D-01 BMatC= 7.71D-05 BMatP= 1.04D-03
 IDIUse=3 WtCom= 9.96D-01 WtEn= 4.45D-03
 Coeff-Com:  0.693D-01-0.910D-01 0.766D-01 0.722D-01 0.270D+00 0.603D+00
 Coeff-En:   0.000D+00 0.000D+00 0.000D+00 0.000D+00 0.151D-01 0.985D+00
 Coeff:      0.690D-01-0.906D-01 0.763D-01 0.719D-01 0.269D+00 0.605D+00
 Gap=     0.216 Goal=   None    Shift=    0.000
 RMSDP=3.27D-05 MaxDP=1.52D-03 DE=-8.07D-04 OVMax= 2.12D-03

 Cycle   7  Pass 0  IDiag  1:
 RMSU=  1.99D-05    CP:  9.71D-01  1.92D+00  1.07D+00  4.53D-01  5.60D-01
                    CP:  5.68D-01
 E= -3109.91982242133     Delta-E=       -0.000060285264 Rises=F Damp=F
 DIIS: error= 1.02D-04 at cycle   7 NSaved=   7.
 NSaved= 7 IEnMin= 7 EnMin= -3109.91982242133     IErMin= 7 ErrMin= 1.02D-04
 ErrMax= 1.02D-04  0.00D+00 EMaxC= 1.00D-01 BMatC= 5.63D-06 BMatP= 7.71D-05
 IDIUse=3 WtCom= 9.99D-01 WtEn= 1.02D-03
 Coeff-Com:  0.206D-01-0.274D-01 0.213D-01 0.202D-01 0.104D+00 0.314D+00
 Coeff-Com:  0.547D+00
 Coeff-En:   0.000D+00 0.000D+00 0.000D+00 0.000D+00 0.000D+00 0.000D+00
 Coeff-En:   0.100D+01
 Coeff:      0.206D-01-0.273D-01 0.212D-01 0.201D-01 0.104D+00 0.313D+00
 Coeff:      0.548D+00
 Gap=     0.216 Goal=   None    Shift=    0.000
 RMSDP=1.23D-05 MaxDP=3.71D-04 DE=-6.03D-05 OVMax= 8.85D-04

 Cycle   8  Pass 0  IDiag  1:
 RMSU=  6.51D-06    CP:  9.71D-01  1.92D+00  1.06D+00  4.51D-01  5.68D-01
                    CP:  6.38D-01  5.38D-01
 E= -3109.91982709695     Delta-E=       -0.000004675615 Rises=F Damp=F
 DIIS: error= 4.87D-05 at cycle   8 NSaved=   8.
 NSaved= 8 IEnMin= 8 EnMin= -3109.91982709695     IErMin= 8 ErrMin= 4.87D-05
 ErrMax= 4.87D-05  0.00D+00 EMaxC= 1.00D-01 BMatC= 5.71D-07 BMatP= 5.63D-06
 IDIUse=1 WtCom= 1.00D+00 WtEn= 0.00D+00
 Coeff-Com:  0.519D-02-0.693D-02 0.466D-02 0.396D-02 0.307D-01 0.114D+00
 Coeff-Com:  0.300D+00 0.549D+00
 Coeff:      0.519D-02-0.693D-02 0.466D-02 0.396D-02 0.307D-01 0.114D+00
 Coeff:      0.300D+00 0.549D+00
 Gap=     0.216 Goal=   None    Shift=    0.000
 RMSDP=3.84D-06 MaxDP=1.03D-04 DE=-4.68D-06 OVMax= 3.46D-04

 Initial convergence to 1.0D-05 achieved.  Increase integral accuracy.
 Cycle   9  Pass 1  IDiag  1:
 E= -3109.91982416861     Delta-E=        0.000002928339 Rises=F Damp=F
 DIIS: error= 3.45D-05 at cycle   1 NSaved=   1.
 NSaved= 1 IEnMin= 1 EnMin= -3109.91982416861     IErMin= 1 ErrMin= 3.45D-05
 ErrMax= 3.45D-05  0.00D+00 EMaxC= 1.00D-01 BMatC= 2.10D-07 BMatP= 2.10D-07
 IDIUse=1 WtCom= 1.00D+00 WtEn= 0.00D+00
 Coeff-Com:  0.100D+01
 Coeff:      0.100D+01
 Gap=     0.216 Goal=   None    Shift=    0.000
 RMSDP=3.84D-06 MaxDP=1.03D-04 DE= 2.93D-06 OVMax= 2.57D-04

 Cycle  10  Pass 1  IDiag  1:
 RMSU=  1.72D-05    CP:  1.00D+00
 E= -3109.91982413624     Delta-E=        0.000000032368 Rises=F Damp=F
 DIIS: error= 3.00D-05 at cycle   2 NSaved=   2.
 NSaved= 2 IEnMin= 1 EnMin= -3109.91982416861     IErMin= 2 ErrMin= 3.00D-05
 ErrMax= 3.00D-05  0.00D+00 EMaxC= 1.00D-01 BMatC= 1.84D-07 BMatP= 2.10D-07
 IDIUse=1 WtCom= 1.00D+00 WtEn= 0.00D+00
 Coeff-Com:  0.478D+00 0.522D+00
 Coeff:      0.478D+00 0.522D+00
 Gap=     0.216 Goal=   None    Shift=    0.000
 RMSDP=2.58D-06 MaxDP=7.82D-05 DE= 3.24D-08 OVMax= 2.53D-04

 Cycle  11  Pass 1  IDiag  1:
 RMSU=  2.56D-06    CP:  1.00D+00  9.79D-01
 E= -3109.91982428234     Delta-E=       -0.000000146101 Rises=F Damp=F
 DIIS: error= 1.58D-05 at cycle   3 NSaved=   3.
 NSaved= 3 IEnMin= 3 EnMin= -3109.91982428234     IErMin= 3 ErrMin= 1.58D-05
 ErrMax= 1.58D-05  0.00D+00 EMaxC= 1.00D-01 BMatC= 4.90D-08 BMatP= 1.84D-07
 IDIUse=1 WtCom= 1.00D+00 WtEn= 0.00D+00
 Coeff-Com:  0.216D-01 0.338D+00 0.640D+00
 Coeff:      0.216D-01 0.338D+00 0.640D+00
 Gap=     0.216 Goal=   None    Shift=    0.000
 RMSDP=9.96D-07 MaxDP=2.91D-05 DE=-1.46D-07 OVMax= 9.82D-05

 Cycle  12  Pass 1  IDiag  1:
 RMSU=  3.85D-07    CP:  1.00D+00  9.95D-01  6.57D-01
 E= -3109.91982433470     Delta-E=       -0.000000052358 Rises=F Damp=F
 DIIS: error= 3.99D-06 at cycle   4 NSaved=   4.
 NSaved= 4 IEnMin= 4 EnMin= -3109.91982433470     IErMin= 4 ErrMin= 3.99D-06
 ErrMax= 3.99D-06  0.00D+00 EMaxC= 1.00D-01 BMatC= 2.34D-09 BMatP= 4.90D-08
 IDIUse=1 WtCom= 1.00D+00 WtEn= 0.00D+00
 Coeff-Com: -0.165D-02 0.181D+00 0.372D+00 0.449D+00
 Coeff:     -0.165D-02 0.181D+00 0.372D+00 0.449D+00
 Gap=     0.216 Goal=   None    Shift=    0.000
 RMSDP=2.15D-07 MaxDP=6.70D-06 DE=-5.24D-08 OVMax= 1.79D-05

 Cycle  13  Pass 1  IDiag  1:
 RMSU=  7.51D-08    CP:  1.00D+00  9.95D-01  6.73D-01  4.88D-01
 E= -3109.91982433707     Delta-E=       -0.000000002370 Rises=F Damp=F
 DIIS: error= 1.01D-06 at cycle   5 NSaved=   5.
 NSaved= 5 IEnMin= 5 EnMin= -3109.91982433707     IErMin= 5 ErrMin= 1.01D-06
 ErrMax= 1.01D-06  0.00D+00 EMaxC= 1.00D-01 BMatC= 9.73D-11 BMatP= 2.34D-09
 IDIUse=1 WtCom= 1.00D+00 WtEn= 0.00D+00
 Coeff-Com: -0.171D-02 0.990D-01 0.206D+00 0.273D+00 0.425D+00
 Coeff:     -0.171D-02 0.990D-01 0.206D+00 0.273D+00 0.425D+00
 Gap=     0.216 Goal=   None    Shift=    0.000
 RMSDP=4.34D-08 MaxDP=1.14D-06 DE=-2.37D-09 OVMax= 3.74D-06

 Cycle  14  Pass 1  IDiag  1:
 RMSU=  2.74D-08    CP:  1.00D+00  9.95D-01  6.72D-01  4.98D-01  5.59D-01
 E= -3109.91982433711     Delta-E=       -0.000000000039 Rises=F Damp=F
 DIIS: error= 1.48D-07 at cycle   6 NSaved=   6.
 NSaved= 6 IEnMin= 6 EnMin= -3109.91982433711     IErMin= 6 ErrMin= 1.48D-07
 ErrMax= 1.48D-07  0.00D+00 EMaxC= 1.00D-01 BMatC= 6.38D-12 BMatP= 9.73D-11
 IDIUse=1 WtCom= 1.00D+00 WtEn= 0.00D+00
 Coeff-Com: -0.895D-03 0.448D-01 0.934D-01 0.128D+00 0.258D+00 0.476D+00
 Coeff:     -0.895D-03 0.448D-01 0.934D-01 0.128D+00 0.258D+00 0.476D+00
 Gap=     0.216 Goal=   None    Shift=    0.000
 RMSDP=9.91D-09 MaxDP=4.21D-07 DE=-3.91D-11 OVMax= 7.13D-07

 SCF Done:  E(RB3LYP) =  -3109.91982434     A.U. after   14 cycles
            NFock= 14  Conv=0.99D-08     -V/T= 2.0066
 KE= 3.089525796267D+03 PE=-9.418816933399D+03 EE= 2.202888319171D+03
 Leave Link  502 at Tue Sep 17 09:53:48 2024, MaxMem=  1342177280 cpu:             146.7 elap:              19.7
 (Enter /groups/ReismanLab/Software/Gaussian16_RevC/Linux_Binary_AVX2-enabled-CPU/g16/l508.exe)
 QCSCF skips out because SCF is already converged.
 Leave Link  508 at Tue Sep 17 09:53:48 2024, MaxMem=  1342177280 cpu:               0.0 elap:               0.0
 (Enter /groups/ReismanLab/Software/Gaussian16_RevC/Linux_Binary_AVX2-enabled-CPU/g16/l601.exe)
 Copying SCF densities to generalized density rwf, IOpCl= 0 IROHF=0.

 **********************************************************************

            Population analysis using the SCF Density.

 **********************************************************************

 Orbital symmetries:
       Occupied  (A) (A) (A) (A) (A) (A) (A) (A) (A) (A) (A) (A)
                 (A) (A) (A) (A) (A) (A) (A) (A) (A) (A) (A) (A)
                 (A) (A) (A) (A) (A) (A) (A) (A) (A) (A) (A) (A)
                 (A) (A) (A) (A) (A) (A) (A) (A) (A) (A) (A) (A)
                 (A) (A) (A) (A) (A) (A) (A) (A) (A) (A) (A) (A)
                 (A)
       Virtual   (A) (A) (A) (A) (A) (A) (A) (A) (A) (A) (A) (A)
                 (A) (A) (A) (A) (A) (A) (A) (A) (A) (A) (A) (A)
                 (A) (A) (A) (A) (A) (A) (A) (A) (A) (A) (A) (A)
                 (A) (A) (A) (A) (A) (A) (A) (A) (A) (A) (A) (A)
                 (A) (A) (A) (A) (A) (A) (A) (A) (A) (A) (A) (A)
                 (A) (A) (A) (A) (A) (A) (A) (A) (A) (A) (A) (A)
                 (A) (A) (A) (A) (A) (A) (A) (A) (A) (A) (A) (A)
                 (A) (A) (A) (A) (A) (A) (A) (A) (A) (A) (A) (A)
                 (A) (A) (A) (A) (A) (A) (A) (A) (A) (A) (A) (A)
                 (A) (A) (A) (A) (A) (A) (A) (A) (A) (A) (A) (A)
                 (A) (A) (A) (A) (A) (A) (A) (A) (A) (A) (A) (A)
                 (A) (A) (A) (A) (A) (A) (A) (A) (A) (A) (A) (A)
                 (A) (A) (A) (A) (A) (A) (A) (A) (A) (A) (A) (A)
                 (A) (A) (A) (A) (A) (A) (A) (A) (A) (A) (A) (A)
                 (A) (A) (A) (A) (A) (A) (A) (A) (A) (A) (A) (A)
                 (A) (A) (A) (A) (A) (A) (A) (A) (A) (A) (A) (A)
                 (A) (A) (A) (A) (A) (A) (A) (A) (A) (A) (A) (A)
 The electronic state is 1-A.
 Alpha  occ. eigenvalues -- -482.90910 -61.87086 -56.39218 -56.38810 -56.38799
 Alpha  occ. eigenvalues --  -19.19548 -19.13490 -10.31595 -10.24628 -10.24535
 Alpha  occ. eigenvalues --  -10.20934 -10.20584 -10.20289 -10.20238 -10.19973
 Alpha  occ. eigenvalues --  -10.19922 -10.18799  -8.58232  -6.53622  -6.52357
 Alpha  occ. eigenvalues --   -6.52330  -2.65196  -2.64834  -2.64815  -2.63805
 Alpha  occ. eigenvalues --   -2.63805  -1.11274  -1.02127  -0.88367  -0.82248
 Alpha  occ. eigenvalues --   -0.78800  -0.76350  -0.75994  -0.70063  -0.64805
 Alpha  occ. eigenvalues --   -0.62558  -0.59349  -0.57098  -0.51946  -0.50102
 Alpha  occ. eigenvalues --   -0.49159  -0.48657  -0.46636  -0.46425  -0.43727
 Alpha  occ. eigenvalues --   -0.43358  -0.41300  -0.40744  -0.40130  -0.39422
 Alpha  occ. eigenvalues --   -0.38477  -0.36675  -0.35793  -0.35505  -0.34386
 Alpha  occ. eigenvalues --   -0.31197  -0.30377  -0.28535  -0.27531  -0.26564
 Alpha  occ. eigenvalues --   -0.23696
 Alpha virt. eigenvalues --   -0.02047  -0.01351   0.00925   0.02600   0.09731
 Alpha virt. eigenvalues --    0.11155   0.12021   0.12549   0.13381   0.14397
 Alpha virt. eigenvalues --    0.15363   0.15481   0.16469   0.17364   0.18129
 Alpha virt. eigenvalues --    0.18885   0.19240   0.21166   0.22434   0.23566
 Alpha virt. eigenvalues --    0.26014   0.28315   0.30086   0.31969   0.32919
 Alpha virt. eigenvalues --    0.34396   0.35423   0.42126   0.44840   0.46498
 Alpha virt. eigenvalues --    0.46507   0.46586   0.47528   0.48100   0.49034
 Alpha virt. eigenvalues --    0.50647   0.51724   0.52091   0.53007   0.53566
 Alpha virt. eigenvalues --    0.55132   0.56552   0.57443   0.58138   0.58217
 Alpha virt. eigenvalues --    0.59840   0.60612   0.60911   0.62160   0.63428
 Alpha virt. eigenvalues --    0.65853   0.67263   0.68111   0.70491   0.71652
 Alpha virt. eigenvalues --    0.73094   0.74976   0.75638   0.78453   0.79089
 Alpha virt. eigenvalues --    0.79843   0.81535   0.82176   0.82940   0.83987
 Alpha virt. eigenvalues --    0.85534   0.86394   0.87210   0.87745   0.89248
 Alpha virt. eigenvalues --    0.89978   0.90525   0.92320   0.95915   0.96189
 Alpha virt. eigenvalues --    0.99056   0.99310   1.00716   1.03404   1.07790
 Alpha virt. eigenvalues --    1.08652   1.09343   1.14330   1.15470   1.18414
 Alpha virt. eigenvalues --    1.19228   1.23027   1.24091   1.25435   1.27804
 Alpha virt. eigenvalues --    1.30310   1.32471   1.35522   1.38765   1.40624
 Alpha virt. eigenvalues --    1.41216   1.42192   1.42895   1.47411   1.52256
 Alpha virt. eigenvalues --    1.54102   1.57268   1.58960   1.61467   1.63244
 Alpha virt. eigenvalues --    1.65106   1.69220   1.72928   1.77127   1.77949
 Alpha virt. eigenvalues --    1.80481   1.83111   1.83837   1.84246   1.86743
 Alpha virt. eigenvalues --    1.89163   1.91246   1.92375   1.93516   1.94542
 Alpha virt. eigenvalues --    1.96792   1.97817   1.98714   1.99823   2.00329
 Alpha virt. eigenvalues --    2.03297   2.03593   2.05054   2.07033   2.07883
 Alpha virt. eigenvalues --    2.08703   2.09489   2.11057   2.13227   2.17350
 Alpha virt. eigenvalues --    2.18846   2.19822   2.21989   2.25928   2.28909
 Alpha virt. eigenvalues --    2.30604   2.31617   2.33736   2.37967   2.40675
 Alpha virt. eigenvalues --    2.41043   2.42608   2.43248   2.44005   2.45154
 Alpha virt. eigenvalues --    2.48106   2.49325   2.51372   2.54255   2.57211
 Alpha virt. eigenvalues --    2.59871   2.61067   2.62976   2.65120   2.67795
 Alpha virt. eigenvalues --    2.69342   2.71199   2.71796   2.74569   2.76518
 Alpha virt. eigenvalues --    2.77305   2.79028   2.83033   2.87534   2.88210
 Alpha virt. eigenvalues --    2.89185   2.89493   2.94487   2.98881   3.07581
 Alpha virt. eigenvalues --    3.09601   3.14379   3.20034   3.21272   3.25051
 Alpha virt. eigenvalues --    3.27913   3.30450   3.32080   3.36467   3.38307
 Alpha virt. eigenvalues --    3.46443   3.49006   3.52276   3.52481   3.81621
 Alpha virt. eigenvalues --    4.06414   4.10997   4.14498   4.16027   4.23929
 Alpha virt. eigenvalues --    4.27069   4.36316   4.43676   4.45167   4.58598
 Alpha virt. eigenvalues --    4.65684   4.83231   8.60866  72.81704
          Condensed to atoms (all electrons):
               1          2          3          4          5          6
     1  C    4.942381   0.371445  -0.044727   0.004435   0.000843  -0.000158
     2  C    0.371445   4.722552   0.198750  -0.016647  -0.002824   0.006601
     3  O   -0.044727   0.198750   8.269393   0.262674  -0.081115  -0.098122
     4  C    0.004435  -0.016647   0.262674   4.344101   0.571202   0.340653
     5  O    0.000843  -0.002824  -0.081115   0.571202   8.031271  -0.069424
     6  C   -0.000158   0.006601  -0.098122   0.340653  -0.069424   5.171679
     7  C   -0.000002  -0.000032  -0.003693  -0.035598  -0.004364   0.362805
     8  C   -0.000056  -0.000198   0.003152  -0.005705  -0.000057  -0.062250
     9  C   -0.000004  -0.000004   0.000032   0.000079   0.000004   0.006647
    10  C    0.000000   0.000000   0.000001   0.000023   0.000001   0.000464
    11  Br   0.000000  -0.000000   0.000000   0.000000  -0.000000   0.000004
    12  C    0.000000  -0.000001   0.000003   0.000074   0.000012   0.006675
    13  C   -0.000001  -0.000015   0.000315  -0.003166   0.002104  -0.059508
    14  H    0.385479  -0.032466   0.001176   0.000226  -0.000014  -0.000045
    15  H    0.382571  -0.030445   0.000537  -0.000156  -0.000010  -0.000016
    16  H    0.375514  -0.029845   0.002933  -0.000052   0.000015   0.000007
    17  H   -0.036646   0.381662  -0.035399  -0.005807   0.014816   0.000652
    18  H   -0.043510   0.389380  -0.035140  -0.002929   0.001731  -0.000244
    19  H   -0.000067  -0.000188   0.004548  -0.030000   0.002794   0.355020
    20  H    0.000002  -0.000192   0.003017  -0.029182   0.000296   0.366375
    21  H    0.000040  -0.000086   0.002967  -0.000110   0.000015  -0.010092
    22  H   -0.000000   0.000000  -0.000000  -0.000002   0.000000  -0.000179
    23  H   -0.000000   0.000000   0.000000  -0.000002   0.000000  -0.000182
    24  H   -0.000000  -0.000001   0.000012   0.000221   0.000903  -0.010295
               7          8          9         10         11         12
     1  C   -0.000002  -0.000056  -0.000004   0.000000   0.000000   0.000000
     2  C   -0.000032  -0.000198  -0.000004   0.000000  -0.000000  -0.000001
     3  O   -0.003693   0.003152   0.000032   0.000001   0.000000   0.000003
     4  C   -0.035598  -0.005705   0.000079   0.000023   0.000000   0.000074
     5  O   -0.004364  -0.000057   0.000004   0.000001  -0.000000   0.000012
     6  C    0.362805  -0.062250   0.006647   0.000464   0.000004   0.006675
     7  C    4.705892   0.544282  -0.028212  -0.032371   0.000341  -0.029024
     8  C    0.544282   4.908241   0.489351  -0.030899   0.005661  -0.050058
     9  C   -0.028212   0.489351   4.897152   0.530489  -0.060750  -0.033658
    10  C   -0.032371  -0.030899   0.530489   4.797326   0.257746   0.531303
    11  Br   0.000341   0.005661  -0.060750   0.257746  34.993637  -0.060587
    12  C   -0.029024  -0.050058  -0.033658   0.531303  -0.060587   4.893641
    13  C    0.552246  -0.034331  -0.049567  -0.030921   0.005625   0.491744
    14  H    0.000008   0.000174   0.000014   0.000000  -0.000000  -0.000000
    15  H    0.000001  -0.000004   0.000000   0.000000   0.000000  -0.000000
    16  H   -0.000000   0.000000   0.000000   0.000000  -0.000000  -0.000000
    17  H   -0.000070   0.000022   0.000000   0.000000  -0.000000  -0.000000
    18  H   -0.000014   0.000006   0.000000   0.000000  -0.000000  -0.000000
    19  H   -0.026257  -0.006827   0.000173   0.000014  -0.000000  -0.000180
    20  H   -0.024645   0.004675  -0.000185   0.000013  -0.000000   0.000200
    21  H   -0.042229   0.368508  -0.039758   0.004583  -0.000156   0.000547
    22  H    0.004028  -0.036175   0.369424  -0.042979  -0.003524   0.005307
    23  H    0.004061   0.000615   0.005261  -0.043177  -0.003546   0.369638
    24  H   -0.040584   0.005722   0.000559   0.004505  -0.000155  -0.039347
              13         14         15         16         17         18
     1  C   -0.000001   0.385479   0.382571   0.375514  -0.036646  -0.043510
     2  C   -0.000015  -0.032466  -0.030445  -0.029845   0.381662   0.389380
     3  O    0.000315   0.001176   0.000537   0.002933  -0.035399  -0.035140
     4  C   -0.003166   0.000226  -0.000156  -0.000052  -0.005807  -0.002929
     5  O    0.002104  -0.000014  -0.000010   0.000015   0.014816   0.001731
     6  C   -0.059508  -0.000045  -0.000016   0.000007   0.000652  -0.000244
     7  C    0.552246   0.000008   0.000001  -0.000000  -0.000070  -0.000014
     8  C   -0.034331   0.000174  -0.000004   0.000000   0.000022   0.000006
     9  C   -0.049567   0.000014   0.000000   0.000000   0.000000   0.000000
    10  C   -0.030921   0.000000   0.000000   0.000000   0.000000   0.000000
    11  Br   0.005625  -0.000000   0.000000  -0.000000  -0.000000  -0.000000
    12  C    0.491744  -0.000000  -0.000000  -0.000000  -0.000000  -0.000000
    13  C    4.890876   0.000000   0.000000  -0.000000  -0.000016   0.000000
    14  H    0.000000   0.581091  -0.031887  -0.026657  -0.006406   0.005490
    15  H    0.000000  -0.031887   0.587939  -0.027925   0.005161  -0.006299
    16  H   -0.000000  -0.026657  -0.027925   0.591531  -0.000741  -0.000042
    17  H   -0.000016  -0.006406   0.005161  -0.000741   0.594836  -0.043360
    18  H    0.000000   0.005490  -0.006299  -0.000042  -0.043360   0.620783
    19  H    0.004421   0.000003   0.000015   0.000000   0.000004  -0.000010
    20  H   -0.006860   0.000001   0.000000  -0.000000  -0.000001   0.000023
    21  H    0.005649   0.000154   0.000030   0.000001   0.000017   0.000006
    22  H    0.000588   0.000000  -0.000000   0.000000  -0.000000   0.000000
    23  H   -0.035532   0.000000  -0.000000   0.000000  -0.000000   0.000000
    24  H    0.368906   0.000000   0.000000  -0.000000   0.000000   0.000000
              19         20         21         22         23         24
     1  C   -0.000067   0.000002   0.000040  -0.000000  -0.000000  -0.000000
     2  C   -0.000188  -0.000192  -0.000086   0.000000   0.000000  -0.000001
     3  O    0.004548   0.003017   0.002967  -0.000000   0.000000   0.000012
     4  C   -0.030000  -0.029182  -0.000110  -0.000002  -0.000002   0.000221
     5  O    0.002794   0.000296   0.000015   0.000000   0.000000   0.000903
     6  C    0.355020   0.366375  -0.010092  -0.000179  -0.000182  -0.010295
     7  C   -0.026257  -0.024645  -0.042229   0.004028   0.004061  -0.040584
     8  C   -0.006827   0.004675   0.368508  -0.036175   0.000615   0.005722
     9  C    0.000173  -0.000185  -0.039758   0.369424   0.005261   0.000559
    10  C    0.000014   0.000013   0.004583  -0.042979  -0.043177   0.004505
    11  Br  -0.000000  -0.000000  -0.000156  -0.003524  -0.003546  -0.000155
    12  C   -0.000180   0.000200   0.000547   0.005307   0.369638  -0.039347
    13  C    0.004421  -0.006860   0.005649   0.000588  -0.035532   0.368906
    14  H    0.000003   0.000001   0.000154   0.000000   0.000000   0.000000
    15  H    0.000015   0.000000   0.000030  -0.000000  -0.000000   0.000000
    16  H    0.000000  -0.000000   0.000001   0.000000   0.000000  -0.000000
    17  H    0.000004  -0.000001   0.000017  -0.000000  -0.000000   0.000000
    18  H   -0.000010   0.000023   0.000006   0.000000   0.000000   0.000000
    19  H    0.591860  -0.028434   0.004149  -0.000007   0.000003   0.000094
    20  H   -0.028434   0.577460   0.000073   0.000003  -0.000007   0.004828
    21  H    0.004149   0.000073   0.614679  -0.006231   0.000018  -0.000201
    22  H   -0.000007   0.000003  -0.006231   0.602329  -0.000174   0.000018
    23  H    0.000003  -0.000007   0.000018  -0.000174   0.599476  -0.006159
    24  H    0.000094   0.004828  -0.000201   0.000018  -0.006159   0.609291
 Mulliken charges:
               1
     1  C   -0.337538
     2  C    0.042552
     3  O   -0.451313
     4  C    0.605668
     5  O   -0.468198
     6  C   -0.307064
     7  C    0.093430
     8  C   -0.103846
     9  C   -0.087046
    10  C    0.053878
    11  Br  -0.134296
    12  C   -0.086290
    13  C   -0.102557
    14  H    0.123659
    15  H    0.120488
    16  H    0.115261
    17  H    0.131276
    18  H    0.114128
    19  H    0.128870
    20  H    0.132544
    21  H    0.097428
    22  H    0.107573
    23  H    0.109707
    24  H    0.101683
 Sum of Mulliken charges =  -0.00000
 Mulliken charges with hydrogens summed into heavy atoms:
               1
     1  C    0.021871
     2  C    0.287956
     3  O   -0.451313
     4  C    0.605668
     5  O   -0.468198
     6  C   -0.045649
     7  C    0.093430
     8  C   -0.006418
     9  C    0.020527
    10  C    0.053878
    11  Br  -0.134296
    12  C    0.023417
    13  C   -0.000874
 Electronic spatial extent (au):  <R**2>=           4834.8699
 Charge=             -0.0000 electrons
 Dipole moment (field-independent basis, Debye):
    X=             -1.7178    Y=              0.9254    Z=              1.4983  Tot=              2.4601
 Quadrupole moment (field-independent basis, Debye-Ang):
   XX=            -87.7685   YY=            -83.3163   ZZ=            -89.1044
   XY=             -7.1622   XZ=             -4.7405   YZ=             -1.7132
 Traceless Quadrupole moment (field-independent basis, Debye-Ang):
   XX=             -1.0387   YY=              3.4134   ZZ=             -2.3746
   XY=             -7.1622   XZ=             -4.7405   YZ=             -1.7132
 Octapole moment (field-independent basis, Debye-Ang**2):
  XXX=             47.8495  YYY=             12.2380  ZZZ=             -7.2023  XYY=             25.6651
  XXY=             34.5968  XXZ=              1.2437  XZZ=             32.2225  YZZ=             11.5424
  YYZ=             -2.1557  XYZ=             19.3352
 Hexadecapole moment (field-independent basis, Debye-Ang**3):
 XXXX=          -4105.5529 YYYY=           -884.6842 ZZZZ=           -347.6060 XXXY=            -36.5966
 XXXZ=            -49.8049 YYYX=             54.3111 YYYZ=              2.8223 ZZZX=            -36.0440
 ZZZY=              1.0889 XXYY=           -842.2679 XXZZ=           -790.8474 YYZZ=           -209.2489
 XXYZ=            -48.7225 YYXZ=            -21.9198 ZZXY=              5.5249
 N-N= 1.016482993624D+03 E-N=-9.418816917828D+03  KE= 3.089525796267D+03
 No NMR shielding tensors so no spin-rotation constants.
 Leave Link  601 at Tue Sep 17 09:53:49 2024, MaxMem=  1342177280 cpu:               0.8 elap:               0.2
 (Enter /groups/ReismanLab/Software/Gaussian16_RevC/Linux_Binary_AVX2-enabled-CPU/g16/l701.exe)
 ... and contract with generalized density number  0.
 Compute integral first derivatives.
 R6Disp: Adding Grimme-D3(BJ) dispersion energy 1st derivatives to the gradient.
 Leave Link  701 at Tue Sep 17 09:53:49 2024, MaxMem=  1342177280 cpu:               0.8 elap:               0.2
 (Enter /groups/ReismanLab/Software/Gaussian16_RevC/Linux_Binary_AVX2-enabled-CPU/g16/l702.exe)
 L702 exits ... SP integral derivatives will be done elsewhere.
 Leave Link  702 at Tue Sep 17 09:53:49 2024, MaxMem=  1342177280 cpu:               0.1 elap:               0.1
 (Enter /groups/ReismanLab/Software/Gaussian16_RevC/Linux_Binary_AVX2-enabled-CPU/g16/l703.exe)
 Integral derivatives from FoFJK, PRISM(SPDF).
 Compute integral first derivatives, UseDBF=F ICtDFT=           0.
 Calling FoFJK, ICntrl=      2127 FMM=F ISym2X=0 I1Cent= 0 IOpClX= 0 NMat=1 NMatS=1 NMatT=0.
 FoFJK:  IHMeth= 1 ICntrl=    2127 DoSepK=F KAlg= 0 I1Cent=           0 FoldK=F
 IRaf=         0 NMat=       1 IRICut=       1 DoRegI=T DoRafI=F ISym2E= 0 IDoP0=0 IntGTp=1.
 FoFCou: FMM=F IPFlag=           0 FMFlag=      100000 FMFlg1=         800
         NFxFlg=           0 DoJE=F BraDBF=F KetDBF=F FulRan=T
         wScrn=  0.000000 ICntrl=      2127 IOpCl=  0 I1Cent=           0 NGrid=           0
         NMat0=    1 NMatS0=      1 NMatT0=    0 NMatD0=    1 NMtDS0=    0 NMtDT0=    0
 Symmetry not used in FoFCou.
 Leave Link  703 at Tue Sep 17 09:53:55 2024, MaxMem=  1342177280 cpu:              48.3 elap:               6.2
 (Enter /groups/ReismanLab/Software/Gaussian16_RevC/Linux_Binary_AVX2-enabled-CPU/g16/l716.exe)
 Dipole        =-6.75829122D-01 3.64075650D-01 5.89474949D-01
 ***** Axes restored to original set *****
 -------------------------------------------------------------------
 Center     Atomic                   Forces (Hartrees/Bohr)
 Number     Number              X              Y              Z
 -------------------------------------------------------------------
      1        6          -0.000621124   -0.008077992   -0.002004685
      2        6           0.004144388    0.004076151    0.009223257
      3        8          -0.002315343    0.012846569   -0.010586563
      4        6          -0.003198340   -0.008176348   -0.011102333
      5        8           0.006323209   -0.009096050    0.015087038
      6        6           0.002201072    0.003024699    0.003925896
      7        6           0.001771107   -0.002572113   -0.004822132
      8        6           0.001979168    0.001894717   -0.002598217
      9        6          -0.003794699    0.005779504   -0.000936338
     10        6          -0.005955528    0.001412711    0.002418008
     11       35          -0.002216762    0.000489437    0.000840506
     12        6          -0.004303179   -0.003336154    0.004494108
     13        6           0.002473728   -0.002796791    0.000258398
     14        1          -0.004029641    0.001847611    0.000965561
     15        1           0.000795945    0.002952312   -0.004089557
     16        1           0.002640205    0.003324213    0.002668854
     17        1           0.001664998   -0.000250139   -0.001369753
     18        1          -0.000073523   -0.001026850    0.001066271
     19        1           0.000340717   -0.001173795   -0.002606930
     20        1           0.001645745   -0.000734580   -0.000699121
     21        1           0.002115839    0.002581321   -0.002461107
     22        1          -0.001791551    0.002680910   -0.000744600
     23        1          -0.001920393   -0.001898343    0.001990793
     24        1           0.002123963   -0.003770998    0.001082645
 -------------------------------------------------------------------
 Cartesian Forces:  Max     0.015087038 RMS     0.004425443
 Leave Link  716 at Tue Sep 17 09:53:55 2024, MaxMem=  1342177280 cpu:               0.1 elap:               0.0
 (Enter /groups/ReismanLab/Software/Gaussian16_RevC/Linux_Binary_AVX2-enabled-CPU/g16/l103.exe)

 GradGradGradGradGradGradGradGradGradGradGradGradGradGradGradGradGradGrad
 Berny optimization.
 FormGI is forming the generalized inverse of G from B-inverse, IUseBI=4.
 Internal  Forces:  Max     0.018707685 RMS     0.003749044
 Search for a local minimum.
 Step number   1 out of a maximum of  124
 All quantities printed in internal units (Hartrees-Bohrs-Radians)
 RMS Force = .37490D-02 SwitMx=.10000D-02 MixMth= 1
 Mixed Optimization -- RFO/linear search
 Second derivative matrix not updated -- first step.
 ITU=  0
     Eigenvalues ---    0.00497   0.00537   0.00703   0.01027   0.01282
     Eigenvalues ---    0.01617   0.02235   0.02265   0.02273   0.02293
     Eigenvalues ---    0.02298   0.02303   0.02307   0.02309   0.02601
     Eigenvalues ---    0.05305   0.05728   0.05740   0.05795   0.05848
     Eigenvalues ---    0.06705   0.08918   0.11372   0.12587   0.13681
     Eigenvalues ---    0.16000   0.16000   0.16000   0.16000   0.16000
     Eigenvalues ---    0.16000   0.16000   0.17950   0.21983   0.21999
     Eigenvalues ---    0.22006   0.22979   0.23993   0.24969   0.24986
     Eigenvalues ---    0.25000   0.25000   0.25000   0.30334   0.30628
     Eigenvalues ---    0.31882   0.34167   0.34223   0.34918   0.34933
     Eigenvalues ---    0.35181   0.35210   0.35281   0.36025   0.36073
     Eigenvalues ---    0.36091   0.36107   0.40845   0.43525   0.43591
     Eigenvalues ---    0.47601   0.47897   0.48399   0.48588   0.59214
     Eigenvalues ---    1.04244
 RFO step:  Lambda=-3.75155428D-03 EMin= 4.96856114D-03
 Linear search not attempted -- first point.
 Iteration  1 RMS(Cart)=  0.03170379 RMS(Int)=  0.00036874
 Iteration  2 RMS(Cart)=  0.00101292 RMS(Int)=  0.00010804
 Iteration  3 RMS(Cart)=  0.00000059 RMS(Int)=  0.00010804
 ITry= 1 IFail=0 DXMaxC= 1.16D-01 DCOld= 1.00D+10 DXMaxT= 3.00D-01 DXLimC= 3.00D+00 Rises=F
 Variable       Old X    -DE/DX   Delta X   Delta X   Delta X     New X
                                 (Linear)    (Quad)   (Total)
    R1        2.86728   0.00062   0.00000   0.00199   0.00199   2.86928
    R2        2.05382   0.00443   0.00000   0.01246   0.01246   2.06627
    R3        2.05335   0.00478   0.00000   0.01342   0.01342   2.06678
    R4        2.05222   0.00496   0.00000   0.01390   0.01390   2.06612
    R5        2.70421   0.00814   0.00000   0.01975   0.01975   2.72396
    R6        2.06956  -0.00155   0.00000  -0.00449  -0.00449   2.06507
    R7        2.07049  -0.00006   0.00000  -0.00016  -0.00016   2.07033
    R8        2.51568   0.01634   0.00000   0.02743   0.02743   2.54311
    R9        2.26986   0.01871   0.00000   0.01788   0.01788   2.28774
   R10        2.87303   0.00263   0.00000   0.00855   0.00855   2.88158
   R11        2.84361   0.00872   0.00000   0.02705   0.02705   2.87065
   R12        2.05783   0.00193   0.00000   0.00548   0.00548   2.06331
   R13        2.05809   0.00099   0.00000   0.00282   0.00282   2.06091
   R14        2.62667   0.00951   0.00000   0.01996   0.01996   2.64663
   R15        2.62583   0.00907   0.00000   0.01900   0.01901   2.64483
   R16        2.61285   0.01098   0.00000   0.02242   0.02242   2.63527
   R17        2.04043   0.00414   0.00000   0.01138   0.01138   2.05181
   R18        2.61598   0.00863   0.00000   0.01770   0.01770   2.63368
   R19        2.03939   0.00329   0.00000   0.00901   0.00901   2.04841
   R20        3.60223   0.00242   0.00000   0.01321   0.01321   3.61544
   R21        2.61539   0.00841   0.00000   0.01722   0.01722   2.63261
   R22        2.61353   0.01117   0.00000   0.02283   0.02283   2.63636
   R23        2.03914   0.00333   0.00000   0.00913   0.00913   2.04827
   R24        2.03967   0.00446   0.00000   0.01223   0.01223   2.05190
    A1        1.92433   0.00084   0.00000   0.00548   0.00544   1.92977
    A2        1.92226   0.00228   0.00000   0.01514   0.01509   1.93735
    A3        1.91241   0.00035   0.00000   0.00057   0.00057   1.91299
    A4        1.89729  -0.00122   0.00000  -0.00442  -0.00451   1.89278
    A5        1.90339  -0.00090   0.00000  -0.00785  -0.00784   1.89555
    A6        1.90387  -0.00142   0.00000  -0.00934  -0.00935   1.89452
    A7        1.89482  -0.00374   0.00000  -0.01590  -0.01586   1.87896
    A8        1.94819   0.00174   0.00000   0.01168   0.01169   1.95988
    A9        1.93951   0.00152   0.00000   0.00771   0.00768   1.94718
   A10        1.89748   0.00124   0.00000   0.00690   0.00695   1.90443
   A11        1.89129   0.00083   0.00000   0.00021   0.00023   1.89152
   A12        1.89135  -0.00158   0.00000  -0.01072  -0.01076   1.88059
   A13        2.04846  -0.00067   0.00000  -0.00264  -0.00264   2.04582
   A14        2.17503   0.00079   0.00000   0.00232   0.00177   2.17680
   A15        1.92926  -0.00021   0.00000  -0.00154  -0.00208   1.92718
   A16        2.17808  -0.00061   0.00000  -0.00308  -0.00361   2.17447
   A17        1.85902   0.00717   0.00000   0.03770   0.03752   1.89653
   A18        1.90509  -0.00077   0.00000   0.00562   0.00532   1.91041
   A19        1.89744  -0.00329   0.00000  -0.01974  -0.01983   1.87760
   A20        1.93357  -0.00190   0.00000  -0.00244  -0.00279   1.93078
   A21        1.93401  -0.00067   0.00000   0.00098   0.00111   1.93512
   A22        1.93272  -0.00031   0.00000  -0.02020  -0.02028   1.91244
   A23        2.09940   0.00146   0.00000   0.00574   0.00573   2.10513
   A24        2.10286   0.00041   0.00000   0.00160   0.00159   2.10445
   A25        2.07989  -0.00188   0.00000  -0.00761  -0.00761   2.07228
   A26        2.10716   0.00105   0.00000   0.00459   0.00460   2.11175
   A27        2.08876  -0.00069   0.00000  -0.00330  -0.00330   2.08546
   A28        2.08727  -0.00036   0.00000  -0.00131  -0.00131   2.08596
   A29        2.07842   0.00004   0.00000  -0.00003  -0.00003   2.07839
   A30        2.10568   0.00035   0.00000   0.00227   0.00227   2.10795
   A31        2.09909  -0.00039   0.00000  -0.00224  -0.00224   2.09685
   A32        2.08325   0.00026   0.00000   0.00114   0.00114   2.08439
   A33        2.11521  -0.00035   0.00000  -0.00161  -0.00162   2.11359
   A34        2.08473   0.00009   0.00000   0.00048   0.00048   2.08521
   A35        2.07889   0.00003   0.00000  -0.00013  -0.00013   2.07876
   A36        2.09964  -0.00041   0.00000  -0.00235  -0.00235   2.09729
   A37        2.10465   0.00038   0.00000   0.00249   0.00249   2.10713
   A38        2.10670   0.00112   0.00000   0.00483   0.00483   2.11154
   A39        2.08983  -0.00078   0.00000  -0.00374  -0.00374   2.08609
   A40        2.08665  -0.00034   0.00000  -0.00111  -0.00111   2.08554
    D1        1.06395   0.00049   0.00000   0.00886   0.00888   1.07283
    D2       -1.02731   0.00031   0.00000   0.00347   0.00351  -1.02379
    D3       -3.14089   0.00006   0.00000   0.00374   0.00374  -3.13715
    D4       -1.02981   0.00001   0.00000   0.00121   0.00119  -1.02863
    D5       -3.12107  -0.00016   0.00000  -0.00418  -0.00418  -3.12525
    D6        1.04854  -0.00041   0.00000  -0.00391  -0.00395   1.04458
    D7       -3.12418   0.00012   0.00000   0.00295   0.00295  -3.12123
    D8        1.06775  -0.00006   0.00000  -0.00244  -0.00242   1.06533
    D9       -1.04583  -0.00030   0.00000  -0.00217  -0.00220  -1.04803
   D10       -2.74172  -0.00050   0.00000  -0.02376  -0.02374  -2.76546
   D11       -0.61911   0.00010   0.00000  -0.01501  -0.01501  -0.63413
   D12        1.43306  -0.00064   0.00000  -0.02386  -0.02388   1.40919
   D13       -0.02762  -0.00063   0.00000  -0.00607  -0.00600  -0.03361
   D14        3.07222  -0.00148   0.00000  -0.06468  -0.06475   3.00746
   D15       -1.52840   0.00057   0.00000   0.04284   0.04260  -1.48580
   D16        0.56000   0.00197   0.00000   0.06440   0.06444   0.62445
   D17        2.66996  -0.00088   0.00000   0.03119   0.03127   2.70123
   D18        1.57135  -0.00025   0.00000  -0.01575  -0.01591   1.55544
   D19       -2.62344   0.00116   0.00000   0.00581   0.00594  -2.61750
   D20       -0.51348  -0.00169   0.00000  -0.02739  -0.02724  -0.54072
   D21        1.50938   0.00080   0.00000   0.01491   0.01488   1.52426
   D22       -1.58303   0.00097   0.00000   0.02156   0.02156  -1.56147
   D23       -0.56044  -0.00150   0.00000  -0.01289  -0.01295  -0.57339
   D24        2.63033  -0.00133   0.00000  -0.00624  -0.00627   2.62406
   D25       -2.71291   0.00072   0.00000   0.01400   0.01405  -2.69886
   D26        0.47786   0.00089   0.00000   0.02066   0.02073   0.49859
   D27       -3.10748   0.00022   0.00000   0.00957   0.00956  -3.09791
   D28        0.03188   0.00011   0.00000   0.00529   0.00529   0.03716
   D29       -0.01442   0.00012   0.00000   0.00325   0.00326  -0.01116
   D30        3.12494   0.00000   0.00000  -0.00102  -0.00102   3.12392
   D31        3.10717  -0.00020   0.00000  -0.00963  -0.00961   3.09756
   D32       -0.02988  -0.00012   0.00000  -0.00634  -0.00632  -0.03620
   D33        0.01421  -0.00013   0.00000  -0.00342  -0.00343   0.01078
   D34       -3.12284  -0.00004   0.00000  -0.00013  -0.00014  -3.12298
   D35        0.00585  -0.00004   0.00000  -0.00124  -0.00125   0.00460
   D36       -3.13681   0.00001   0.00000   0.00053   0.00052  -3.13629
   D37       -3.13351   0.00008   0.00000   0.00304   0.00303  -3.13047
   D38        0.00702   0.00013   0.00000   0.00480   0.00480   0.01182
   D39       -3.13913   0.00004   0.00000   0.00141   0.00141  -3.13772
   D40        0.00316  -0.00002   0.00000  -0.00057  -0.00058   0.00258
   D41        0.00353  -0.00001   0.00000  -0.00035  -0.00035   0.00318
   D42       -3.13737  -0.00007   0.00000  -0.00233  -0.00234  -3.13971
   D43       -0.00336   0.00001   0.00000   0.00040   0.00041  -0.00295
   D44        3.13606   0.00006   0.00000   0.00206   0.00206   3.13813
   D45        3.13893  -0.00004   0.00000  -0.00158  -0.00158   3.13735
   D46       -0.00483   0.00000   0.00000   0.00007   0.00008  -0.00476
   D47       -0.00544   0.00005   0.00000   0.00157   0.00158  -0.00386
   D48        3.13161  -0.00004   0.00000  -0.00172  -0.00171   3.12990
   D49        3.13833   0.00000   0.00000  -0.00008  -0.00007   3.13825
   D50       -0.00781  -0.00009   0.00000  -0.00337  -0.00337  -0.01117
         Item               Value     Threshold  Converged?
 Maximum Force            0.018708     0.000450     NO 
 RMS     Force            0.003749     0.000300     NO 
 Maximum Displacement     0.116072     0.001800     NO 
 RMS     Displacement     0.031796     0.001200     NO 
 Predicted change in Energy=-1.923384D-03
 Lowest energy point so far.  Saving SCF results.
 GradGradGradGradGradGradGradGradGradGradGradGradGradGradGradGradGradGrad

 Leave Link  103 at Tue Sep 17 09:53:55 2024, MaxMem=  1342177280 cpu:               0.1 elap:               0.0
 (Enter /groups/ReismanLab/Software/Gaussian16_RevC/Linux_Binary_AVX2-enabled-CPU/g16/l202.exe)
                          Input orientation:                          
 ---------------------------------------------------------------------
 Center     Atomic      Atomic             Coordinates (Angstroms)
 Number     Number       Type             X           Y           Z
 ---------------------------------------------------------------------
      1          6           0        3.987158    2.906904   -0.035877
      2          6           0        4.288092    1.436627    0.194629
      3          8           0        3.490552    0.676204   -0.734614
      4          6           0        3.252629   -0.612911   -0.430259
      5          8           0        3.686741   -1.182428    0.545853
      6          6           0        2.247870   -1.213565   -1.407448
      7          6           0        0.845017   -0.896695   -0.918353
      8          6           0        0.216548    0.301030   -1.281645
      9          6           0       -1.050114    0.623540   -0.795586
     10          6           0       -1.690097   -0.263093    0.068508
     11         35           0       -3.430773    0.166547    0.736205
     12          6           0       -1.084097   -1.457226    0.452672
     13          6           0        0.183145   -1.765193   -0.042869
     14          1           0        2.931469    3.117566    0.155751
     15          1           0        4.216788    3.197358   -1.064988
     16          1           0        4.592813    3.515815    0.640739
     17          1           0        4.050545    1.119582    1.213081
     18          1           0        5.343772    1.208105    0.011340
     19          1           0        2.412360   -0.794085   -2.401996
     20          1           0        2.416535   -2.290732   -1.432744
     21          1           0        0.725952    0.991468   -1.947002
     22          1           0       -1.535332    1.549269   -1.082951
     23          1           0       -1.594276   -2.134277    1.128066
     24          1           0        0.665948   -2.689070    0.261026
 ---------------------------------------------------------------------
                    Distance matrix (angstroms):
                    1          2          3          4          5
     1  C    0.000000
     2  C    1.518357   0.000000
     3  O    2.389743   1.441459   0.000000
     4  C    3.617204   2.379764   1.345755   0.000000
     5  O    4.141412   2.710061   2.265523   1.210619   0.000000
     6  C    4.678097   3.708460   2.359702   1.524868   2.426253
     7  C    5.011904   4.305565   3.083282   2.472926   3.209508
     8  C    4.749739   4.477325   3.340525   3.282976   4.193166
     9  C    5.582564   5.489816   4.541382   4.491756   5.243927
    10  C    6.503153   6.216405   5.326012   4.980128   5.475712
    11  Br   7.945525   7.841383   7.094209   6.829060   7.246722
    12  C    6.708348   6.107486   5.185421   4.505511   4.779654
    13  C    6.024870   5.211396   4.168678   3.301448   3.600194
    14  H    1.093425   2.160438   2.658115   3.789857   4.383214
    15  H    1.093692   2.166078   2.644388   3.981286   4.696625
    16  H    1.093344   2.148230   3.342150   4.470963   4.785755
    17  H    2.181383   1.092790   2.074534   2.517692   2.424211
    18  H    2.174523   1.095573   2.067314   2.807844   2.957381
    19  H    4.666458   3.903449   2.470711   2.150959   3.234915
    20  H    5.606560   4.477083   3.231657   2.125820   2.599347
    21  H    4.237541   4.180142   3.035176   3.355389   4.439191
    22  H    5.782511   5.962982   5.113032   5.293920   6.114345
    23  H    7.610563   6.944416   6.101136   5.313701   5.397604
    24  H    6.514101   5.490511   4.504970   3.388101   3.387667
                    6          7          8          9         10
     6  C    0.000000
     7  C    1.519084   0.000000
     8  C    2.536946   1.400536   0.000000
     9  C    3.824399   2.432634   1.394525   0.000000
    10  C    4.311545   2.793233   2.403423   1.393683   0.000000
    11  Br   6.224704   4.706424   4.170462   2.867536   1.913208
    12  C    3.823796   2.432156   2.791236   2.426703   1.393115
    13  C    2.535638   1.399585   2.409349   2.791694   2.403694
    14  H    4.655062   4.649869   4.167707   4.793560   5.726722
    15  H    4.842537   5.305810   4.943438   5.868337   6.939079
    16  H    5.662232   5.995581   5.760390   6.501609   7.354083
    17  H    3.944666   4.345550   4.646851   5.504319   6.014716
    18  H    4.178763   5.053050   5.364981   6.471061   7.186307
    19  H    1.091855   2.160623   2.697416   4.071725   4.818246
    20  H    1.090586   2.162778   3.402941   4.573468   4.819700
    21  H    2.733043   2.153475   1.085770   2.148382   3.387255
    22  H    4.695867   3.417000   2.160246   1.083969   2.152781
    23  H    4.694531   3.416078   3.875115   3.406186   2.152481
    24  H    2.731921   2.153046   3.394480   3.877458   3.387237
                   11         12         13         14         15
    11  Br   0.000000
    12  C    2.867737   0.000000
    13  C    4.171209   1.395101   0.000000
    14  H    7.037299   6.094396   5.606610   0.000000
    15  H    8.421123   7.215804   6.476258   1.774434   0.000000
    16  H    8.695093   7.549424   6.913866   1.775916   1.775476
    17  H    7.556839   5.795060   4.985592   2.522343   3.087781
    18  H    8.865829   6.972537   5.956133   3.079952   2.526995
[...]
 NucSpn=           1           1           1           1
 AtZEff=   1.0000000   1.0000000   1.0000000   1.0000000
 NQMom=    0.0000000   0.0000000   0.0000000   0.0000000
 NMagM=    2.7928460   2.7928460   2.7928460   2.7928460
 AtZNuc=   1.0000000   1.0000000   1.0000000   1.0000000
 Leave Link  101 at Tue Sep 17 11:24:11 2024, MaxMem=  1342177280 cpu:               0.3 elap:               0.4
 (Enter /groups/ReismanLab/Software/Gaussian16_RevC/Linux_Binary_AVX2-enabled-CPU/g16/l202.exe)
                          Input orientation:                          
 ---------------------------------------------------------------------
 Center     Atomic      Atomic             Coordinates (Angstroms)
 Number     Number       Type             X           Y           Z
 ---------------------------------------------------------------------
      1          6           0        4.114030    2.944008   -0.103196
      2          6           0        4.217810    1.475169    0.251727
      3          8           0        3.351843    0.751829   -0.654021
      4          6           0        3.253854   -0.576168   -0.437270
      5          8           0        3.871321   -1.172341    0.416470
      6          6           0        2.232218   -1.198352   -1.375839
      7          6           0        0.827435   -0.898993   -0.892808
      8          6           0        0.203407    0.310781   -1.217345
      9          6           0       -1.073287    0.607032   -0.745971
     10          6           0       -1.727023   -0.318850    0.064171
     11         35           0       -3.480662    0.076510    0.712669
     12          6           0       -1.126630   -1.526326    0.408796
     13          6           0        0.151541   -1.807083   -0.072256
     14          1           0        3.085301    3.297900    0.007585
     15          1           0        4.430772    3.119755   -1.135014
     16          1           0        4.754969    3.533143    0.559381
     17          1           0        3.897959    1.273178    1.278088
     18          1           0        5.237495    1.093499    0.142525
     19          1           0        2.382189   -0.795625   -2.381453
     20          1           0        2.415955   -2.273635   -1.391962
     21          1           0        0.725388    1.031725   -1.838466
     22          1           0       -1.556534    1.542256   -1.002988
     23          1           0       -1.648872   -2.234132    1.041505
     24          1           0        0.628762   -2.744538    0.197210
 ---------------------------------------------------------------------
                    Distance matrix (angstroms):
                    1          2          3          4          5
     1  C    0.000000
     2  C    1.514671   0.000000
     3  O    2.385369   1.446893   0.000000
     4  C    3.639113   2.368948   1.349133   0.000000
     5  O    4.156114   2.675164   2.262351   1.210602   0.000000
     6  C    4.724403   3.706651   2.361734   1.520449   2.428930
     7  C    5.117992   4.294327   3.025701   2.489827   3.324780
     8  C    4.844397   4.430509   3.228701   3.271150   4.280490
     9  C    5.725633   5.453877   4.428454   4.496600   5.382061
    10  C    6.692694   6.212465   5.239946   5.012663   5.673977
    11  Br   8.158892   7.838060   7.000501   6.863093   7.463176
    12  C    6.907281   6.131613   5.135785   4.561498   5.010476
    13  C    6.186691   5.235713   4.138649   3.357490   3.805064
    14  H    1.093524   2.159752   2.644096   3.903167   4.557199
    15  H    1.093555   2.161727   2.646227   3.941044   4.598061
    16  H    1.094025   2.149057   3.343174   4.486992   4.789867
    17  H    2.178601   1.093857   2.074390   2.603345   2.593002
    18  H    2.178746   1.094236   2.075309   2.656837   2.659982
    19  H    4.708989   3.931875   2.513734   2.141917   3.191833
    20  H    5.636326   4.472351   3.251749   2.120119   2.569312
    21  H    4.260385   4.094211   2.894740   3.307841   4.454159
    22  H    5.910146   5.909472   4.983846   5.286548   6.232616
    23  H    7.831635   6.985744   6.066129   5.382596   5.656023
    24  H    6.678090   5.539870   4.512687   3.463452   3.610272
                    6          7          8          9         10
     6  C    0.000000
     7  C    1.515371   0.000000
     8  C    2.533511   1.399388   0.000000
     9  C    3.818705   2.429489   1.392805   0.000000
    10  C    4.303806   2.788840   2.401100   1.393182   0.000000
    11  Br   6.214832   4.699878   4.165597   2.864356   1.911049
    12  C    3.817636   2.430245   2.790752   2.426427   1.391847
    13  C    2.529644   1.398130   2.408167   2.789632   2.400510
    14  H    4.780993   4.850008   4.327661   5.010238   6.020178
    15  H    4.851565   5.403058   5.076192   6.062986   7.154054
    16  H    5.700561   6.097393   5.852956   6.650913   7.556408
    17  H    3.990800   4.342721   4.561042   5.408683   5.970642
    18  H    4.073045   4.948794   5.272944   6.391561   7.106713
    19  H    1.093590   2.154996   2.706727   4.072169   4.805623
    20  H    1.090987   2.159211   3.406621   4.570597   4.806847
    21  H    2.730898   2.152290   1.085364   2.146891   3.385026
    22  H    4.690906   3.413963   2.158674   1.083619   2.152118
    23  H    4.688204   3.414127   3.874264   3.405669   2.151649
    24  H    2.726947   2.152591   3.393651   3.875510   3.383990
                   11         12         13         14         15
    11  Br   0.000000
    12  C    2.864068   0.000000
    13  C    4.166164   1.394258   0.000000
    14  H    7.347542   6.416735   5.888478   0.000000
    15  H    8.675601   7.406358   6.611733   1.774137   0.000000
    16  H    8.932940   7.759775   7.078738   1.774150   1.773969
    17  H    7.496382   5.817163   5.034589   2.524696   3.084931
    18  H    8.795771   6.887413   5.858877   3.083752   2.527572
    19  H    6.686346   4.542160   3.366189   4.791536   4.591350
    20  H    6.687506   4.043650   2.662118   5.783490   5.763173
    21  H    5.011145   3.876052   3.392289   3.756680   4.310984
    22  H    2.965495   3.405018   3.873222   5.064601   6.193042
    23  H    2.966926   1.083535   2.159704   7.354234   8.388290
    24  H    5.011125   2.147140   1.085898   6.525457   7.114775
                   16         17         18         19         20
    16  H    0.000000
    17  H    2.521596   0.000000
    18  H    2.521599   1.765261   0.000000
    19  H    5.746026   4.468752   4.253472   0.000000
    20  H    6.557240   4.680319   4.653314   1.778973   0.000000
    21  H    5.314536   4.453809   4.928210   2.525674   3.739356
    22  H    6.799978   5.918378   6.904521   4.783241   5.522046
    23  H    8.631517   6.566927   7.700866   5.480456   4.737737
    24  H    7.521039   5.291312   5.997827   3.677263   2.437473
                   21         22         23         24
    21  H    0.000000
    22  H    2.483110   0.000000
    23  H    4.959553   4.295298   0.000000
    24  H    4.291092   4.959092   2.482130   0.000000
 Stoichiometry    C10H11BrO2
 Framework group  C1[X(C10H11BrO2)]
 Deg. of freedom    66
 Full point group                 C1      NOp   1
 RotChk:  IX=0 Diff= 9.75D-16
 Largest Abelian subgroup         C1      NOp   1
 Largest concise Abelian subgroup C1      NOp   1
                         Standard orientation:                         
 ---------------------------------------------------------------------
 Center     Atomic      Atomic             Coordinates (Angstroms)
 Number     Number       Type             X           Y           Z
 ---------------------------------------------------------------------
      1          6           0       -4.182305    2.513809   -0.130507
      2          6           0       -4.075643    1.098122   -0.658412
      3          8           0       -3.246774    0.355755    0.266449
      4          6           0       -2.973491   -0.918343   -0.083049
      5          8           0       -3.413479   -1.460593   -1.071954
      6          6           0       -2.006459   -1.549620    0.905942
      7          6           0       -0.597449   -1.054940    0.648391
      8          6           0       -0.157891    0.160119    1.185707
      9          6           0        1.123741    0.637635    0.922452
     10          6           0        1.969964   -0.110216    0.106619
     11         35           0        3.731821    0.534403   -0.257292
     12          6           0        1.555843   -1.318155   -0.447118
     13          6           0        0.269846   -1.781736   -0.172787
     14          1           0       -3.194622    2.978512   -0.064723
     15          1           0       -4.637194    2.526549    0.863865
     16          1           0       -4.802822    3.115357   -0.801320
     17          1           0       -3.615353    1.059096   -1.649942
     18          1           0       -5.051062    0.607088   -0.727676
     19          1           0       -2.319525   -1.293075    1.921873
     20          1           0       -2.067432   -2.631257    0.777118
     21          1           0       -0.828426    0.742379    1.809703
     22          1           0        1.463643    1.576258    1.343977
     23          1           0        2.226519   -1.885965   -1.081021
     24          1           0       -0.062382   -2.720405   -0.606032
 ---------------------------------------------------------------------
 Rotational constants (GHZ):           1.2506518           0.2192662           0.1999422
 Leave Link  202 at Tue Sep 17 11:24:11 2024, MaxMem=  1342177280 cpu:               0.0 elap:               0.0
 (Enter /groups/ReismanLab/Software/Gaussian16_RevC/Linux_Binary_AVX2-enabled-CPU/g16/l301.exe)
 Standard basis: def2TZVP (5D, 7F)
 Ernie: Thresh=  0.10000D-02 Tol=  0.10000D-05 Strict=F.
 There are   553 symmetry adapted cartesian basis functions of A   symmetry.
 There are   486 symmetry adapted basis functions of A   symmetry.
   486 basis functions,   814 primitive gaussians,   553 cartesian basis functions
    61 alpha electrons       61 beta electrons
       nuclear repulsion energy      1007.4440001090 Hartrees.
 IExCor= 4336 DFT=T Ex+Corr=M062X ExCW=0 ScaHFX=  0.540000
 ScaDFX=  1.000000  1.000000  1.000000  1.000000 ScalE2=  1.000000  1.000000
 IRadAn=      5 IRanWt=     -1 IRanGd=            0 ICorTp=0 IEmpDi=  4
 NAtoms=   24 NActive=   24 NUniq=   24 SFac= 1.00D+00 NAtFMM=   60 NAOKFM=F Big=F
 Integral buffers will be    131072 words long.
 Raffenetti 2 integral format.
 Two-electron integral symmetry is turned on.
 ------------------------------------------------------------------------------
 Polarizable Continuum Model (PCM)
 =================================
 Model                : PCM.
 Atomic radii         : SMD-Coulomb.
 Polarization charges : Total charges.
 Charge compensation  : None.
 Solution method      : On-the-fly selection.
 Cavity type          : VdW (van der Waals Surface) (Alpha=1.000).
 Cavity algorithm     : GePol (No added spheres)
                        Default sphere list used, NSphG=   24.
                        Lebedev-Laikov grids with approx.  5.0 points / Ang**2.
                        Smoothing algorithm: York/Karplus (Gamma=1.0000).
                        Polarization charges: spherical gaussians, with
                                              point-specific exponents (IZeta= 3).
                        Self-potential: point-specific (ISelfS= 7).
                        Self-field    : sphere-specific E.n sum rule (ISelfD= 2).
 Solvent              : 1,4-Dioxane, Eps=   2.209900 Eps(inf)=   2.023222
 ------------------------------------------------------------------------------
 GePol: Number of generator spheres                  =      24
 GePol: Total number of spheres                      =      24
 GePol: Number of exposed spheres                    =      24 (100.00%)
 GePol: Number of points                             =    2060
 GePol: Average weight of points                     =       0.13
 GePol: Minimum weight of points                     =   0.21D-07
 GePol: Maximum weight of points                     =    0.21647
 GePol: Number of points with low weight             =      95
 GePol: Fraction of low-weight points (<1% of avg)   =       4.61%
 GePol: Cavity surface area                          =    263.654 Ang**2
 GePol: Cavity volume                                =    261.135 Ang**3
 ------------------------------------------------------------------------------
 Atomic radii for non-electrostatic terms: SMD-CDS.
 ------------------------------------------------------------------------------
 PCM non-electrostatic energy =        -0.0063718271 Hartrees.
 Nuclear repulsion after PCM non-electrostatic terms =     1007.4376282819 Hartrees.
 Leave Link  301 at Tue Sep 17 11:24:11 2024, MaxMem=  1342177280 cpu:               0.1 elap:               0.1
 (Enter /groups/ReismanLab/Software/Gaussian16_RevC/Linux_Binary_AVX2-enabled-CPU/g16/l302.exe)
 NPDir=0 NMtPBC=     1 NCelOv=     1 NCel=       1 NClECP=     1 NCelD=      1
         NCelK=      1 NCelE2=     1 NClLst=     1 CellRange=     0.0.
 One-electron integrals computed using PRISM.
 One-electron integral symmetry used in STVInt
   1 Symmetry operations used in ECPInt.
 ECPInt:  NShTT=   18528 NPrTT=   60048 LenC2=   16907 LenP2D=   39756.
 LDataN:  DoStor=T MaxTD1= 6 Len=  172
 NBasis=   486 RedAO= T EigKep=  7.71D-06  NBF=   486
 NBsUse=   486 1.00D-06 EigRej= -1.00D+00 NBFU=   486
 Precomputing XC quadrature grid using
 IXCGrd= 4 IRadAn=           5 IRanWt=          -1 IRanGd=           0 AccXCQ= 0.00D+00.
 Generated NRdTot=       0 NPtTot=           0 NUsed=           0 NTot=          32
 NSgBfM=   543   543   543   543   543 MxSgAt=    24 MxSgA2=    24.
 Leave Link  302 at Tue Sep 17 11:24:12 2024, MaxMem=  1342177280 cpu:               1.0 elap:               1.0
 (Enter /groups/ReismanLab/Software/Gaussian16_RevC/Linux_Binary_AVX2-enabled-CPU/g16/l303.exe)
 DipDrv:  MaxL=1.
 Leave Link  303 at Tue Sep 17 11:24:12 2024, MaxMem=  1342177280 cpu:               0.1 elap:               0.1
 (Enter /groups/ReismanLab/Software/Gaussian16_RevC/Linux_Binary_AVX2-enabled-CPU/g16/l308.exe)
 Leave Link  308 at Tue Sep 17 11:24:13 2024, MaxMem=  1342177280 cpu:               0.1 elap:               0.2
 (Enter /groups/ReismanLab/Software/Gaussian16_RevC/Linux_Binary_AVX2-enabled-CPU/g16/l401.exe)
 Initial guess from the checkpoint file:  "smiles_00069_conf_1.chk"
 B after Tr=    -0.000000   -0.000000    0.000000
         Rot=    1.000000    0.000000   -0.000000   -0.000000 Ang=   0.00 deg.
 Guess basis will be translated and rotated to current coordinates.
 JPrj=2 DoOrth=T DoCkMO=T.
 Leave Link  401 at Tue Sep 17 11:24:13 2024, MaxMem=  1342177280 cpu:               0.4 elap:               0.5
 (Enter /groups/ReismanLab/Software/Gaussian16_RevC/Linux_Binary_AVX2-enabled-CPU/g16/l502.exe)
 Integral symmetry usage will be decided dynamically.
 Closed shell SCF:
 Using DIIS extrapolation, IDIIS=  1040.
 NGot=  1342177280 LenX=  1341556886 LenY=  1341250524
 Requested convergence on RMS density matrix=1.00D-08 within  32 cycles.
 Requested convergence on MAX density matrix=1.00D-06.
 Requested convergence on             energy=1.00D-06.
 No special actions if energy rises.
 Fock matrices will be formed incrementally for  20 cycles.

 Cycle   1  Pass 1  IDiag  1:
 FoFJK:  IHMeth= 1 ICntrl=       0 DoSepK=F KAlg= 0 I1Cent=           0 FoldK=F
 IRaf= 860000000 NMat=       1 IRICut=       1 DoRegI=T DoRafI=F ISym2E= 0 IDoP0=0 IntGTp=1.
 FoFCou: FMM=F IPFlag=           0 FMFlag=      100000 FMFlg1=           0
         NFxFlg=           0 DoJE=F BraDBF=F KetDBF=F FulRan=T
         wScrn=  0.000000 ICntrl=         0 IOpCl=  0 I1Cent=           0 NGrid=           0
         NMat0=    1 NMatS0=      1 NMatT0=    0 NMatD0=    1 NMtDS0=    0 NMtDT0=    0
 Symmetry not used in FoFCou.
 Inv3:  Mode=1 IEnd=    12730800.
 Iteration    1 A*A^-1 deviation from unit magnitude is 2.89D-15 for   1136.
 Iteration    1 A*A^-1 deviation from orthogonality  is 1.52D-15 for   1568    155.
 Iteration    1 A^-1*A deviation from unit magnitude is 3.11D-15 for   1577.
 Iteration    1 A^-1*A deviation from orthogonality  is 2.07D-15 for    997    244.
 E= -3112.33746162017    
 DIIS: error= 9.84D-09 at cycle   1 NSaved=   1.
 NSaved= 1 IEnMin= 1 EnMin= -3112.33746162017     IErMin= 1 ErrMin= 9.84D-09
 ErrMax= 9.84D-09  0.00D+00 EMaxC= 1.00D-01 BMatC= 1.70D-13 BMatP= 1.70D-13
 IDIUse=1 WtCom= 1.00D+00 WtEn= 0.00D+00
 Coeff-Com:  0.100D+01
 Coeff:      0.100D+01
 Gap=     0.296 Goal=   None    Shift=    0.000
 RMSDP=1.72D-09 MaxDP=8.28D-08              OVMax= 2.48D-07

 Error on total polarization charges =  0.02208
 SCF Done:  E(RM062X) =  -3112.33746162     A.U. after    1 cycles
            NFock=  1  Conv=0.17D-08     -V/T= 2.0020
 KE= 3.106168195783D+03 PE=-9.421365889075D+03 EE= 2.195422603390D+03
 SMD-CDS (non-electrostatic) energy       (kcal/mol) =      -4.00
 (included in total energy above)
 Leave Link  502 at Tue Sep 17 11:26:42 2024, MaxMem=  1342177280 cpu:             148.0 elap:             148.8
 (Enter /groups/ReismanLab/Software/Gaussian16_RevC/Linux_Binary_AVX2-enabled-CPU/g16/l508.exe)
 QCSCF skips out because SCF is already converged.
 Leave Link  508 at Tue Sep 17 11:26:42 2024, MaxMem=  1342177280 cpu:               0.0 elap:               0.0
 (Enter /groups/ReismanLab/Software/Gaussian16_RevC/Linux_Binary_AVX2-enabled-CPU/g16/l801.exe)
 DoSCS=F DFT=T ScalE2(SS,OS)=  1.000000  1.000000
 Range of M.O.s used for correlation:     1   486
 NBasis=   486 NAE=    61 NBE=    61 NFC=     0 NFV=     0
 NROrb=    486 NOA=    61 NOB=    61 NVA=   425 NVB=   425

 **** Warning!!: The largest alpha MO coefficient is  0.62875183D+02

 Leave Link  801 at Tue Sep 17 11:26:42 2024, MaxMem=  1342177280 cpu:               0.0 elap:               0.1
 (Enter /groups/ReismanLab/Software/Gaussian16_RevC/Linux_Binary_AVX2-enabled-CPU/g16/l1002.exe)
 Minotr:  Closed shell wavefunction.
 NEqPCM:  Using equilibrium solvation (IEInf=0, Eps=   2.2099, EpsInf=   2.0232)
          Direct CPHF calculation.
          Differentiating once with respect to magnetic field using GIAOs.
          Electric field/nuclear overlap derivatives assumed to be zero.
          Requested convergence is 1.0D-08 RMS, and 1.0D-07 maximum.
          Secondary convergence is 1.0D-12 RMS, and 1.0D-12 maximum.
          NewPWx=T KeepS1=F KeepF1=F KeepIn=T MapXYZ=F SortEE=F KeepMc=T.
         7237 words used for storage of precomputed grid.
 Two-electron integral symmetry used by symmetrizing perturbed Fock matrices.
          MDV=    1342177280 using IRadAn=       1.
          Solving linear equations simultaneously, MaxMat=     384.
   1 Symmetry operations used in ECPInt.
 ECPInt:  NShTT=   18528 NPrTT=   60048 LenC2=   18529 LenP2D=   60048.
 LDataN:  DoStor=T MaxTD1= 7 Len=  274
 FoFJK:  IHMeth= 1 ICntrl=    6127 DoSepK=F KAlg= 0 I1Cent=           0 FoldK=F
 IRaf=         1 NMat=       1 IRICut=       1 DoRegI=T DoRafI=F ISym2E= 0 IDoP0=0 IntGTp=1.
          There are     3 degrees of freedom in the 1st order CPHF.  IDoFFX=0 NUNeed=     3.
      3 vectors produced by pass  0 Test12= 8.64D-13 3.33D-08 XBig12= 2.08D+01 7.20D-01.
 AX will form     3 AO Fock derivatives at one time.
      3 vectors produced by pass  1 Test12= 8.64D-13 3.33D-08 XBig12= 1.28D-01 9.73D-02.
      3 vectors produced by pass  2 Test12= 8.64D-13 3.33D-08 XBig12= 2.63D-03 1.38D-02.
      3 vectors produced by pass  3 Test12= 8.64D-13 3.33D-08 XBig12= 3.25D-05 1.29D-03.
      3 vectors produced by pass  4 Test12= 8.64D-13 3.33D-08 XBig12= 4.11D-07 1.73D-04.
      3 vectors produced by pass  5 Test12= 8.64D-13 3.33D-08 XBig12= 5.87D-09 2.40D-05.
      3 vectors produced by pass  6 Test12= 8.64D-13 3.33D-08 XBig12= 5.85D-11 2.29D-06.
      3 vectors produced by pass  7 Test12= 8.64D-13 3.33D-08 XBig12= 6.13D-13 2.76D-07.
