 Entering Gaussian System, Link 0=g16
 Input=smiles_00107_conf_0.gjf
 Output=smiles_00107_conf_0.log
 Initial command:
 /groups/ReismanLab/Software/Gaussian16_RevC/Linux_Binary_AVX2-enabled-CPU/g16/l1.exe "/central/groups/ReismanLab/DM/dft_final/smiles_00107/Gau-3007444.inp" -scrdir="/central/groups/ReismanLab/DM/dft_final/smiles_00107/"
 Entering Link 1 = /groups/ReismanLab/Software/Gaussian16_RevC/Linux_Binary_AVX2-enabled-CPU/g16/l1.exe PID=   3007446.
  
 Copyright (c) 1988-2021, Gaussian, Inc.  All Rights Reserved.
  
 This is part of the Gaussian(R) 16 program.  It is based on
 the Gaussian(R) 09 system (copyright 2009, Gaussian, Inc.),
 the Gaussian(R) 03 system (copyright 2003, Gaussian, Inc.),
 the Gaussian(R) 98 system (copyright 1998, Gaussian, Inc.),
 the Gaussian(R) 94 system (copyright 1995, Gaussian, Inc.),
 the Gaussian 92(TM) system (copyright 1992, Gaussian, Inc.),
 the Gaussian 90(TM) system (copyright 1990, Gaussian, Inc.),
 the Gaussian 88(TM) system (copyright 1988, Gaussian, Inc.),
 the Gaussian 86(TM) system (copyright 1986, Carnegie Mellon
 University), and the Gaussian 82(TM) system (copyright 1983,
 Carnegie Mellon University). Gaussian is a federally registered
 trademark of Gaussian, Inc.
  
 This software contains proprietary and confidential information,
 including trade secrets, belonging to Gaussian, Inc.
  
 This software is provided under written license and may be
 used, copied, transmitted, or stored only in accord with that
 written license.
  
 The following legend is applicable only to US Government
 contracts under FAR:
  
                    RESTRICTED RIGHTS LEGEND
  
 Use, reproduction and disclosure by the US Government is
 subject to restrictions as set forth in subparagraphs (a)
 and (c) of the Commercial Computer Software - Restricted
 Rights clause in FAR 52.227-19.
  
 Gaussian, Inc.
 340 Quinnipiac St., Bldg. 40, Wallingford CT 06492
  
  
 ---------------------------------------------------------------
 Warning -- This program may not be used in any manner that
 competes with the business of Gaussian, Inc. or will provide
 assistance to any competitor of Gaussian, Inc.  The licensee
 of this program is prohibited from giving any competitor of
 Gaussian, Inc. access to this program.  By using this program,
 the user acknowledges that Gaussian, Inc. is engaged in the
 business of creating and licensing software in the field of
 computational chemistry and represents and warrants to the
 licensee that it is not a competitor of Gaussian, Inc. and that
 it will not use this program in any manner prohibited above.
 ---------------------------------------------------------------
  

 Cite this work as:
 Gaussian 16, Revision C.02,
 M. J. Frisch, G. W. Trucks, H. B. Schlegel, G. E. Scuseria, 
 M. A. Robb, J. R. Cheeseman, G. Scalmani, V. Barone, 
 G. A. Petersson, H. Nakatsuji, X. Li, M. Caricato, A. V. Marenich, 
 J. Bloino, B. G. Janesko, R. Gomperts, B. Mennucci, H. P. Hratchian, 
 J. V. Ortiz, A. F. Izmaylov, J. L. Sonnenberg, D. Williams-Young, 
 F. Ding, F. Lipparini, F. Egidi, J. Goings, B. Peng, A. Petrone, 
 T. Henderson, D. Ranasinghe, V. G. Zakrzewski, J. Gao, N. Rega, 
 G. Zheng, W. Liang, M. Hada, M. Ehara, K. Toyota, R. Fukuda, 
 J. Hasegawa, M. Ishida, T. Nakajima, Y. Honda, O. Kitao, H. Nakai, 
 T. Vreven, K. Throssell, J. A. Montgomery, Jr., J. E. Peralta, 
 F. Ogliaro, M. J. Bearpark, J. J. Heyd, E. N. Brothers, K. N. Kudin, 
 V. N. Staroverov, T. A. Keith, R. Kobayashi, J. Normand, 
 K. Raghavachari, A. P. Rendell, J. C. Burant, S. S. Iyengar, 
 J. Tomasi, M. Cossi, J. M. Millam, M. Klene, C. Adamo, R. Cammi, 
 J. W. Ochterski, R. L. Martin, K. Morokuma, O. Farkas, 
 J. B. Foresman, and D. J. Fox, Gaussian, Inc., Wallingford CT, 2019.
 
 ******************************************
 Gaussian 16:  ES64L-G16RevC.02  7-Dec-2021
                17-Sep-2024 
 ******************************************
 %nprocshared=8
 Will use up to    8 processors via shared memory.
 %Mem=10GB
 %Chk=smiles_00107_conf_0.chk
 ----------------------------------------------------------------------
 #p B3LYP/6-31G(d,p) EmpiricalDispersion=GD3BJ opt freq scf(xqc,tight) 
 integral(grid=ultrafine)
 ----------------------------------------------------------------------
 1/18=20,19=15,26=4,38=1/1,3;
 2/9=110,12=2,17=6,18=5,40=1/2;
 3/5=1,6=6,7=101,11=2,25=1,30=1,71=1,74=-5,75=-5,124=41/1,2,3;
 4//1;
 5/5=2,8=3,13=1,32=2,38=5/2,8;
 6/7=2,8=2,9=2,10=2,28=1/1;
 7//1,2,3,16;
 1/18=20,19=15,26=4/3(2);
 2/9=110/2;
 99//99;
 2/9=110/2;
 3/5=1,6=6,7=101,11=2,25=1,30=1,71=1,74=-5,75=-5,124=41/1,2,3;
 4/5=5,16=3,69=1/1;
 5/5=2,8=3,13=1,32=2,38=5/2,8;
 7//1,2,3,16;
 1/18=20,19=15,26=4/3(-5);
 2/9=110/2;
 6/7=2,8=2,9=2,10=2,19=2,28=1/1;
 99/9=1/99;
 Leave Link    1 at Tue Sep 17 09:48:13 2024, MaxMem=  1342177280 cpu:               0.1 elap:               4.6
 (Enter /groups/ReismanLab/Software/Gaussian16_RevC/Linux_Binary_AVX2-enabled-CPU/g16/l101.exe)
 ----------------------------------
 opt-freq conformers_unique/conf_aa
 ----------------------------------
 Symbolic Z-matrix:
 Charge =  0 Multiplicity = 1
 F                    -2.75597   2.4054    0.6076 
 C                    -1.56527   2.49697   0.00607 
 F                    -1.80009   2.91257  -1.25046 
 F                    -0.89425   3.48259   0.61365 
 C                    -0.80952   1.19184   0.02125 
 C                     0.57742   1.21013   0.01784 
 C                     1.26287   0.00488  -0.00001 
 Br                    3.15118   0.01135   0.00001 
 C                     0.58564  -1.20488  -0.01786 
 C                    -0.80153  -1.19616  -0.02083 
 C                    -1.54558  -2.50798  -0.00603 
 F                    -2.75176  -2.41946  -0.57573 
 F                    -1.74396  -2.9447    1.24959 
 F                    -0.88068  -3.47796  -0.64521 
 C                    -1.51296  -0.00462   0.00039 
 H                     1.11399   2.14679   0.03492 
 H                     1.12842  -2.13797  -0.03503 
 H                    -2.59214  -0.00807   0.00053 
 
 ITRead=  0  0  0  0  0  0  0  0  0  0  0  0  0  0  0  0  0  0
 MicOpt= -1 -1 -1 -1 -1 -1 -1 -1 -1 -1 -1 -1 -1 -1 -1 -1 -1 -1
 NAtoms=     18 NQM=       18 NQMF=       0 NMMI=      0 NMMIF=      0
                NMic=       0 NMicF=      0.
                    Isotopes and Nuclear Properties:
 (Nuclear quadrupole moments (NQMom) in fm**2, nuclear magnetic moments (NMagM)
  in nuclear magnetons)

  Atom         1           2           3           4           5           6           7           8           9          10
 IAtWgt=          19          12          19          19          12          12          12          79          12          12
 AtmWgt=  18.9984032  12.0000000  18.9984032  18.9984032  12.0000000  12.0000000  12.0000000  78.9183361  12.0000000  12.0000000
 NucSpn=           1           0           1           1           0           0           0           3           0           0
 AtZEff=  -0.0000000  -0.0000000  -0.0000000  -0.0000000  -0.0000000  -0.0000000  -0.0000000  -0.0000000  -0.0000000  -0.0000000
 NQMom=    0.0000000   0.0000000   0.0000000   0.0000000   0.0000000   0.0000000   0.0000000  31.3000000   0.0000000   0.0000000
 NMagM=    2.6288670   0.0000000   2.6288670   2.6288670   0.0000000   0.0000000   0.0000000   2.1063990   0.0000000   0.0000000
 AtZNuc=   9.0000000   6.0000000   9.0000000   9.0000000   6.0000000   6.0000000   6.0000000  35.0000000   6.0000000   6.0000000

  Atom        11          12          13          14          15          16          17          18
 IAtWgt=          12          19          19          19          12           1           1           1
 AtmWgt=  12.0000000  18.9984032  18.9984032  18.9984032  12.0000000   1.0078250   1.0078250   1.0078250
 NucSpn=           0           1           1           1           0           1           1           1
 AtZEff=  -0.0000000  -0.0000000  -0.0000000  -0.0000000  -0.0000000  -0.0000000  -0.0000000  -0.0000000
 NQMom=    0.0000000   0.0000000   0.0000000   0.0000000   0.0000000   0.0000000   0.0000000   0.0000000
 NMagM=    0.0000000   2.6288670   2.6288670   2.6288670   0.0000000   2.7928460   2.7928460   2.7928460
 AtZNuc=   6.0000000   9.0000000   9.0000000   9.0000000   6.0000000   1.0000000   1.0000000   1.0000000
 Leave Link  101 at Tue Sep 17 09:48:14 2024, MaxMem=  1342177280 cpu:               0.2 elap:               0.2
 (Enter /groups/ReismanLab/Software/Gaussian16_RevC/Linux_Binary_AVX2-enabled-CPU/g16/l103.exe)

 GradGradGradGradGradGradGradGradGradGradGradGradGradGradGradGradGradGrad
 Berny optimization.
 Initialization pass.
                           ----------------------------
                           !    Initial Parameters    !
                           ! (Angstroms and Degrees)  !
 --------------------------                            --------------------------
 ! Name  Definition              Value          Derivative Info.                !
 --------------------------------------------------------------------------------
 ! R1    R(1,2)                  1.3372         estimate D2E/DX2                !
 ! R2    R(2,3)                  1.3441         estimate D2E/DX2                !
 ! R3    R(2,4)                  1.3382         estimate D2E/DX2                !
 ! R4    R(2,5)                  1.5082         estimate D2E/DX2                !
 ! R5    R(5,6)                  1.3871         estimate D2E/DX2                !
 ! R6    R(5,15)                 1.3881         estimate D2E/DX2                !
 ! R7    R(6,7)                  1.3866         estimate D2E/DX2                !
 ! R8    R(6,16)                 1.0796         estimate D2E/DX2                !
 ! R9    R(7,8)                  1.8883         estimate D2E/DX2                !
 ! R10   R(7,9)                  1.3865         estimate D2E/DX2                !
 ! R11   R(9,10)                 1.3872         estimate D2E/DX2                !
 ! R12   R(9,17)                 1.0796         estimate D2E/DX2                !
 ! R13   R(10,11)                1.5082         estimate D2E/DX2                !
 ! R14   R(10,15)                1.3879         estimate D2E/DX2                !
 ! R15   R(11,12)                1.3369         estimate D2E/DX2                !
 ! R16   R(11,13)                1.3441         estimate D2E/DX2                !
 ! R17   R(11,14)                1.3385         estimate D2E/DX2                !
 ! R18   R(15,18)                1.0792         estimate D2E/DX2                !
 ! A1    A(1,2,3)              106.627          estimate D2E/DX2                !
 ! A2    A(1,2,4)              107.0193         estimate D2E/DX2                !
 ! A3    A(1,2,5)              112.4835         estimate D2E/DX2                !
 ! A4    A(3,2,4)              106.5169         estimate D2E/DX2                !
 ! A5    A(3,2,5)              111.3771         estimate D2E/DX2                !
 ! A6    A(4,2,5)              112.4269         estimate D2E/DX2                !
 ! A7    A(2,5,6)              119.315          estimate D2E/DX2                !
 ! A8    A(2,5,15)             119.4584         estimate D2E/DX2                !
 ! A9    A(6,5,15)             121.2016         estimate D2E/DX2                !
 ! A10   A(5,6,7)              118.872          estimate D2E/DX2                !
 ! A11   A(5,6,16)             120.5543         estimate D2E/DX2                !
 ! A12   A(7,6,16)             120.5726         estimate D2E/DX2                !
 ! A13   A(6,7,8)              119.429          estimate D2E/DX2                !
 ! A14   A(6,7,9)              121.137          estimate D2E/DX2                !
 ! A15   A(8,7,9)              119.434          estimate D2E/DX2                !
 ! A16   A(7,9,10)             118.8795         estimate D2E/DX2                !
 ! A17   A(7,9,17)             120.5791         estimate D2E/DX2                !
 ! A18   A(10,9,17)            120.5404         estimate D2E/DX2                !
 ! A19   A(9,10,11)            119.1984         estimate D2E/DX2                !
 ! A20   A(9,10,15)            121.1937         estimate D2E/DX2                !
 ! A21   A(11,10,15)           119.5833         estimate D2E/DX2                !
 ! A22   A(10,11,12)           112.5397         estimate D2E/DX2                !
 ! A23   A(10,11,13)           111.382          estimate D2E/DX2                !
 ! A24   A(10,11,14)           112.3692         estimate D2E/DX2                !
 ! A25   A(12,11,13)           106.6446         estimate D2E/DX2                !
 ! A26   A(12,11,14)           107.0181         estimate D2E/DX2                !
 ! A27   A(13,11,14)           106.4968         estimate D2E/DX2                !
 ! A28   A(5,15,10)            118.715          estimate D2E/DX2                !
 ! A29   A(5,15,18)            120.6318         estimate D2E/DX2                !
 ! A30   A(10,15,18)           120.6532         estimate D2E/DX2                !
 ! D1    D(1,2,5,6)           -151.0753         estimate D2E/DX2                !
 ! D2    D(1,2,5,15)            30.7244         estimate D2E/DX2                !
 ! D3    D(3,2,5,6)             89.2836         estimate D2E/DX2                !
 ! D4    D(3,2,5,15)           -88.9166         estimate D2E/DX2                !
 ! D5    D(4,2,5,6)            -30.1777         estimate D2E/DX2                !
 ! D6    D(4,2,5,15)           151.6221         estimate D2E/DX2                !
 ! D7    D(2,5,6,7)           -178.4948         estimate D2E/DX2                !
 ! D8    D(2,5,6,16)             1.8757         estimate D2E/DX2                !
 ! D9    D(15,5,6,7)            -0.3269         estimate D2E/DX2                !
 ! D10   D(15,5,6,16)         -179.9564         estimate D2E/DX2                !
 ! D11   D(2,5,15,10)          178.3235         estimate D2E/DX2                !
 ! D12   D(2,5,15,18)           -1.6667         estimate D2E/DX2                !
 ! D13   D(6,5,15,10)            0.1582         estimate D2E/DX2                !
 ! D14   D(6,5,15,18)         -179.8321         estimate D2E/DX2                !
 ! D15   D(5,6,7,8)           -179.8295         estimate D2E/DX2                !
 ! D16   D(5,6,7,9)              0.1703         estimate D2E/DX2                !
 ! D17   D(16,6,7,8)            -0.2001         estimate D2E/DX2                !
 ! D18   D(16,6,7,9)           179.7997         estimate D2E/DX2                !
 ! D19   D(6,7,9,10)             0.1494         estimate D2E/DX2                !
 ! D20   D(6,7,9,17)           179.7933         estimate D2E/DX2                !
 ! D21   D(8,7,9,10)          -179.8508         estimate D2E/DX2                !
 ! D22   D(8,7,9,17)            -0.2069         estimate D2E/DX2                !
 ! D23   D(7,9,10,11)         -178.5123         estimate D2E/DX2                !
 ! D24   D(7,9,10,15)           -0.3241         estimate D2E/DX2                !
 ! D25   D(17,9,10,11)           1.8437         estimate D2E/DX2                !
 ! D26   D(17,9,10,15)        -179.9681         estimate D2E/DX2                !
 ! D27   D(9,10,11,12)        -152.7137         estimate D2E/DX2                !
 ! D28   D(9,10,11,13)          87.5808         estimate D2E/DX2                !
 ! D29   D(9,10,11,14)         -31.8188         estimate D2E/DX2                !
 ! D30   D(15,10,11,12)         29.0684         estimate D2E/DX2                !
 ! D31   D(15,10,11,13)        -90.6371         estimate D2E/DX2                !
 ! D32   D(15,10,11,14)        149.9633         estimate D2E/DX2                !
 ! D33   D(9,10,15,5)            0.1727         estimate D2E/DX2                !
 ! D34   D(9,10,15,18)        -179.837          estimate D2E/DX2                !
 ! D35   D(11,10,15,5)         178.3541         estimate D2E/DX2                !
 ! D36   D(11,10,15,18)         -1.6556         estimate D2E/DX2                !
 --------------------------------------------------------------------------------
 Trust Radius=3.00D-01 FncErr=1.00D-07 GrdErr=1.00D-06 EigMax=2.50D+02 EigMin=1.00D-04
 Number of steps in this run=     94 maximum allowed number of steps=    108.
 GradGradGradGradGradGradGradGradGradGradGradGradGradGradGradGradGradGrad

 Leave Link  103 at Tue Sep 17 09:48:14 2024, MaxMem=  1342177280 cpu:               0.0 elap:               0.1
 (Enter /groups/ReismanLab/Software/Gaussian16_RevC/Linux_Binary_AVX2-enabled-CPU/g16/l202.exe)
                          Input orientation:                          
 ---------------------------------------------------------------------
 Center     Atomic      Atomic             Coordinates (Angstroms)
 Number     Number       Type             X           Y           Z
 ---------------------------------------------------------------------
      1          9           0       -2.755972    2.405403    0.607598
      2          6           0       -1.565267    2.496969    0.006068
      3          9           0       -1.800088    2.912567   -1.250457
      4          9           0       -0.894251    3.482586    0.613646
      5          6           0       -0.809517    1.191844    0.021250
      6          6           0        0.577422    1.210127    0.017845
      7          6           0        1.262873    0.004882   -0.000006
      8         35           0        3.151179    0.011347    0.000007
      9          6           0        0.585638   -1.204881   -0.017859
     10          6           0       -0.801534   -1.196164   -0.020833
     11          6           0       -1.545581   -2.507979   -0.006030
     12          9           0       -2.751758   -2.419455   -0.575732
     13          9           0       -1.743964   -2.944696    1.249586
     14          9           0       -0.880685   -3.477959   -0.645214
     15          6           0       -1.512963   -0.004623    0.000395
     16          1           0        1.113987    2.146795    0.034917
     17          1           0        1.128423   -2.137967   -0.035033
     18          1           0       -2.592135   -0.008069    0.000527
 ---------------------------------------------------------------------
                    Distance matrix (angstroms):
                    1          2          3          4          5
     1  F    0.000000
     2  C    1.337162   0.000000
     3  F    2.150186   1.344142   0.000000
     4  F    2.150898   1.338228   2.149498   0.000000
     5  C    2.367534   1.508224   2.357829   2.367617   0.000000
     6  C    3.589987   2.499443   3.187388   2.772159   1.387063
     7  C    4.720466   3.769471   4.404543   4.138137   2.388332
     8  Br   6.402742   5.331343   5.873311   5.365776   4.132933
     9  C    4.959003   4.281432   4.915727   4.955927   2.773496
    10  C    4.145605   3.771372   4.403494   4.722485   2.388393
    11  C    5.097343   5.005001   5.567377   6.057647   3.772430
    12  F    4.967851   5.090922   5.458149   6.300717   4.143691
    13  F    5.482688   5.584800   6.368744   6.514321   4.415084
    14  F    6.300809   6.049181   6.484631   7.073478   4.717658
    15  C    2.778847   2.502146   3.187016   3.594371   1.388094
    16  H    3.920641   2.702195   3.275733   2.480380   2.147553
    17  H    6.011964   5.360997   5.963332   6.008545   3.853106
    18  H    2.494038   2.707343   3.274510   3.929809   2.148942
                    6          7          8          9         10
     6  C    0.000000
     7  C    1.386643   0.000000
     8  Br   2.839299   1.888317   0.000000
     9  C    2.415287   1.386540   2.839284   0.000000
    10  C    2.773672   2.388456   4.133093   1.387203   0.000000
    11  C    4.281591   3.768544   5.329784   2.498059   1.508205
    12  F    4.960811   4.725054   6.409754   3.595084   2.368064
    13  F    4.916155   4.393468   5.853381   3.171816   2.357860
    14  F    4.954177   4.140207   5.370987   2.776789   2.367003
    15  C    2.417774   2.775853   4.664170   2.417660   1.387931
    16  H    1.079602   2.147366   2.951526   3.393475   3.853272
    17  H    3.393543   2.147348   2.951664   1.079611   2.147540
    18  H    3.395644   3.855030   5.743347   3.395724   2.149018
                   11         12         13         14         15
    11  C    0.000000
    12  F    1.336884   0.000000
    13  F    1.344116   2.150189   0.000000
    14  F    1.338471   2.150854   2.149392   0.000000
    15  C    2.503576   2.774518   3.202791   3.588962   0.000000
    16  H    5.361147   6.013944   5.963773   6.006592   3.395682
    17  H    2.699639   3.927773   3.248333   2.490866   3.395488
    18  H    2.710141   2.484419   3.302018   3.922522   1.079177
                   16         17         18
    16  H    0.000000
    17  H    4.285357   0.000000
    18  H    4.287186   4.287224   0.000000
 Stoichiometry    C8H3BrF6
 Framework group  C1[X(C8H3BrF6)]
 Deg. of freedom    48
 Full point group                 C1      NOp   1
 Largest Abelian subgroup         C1      NOp   1
 Largest concise Abelian subgroup C1      NOp   1
                         Standard orientation:                         
 ---------------------------------------------------------------------
 Center     Atomic      Atomic             Coordinates (Angstroms)
 Number     Number       Type             X           Y           Z
 ---------------------------------------------------------------------
      1          9           0       -2.690809   -2.395955   -0.607082
      2          6           0       -1.500445   -2.491749   -0.005536
      3          9           0       -1.736780   -2.906221    1.251078
      4          9           0       -0.833041   -3.479941   -0.612908
      5          6           0       -0.739926   -1.189400   -0.020994
      6          6           0        0.646937   -1.212756   -0.017588
      7          6           0        1.336792   -0.010022    0.000007
      8         35           0        3.225062   -0.023395   -0.000009
      9          6           0        0.663987    1.202214    0.017607
     10          6           0       -0.723208    1.198572    0.020587
     11          6           0       -1.462452    2.513096    0.005510
     12          9           0       -2.668943    2.429105    0.575234
     13          9           0       -1.659241    2.950272   -1.250197
     14          9           0       -0.794010    3.480772    0.644487
     15          6           0       -1.438991    0.009636   -0.000389
     16          1           0        1.180072   -2.151383   -0.034465
     17          1           0        1.210181    2.133312    0.034583
     18          1           0       -2.518143    0.017030   -0.000519
 ---------------------------------------------------------------------
 Rotational constants (GHZ):           0.3817621           0.3493833           0.1947692
 Leave Link  202 at Tue Sep 17 09:48:14 2024, MaxMem=  1342177280 cpu:               0.0 elap:               0.0
 (Enter /groups/ReismanLab/Software/Gaussian16_RevC/Linux_Binary_AVX2-enabled-CPU/g16/l301.exe)
 Standard basis: 6-31G(d,p) (6D, 7F)
 Ernie: Thresh=  0.10000D-02 Tol=  0.10000D-05 Strict=F.
 There are   255 symmetry adapted cartesian basis functions of A   symmetry.
 There are   255 symmetry adapted basis functions of A   symmetry.
   255 basis functions,   496 primitive gaussians,   255 cartesian basis functions
    70 alpha electrons       70 beta electrons
       nuclear repulsion energy      1373.7326100925 Hartrees.
 IExCor=  402 DFT=T Ex+Corr=B3LYP ExCW=0 ScaHFX=  0.200000
 ScaDFX=  0.800000  0.720000  1.000000  0.810000 ScalE2=  1.000000  1.000000
 IRadAn=      5 IRanWt=     -1 IRanGd=            0 ICorTp=0 IEmpDi=141
 NAtoms=   18 NActive=   18 NUniq=   18 SFac= 1.00D+00 NAtFMM=   60 NAOKFM=F Big=F
 Integral buffers will be    131072 words long.
 Raffenetti 2 integral format.
 Two-electron integral symmetry is turned on.
 R6Disp:  Grimme-D3(BJ) Dispersion energy=       -0.0370552141 Hartrees.
 Nuclear repulsion after empirical dispersion term =     1373.6955548784 Hartrees.
 Leave Link  301 at Tue Sep 17 09:48:14 2024, MaxMem=  1342177280 cpu:               0.1 elap:               0.0
 (Enter /groups/ReismanLab/Software/Gaussian16_RevC/Linux_Binary_AVX2-enabled-CPU/g16/l302.exe)
 NPDir=0 NMtPBC=     1 NCelOv=     1 NCel=       1 NClECP=     1 NCelD=      1
         NCelK=      1 NCelE2=     1 NClLst=     1 CellRange=     0.0.
 One-electron integrals computed using PRISM.
 One-electron integral symmetry used in STVInt
 NBasis=   255 RedAO= T EigKep=  3.98D-04  NBF=   255
 NBsUse=   255 1.00D-06 EigRej= -1.00D+00 NBFU=   255
 Precomputing XC quadrature grid using
 IXCGrd= 4 IRadAn=           5 IRanWt=          -1 IRanGd=           0 AccXCQ= 0.00D+00.
 Generated NRdTot=       0 NPtTot=           0 NUsed=           0 NTot=          32
 NSgBfM=   251   251   251   251   251 MxSgAt=    18 MxSgA2=    18.
 Leave Link  302 at Tue Sep 17 09:48:14 2024, MaxMem=  1342177280 cpu:               1.1 elap:               0.2
 (Enter /groups/ReismanLab/Software/Gaussian16_RevC/Linux_Binary_AVX2-enabled-CPU/g16/l303.exe)
 DipDrv:  MaxL=1.
 Leave Link  303 at Tue Sep 17 09:48:14 2024, MaxMem=  1342177280 cpu:               0.1 elap:               0.0
 (Enter /groups/ReismanLab/Software/Gaussian16_RevC/Linux_Binary_AVX2-enabled-CPU/g16/l401.exe)
 ExpMin= 1.43D-01 ExpMax= 5.74D+05 ExpMxC= 5.74D+03 IAcc=3 IRadAn=         5 AccDes= 0.00D+00
 Harris functional with IExCor=  402 and IRadAn=       5 diagonalized for initial guess.
 HarFok:  IExCor=  402 AccDes= 0.00D+00 IRadAn=         5 IDoV= 1 UseB2=F ITyADJ=14
 ICtDFT=  3500011 ScaDFX=  1.000000  1.000000  1.000000  1.000000
 FoFCou: FMM=F IPFlag=           0 FMFlag=      100000 FMFlg1=           0
         NFxFlg=           0 DoJE=T BraDBF=F KetDBF=T FulRan=T
         wScrn=  0.000000 ICntrl=       500 IOpCl=  0 I1Cent=   200000004 NGrid=           0
         NMat0=    1 NMatS0=      1 NMatT0=    0 NMatD0=    1 NMtDS0=    0 NMtDT0=    0
 Petite list used in FoFCou.
 Harris En= -3477.51657200559    
 JPrj=0 DoOrth=F DoCkMO=F.
 Leave Link  401 at Tue Sep 17 09:48:15 2024, MaxMem=  1342177280 cpu:               5.1 elap:               0.7
 (Enter /groups/ReismanLab/Software/Gaussian16_RevC/Linux_Binary_AVX2-enabled-CPU/g16/l502.exe)
 Integral symmetry usage will be decided dynamically.
 Closed shell SCF:
 Using DIIS extrapolation, IDIIS=  1040.
 NGot=  1342177280 LenX=  1342042190 LenY=  1341976724
 Requested convergence on RMS density matrix=1.00D-08 within  32 cycles.
 Requested convergence on MAX density matrix=1.00D-06.
 Requested convergence on             energy=1.00D-06.
 No special actions if energy rises.
 Fock matrices will be formed incrementally for  20 cycles.
 Integral accuracy reduced to 1.0D-05 until final iterations.

 Cycle   1  Pass 0  IDiag  1:
 FoFJK:  IHMeth= 1 ICntrl=       0 DoSepK=F KAlg= 0 I1Cent=           0 FoldK=F
 IRaf= 820000000 NMat=       1 IRICut=       1 DoRegI=T DoRafI=F ISym2E= 0 IDoP0=0 IntGTp=1.
 FoFCou: FMM=F IPFlag=           0 FMFlag=      100000 FMFlg1=           0
         NFxFlg=           0 DoJE=F BraDBF=F KetDBF=F FulRan=T
         wScrn=  0.000000 ICntrl=         0 IOpCl=  0 I1Cent=           0 NGrid=           0
         NMat0=    1 NMatS0=      1 NMatT0=    0 NMatD0=    1 NMtDS0=    0 NMtDT0=    0
 Symmetry not used in FoFCou.
 E= -3477.22407781204    
 DIIS: error= 2.11D-01 at cycle   1 NSaved=   1.
 NSaved= 1 IEnMin= 1 EnMin= -3477.22407781204     IErMin= 1 ErrMin= 2.11D-01
 ErrMax= 2.11D-01  0.00D+00 EMaxC= 1.00D-01 BMatC= 6.58D-01 BMatP= 6.58D-01
 IDIUse=3 WtCom= 0.00D+00 WtEn= 1.00D+00
 Coeff-Com:  0.100D+01
 Coeff-En:   0.100D+01
 Coeff:      0.100D+01
 Gap=     0.252 Goal=   None    Shift=    0.000
 GapD=    0.252 DampG=1.000 DampE=0.250 DampFc=0.2500 IDamp=-1.
 Damping current iteration by 2.50D-01
 RMSDP=4.23D-03 MaxDP=1.42D-01              OVMax= 1.67D-01

 Cycle   2  Pass 0  IDiag  1:
 RMSU=  1.03D-03    CP:  9.94D-01
 E= -3477.31140135594     Delta-E=       -0.087323543905 Rises=F Damp=T
 DIIS: error= 1.56D-01 at cycle   2 NSaved=   2.
 NSaved= 2 IEnMin= 2 EnMin= -3477.31140135594     IErMin= 2 ErrMin= 1.56D-01
 ErrMax= 1.56D-01  0.00D+00 EMaxC= 1.00D-01 BMatC= 2.56D-01 BMatP= 6.58D-01
 IDIUse=3 WtCom= 0.00D+00 WtEn= 1.00D+00
 Coeff-Com: -0.115D+01 0.215D+01
 Coeff-En:   0.000D+00 0.100D+01
 Coeff:      0.000D+00 0.100D+01
 Gap=     0.226 Goal=   None    Shift=    0.000
 RMSDP=2.17D-03 MaxDP=1.09D-01 DE=-8.73D-02 OVMax= 7.03D-02

 Cycle   3  Pass 0  IDiag  1:
 RMSU=  8.15D-04    CP:  9.76D-01  2.82D+00
 E= -3477.40735384119     Delta-E=       -0.095952485245 Rises=F Damp=F
 DIIS: error= 1.38D-02 at cycle   3 NSaved=   3.
 NSaved= 3 IEnMin= 3 EnMin= -3477.40735384119     IErMin= 3 ErrMin= 1.38D-02
 ErrMax= 1.38D-02  0.00D+00 EMaxC= 1.00D-01 BMatC= 7.45D-02 BMatP= 2.56D-01
 IDIUse=3 WtCom= 8.62D-01 WtEn= 1.38D-01
 EnCoef did   100 forward-backward iterations
 Coeff-Com:  0.156D+01-0.202D+01 0.146D+01
 Coeff-En:   0.166D+00 0.191D-02 0.832D+00
 Coeff:      0.137D+01-0.174D+01 0.137D+01
 Gap=     0.213 Goal=   None    Shift=    0.000
 RMSDP=9.80D-04 MaxDP=2.93D-02 DE=-9.60D-02 OVMax= 6.05D-02

 Cycle   4  Pass 0  IDiag  1:
 RMSU=  4.89D-04    CP:  9.75D-01  2.05D+00  1.35D+00
 E= -3477.45875816992     Delta-E=       -0.051404328728 Rises=F Damp=F
 DIIS: error= 6.19D-03 at cycle   4 NSaved=   4.
 NSaved= 4 IEnMin= 4 EnMin= -3477.45875816992     IErMin= 4 ErrMin= 6.19D-03
 ErrMax= 6.19D-03  0.00D+00 EMaxC= 1.00D-01 BMatC= 5.24D-03 BMatP= 7.45D-02
 IDIUse=3 WtCom= 9.38D-01 WtEn= 6.19D-02
 Coeff-Com:  0.888D+00-0.117D+01 0.827D+00 0.451D+00
 Coeff-En:   0.000D+00 0.000D+00 0.000D+00 0.100D+01
 Coeff:      0.833D+00-0.109D+01 0.775D+00 0.485D+00
 Gap=     0.216 Goal=   None    Shift=    0.000
 RMSDP=4.01D-04 MaxDP=1.72D-02 DE=-5.14D-02 OVMax= 3.98D-02

 Cycle   5  Pass 0  IDiag  1:
 RMSU=  1.46D-04    CP:  9.76D-01  2.10D+00  1.37D+00  2.47D-01
 E= -3477.46382058874     Delta-E=       -0.005062418826 Rises=F Damp=F
 DIIS: error= 2.48D-03 at cycle   5 NSaved=   5.
 NSaved= 5 IEnMin= 5 EnMin= -3477.46382058874     IErMin= 5 ErrMin= 2.48D-03
 ErrMax= 2.48D-03  0.00D+00 EMaxC= 1.00D-01 BMatC= 6.57D-04 BMatP= 5.24D-03
 IDIUse=3 WtCom= 9.75D-01 WtEn= 2.48D-02
 Coeff-Com:  0.273D+00-0.361D+00 0.248D+00 0.289D+00 0.551D+00
 Coeff-En:   0.000D+00 0.000D+00 0.000D+00 0.114D+00 0.886D+00
 Coeff:      0.267D+00-0.352D+00 0.241D+00 0.285D+00 0.559D+00
 Gap=     0.215 Goal=   None    Shift=    0.000
 RMSDP=1.16D-04 MaxDP=5.48D-03 DE=-5.06D-03 OVMax= 1.10D-02

 Cycle   6  Pass 0  IDiag  1:
 RMSU=  4.69D-05    CP:  9.76D-01  2.11D+00  1.36D+00  4.07D-01  5.07D-01
 E= -3477.46448765028     Delta-E=       -0.000667061537 Rises=F Damp=F
 DIIS: error= 4.67D-04 at cycle   6 NSaved=   6.
 NSaved= 6 IEnMin= 6 EnMin= -3477.46448765028     IErMin= 6 ErrMin= 4.67D-04
 ErrMax= 4.67D-04  0.00D+00 EMaxC= 1.00D-01 BMatC= 3.96D-05 BMatP= 6.57D-04
 IDIUse=3 WtCom= 9.95D-01 WtEn= 4.67D-03
 Coeff-Com:  0.773D-01-0.103D+00 0.651D-01 0.119D+00 0.304D+00 0.537D+00
 Coeff-En:   0.000D+00 0.000D+00 0.000D+00 0.000D+00 0.000D+00 0.100D+01
 Coeff:      0.770D-01-0.102D+00 0.648D-01 0.118D+00 0.303D+00 0.539D+00
 Gap=     0.214 Goal=   None    Shift=    0.000
 RMSDP=3.41D-05 MaxDP=1.31D-03 DE=-6.67D-04 OVMax= 2.09D-03

 Cycle   7  Pass 0  IDiag  1:
 RMSU=  1.40D-05    CP:  9.76D-01  2.10D+00  1.38D+00  4.15D-01  5.72D-01
                    CP:  4.62D-01
 E= -3477.46452896261     Delta-E=       -0.000041312326 Rises=F Damp=F
 DIIS: error= 8.98D-05 at cycle   7 NSaved=   7.
 NSaved= 7 IEnMin= 7 EnMin= -3477.46452896261     IErMin= 7 ErrMin= 8.98D-05
 ErrMax= 8.98D-05  0.00D+00 EMaxC= 1.00D-01 BMatC= 2.14D-06 BMatP= 3.96D-05
 IDIUse=1 WtCom= 1.00D+00 WtEn= 0.00D+00
 Coeff-Com:  0.170D-01-0.227D-01 0.121D-01 0.288D-01 0.813D-01 0.240D+00
 Coeff-Com:  0.644D+00
 Coeff:      0.170D-01-0.227D-01 0.121D-01 0.288D-01 0.813D-01 0.240D+00
 Coeff:      0.644D+00
 Gap=     0.214 Goal=   None    Shift=    0.000
 RMSDP=6.14D-06 MaxDP=1.70D-04 DE=-4.13D-05 OVMax= 2.77D-04

 Initial convergence to 1.0D-05 achieved.  Increase integral accuracy.
 Cycle   8  Pass 1  IDiag  1:
 E= -3477.46448472270     Delta-E=        0.000044239912 Rises=F Damp=F
 DIIS: error= 5.18D-05 at cycle   1 NSaved=   1.
 NSaved= 1 IEnMin= 1 EnMin= -3477.46448472270     IErMin= 1 ErrMin= 5.18D-05
 ErrMax= 5.18D-05  0.00D+00 EMaxC= 1.00D-01 BMatC= 2.52D-07 BMatP= 2.52D-07
 IDIUse=1 WtCom= 1.00D+00 WtEn= 0.00D+00
 Coeff-Com:  0.100D+01
 Coeff:      0.100D+01
 Gap=     0.214 Goal=   None    Shift=    0.000
 RMSDP=6.14D-06 MaxDP=1.70D-04 DE= 4.42D-05 OVMax= 1.08D-04

 Cycle   9  Pass 1  IDiag  1:
 RMSU=  1.35D-05    CP:  1.00D+00
 E= -3477.46448480876     Delta-E=       -0.000000086061 Rises=F Damp=F
 DIIS: error= 1.49D-05 at cycle   2 NSaved=   2.
 NSaved= 2 IEnMin= 2 EnMin= -3477.46448480876     IErMin= 2 ErrMin= 1.49D-05
 ErrMax= 1.49D-05  0.00D+00 EMaxC= 1.00D-01 BMatC= 9.77D-08 BMatP= 2.52D-07
 IDIUse=1 WtCom= 1.00D+00 WtEn= 0.00D+00
 Coeff-Com:  0.348D+00 0.652D+00
 Coeff:      0.348D+00 0.652D+00
 Gap=     0.214 Goal=   None    Shift=    0.000
 RMSDP=1.74D-06 MaxDP=5.73D-05 DE=-8.61D-08 OVMax= 9.10D-05

 Cycle  10  Pass 1  IDiag  1:
 RMSU=  1.73D-06    CP:  1.00D+00  9.89D-01
 E= -3477.46448486782     Delta-E=       -0.000000059068 Rises=F Damp=F
 DIIS: error= 7.68D-06 at cycle   3 NSaved=   3.
 NSaved= 3 IEnMin= 3 EnMin= -3477.46448486782     IErMin= 3 ErrMin= 7.68D-06
 ErrMax= 7.68D-06  0.00D+00 EMaxC= 1.00D-01 BMatC= 2.96D-08 BMatP= 9.77D-08
 IDIUse=1 WtCom= 1.00D+00 WtEn= 0.00D+00
 Coeff-Com:  0.325D-01 0.354D+00 0.614D+00
 Coeff:      0.325D-01 0.354D+00 0.614D+00
 Gap=     0.214 Goal=   None    Shift=    0.000
 RMSDP=7.19D-07 MaxDP=2.15D-05 DE=-5.91D-08 OVMax= 5.21D-05

 Cycle  11  Pass 1  IDiag  1:
 RMSU=  3.82D-07    CP:  1.00D+00  9.98D-01  6.55D-01
 E= -3477.46448489017     Delta-E=       -0.000000022344 Rises=F Damp=F
 DIIS: error= 4.23D-06 at cycle   4 NSaved=   4.
 NSaved= 4 IEnMin= 4 EnMin= -3477.46448489017     IErMin= 4 ErrMin= 4.23D-06
 ErrMax= 4.23D-06  0.00D+00 EMaxC= 1.00D-01 BMatC= 3.37D-09 BMatP= 2.96D-08
 IDIUse=1 WtCom= 1.00D+00 WtEn= 0.00D+00
 Coeff-Com: -0.609D-03 0.177D+00 0.368D+00 0.456D+00
 Coeff:     -0.609D-03 0.177D+00 0.368D+00 0.456D+00
 Gap=     0.214 Goal=   None    Shift=    0.000
 RMSDP=2.49D-07 MaxDP=1.08D-05 DE=-2.23D-08 OVMax= 2.08D-05

 Cycle  12  Pass 1  IDiag  1:
 RMSU=  1.12D-07    CP:  1.00D+00  1.00D+00  6.78D-01  4.33D-01
 E= -3477.46448489310     Delta-E=       -0.000000002934 Rises=F Damp=F
 DIIS: error= 1.47D-06 at cycle   5 NSaved=   5.
 NSaved= 5 IEnMin= 5 EnMin= -3477.46448489310     IErMin= 5 ErrMin= 1.47D-06
 ErrMax= 1.47D-06  0.00D+00 EMaxC= 1.00D-01 BMatC= 2.08D-10 BMatP= 3.37D-09
 IDIUse=1 WtCom= 1.00D+00 WtEn= 0.00D+00
 Coeff-Com: -0.166D-02 0.970D-01 0.206D+00 0.292D+00 0.407D+00
 Coeff:     -0.166D-02 0.970D-01 0.206D+00 0.292D+00 0.407D+00
 Gap=     0.214 Goal=   None    Shift=    0.000
 RMSDP=6.52D-08 MaxDP=2.92D-06 DE=-2.93D-09 OVMax= 6.51D-06

 Cycle  13  Pass 1  IDiag  1:
 RMSU=  2.53D-08    CP:  1.00D+00  1.00D+00  6.71D-01  4.77D-01  4.95D-01
 E= -3477.46448489328     Delta-E=       -0.000000000176 Rises=F Damp=F
 DIIS: error= 1.05D-07 at cycle   6 NSaved=   6.
 NSaved= 6 IEnMin= 6 EnMin= -3477.46448489328     IErMin= 6 ErrMin= 1.05D-07
 ErrMax= 1.05D-07  0.00D+00 EMaxC= 1.00D-01 BMatC= 1.76D-12 BMatP= 2.08D-10
 IDIUse=1 WtCom= 1.00D+00 WtEn= 0.00D+00
 Coeff-Com: -0.608D-03 0.272D-01 0.585D-01 0.850D-01 0.146D+00 0.684D+00
 Coeff:     -0.608D-03 0.272D-01 0.585D-01 0.850D-01 0.146D+00 0.684D+00
 Gap=     0.214 Goal=   None    Shift=    0.000
 RMSDP=8.04D-09 MaxDP=3.29D-07 DE=-1.76D-10 OVMax= 4.52D-07

 SCF Done:  E(RB3LYP) =  -3477.46448489     A.U. after   13 cycles
            NFock= 13  Conv=0.80D-08     -V/T= 2.0064
 KE= 3.455261043687D+03 PE=-1.101827087613D+04 EE= 2.711849792673D+03
 Leave Link  502 at Tue Sep 17 09:48:27 2024, MaxMem=  1342177280 cpu:              93.0 elap:              12.5
 (Enter /groups/ReismanLab/Software/Gaussian16_RevC/Linux_Binary_AVX2-enabled-CPU/g16/l508.exe)
 QCSCF skips out because SCF is already converged.
 Leave Link  508 at Tue Sep 17 09:48:27 2024, MaxMem=  1342177280 cpu:               0.0 elap:               0.0
 (Enter /groups/ReismanLab/Software/Gaussian16_RevC/Linux_Binary_AVX2-enabled-CPU/g16/l601.exe)
 Copying SCF densities to generalized density rwf, IOpCl= 0 IROHF=0.

 **********************************************************************

            Population analysis using the SCF Density.

 **********************************************************************

 Orbital symmetries:
       Occupied  (A) (A) (A) (A) (A) (A) (A) (A) (A) (A) (A) (A)
                 (A) (A) (A) (A) (A) (A) (A) (A) (A) (A) (A) (A)
                 (A) (A) (A) (A) (A) (A) (A) (A) (A) (A) (A) (A)
                 (A) (A) (A) (A) (A) (A) (A) (A) (A) (A) (A) (A)
                 (A) (A) (A) (A) (A) (A) (A) (A) (A) (A) (A) (A)
                 (A) (A) (A) (A) (A) (A) (A) (A) (A) (A)
       Virtual   (A) (A) (A) (A) (A) (A) (A) (A) (A) (A) (A) (A)
                 (A) (A) (A) (A) (A) (A) (A) (A) (A) (A) (A) (A)
                 (A) (A) (A) (A) (A) (A) (A) (A) (A) (A) (A) (A)
                 (A) (A) (A) (A) (A) (A) (A) (A) (A) (A) (A) (A)
                 (A) (A) (A) (A) (A) (A) (A) (A) (A) (A) (A) (A)
                 (A) (A) (A) (A) (A) (A) (A) (A) (A) (A) (A) (A)
                 (A) (A) (A) (A) (A) (A) (A) (A) (A) (A) (A) (A)
                 (A) (A) (A) (A) (A) (A) (A) (A) (A) (A) (A) (A)
                 (A) (A) (A) (A) (A) (A) (A) (A) (A) (A) (A) (A)
                 (A) (A) (A) (A) (A) (A) (A) (A) (A) (A) (A) (A)
                 (A) (A) (A) (A) (A) (A) (A) (A) (A) (A) (A) (A)
                 (A) (A) (A) (A) (A) (A) (A) (A) (A) (A) (A) (A)
                 (A) (A) (A) (A) (A) (A) (A) (A) (A) (A) (A) (A)
                 (A) (A) (A) (A) (A) (A) (A) (A) (A) (A) (A) (A)
                 (A) (A) (A) (A) (A) (A) (A) (A) (A) (A) (A) (A)
                 (A) (A) (A) (A) (A)
 The electronic state is 1-A.
 Alpha  occ. eigenvalues -- -482.93293 -61.89457 -56.41603 -56.41177 -56.41168
 Alpha  occ. eigenvalues --  -24.73911 -24.73885 -24.73847 -24.73820 -24.73071
 Alpha  occ. eigenvalues --  -24.73071 -10.44650 -10.44650 -10.27698 -10.24386
 Alpha  occ. eigenvalues --  -10.24383 -10.23725 -10.23725 -10.23548  -8.60606
 Alpha  occ. eigenvalues --   -6.56024  -6.54722  -6.54683  -2.67596  -2.67224
 Alpha  occ. eigenvalues --   -2.67195  -2.66155  -2.66155  -1.32210  -1.32208
 Alpha  occ. eigenvalues --   -1.23265  -1.23263  -1.22602  -1.22601  -0.91945
 Alpha  occ. eigenvalues --   -0.84244  -0.82640  -0.76244  -0.72165  -0.71964
 Alpha  occ. eigenvalues --   -0.65321  -0.64665  -0.60155  -0.60032  -0.59529
 Alpha  occ. eigenvalues --   -0.59475  -0.58273  -0.54612  -0.53426  -0.50772
 Alpha  occ. eigenvalues --   -0.47283  -0.47132  -0.46963  -0.46770  -0.45557
 Alpha  occ. eigenvalues --   -0.43983  -0.43392  -0.43212  -0.42960  -0.42557
 Alpha  occ. eigenvalues --   -0.42278  -0.41230  -0.40878  -0.40869  -0.38265
 Alpha  occ. eigenvalues --   -0.37860  -0.34125  -0.30753  -0.29990  -0.27116
 Alpha virt. eigenvalues --   -0.05741  -0.04950  -0.01004   0.08641   0.10547
 Alpha virt. eigenvalues --    0.12699   0.13651   0.14828   0.15356   0.19823
 Alpha virt. eigenvalues --    0.20775   0.20880   0.22010   0.22847   0.24394
 Alpha virt. eigenvalues --    0.24703   0.26176   0.29521   0.32694   0.35516
 Alpha virt. eigenvalues --    0.38943   0.43436   0.44101   0.44129   0.45288
 Alpha virt. eigenvalues --    0.45896   0.46297   0.47009   0.48397   0.49264
 Alpha virt. eigenvalues --    0.49334   0.50292   0.50627   0.51751   0.53993
 Alpha virt. eigenvalues --    0.54803   0.56567   0.58604   0.59807   0.62153
 Alpha virt. eigenvalues --    0.63165   0.69185   0.71149   0.72821   0.73030
 Alpha virt. eigenvalues --    0.73278   0.74503   0.75780   0.77854   0.77986
 Alpha virt. eigenvalues --    0.84384   0.86712   0.86908   0.92526   0.94522
 Alpha virt. eigenvalues --    0.97144   1.00703   1.05776   1.05914   1.07859
 Alpha virt. eigenvalues --    1.07949   1.09518   1.09846   1.11847   1.12871
 Alpha virt. eigenvalues --    1.13514   1.16803   1.18848   1.19727   1.21239
 Alpha virt. eigenvalues --    1.22158   1.31318   1.31840   1.32301   1.32681
 Alpha virt. eigenvalues --    1.33830   1.34112   1.35538   1.35615   1.36797
 Alpha virt. eigenvalues --    1.37210   1.37385   1.37545   1.39904   1.40346
 Alpha virt. eigenvalues --    1.42930   1.43893   1.49067   1.50528   1.54130
 Alpha virt. eigenvalues --    1.57385   1.61427   1.63416   1.64428   1.64697
 Alpha virt. eigenvalues --    1.65894   1.68557   1.69127   1.73353   1.74312
 Alpha virt. eigenvalues --    1.75834   1.81584   1.83335   1.83761   1.84540
 Alpha virt. eigenvalues --    1.85457   1.86784   1.88824   1.90206   1.94064
 Alpha virt. eigenvalues --    1.95079   1.95783   1.96155   1.97502   1.98045
 Alpha virt. eigenvalues --    1.99358   1.99576   2.00438   2.01709   2.03581
 Alpha virt. eigenvalues --    2.06227   2.06536   2.07860   2.07927   2.07951
 Alpha virt. eigenvalues --    2.08396   2.11042   2.13119   2.13695   2.14005
 Alpha virt. eigenvalues --    2.23018   2.23301   2.29328   2.32220   2.36270
 Alpha virt. eigenvalues --    2.37624   2.37704   2.40227   2.42396   2.48184
 Alpha virt. eigenvalues --    2.51315   2.52330   2.57634   2.58470   2.60242
 Alpha virt. eigenvalues --    2.62297   2.65411   2.66227   2.68474   2.72526
 Alpha virt. eigenvalues --    2.77043   2.78014   2.78902   2.80998   2.88083
 Alpha virt. eigenvalues --    2.89508   2.94564   3.01335   3.02586   3.03059
 Alpha virt. eigenvalues --    3.04402   3.05382   3.08598   3.09488   3.18508
 Alpha virt. eigenvalues --    3.26718   3.37971   3.38402   3.70169   4.06988
 Alpha virt. eigenvalues --    4.07891   4.08579   4.24228   4.26621   4.39775
 Alpha virt. eigenvalues --    4.46379   4.49945   4.52982   4.55896   4.70625
 Alpha virt. eigenvalues --    4.82841   5.44143   5.66469   8.58655  72.82351
          Condensed to atoms (all electrons):
               1          2          3          4          5          6
     1  F    9.085025   0.291581  -0.042579  -0.039946  -0.051487   0.002968
     2  C    0.291581   4.089190   0.298595   0.290635   0.285932  -0.022722
     3  F   -0.042579   0.298595   9.094544  -0.042725  -0.054341  -0.000028
     4  F   -0.039946   0.290635  -0.042725   9.087098  -0.051621   0.005447
     5  C   -0.051487   0.285932  -0.054341  -0.051621   5.183428   0.455063
     6  C    0.002968  -0.022722  -0.000028   0.005447   0.455063   5.006747
     7  C   -0.000042   0.003930  -0.000007   0.000762  -0.016869   0.473925
     8  Br   0.000000  -0.000110   0.000000  -0.000001   0.005694  -0.059870
     9  C    0.000001   0.000612  -0.000003  -0.000002  -0.035984  -0.048746
    10  C    0.000840   0.004219  -0.000022  -0.000049  -0.010917  -0.036061
    11  C   -0.000004  -0.000124   0.000000   0.000000   0.004272   0.000613
    12  F    0.000000  -0.000004  -0.000000   0.000000   0.000855   0.000001
    13  F   -0.000000   0.000000   0.000000  -0.000000  -0.000028  -0.000003
    14  F    0.000000   0.000000  -0.000000  -0.000000  -0.000049  -0.000002
    15  C    0.005105  -0.020378   0.000003   0.003022   0.431542  -0.076095
    16  H    0.000122  -0.005637   0.000247   0.007615  -0.046070   0.373156
    17  H   -0.000000   0.000006  -0.000000  -0.000000   0.000070   0.005595
    18  H    0.007223  -0.005040   0.000244   0.000116  -0.040902   0.004588
               7          8          9         10         11         12
     1  F   -0.000042   0.000000   0.000001   0.000840  -0.000004   0.000000
     2  C    0.003930  -0.000110   0.000612   0.004219  -0.000124  -0.000004
     3  F   -0.000007   0.000000  -0.000003  -0.000022   0.000000  -0.000000
     4  F    0.000762  -0.000001  -0.000002  -0.000049   0.000000   0.000000
     5  C   -0.016869   0.005694  -0.035984  -0.010917   0.004272   0.000855
     6  C    0.473925  -0.059870  -0.048746  -0.036061   0.000613   0.000001
     7  C    4.873953   0.267179   0.475031  -0.016766   0.003901  -0.000042
     8  Br   0.267179  34.940180  -0.059923   0.005695  -0.000110   0.000000
     9  C    0.475031  -0.059923   5.006442   0.452815  -0.022162   0.003017
    10  C   -0.016766   0.005695   0.452815   5.182701   0.285887  -0.051285
    11  C    0.003901  -0.000110  -0.022162   0.285887   4.089254   0.292212
    12  F   -0.000042   0.000000   0.003017  -0.051285   0.292212   9.083845
    13  F    0.000000   0.000000   0.000085  -0.054345   0.298557  -0.042547
    14  F    0.000747  -0.000001   0.005509  -0.051832   0.290065  -0.039953
    15  C   -0.031651   0.000634  -0.075986   0.434632  -0.020994   0.005037
    16  H   -0.036423  -0.002907   0.005600   0.000069   0.000006  -0.000000
    17  H   -0.036411  -0.002917   0.373278  -0.046248  -0.005477   0.000119
    18  H    0.000363   0.000009   0.004597  -0.040687  -0.005214   0.007456
              13         14         15         16         17         18
     1  F   -0.000000   0.000000   0.005105   0.000122  -0.000000   0.007223
     2  C    0.000000   0.000000  -0.020378  -0.005637   0.000006  -0.005040
     3  F    0.000000  -0.000000   0.000003   0.000247  -0.000000   0.000244
     4  F   -0.000000  -0.000000   0.003022   0.007615  -0.000000   0.000116
     5  C   -0.000028  -0.000049   0.431542  -0.046070   0.000070  -0.040902
     6  C   -0.000003  -0.000002  -0.076095   0.373156   0.005595   0.004588
     7  C    0.000000   0.000747  -0.031651  -0.036423  -0.036411   0.000363
     8  Br   0.000000  -0.000001   0.000634  -0.002907  -0.002917   0.000009
     9  C    0.000085   0.005509  -0.075986   0.005600   0.373278   0.004597
    10  C   -0.054345  -0.051832   0.434632   0.000069  -0.046248  -0.040687
    11  C    0.298557   0.290065  -0.020994   0.000006  -0.005477  -0.005214
    12  F   -0.042547  -0.039953   0.005037  -0.000000   0.000119   0.007456
    13  F    9.094589  -0.042765  -0.000081  -0.000000   0.000262   0.000232
    14  F   -0.042765   9.088245   0.002970  -0.000000   0.007358   0.000119
    15  C   -0.000081   0.002970   5.059651   0.004922   0.004920   0.372022
    16  H   -0.000000  -0.000000   0.004922   0.563401  -0.000132  -0.000140
    17  H    0.000262   0.007358   0.004920  -0.000132   0.563549  -0.000140
    18  H    0.000232   0.000119   0.372022  -0.000140  -0.000140   0.559573
 Mulliken charges:
               1
     1  F   -0.258805
     2  C    0.789315
     3  F   -0.253927
     4  F   -0.260350
     5  C   -0.058588
     6  C   -0.084575
     7  C    0.038421
     8  Br  -0.093554
     9  C   -0.084179
    10  C   -0.058646
    11  C    0.789317
    12  F   -0.258710
    13  F   -0.253955
    14  F   -0.260410
    15  C   -0.099273
    16  H    0.136170
    17  H    0.136169
    18  H    0.135581
 Sum of Mulliken charges =  -0.00000
 Mulliken charges with hydrogens summed into heavy atoms:
               1
     1  F   -0.258805
     2  C    0.789315
     3  F   -0.253927
     4  F   -0.260350
     5  C   -0.058588
     6  C    0.051595
     7  C    0.038421
     8  Br  -0.093554
     9  C    0.051989
    10  C   -0.058646
    11  C    0.789317
    12  F   -0.258710
    13  F   -0.253955
    14  F   -0.260410
    15  C    0.036308
 Electronic spatial extent (au):  <R**2>=           4729.7095
 Charge=             -0.0000 electrons
 Dipole moment (field-independent basis, Debye):
    X=              0.9547    Y=             -0.0111    Z=             -0.0008  Tot=              0.9548
 Quadrupole moment (field-independent basis, Debye-Ang):
   XX=            -92.8349   YY=            -98.2006   ZZ=            -94.0352
   XY=             -0.0546   XZ=              0.0049   YZ=              0.5252
 Traceless Quadrupole moment (field-independent basis, Debye-Ang):
   XX=              2.1886   YY=             -3.1770   ZZ=              0.9884
   XY=             -0.0546   XZ=              0.0049   YZ=              0.5252
 Octapole moment (field-independent basis, Debye-Ang**2):
  XXX=             38.0998  YYY=             -0.7145  ZZZ=              0.0002  XYY=             30.2716
  XXY=              0.2538  XXZ=             -0.0191  XZZ=             10.0281  YZZ=             -0.1072
  YYZ=              0.0192  XYZ=             -1.4498
 Hexadecapole moment (field-independent basis, Debye-Ang**3):
 XXXX=          -2110.7172 YYYY=          -2311.3499 ZZZZ=           -209.3743 XXXY=             -1.7539
 XXXZ=             -0.0161 YYYX=             -0.5783 YYYZ=              0.0478 ZZZX=              0.0356
 ZZZY=              4.5307 XXYY=           -759.3535 XXZZ=           -407.7416 YYZZ=           -419.4976
 XXYZ=              0.1909 YYXZ=              0.0075 ZZXY=             -0.3450
 N-N= 1.373695554878D+03 E-N=-1.101827085654D+04  KE= 3.455261043687D+03
 No NMR shielding tensors so no spin-rotation constants.
 Leave Link  601 at Tue Sep 17 09:48:28 2024, MaxMem=  1342177280 cpu:               0.7 elap:               0.1
 (Enter /groups/ReismanLab/Software/Gaussian16_RevC/Linux_Binary_AVX2-enabled-CPU/g16/l701.exe)
 ... and contract with generalized density number  0.
 Compute integral first derivatives.
 R6Disp: Adding Grimme-D3(BJ) dispersion energy 1st derivatives to the gradient.
 Leave Link  701 at Tue Sep 17 09:48:28 2024, MaxMem=  1342177280 cpu:               0.7 elap:               0.1
 (Enter /groups/ReismanLab/Software/Gaussian16_RevC/Linux_Binary_AVX2-enabled-CPU/g16/l702.exe)
 L702 exits ... SP integral derivatives will be done elsewhere.
 Leave Link  702 at Tue Sep 17 09:48:28 2024, MaxMem=  1342177280 cpu:               0.0 elap:               0.0
 (Enter /groups/ReismanLab/Software/Gaussian16_RevC/Linux_Binary_AVX2-enabled-CPU/g16/l703.exe)
 Integral derivatives from FoFJK, PRISM(SPDF).
 Compute integral first derivatives, UseDBF=F ICtDFT=           0.
 Calling FoFJK, ICntrl=      2127 FMM=F ISym2X=0 I1Cent= 0 IOpClX= 0 NMat=1 NMatS=1 NMatT=0.
 FoFJK:  IHMeth= 1 ICntrl=    2127 DoSepK=F KAlg= 0 I1Cent=           0 FoldK=F
 IRaf=         0 NMat=       1 IRICut=       1 DoRegI=T DoRafI=F ISym2E= 0 IDoP0=0 IntGTp=1.
 FoFCou: FMM=F IPFlag=           0 FMFlag=      100000 FMFlg1=         800
         NFxFlg=           0 DoJE=F BraDBF=F KetDBF=F FulRan=T
         wScrn=  0.000000 ICntrl=      2127 IOpCl=  0 I1Cent=           0 NGrid=           0
         NMat0=    1 NMatS0=      1 NMatT0=    0 NMatD0=    1 NMtDS0=    0 NMtDT0=    0
 Symmetry not used in FoFCou.
 Leave Link  703 at Tue Sep 17 09:48:32 2024, MaxMem=  1342177280 cpu:              34.9 elap:               4.7
 (Enter /groups/ReismanLab/Software/Gaussian16_RevC/Linux_Binary_AVX2-enabled-CPU/g16/l716.exe)
 Dipole        = 3.75622996D-01-4.35543964D-03-3.13795346D-04
 ***** Axes restored to original set *****
 -------------------------------------------------------------------
 Center     Atomic                   Forces (Hartrees/Bohr)
 Number     Number              X              Y              Z
 -------------------------------------------------------------------
      1        9          -0.009715726   -0.005659145    0.005837520
      2        6           0.001078519   -0.000096984   -0.003846423
      3        9          -0.000204771    0.000027709   -0.009778260
      4        9           0.009404765    0.005471462    0.005940312
      5        6          -0.006139748    0.006682455    0.002216291
      6        6           0.002604322    0.002769051    0.000149986
      7        6           0.000977399   -0.000087310    0.000001752
      8       35           0.006071998    0.000022068   -0.000002516
      9        6           0.002716668   -0.002649490   -0.000127767
     10        6          -0.006217433   -0.006630479   -0.002225335
     11        6           0.001201261    0.000017373    0.003820899
     12        9          -0.010001457    0.005691844   -0.005595117
     13        9           0.000089120   -0.000198009    0.009804984
     14        9           0.009258591   -0.005252928   -0.006185128
     15        6          -0.001075315   -0.000062486   -0.000008106
     16        1           0.001121641    0.001820708    0.000316486
     17        1           0.001179507   -0.001820264   -0.000331262
     18        1          -0.002349343   -0.000045573    0.000011683
 -------------------------------------------------------------------
 Cartesian Forces:  Max     0.010001457 RMS     0.004535972
 Leave Link  716 at Tue Sep 17 09:48:32 2024, MaxMem=  1342177280 cpu:               0.1 elap:               0.0
 (Enter /groups/ReismanLab/Software/Gaussian16_RevC/Linux_Binary_AVX2-enabled-CPU/g16/l103.exe)

 GradGradGradGradGradGradGradGradGradGradGradGradGradGradGradGradGradGrad
 Berny optimization.
 FormGI is forming the generalized inverse of G from B-inverse, IUseBI=4.
 Internal  Forces:  Max     0.011784692 RMS     0.004030378
 Search for a local minimum.
 Step number   1 out of a maximum of   94
 All quantities printed in internal units (Hartrees-Bohrs-Radians)
 RMS Force = .40304D-02 SwitMx=.10000D-02 MixMth= 1
 Mixed Optimization -- RFO/linear search
 Second derivative matrix not updated -- first step.
 ITU=  0
     Eigenvalues ---    0.00657   0.00657   0.01607   0.01653   0.02247
     Eigenvalues ---    0.02251   0.02257   0.02262   0.02263   0.02264
     Eigenvalues ---    0.02266   0.10518   0.10519   0.10780   0.10780
     Eigenvalues ---    0.16000   0.16000   0.16000   0.18834   0.23492
     Eigenvalues ---    0.23495   0.23499   0.24986   0.24989   0.25000
     Eigenvalues ---    0.25000   0.25000   0.25000   0.25000   0.25000
     Eigenvalues ---    0.25000   0.31530   0.31532   0.36041   0.36042
     Eigenvalues ---    0.36094   0.43458   0.43464   0.47695   0.47793
     Eigenvalues ---    0.47821   0.47900   0.56287   0.56292   0.57549
     Eigenvalues ---    0.57604   0.57846   0.57909
 RFO step:  Lambda=-3.45749685D-03 EMin= 6.57156065D-03
 Linear search not attempted -- first point.
 Iteration  1 RMS(Cart)=  0.01668739 RMS(Int)=  0.00021730
 Iteration  2 RMS(Cart)=  0.00029449 RMS(Int)=  0.00007567
 Iteration  3 RMS(Cart)=  0.00000007 RMS(Int)=  0.00007567
 ITry= 1 IFail=0 DXMaxC= 4.60D-02 DCOld= 1.00D+10 DXMaxT= 3.00D-01 DXLimC= 3.00D+00 Rises=F
 Variable       Old X    -DE/DX   Delta X   Delta X   Delta X     New X
                                 (Linear)    (Quad)   (Total)
    R1        2.52687   0.01166   0.00000   0.02005   0.02005   2.54692
    R2        2.54006   0.00919   0.00000   0.01622   0.01622   2.55628
    R3        2.52888   0.01144   0.00000   0.01975   0.01975   2.54863
    R4        2.85013  -0.00049   0.00000  -0.00152  -0.00152   2.84861
    R5        2.62117   0.00728   0.00000   0.01511   0.01511   2.63628
    R6        2.62312   0.00584   0.00000   0.01210   0.01210   2.63522
    R7        2.62038   0.00633   0.00000   0.01319   0.01319   2.63357
    R8        2.04015   0.00214   0.00000   0.00589   0.00589   2.04604
    R9        3.56840   0.00607   0.00000   0.03166   0.03166   3.60006
   R10        2.62018   0.00623   0.00000   0.01299   0.01298   2.63316
   R11        2.62143   0.00738   0.00000   0.01532   0.01532   2.63675
   R12        2.04017   0.00217   0.00000   0.00597   0.00597   2.04614
   R13        2.85009  -0.00048   0.00000  -0.00150  -0.00150   2.84860
   R14        2.62281   0.00574   0.00000   0.01188   0.01188   2.63469
   R15        2.52635   0.01178   0.00000   0.02023   0.02023   2.54657
   R16        2.54001   0.00921   0.00000   0.01626   0.01626   2.55627
   R17        2.52934   0.01136   0.00000   0.01962   0.01962   2.54896
   R18        2.03935   0.00235   0.00000   0.00645   0.00645   2.04580
    A1        1.86099   0.00491   0.00000   0.01899   0.01883   1.87983
    A2        1.86784   0.00646   0.00000   0.02463   0.02435   1.89219
    A3        1.96321  -0.00620   0.00000  -0.02516  -0.02538   1.93782
    A4        1.85907   0.00506   0.00000   0.02122   0.02112   1.88019
    A5        1.94390  -0.00309   0.00000  -0.01172  -0.01186   1.93204
    A6        1.96222  -0.00574   0.00000  -0.02243  -0.02264   1.93958
    A7        2.08244   0.00031   0.00000   0.00126   0.00124   2.08368
    A8        2.08494   0.00069   0.00000   0.00278   0.00276   2.08770
    A9        2.11537  -0.00100   0.00000  -0.00436  -0.00438   2.11098
   A10        2.07471   0.00048   0.00000   0.00212   0.00212   2.07682
   A11        2.10407  -0.00017   0.00000  -0.00064  -0.00064   2.10343
   A12        2.10439  -0.00030   0.00000  -0.00145  -0.00145   2.10294
   A13        2.08443   0.00018   0.00000   0.00063   0.00063   2.08506
   A14        2.11424  -0.00036   0.00000  -0.00127  -0.00128   2.11296
   A15        2.08452   0.00018   0.00000   0.00064   0.00065   2.08516
   A16        2.07484   0.00046   0.00000   0.00206   0.00205   2.07689
   A17        2.10450  -0.00033   0.00000  -0.00165  -0.00165   2.10286
   A18        2.10383  -0.00013   0.00000  -0.00039  -0.00039   2.10344
   A19        2.08040   0.00039   0.00000   0.00160   0.00158   2.08198
   A20        2.11523  -0.00099   0.00000  -0.00430  -0.00432   2.11091
   A21        2.08712   0.00059   0.00000   0.00237   0.00235   2.08947
   A22        1.96419  -0.00627   0.00000  -0.02538  -0.02561   1.93858
   A23        1.94398  -0.00311   0.00000  -0.01178  -0.01191   1.93207
   A24        1.96121  -0.00569   0.00000  -0.02230  -0.02250   1.93871
   A25        1.86130   0.00498   0.00000   0.01934   0.01919   1.88049
   A26        1.86782   0.00647   0.00000   0.02468   0.02440   1.89222
   A27        1.85872   0.00502   0.00000   0.02098   0.02087   1.87959
   A28        2.07197   0.00141   0.00000   0.00582   0.00583   2.07779
   A29        2.10542  -0.00067   0.00000  -0.00267  -0.00268   2.10275
   A30        2.10580  -0.00074   0.00000  -0.00315  -0.00315   2.10265
    D1       -2.63676  -0.00008   0.00000  -0.00546  -0.00552  -2.64228
    D2        0.53624   0.00017   0.00000   0.00635   0.00632   0.54256
    D3        1.55829   0.00005   0.00000  -0.00434  -0.00438   1.55392
    D4       -1.55189   0.00030   0.00000   0.00747   0.00747  -1.54442
    D5       -0.52670  -0.00035   0.00000  -0.00802  -0.00797  -0.53467
    D6        2.64630  -0.00010   0.00000   0.00379   0.00387   2.65018
    D7       -3.11532   0.00051   0.00000   0.02112   0.02112  -3.09421
    D8        0.03274   0.00036   0.00000   0.01598   0.01596   0.04869
    D9       -0.00571   0.00029   0.00000   0.00924   0.00925   0.00354
   D10       -3.14083   0.00014   0.00000   0.00409   0.00409  -3.13674
   D11        3.11233  -0.00038   0.00000  -0.01661  -0.01660   3.09573
   D12       -0.02909  -0.00039   0.00000  -0.01688  -0.01687  -0.04596
   D13        0.00276  -0.00015   0.00000  -0.00468  -0.00468  -0.00192
   D14       -3.13866  -0.00015   0.00000  -0.00495  -0.00495   3.13958
   D15       -3.13862  -0.00014   0.00000  -0.00469  -0.00471   3.13986
   D16        0.00297  -0.00014   0.00000  -0.00458  -0.00460  -0.00163
   D17       -0.00349   0.00000   0.00000   0.00046   0.00045  -0.00304
   D18        3.13810   0.00001   0.00000   0.00057   0.00056   3.13866
   D19        0.00261  -0.00014   0.00000  -0.00444  -0.00446  -0.00185
   D20        3.13798   0.00000   0.00000   0.00035   0.00034   3.13833
   D21       -3.13899  -0.00014   0.00000  -0.00433  -0.00435   3.13984
   D22       -0.00361   0.00000   0.00000   0.00046   0.00045  -0.00316
   D23       -3.11563   0.00052   0.00000   0.02126   0.02125  -3.09437
   D24       -0.00566   0.00029   0.00000   0.00917   0.00918   0.00353
   D25        0.03218   0.00038   0.00000   0.01647   0.01645   0.04863
   D26       -3.14104   0.00015   0.00000   0.00439   0.00438  -3.13665
   D27       -2.66536  -0.00006   0.00000  -0.00475  -0.00482  -2.67017
   D28        1.52857   0.00004   0.00000  -0.00386  -0.00389   1.52468
   D29       -0.55534  -0.00034   0.00000  -0.00731  -0.00726  -0.56261
   D30        0.50734   0.00019   0.00000   0.00726   0.00722   0.51456
   D31       -1.58192   0.00030   0.00000   0.00815   0.00815  -1.57377
   D32        2.61735  -0.00009   0.00000   0.00470   0.00478   2.62213
   D33        0.00302  -0.00015   0.00000  -0.00469  -0.00469  -0.00167
   D34       -3.13875  -0.00014   0.00000  -0.00442  -0.00442   3.14002
   D35        3.11287  -0.00038   0.00000  -0.01684  -0.01682   3.09605
   D36       -0.02890  -0.00038   0.00000  -0.01656  -0.01655  -0.04545
         Item               Value     Threshold  Converged?
 Maximum Force            0.011785     0.000450     NO 
 RMS     Force            0.004030     0.000300     NO 
 Maximum Displacement     0.046017     0.001800     NO 
 RMS     Displacement     0.016743     0.001200     NO 
 Predicted change in Energy=-1.751375D-03
 Lowest energy point so far.  Saving SCF results.
 GradGradGradGradGradGradGradGradGradGradGradGradGradGradGradGradGradGrad

 Leave Link  103 at Tue Sep 17 09:48:32 2024, MaxMem=  1342177280 cpu:               0.1 elap:               0.0
 (Enter /groups/ReismanLab/Software/Gaussian16_RevC/Linux_Binary_AVX2-enabled-CPU/g16/l202.exe)
                          Input orientation:                          
 ---------------------------------------------------------------------
 Center     Atomic      Atomic             Coordinates (Angstroms)
 Number     Number       Type             X           Y           Z
 ---------------------------------------------------------------------
      1          9           0       -2.771484    2.381695    0.602483
      2          6           0       -1.572229    2.503516   -0.000368
      3          9           0       -1.790858    2.901189   -1.274701
      4          9           0       -0.880030    3.479804    0.621443
      5          6           0       -0.817252    1.199109    0.028597
      6          6           0        0.577709    1.215471    0.030830
      7          6           0        1.267503    0.004927   -0.000064
      8         35           0        3.172561    0.011656   -0.000302
      9          6           0        0.586250   -1.210200   -0.030906
     10          6           0       -0.809042   -1.203646   -0.028303
     11          6           0       -1.552603   -2.514594    0.000516
     12          9           0       -2.767254   -2.395344   -0.570796
     13          9           0       -1.735231   -2.932810    1.273937
     14          9           0       -0.867156   -3.475568   -0.652246
     15          6           0       -1.520322   -0.004851    0.000312
     16          1           0        1.116498    2.154235    0.057395
     17          1           0        1.131655   -2.145185   -0.057818
     18          1           0       -2.602904   -0.008676    0.000663
 ---------------------------------------------------------------------
                    Distance matrix (angstroms):
                    1          2          3          4          5
     1  F    0.000000
     2  C    1.347769   0.000000
     3  F    2.180669   1.352725   0.000000
     4  F    2.187191   1.348676   2.181688   0.000000
     5  C    2.355182   1.507418   2.354479   2.357325   0.000000
     6  C    3.592209   2.506445   3.186874   2.756997   1.395058
     7  C    4.724987   3.782462   4.400750   4.131941   2.402726
     8  Br   6.427449   5.359328   5.882943   5.370113   4.162869
     9  C    4.957546   4.295538   4.909296   4.956982   2.788929
    10  C    4.135667   3.785008   4.400811   4.728839   2.403442
    11  C    5.081503   5.018148   5.568990   6.063886   3.785910
    12  F    4.919014   5.074673   5.431583   6.284936   4.133022
    13  F    5.456064   5.586060   6.366647   6.502211   4.412064
    14  F    6.285566   6.055701   6.473307   7.071043   4.724261
    15  C    2.761090   2.508904   3.184952   3.597027   1.394499
    16  H    3.932590   2.711934   3.284073   2.461992   2.156961
    17  H    6.013579   5.378170   5.957162   6.012385   3.871693
    18  H    2.470724   2.715401   3.279220   3.939944   2.155941
                    6          7          8          9         10
     6  C    0.000000
     7  C    1.393623   0.000000
     8  Br   2.860663   1.905070   0.000000
     9  C    2.426471   1.393410   2.860572   0.000000
    10  C    2.789033   2.402808   4.163040   1.395310   0.000000
    11  C    4.295641   3.781664   5.358088   2.505418   1.507414
    12  F    4.958701   4.729302   6.434324   3.597505   2.355640
    13  F    4.909506   4.389737   5.863445   3.171636   2.354499
    14  F    4.955812   4.134726   5.376344   2.762308   2.356759
    15  C    2.427313   2.787841   4.692912   2.427238   1.394219
    16  H    1.082717   2.155371   2.970079   3.407107   3.871745
    17  H    3.407158   2.155174   2.969945   1.082769   2.157237
    18  H    3.408188   3.870431   5.775501   3.408131   2.155628
                   11         12         13         14         15
    11  C    0.000000
    12  F    1.347589   0.000000
    13  F    1.352722   2.181050   0.000000
    14  F    1.348854   2.187211   2.181357   0.000000
    15  C    2.509950   2.755987   3.200195   3.591425   0.000000
    16  H    5.378224   6.014717   5.957378   6.011086   3.408478
    17  H    2.710185   3.940459   3.257754   2.473562   3.408429
    18  H    2.717123   2.459626   3.305245   3.931724   1.082589
                   16         17         18
    16  H    0.000000
    17  H    4.300990   0.000000
    18  H    4.302947   4.302908   0.000000
 Stoichiometry    C8H3BrF6
 Framework group  C1[X(C8H3BrF6)]
 Deg. of freedom    48
 Full point group                 C1      NOp   1
 RotChk:  IX=0 Diff= 4.25D-03
 Largest Abelian subgroup         C1      NOp   1
 Largest concise Abelian subgroup C1      NOp   1
                         Standard orientation:                         
 ---------------------------------------------------------------------
 Center     Atomic      Atomic             Coordinates (Angstroms)
 Number     Number       Type             X           Y           Z
 ---------------------------------------------------------------------
      1          9           0       -2.705070   -2.378137   -0.605502
      2          6           0       -1.505907   -2.502052   -0.002895
      3          9           0       -1.724880   -2.901182    1.270923
      4          9           0       -0.814802   -3.478260   -0.626049
      5          6           0       -0.749524   -1.198423   -0.030179
      6          6           0        0.645418   -1.216287   -0.032528
      7          6           0        1.336519   -0.006530   -0.000073
      8         35           0        3.241569   -0.015314    0.000027
      9          6           0        0.656579    1.209289    0.032429
     10          6           0       -0.738719    1.204244    0.029912
     11          6           0       -1.480867    2.516030    0.002884
     12          9           0       -2.695609    2.397332    0.574119
     13          9           0       -1.663128    2.936134   -1.269968
     14          9           0       -0.794341    3.475397    0.656875
     15          6           0       -1.451293    0.006256   -0.000247
     16          1           0        1.183192   -2.155595   -0.060377
     17          1           0        1.202994    2.143649    0.060546
     18          1           0       -2.533871    0.011249   -0.000520
 ---------------------------------------------------------------------
 Rotational constants (GHZ):           0.3827890           0.3456533           0.1942387
 Leave Link  202 at Tue Sep 17 09:48:33 2024, MaxMem=  1342177280 cpu:               0.1 elap:               0.0
 (Enter /groups/ReismanLab/Software/Gaussian16_RevC/Linux_Binary_AVX2-enabled-CPU/g16/l301.exe)
 Standard basis: 6-31G(d,p) (6D, 7F)
 Ernie: Thresh=  0.10000D-02 Tol=  0.10000D-05 Strict=F.
 There are   255 symmetry adapted cartesian basis functions of A   symmetry.
 There are   255 symmetry adapted basis functions of A   symmetry.
   255 basis functions,   496 primitive gaussians,   255 cartesian basis functions
    70 alpha electrons       70 beta electrons
       nuclear repulsion energy      1368.4795460685 Hartrees.
 IExCor=  402 DFT=T Ex+Corr=B3LYP ExCW=0 ScaHFX=  0.200000
 ScaDFX=  0.800000  0.720000  1.000000  0.810000 ScalE2=  1.000000  1.000000
 IRadAn=      5 IRanWt=     -1 IRanGd=            0 ICorTp=0 IEmpDi=141
 NAtoms=   18 NActive=   18 NUniq=   18 SFac= 1.00D+00 NAtFMM=   60 NAOKFM=F Big=F
 Integral buffers will be    131072 words long.
 Raffenetti 2 integral format.
 Two-electron integral symmetry is turned on.
 R6Disp:  Grimme-D3(BJ) Dispersion energy=       -0.0370017042 Hartrees.
 Nuclear repulsion after empirical dispersion term =     1368.4425443643 Hartrees.
 Leave Link  301 at Tue Sep 17 09:48:33 2024, MaxMem=  1342177280 cpu:               0.1 elap:               0.1
 (Enter /groups/ReismanLab/Software/Gaussian16_RevC/Linux_Binary_AVX2-enabled-CPU/g16/l302.exe)
 NPDir=0 NMtPBC=     1 NCelOv=     1 NCel=       1 NClECP=     1 NCelD=      1
         NCelK=      1 NCelE2=     1 NClLst=     1 CellRange=     0.0.
 One-electron integrals computed using PRISM.
 One-electron integral symmetry used in STVInt
 NBasis=   255 RedAO= T EigKep=  4.16D-04  NBF=   255
 NBsUse=   255 1.00D-06 EigRej= -1.00D+00 NBFU=   255
 Precomputing XC quadrature grid using
 IXCGrd= 4 IRadAn=           5 IRanWt=          -1 IRanGd=           0 AccXCQ= 0.00D+00.
 Generated NRdTot=       0 NPtTot=           0 NUsed=           0 NTot=          32
 NSgBfM=   251   251   251   251   251 MxSgAt=    18 MxSgA2=    18.
 Leave Link  302 at Tue Sep 17 09:48:33 2024, MaxMem=  1342177280 cpu:               1.1 elap:               0.2
 (Enter /groups/ReismanLab/Software/Gaussian16_RevC/Linux_Binary_AVX2-enabled-CPU/g16/l303.exe)
 DipDrv:  MaxL=1.
 Leave Link  303 at Tue Sep 17 09:48:33 2024, MaxMem=  1342177280 cpu:               0.1 elap:               0.0
 (Enter /groups/ReismanLab/Software/Gaussian16_RevC/Linux_Binary_AVX2-enabled-CPU/g16/l401.exe)
 Initial guess from the checkpoint file:  "smiles_00107_conf_0.chk"
 B after Tr=     0.000000   -0.000000   -0.000000
         Rot=    0.999999   -0.000126   -0.000019   -0.001293 Ang=  -0.15 deg.
 Guess basis will be translated and rotated to current coordinates.
 JPrj=2 DoOrth=T DoCkMO=T.
 Generating alternative initial guess.
 ExpMin= 1.43D-01 ExpMax= 5.74D+05 ExpMxC= 5.74D+03 IAcc=3 IRadAn=         5 AccDes= 0.00D+00
 Harris functional with IExCor=  402 and IRadAn=       5 diagonalized for initial guess.
 HarFok:  IExCor=  402 AccDes= 0.00D+00 IRadAn=         5 IDoV= 1 UseB2=F ITyADJ=14
 ICtDFT=  3500011 ScaDFX=  1.000000  1.000000  1.000000  1.000000
 FoFCou: FMM=F IPFlag=           0 FMFlag=      100000 FMFlg1=           0
         NFxFlg=           0 DoJE=T BraDBF=F KetDBF=T FulRan=T
         wScrn=  0.000000 ICntrl=       500 IOpCl=  0 I1Cent=   200000004 NGrid=           0
         NMat0=    1 NMatS0=      1 NMatT0=    0 NMatD0=    1 NMtDS0=    0 NMtDT0=    0
 Petite list used in FoFCou.
 Harris En= -3477.51816173366    
 Leave Link  401 at Tue Sep 17 09:48:34 2024, MaxMem=  1342177280 cpu:               5.7 elap:               0.8
 (Enter /groups/ReismanLab/Software/Gaussian16_RevC/Linux_Binary_AVX2-enabled-CPU/g16/l502.exe)
 Integral symmetry usage will be decided dynamically.
 Closed shell SCF:
 Using DIIS extrapolation, IDIIS=  1040.
 NGot=  1342177280 LenX=  1342042190 LenY=  1341976724
 Requested convergence on RMS density matrix=1.00D-08 within  32 cycles.
 Requested convergence on MAX density matrix=1.00D-06.
 Requested convergence on             energy=1.00D-06.
 No special actions if energy rises.
 Fock matrices will be formed incrementally for  20 cycles.
 Integral accuracy reduced to 1.0D-05 until final iterations.

 Cycle   1  Pass 0  IDiag  1:
 FoFJK:  IHMeth= 1 ICntrl=       0 DoSepK=F KAlg= 0 I1Cent=           0 FoldK=F
 IRaf= 820000000 NMat=       1 IRICut=       1 DoRegI=T DoRafI=F ISym2E= 0 IDoP0=0 IntGTp=1.
 FoFCou: FMM=F IPFlag=           0 FMFlag=      100000 FMFlg1=           0
         NFxFlg=           0 DoJE=F BraDBF=F KetDBF=F FulRan=T
         wScrn=  0.000000 ICntrl=         0 IOpCl=  0 I1Cent=           0 NGrid=           0
         NMat0=    1 NMatS0=      1 NMatT0=    0 NMatD0=    1 NMtDS0=    0 NMtDT0=    0
 Symmetry not used in FoFCou.
 E= -3477.46406363815    
 DIIS: error= 2.45D-03 at cycle   1 NSaved=   1.
 NSaved= 1 IEnMin= 1 EnMin= -3477.46406363815     IErMin= 1 ErrMin= 2.45D-03
 ErrMax= 2.45D-03  0.00D+00 EMaxC= 1.00D-01 BMatC= 2.03D-03 BMatP= 2.03D-03
 IDIUse=3 WtCom= 9.76D-01 WtEn= 2.45D-02
 Coeff-Com:  0.100D+01
 Coeff-En:   0.100D+01
 Coeff:      0.100D+01
 Gap=     1.830 Goal=   None    Shift=    0.000
 GapD=    1.830 DampG=2.000 DampE=1.000 DampFc=2.0000 IDamp=-1.
 RMSDP=2.69D-04 MaxDP=4.86D-03              OVMax= 7.13D-03

 Cycle   2  Pass 0  IDiag  1:
 RMSU=  2.69D-04    CP:  1.00D+00
 E= -3477.46562270733     Delta-E=       -0.001559069186 Rises=F Damp=F
 DIIS: error= 3.69D-04 at cycle   2 NSaved=   2.
 NSaved= 2 IEnMin= 2 EnMin= -3477.46562270733     IErMin= 2 ErrMin= 3.69D-04
 ErrMax= 3.69D-04  0.00D+00 EMaxC= 1.00D-01 BMatC= 6.69D-05 BMatP= 2.03D-03
 IDIUse=3 WtCom= 9.96D-01 WtEn= 3.69D-03
 Coeff-Com:  0.310D-01 0.969D+00
 Coeff-En:   0.000D+00 0.100D+01
 Coeff:      0.309D-01 0.969D+00
 Gap=     0.212 Goal=   None    Shift=    0.000
 RMSDP=7.81D-05 MaxDP=3.18D-03 DE=-1.56D-03 OVMax= 4.20D-03

 Cycle   3  Pass 0  IDiag  1:
 RMSU=  7.81D-05    CP:  1.00D+00  9.99D-01
 E= -3477.46559341054     Delta-E=        0.000029296798 Rises=F Damp=F
 DIIS: error= 5.51D-04 at cycle   3 NSaved=   3.
 NSaved= 3 IEnMin= 2 EnMin= -3477.46562270733     IErMin= 2 ErrMin= 3.69D-04
 ErrMax= 5.51D-04  0.00D+00 EMaxC= 1.00D-01 BMatC= 1.05D-04 BMatP= 6.69D-05
 IDIUse=3 WtCom= 2.99D-01 WtEn= 7.01D-01
 Coeff-Com: -0.138D-01 0.565D+00 0.449D+00
 Coeff-En:   0.000D+00 0.578D+00 0.422D+00
 Coeff:     -0.412D-02 0.574D+00 0.430D+00
 Gap=     0.212 Goal=   None    Shift=    0.000
 RMSDP=4.75D-05 MaxDP=2.07D-03 DE= 2.93D-05 OVMax= 2.56D-03

 Cycle   4  Pass 0  IDiag  1:
 RMSU=  1.65D-05    CP:  1.00D+00  1.04D+00  4.44D-01
 E= -3477.46569723135     Delta-E=       -0.000103820815 Rises=F Damp=F
 DIIS: error= 1.21D-04 at cycle   4 NSaved=   4.
 NSaved= 4 IEnMin= 4 EnMin= -3477.46569723135     IErMin= 4 ErrMin= 1.21D-04
 ErrMax= 1.21D-04  0.00D+00 EMaxC= 1.00D-01 BMatC= 2.36D-06 BMatP= 6.69D-05
 IDIUse=3 WtCom= 9.99D-01 WtEn= 1.21D-03
 Coeff-Com: -0.821D-02 0.202D+00 0.189D+00 0.617D+00
 Coeff-En:   0.000D+00 0.000D+00 0.000D+00 0.100D+01
 Coeff:     -0.820D-02 0.202D+00 0.189D+00 0.617D+00
 Gap=     0.213 Goal=   None    Shift=    0.000
 RMSDP=8.66D-06 MaxDP=4.24D-04 DE=-1.04D-04 OVMax= 7.78D-04

 Initial convergence to 1.0D-05 achieved.  Increase integral accuracy.
 Cycle   5  Pass 1  IDiag  1:
 E= -3477.46566629802     Delta-E=        0.000030933326 Rises=F Damp=F
 DIIS: error= 8.34D-05 at cycle   1 NSaved=   1.
 NSaved= 1 IEnMin= 1 EnMin= -3477.46566629802     IErMin= 1 ErrMin= 8.34D-05
 ErrMax= 8.34D-05  0.00D+00 EMaxC= 1.00D-01 BMatC= 9.13D-07 BMatP= 9.13D-07
 IDIUse=1 WtCom= 1.00D+00 WtEn= 0.00D+00
 Coeff-Com:  0.100D+01
 Coeff:      0.100D+01
 Gap=     0.212 Goal=   None    Shift=    0.000
 RMSDP=8.66D-06 MaxDP=4.24D-04 DE= 3.09D-05 OVMax= 1.04D-03

 Cycle   6  Pass 1  IDiag  1:
 RMSU=  1.56D-05    CP:  1.00D+00
 E= -3477.46566389860     Delta-E=        0.000002399421 Rises=F Damp=F
 DIIS: error= 1.79D-04 at cycle   2 NSaved=   2.
 NSaved= 2 IEnMin= 1 EnMin= -3477.46566629802     IErMin= 1 ErrMin= 8.34D-05
 ErrMax= 1.79D-04  0.00D+00 EMaxC= 1.00D-01 BMatC= 2.99D-06 BMatP= 9.13D-07
 IDIUse=3 WtCom= 4.28D-01 WtEn= 5.72D-01
 Coeff-Com:  0.653D+00 0.347D+00
 Coeff-En:   0.744D+00 0.256D+00
 Coeff:      0.705D+00 0.295D+00
 Gap=     0.212 Goal=   None    Shift=    0.000
 RMSDP=6.41D-06 MaxDP=3.10D-04 DE= 2.40D-06 OVMax= 6.08D-04

 Cycle   7  Pass 1  IDiag  1:
 RMSU=  4.75D-06    CP:  1.00D+00  7.24D-01
 E= -3477.46566717973     Delta-E=       -0.000003281129 Rises=F Damp=F
 DIIS: error= 1.25D-05 at cycle   3 NSaved=   3.
 NSaved= 3 IEnMin= 3 EnMin= -3477.46566717973     IErMin= 3 ErrMin= 1.25D-05
 ErrMax= 1.25D-05  0.00D+00 EMaxC= 1.00D-01 BMatC= 3.35D-08 BMatP= 9.13D-07
 IDIUse=1 WtCom= 1.00D+00 WtEn= 0.00D+00
 Coeff-Com:  0.123D+00-0.139D-01 0.891D+00
 Coeff:      0.123D+00-0.139D-01 0.891D+00
 Gap=     0.213 Goal=   None    Shift=    0.000
 RMSDP=1.29D-06 MaxDP=4.05D-05 DE=-3.28D-06 OVMax= 1.11D-04

 Cycle   8  Pass 1  IDiag  1:
 RMSU=  1.13D-06    CP:  1.00D+00  6.99D-01  1.10D+00
 E= -3477.46566720490     Delta-E=       -0.000000025163 Rises=F Damp=F
 DIIS: error= 5.58D-06 at cycle   4 NSaved=   4.
 NSaved= 4 IEnMin= 4 EnMin= -3477.46566720490     IErMin= 4 ErrMin= 5.58D-06
 ErrMax= 5.58D-06  0.00D+00 EMaxC= 1.00D-01 BMatC= 1.09D-08 BMatP= 3.35D-08
 IDIUse=1 WtCom= 1.00D+00 WtEn= 0.00D+00
 Coeff-Com:  0.840D-03-0.451D-01 0.518D+00 0.526D+00
 Coeff:      0.840D-03-0.451D-01 0.518D+00 0.526D+00
 Gap=     0.212 Goal=   None    Shift=    0.000
 RMSDP=5.47D-07 MaxDP=2.24D-05 DE=-2.52D-08 OVMax= 2.88D-05

 Cycle   9  Pass 1  IDiag  1:
 RMSU=  1.22D-07    CP:  1.00D+00  7.02D-01  1.11D+00  5.31D-01
 E= -3477.46566721682     Delta-E=       -0.000000011926 Rises=F Damp=F
 DIIS: error= 1.12D-06 at cycle   5 NSaved=   5.
 NSaved= 5 IEnMin= 5 EnMin= -3477.46566721682     IErMin= 5 ErrMin= 1.12D-06
 ErrMax= 1.12D-06  0.00D+00 EMaxC= 1.00D-01 BMatC= 1.80D-10 BMatP= 1.09D-08
 IDIUse=1 WtCom= 1.00D+00 WtEn= 0.00D+00
 Coeff-Com: -0.225D-02-0.217D-01 0.236D+00 0.256D+00 0.533D+00
 Coeff:     -0.225D-02-0.217D-01 0.236D+00 0.256D+00 0.533D+00
 Gap=     0.212 Goal=   None    Shift=    0.000
 RMSDP=5.16D-08 MaxDP=1.34D-06 DE=-1.19D-08 OVMax= 2.31D-06

 Cycle  10  Pass 1  IDiag  1:
 RMSU=  2.80D-08    CP:  1.00D+00  7.02D-01  1.11D+00  5.40D-01  6.61D-01
 E= -3477.46566721691     Delta-E=       -0.000000000084 Rises=F Damp=F
 DIIS: error= 1.23D-07 at cycle   6 NSaved=   6.
 NSaved= 6 IEnMin= 6 EnMin= -3477.46566721691     IErMin= 6 ErrMin= 1.23D-07
 ErrMax= 1.23D-07  0.00D+00 EMaxC= 1.00D-01 BMatC= 4.21D-12 BMatP= 1.80D-10
 IDIUse=1 WtCom= 1.00D+00 WtEn= 0.00D+00
 Coeff-Com: -0.867D-03-0.657D-02 0.694D-01 0.774D-01 0.208D+00 0.653D+00
 Coeff:     -0.867D-03-0.657D-02 0.694D-01 0.774D-01 0.208D+00 0.653D+00
 Gap=     0.212 Goal=   None    Shift=    0.000
 RMSDP=9.00D-09 MaxDP=3.16D-07 DE=-8.37D-11 OVMax= 5.66D-07

 SCF Done:  E(RB3LYP) =  -3477.46566722     A.U. after   10 cycles
            NFock= 10  Conv=0.90D-08     -V/T= 2.0065
 KE= 3.454957369443D+03 PE=-1.100758439777D+04 EE= 2.706718816745D+03
 Leave Link  502 at Tue Sep 17 09:48:44 2024, MaxMem=  1342177280 cpu:              81.3 elap:              10.6
 (Enter /groups/ReismanLab/Software/Gaussian16_RevC/Linux_Binary_AVX2-enabled-CPU/g16/l508.exe)
 QCSCF skips out because SCF is already converged.
 Leave Link  508 at Tue Sep 17 09:48:44 2024, MaxMem=  1342177280 cpu:               0.0 elap:               0.0
 (Enter /groups/ReismanLab/Software/Gaussian16_RevC/Linux_Binary_AVX2-enabled-CPU/g16/l701.exe)
 ... and contract with generalized density number  0.
 Compute integral first derivatives.
 R6Disp: Adding Grimme-D3(BJ) dispersion energy 1st derivatives to the gradient.
 Leave Link  701 at Tue Sep 17 09:48:44 2024, MaxMem=  1342177280 cpu:               0.7 elap:               0.1
 (Enter /groups/ReismanLab/Software/Gaussian16_RevC/Linux_Binary_AVX2-enabled-CPU/g16/l702.exe)
 L702 exits ... SP integral derivatives will be done elsewhere.
 Leave Link  702 at Tue Sep 17 09:48:44 2024, MaxMem=  1342177280 cpu:               0.1 elap:               0.0
 (Enter /groups/ReismanLab/Software/Gaussian16_RevC/Linux_Binary_AVX2-enabled-CPU/g16/l703.exe)
 Integral derivatives from FoFJK, PRISM(SPDF).
 Compute integral first derivatives, UseDBF=F ICtDFT=           0.
 Calling FoFJK, ICntrl=      2127 FMM=F ISym2X=0 I1Cent= 0 IOpClX= 0 NMat=1 NMatS=1 NMatT=0.
[...]
 (Enter /groups/ReismanLab/Software/Gaussian16_RevC/Linux_Binary_AVX2-enabled-CPU/g16/l601.exe)
 Copying SCF densities to generalized density rwf, IOpCl= 0 IROHF=0.

 **********************************************************************

            Population analysis using the SCF Density.

 **********************************************************************

 Orbital symmetries:
       Occupied  (A) (A) (A) (A) (A) (A) (A) (A) (A) (A) (A) (A)
                 (A) (A) (A) (A) (A) (A) (A) (A) (A) (A) (A) (A)
                 (A) (A) (A) (A) (A) (A) (A) (A) (A) (A) (A) (A)
                 (A) (A) (A) (A) (A) (A) (A) (A) (A) (A) (A) (A)
                 (A) (A) (A) (A) (A) (A) (A) (A) (A) (A) (A) (A)
                 (A) (A) (A) (A) (A) (A) (A) (A) (A) (A)
       Virtual   (A) (A) (A) (A) (A) (A) (A) (A) (A) (A) (A) (A)
                 (A) (A) (A) (A) (A) (A) (A) (A) (A) (A) (A) (A)
                 (A) (A) (A) (A) (A) (A) (A) (A) (A) (A) (A) (A)
                 (A) (A) (A) (A) (A) (A) (A) (A) (A) (A) (A) (A)
                 (A) (A) (A) (A) (A) (A) (A) (A) (A) (A) (A) (A)
                 (A) (A) (A) (A) (A) (A) (A) (A) (A) (A) (A) (A)
                 (A) (A) (A) (A) (A) (A) (A) (A) (A) (A) (A) (A)
                 (A) (A) (A) (A) (A) (A) (A) (A) (A) (A) (A) (A)
                 (A) (A) (A) (A) (A) (A) (A) (A) (A) (A) (A) (A)
                 (A) (A) (A) (A) (A) (A) (A) (A) (A) (A) (A) (A)
                 (A) (A) (A) (A) (A) (A) (A) (A) (A) (A) (A) (A)
                 (A) (A) (A) (A) (A) (A) (A) (A) (A) (A) (A) (A)
                 (A) (A) (A) (A) (A) (A) (A) (A) (A) (A) (A) (A)
                 (A) (A) (A) (A) (A) (A) (A) (A) (A) (A) (A) (A)
                 (A) (A) (A) (A) (A) (A) (A) (A) (A) (A) (A) (A)
                 (A) (A) (A) (A) (A) (A) (A) (A) (A) (A) (A) (A)
                 (A) (A) (A) (A) (A) (A) (A) (A) (A) (A) (A) (A)
                 (A) (A) (A) (A) (A) (A) (A) (A) (A) (A) (A) (A)
                 (A) (A) (A) (A) (A) (A) (A) (A) (A) (A) (A) (A)
                 (A) (A) (A) (A) (A) (A) (A) (A) (A) (A) (A) (A)
                 (A) (A) (A) (A) (A) (A) (A) (A) (A) (A) (A) (A)
                 (A) (A) (A) (A) (A) (A) (A) (A) (A) (A) (A) (A)
                 (A) (A) (A) (A) (A) (A) (A) (A) (A) (A) (A) (A)
                 (A) (A) (A) (A) (A) (A) (A) (A) (A) (A) (A) (A)
                 (A) (A) (A) (A) (A) (A) (A) (A) (A) (A) (A) (A)
                 (A) (A) (A) (A) (A) (A) (A) (A) (A) (A) (A) (A)
                 (A) (A) (A) (A) (A) (A) (A) (A) (A) (A) (A) (A)
                 (A) (A) (A) (A) (A) (A) (A) (A) (A) (A) (A) (A)
                 (A) (A) (A) (A) (A) (A) (A) (A) (A) (A) (A) (A)
                 (A) (A) (A) (A) (A) (A) (A) (A) (A) (A) (A) (A)
                 (A) (A) (A) (A) (A) (A) (A) (A) (A) (A) (A) (A)
                 (A) (A) (A) (A) (A) (A) (A) (A) (A) (A) (A) (A)
                 (A) (A) (A) (A) (A) (A) (A) (A) (A) (A) (A) (A)
                 (A) (A) (A) (A) (A) (A) (A) (A) (A) (A) (A) (A)
                 (A) (A) (A) (A) (A) (A) (A) (A) (A) (A) (A) (A)
                 (A) (A) (A) (A) (A) (A) (A) (A) (A) (A)
 The electronic state is 1-A.
 Alpha  occ. eigenvalues -- -485.39380 -63.37852 -57.19804 -57.19558 -57.19550
 Alpha  occ. eigenvalues --  -25.29298 -25.29297 -25.29277 -25.29276 -25.28982
 Alpha  occ. eigenvalues --  -25.28982 -10.81490 -10.81490 -10.63261 -10.60056
 Alpha  occ. eigenvalues --  -10.60055 -10.59169 -10.59168 -10.59042  -9.04495
 Alpha  occ. eigenvalues --   -6.86926  -6.86016  -6.85988  -2.90303  -2.89975
 Alpha  occ. eigenvalues --   -2.89944  -2.89096  -2.89096  -1.47374  -1.47371
 Alpha  occ. eigenvalues --   -1.38582  -1.38580  -1.38252  -1.38252  -1.02261
 Alpha  occ. eigenvalues --   -0.93802  -0.93077  -0.85676  -0.82979  -0.82503
 Alpha  occ. eigenvalues --   -0.75192  -0.74304  -0.70466  -0.70284  -0.70230
 Alpha  occ. eigenvalues --   -0.70184  -0.67227  -0.63916  -0.61202  -0.59479
 Alpha  occ. eigenvalues --   -0.58699  -0.58428  -0.58237  -0.56923  -0.54777
 Alpha  occ. eigenvalues --   -0.54657  -0.54578  -0.53719  -0.52762  -0.52726
 Alpha  occ. eigenvalues --   -0.52100  -0.50518  -0.50358  -0.49150  -0.45301
 Alpha  occ. eigenvalues --   -0.44085  -0.40462  -0.36931  -0.35684  -0.32572
 Alpha virt. eigenvalues --   -0.03367  -0.02500   0.01930   0.09294   0.11098
 Alpha virt. eigenvalues --    0.11273   0.12077   0.13181   0.14828   0.15183
 Alpha virt. eigenvalues --    0.16493   0.17293   0.17497   0.19319   0.20571
 Alpha virt. eigenvalues --    0.21248   0.22463   0.22725   0.23566   0.24864
 Alpha virt. eigenvalues --    0.25088   0.25627   0.25828   0.26188   0.27178
 Alpha virt. eigenvalues --    0.27721   0.28310   0.28657   0.29184   0.29322
 Alpha virt. eigenvalues --    0.29783   0.32072   0.32088   0.33692   0.33742
 Alpha virt. eigenvalues --    0.34460   0.35272   0.36228   0.36801   0.39145
 Alpha virt. eigenvalues --    0.39882   0.41215   0.41276   0.42480   0.44688
 Alpha virt. eigenvalues --    0.45004   0.46121   0.46318   0.47634   0.48951
 Alpha virt. eigenvalues --    0.50277   0.52892   0.54474   0.55516   0.55999
 Alpha virt. eigenvalues --    0.56892   0.57337   0.58085   0.58210   0.60430
 Alpha virt. eigenvalues --    0.61397   0.62290   0.64021   0.64972   0.66253
 Alpha virt. eigenvalues --    0.66738   0.68570   0.69099   0.70456   0.70732
 Alpha virt. eigenvalues --    0.71886   0.74021   0.74083   0.74843   0.77266
 Alpha virt. eigenvalues --    0.77460   0.79553   0.80614   0.80688   0.80810
 Alpha virt. eigenvalues --    0.81236   0.82160   0.82676   0.83158   0.83517
 Alpha virt. eigenvalues --    0.85745   0.87235   0.87499   0.88601   0.90574
 Alpha virt. eigenvalues --    0.95099   0.95206   0.95507   0.96204   0.97819
 Alpha virt. eigenvalues --    0.97839   1.00213   1.00669   1.01240   1.02621
 Alpha virt. eigenvalues --    1.03080   1.03840   1.05805   1.06128   1.08823
 Alpha virt. eigenvalues --    1.10700   1.12271   1.13752   1.13927   1.16571
 Alpha virt. eigenvalues --    1.20252   1.20820   1.23408   1.24242   1.26224
 Alpha virt. eigenvalues --    1.26987   1.28268   1.28735   1.31450   1.34892
 Alpha virt. eigenvalues --    1.35296   1.35519   1.38201   1.38417   1.38797
 Alpha virt. eigenvalues --    1.40647   1.40963   1.44055   1.45259   1.46594
 Alpha virt. eigenvalues --    1.48806   1.50374   1.51568   1.52745   1.54232
 Alpha virt. eigenvalues --    1.56306   1.59088   1.60905   1.61093   1.64029
 Alpha virt. eigenvalues --    1.64708   1.65574   1.65717   1.66810   1.68455
 Alpha virt. eigenvalues --    1.69861   1.73275   1.73423   1.73839   1.75507
 Alpha virt. eigenvalues --    1.76662   1.78002   1.79170   1.82455   1.86650
 Alpha virt. eigenvalues --    1.88234   1.88717   1.89267   1.91696   1.92483
 Alpha virt. eigenvalues --    1.92923   1.96083   1.96396   1.96749   1.96918
 Alpha virt. eigenvalues --    1.99069   2.00565   2.00965   2.01201   2.06305
 Alpha virt. eigenvalues --    2.07953   2.08938   2.09858   2.11089   2.14567
 Alpha virt. eigenvalues --    2.14587   2.15505   2.15686   2.18707   2.19790
 Alpha virt. eigenvalues --    2.22670   2.27836   2.29766   2.32055   2.32645
 Alpha virt. eigenvalues --    2.33680   2.35847   2.38431   2.38439   2.39994
 Alpha virt. eigenvalues --    2.41153   2.42063   2.44764   2.46873   2.47049
 Alpha virt. eigenvalues --    2.51037   2.51384   2.52102   2.52890   2.55602
 Alpha virt. eigenvalues --    2.55781   2.57877   2.58242   2.60964   2.61214
 Alpha virt. eigenvalues --    2.62773   2.63633   2.67176   2.68130   2.69487
 Alpha virt. eigenvalues --    2.70230   2.71864   2.74080   2.74254   2.79040
 Alpha virt. eigenvalues --    2.79149   2.81523   2.82984   2.83009   2.85261
 Alpha virt. eigenvalues --    2.87116   2.88160   2.89308   2.89854   2.91872
 Alpha virt. eigenvalues --    2.92958   2.93815   2.96072   2.96408   2.97148
 Alpha virt. eigenvalues --    2.99720   3.01367   3.03140   3.05252   3.05516
 Alpha virt. eigenvalues --    3.08066   3.10650   3.13019   3.13119   3.13414
 Alpha virt. eigenvalues --    3.15468   3.16675   3.17260   3.17264   3.18038
 Alpha virt. eigenvalues --    3.20064   3.20512   3.22165   3.25074   3.26864
 Alpha virt. eigenvalues --    3.26928   3.28437   3.28460   3.29403   3.30386
 Alpha virt. eigenvalues --    3.30844   3.31786   3.33214   3.33727   3.36912
 Alpha virt. eigenvalues --    3.37575   3.39128   3.40079   3.42187   3.42495
 Alpha virt. eigenvalues --    3.44920   3.45249   3.46176   3.48794   3.49891
 Alpha virt. eigenvalues --    3.53365   3.53908   3.59037   3.60985   3.61253
 Alpha virt. eigenvalues --    3.62653   3.64013   3.65372   3.69709   3.69970
 Alpha virt. eigenvalues --    3.73618   3.74999   3.78478   3.78745   3.79485
 Alpha virt. eigenvalues --    3.83152   3.84146   3.86286   3.89728   3.90459
 Alpha virt. eigenvalues --    3.92044   3.93880   3.94463   3.95558   3.95570
 Alpha virt. eigenvalues --    3.96799   3.98144   3.98837   4.01466   4.04176
 Alpha virt. eigenvalues --    4.04238   4.05065   4.07113   4.08408   4.09613
 Alpha virt. eigenvalues --    4.10035   4.11853   4.14157   4.15270   4.17354
 Alpha virt. eigenvalues --    4.18185   4.20141   4.22030   4.23921   4.26962
 Alpha virt. eigenvalues --    4.28199   4.28771   4.38187   4.38720   4.41115
 Alpha virt. eigenvalues --    4.47589   4.55213   4.57244   4.58102   4.59468
 Alpha virt. eigenvalues --    4.65074   4.67029   4.80315   4.85590   4.95601
 Alpha virt. eigenvalues --    4.97804   5.07999   5.09756   5.11128   5.18518
 Alpha virt. eigenvalues --    5.22100   5.27233   5.33618   5.39806   5.42824
 Alpha virt. eigenvalues --    5.43665   5.48204   5.57084   6.82321   6.82357
 Alpha virt. eigenvalues --    6.87042   6.87078   6.87237   6.87298   6.87485
 Alpha virt. eigenvalues --    6.87514   6.87535   6.87629   6.88109   6.88217
 Alpha virt. eigenvalues --    6.88269   6.88628   6.88816   6.88868   6.89589
 Alpha virt. eigenvalues --    6.90224   6.97106   6.97812   6.99745   6.99872
 Alpha virt. eigenvalues --    7.00276   7.00645   7.05048   7.05245   7.06160
 Alpha virt. eigenvalues --    7.06473   7.12456   7.12989   7.33553   7.33763
 Alpha virt. eigenvalues --    7.34320   7.35082   7.37684   7.38154   7.48749
 Alpha virt. eigenvalues --    7.49552   7.55327   7.56090   7.56361   7.56535
 Alpha virt. eigenvalues --    7.85032   8.28432   8.28783   8.30420   8.31037
 Alpha virt. eigenvalues --    8.32187   8.32590   8.45208   8.45242   8.45415
 Alpha virt. eigenvalues --    8.45572   8.52591   8.55635   8.67301   8.67730
 Alpha virt. eigenvalues --    8.74308   8.74761   8.75078   8.75221   8.84535
 Alpha virt. eigenvalues --    8.84904   8.90782   8.91391   8.97737   8.97895
 Alpha virt. eigenvalues --    8.98864   8.98985   9.04696   9.06115   9.09495
 Alpha virt. eigenvalues --    9.10632  22.05663  22.74319  22.80448  22.87223
 Alpha virt. eigenvalues --   22.89138  22.89995  23.08656  23.28995  57.35172
 Alpha virt. eigenvalues --   57.36247  57.37167  57.38387  57.41959  57.50919
          Condensed to atoms (all electrons):
               1          2          3          4          5          6
     1  F    8.995108   0.329233  -0.047925  -0.043223  -0.073219   0.004236
     2  C    0.329233   4.129123   0.345441   0.329045   0.443760  -0.041121
     3  F   -0.047925   0.345441   9.000490  -0.048083  -0.079294   0.002888
     4  F   -0.043223   0.329045  -0.048083   8.996175  -0.075084   0.008772
     5  C   -0.073219   0.443760  -0.079294  -0.075084   5.185008   0.311610
     6  C    0.004236  -0.041121   0.002888   0.008772   0.311610   5.296795
     7  C   -0.000017   0.001838  -0.000552   0.002124   0.021042   0.368517
     8  Br   0.000004  -0.000347   0.000008   0.000004   0.019979  -0.100591
     9  C   -0.000158   0.000127   0.000090  -0.000097  -0.090882   0.028492
    10  C    0.001744   0.002962  -0.001063  -0.000314   0.001532  -0.090937
    11  C   -0.000066  -0.000264  -0.000017  -0.000001   0.002967   0.000125
    12  F    0.000001  -0.000066   0.000000  -0.000000   0.001745  -0.000158
    13  F    0.000000  -0.000017  -0.000000  -0.000000  -0.001060   0.000090
    14  F   -0.000000  -0.000001  -0.000000  -0.000000  -0.000312  -0.000098
    15  C    0.006883  -0.040877   0.004208   0.004721   0.364853  -0.017938
    16  H    0.000158  -0.004805  -0.000026   0.006391  -0.029800   0.402100
    17  H   -0.000001   0.000073  -0.000000  -0.000000  -0.001830   0.011184
    18  H    0.007018  -0.005093   0.000251   0.000209  -0.021159   0.006793
               7          8          9         10         11         12
     1  F   -0.000017   0.000004  -0.000158   0.001744  -0.000066   0.000001
     2  C    0.001838  -0.000347   0.000127   0.002962  -0.000264  -0.000066
     3  F   -0.000552   0.000008   0.000090  -0.001063  -0.000017   0.000000
     4  F    0.002124   0.000004  -0.000097  -0.000314  -0.000001  -0.000000
     5  C    0.021042   0.019979  -0.090882   0.001532   0.002967   0.001745
     6  C    0.368517  -0.100591   0.028492  -0.090937   0.000125  -0.000158
     7  C    4.891050   0.383791   0.368521   0.021085   0.001837  -0.000019
     8  Br   0.383791  34.860952  -0.100582   0.019978  -0.000348   0.000004
     9  C    0.368521  -0.100582   5.296861   0.311627  -0.041119   0.004238
    10  C    0.021085   0.019978   0.311627   5.185025   0.443755  -0.073219
    11  C    0.001837  -0.000348  -0.041119   0.443755   4.129130   0.329216
    12  F   -0.000019   0.000004   0.004238  -0.073219   0.329216   8.995078
    13  F   -0.000554   0.000008   0.002894  -0.079293   0.345443  -0.047918
    14  F    0.002122   0.000004   0.008744  -0.075071   0.329060  -0.043223
    15  C   -0.057739  -0.000551  -0.017978   0.364839  -0.040879   0.006903
    16  H   -0.034330  -0.006039   0.011180  -0.001825   0.000073  -0.000001
    17  H   -0.034332  -0.006041   0.402098  -0.029839  -0.004775   0.000158
    18  H   -0.000739   0.000027   0.006788  -0.021116  -0.005122   0.007023
              13         14         15         16         17         18
     1  F    0.000000  -0.000000   0.006883   0.000158  -0.000001   0.007018
     2  C   -0.000017  -0.000001  -0.040877  -0.004805   0.000073  -0.005093
     3  F   -0.000000  -0.000000   0.004208  -0.000026  -0.000000   0.000251
     4  F   -0.000000  -0.000000   0.004721   0.006391  -0.000000   0.000209
     5  C   -0.001060  -0.000312   0.364853  -0.029800  -0.001830  -0.021159
     6  C    0.000090  -0.000098  -0.017938   0.402100   0.011184   0.006793
     7  C   -0.000554   0.002122  -0.057739  -0.034330  -0.034332  -0.000739
     8  Br   0.000008   0.000004  -0.000551  -0.006039  -0.006041   0.000027
     9  C    0.002894   0.008744  -0.017978   0.011180   0.402098   0.006788
    10  C   -0.079293  -0.075071   0.364839  -0.001825  -0.029839  -0.021116
    11  C    0.345443   0.329060  -0.040879   0.000073  -0.004775  -0.005122
    12  F   -0.047918  -0.043223   0.006903  -0.000001   0.000158   0.007023
    13  F    9.000489  -0.048090   0.004199  -0.000000  -0.000023   0.000247
    14  F   -0.048090   8.996197   0.004717  -0.000000   0.006386   0.000208
    15  C    0.004199   0.004717   5.234466   0.007971   0.007987   0.388405
    16  H   -0.000000  -0.000000   0.007971   0.442913   0.000038  -0.000086
    17  H   -0.000023   0.006386   0.007987   0.000038   0.442923  -0.000086
    18  H    0.000247   0.000208   0.388405  -0.000086  -0.000086   0.427507
 Mulliken charges:
               1
     1  F   -0.179774
     2  C    0.510989
     3  F   -0.176413
     4  F   -0.180638
     5  C    0.020144
     6  C   -0.190761
     7  C    0.066355
     8  Br  -0.070258
     9  C   -0.190843
    10  C    0.020131
    11  C    0.510984
    12  F   -0.179764
    13  F   -0.176413
    14  F   -0.180643
    15  C   -0.224190
    16  H    0.206088
    17  H    0.206080
    18  H    0.208925
 Sum of Mulliken charges =  -0.00000
 Mulliken charges with hydrogens summed into heavy atoms:
               1
     1  F   -0.179774
     2  C    0.510989
     3  F   -0.176413
     4  F   -0.180638
     5  C    0.020144
     6  C    0.015327
     7  C    0.066355
     8  Br  -0.070258
     9  C    0.015237
    10  C    0.020131
    11  C    0.510984
    12  F   -0.179764
    13  F   -0.176413
    14  F   -0.180643
    15  C   -0.015264
 Electronic spatial extent (au):  <R**2>=           4761.2835
 Charge=              0.0000 electrons
 Dipole moment (field-independent basis, Debye):
    X=              1.3017    Y=             -0.0006    Z=              0.0000  Tot=              1.3017
 Quadrupole moment (field-independent basis, Debye-Ang):
   XX=            -96.2100   YY=           -102.4331   ZZ=            -97.4013
   XY=             -0.0028   XZ=              0.0002   YZ=              0.4523
 Traceless Quadrupole moment (field-independent basis, Debye-Ang):
   XX=              2.4715   YY=             -3.7517   ZZ=              1.2802
   XY=             -0.0028   XZ=              0.0002   YZ=              0.4523
 Octapole moment (field-independent basis, Debye-Ang**2):
  XXX=             42.8375  YYY=             -0.0360  ZZZ=             -0.0002  XYY=             37.1888
  XXY=              0.0146  XXZ=             -0.0005  XZZ=             12.7344  YZZ=             -0.0066
  YYZ=              0.0008  XYZ=             -1.0530
 Hexadecapole moment (field-independent basis, Debye-Ang**3):
 XXXX=          -2212.2836 YYYY=          -2430.8479 ZZZZ=           -230.6734 XXXY=             -0.0818
 XXXZ=             -0.0018 YYYX=             -0.0290 YYYZ=             -3.0115 ZZZX=              0.0020
 ZZZY=              5.3120 XXYY=           -796.4001 XXZZ=           -428.4058 YYZZ=           -444.1404
 XXYZ=             -0.8990 YYXZ=              0.0002 ZZXY=             -0.0212
 N-N= 1.368219895036D+03 E-N=-1.102788257980D+04  KE= 3.472819778032D+03
 Calculating spin-rotation constants.
 Leave Link  601 at Tue Sep 17 10:58:45 2024, MaxMem=  1342177280 cpu:               4.1 elap:               4.2
 (Enter /groups/ReismanLab/Software/Gaussian16_RevC/Linux_Binary_AVX2-enabled-CPU/g16/l9999.exe)
 Unable to Open any file for archive entry.
 1\1\GINC-HPC-34-25\SP\RM062X\def2TZVP\C8H3Br1F6\MANTIND\17-Sep-2024\0\
 \#p M062X/def2tzvp geom=check guess=read scf(xqc,tight) integral(grid=
 ultrafine) scrf(SMD, solvent=1,4-Dioxane) nmr=giao\\spe\\0,1\F,0,-2.77
 38338743,2.3924125401,0.6015806164\C,0,-1.5702939832,2.5023944425,0.00
 20336938\F,0,-1.7921362831,2.9095966632,-1.2668671493\F,0,-0.887652341
 3,3.4870432086,0.6227653441\C,0,-0.8152622846,1.1989966688,0.032554323
 3\C,0,0.5797130408,1.2154099475,0.0313497117\C,0,1.2665361993,0.005301
 1289,-0.0043726193\Br,0,3.1698681593,0.0126948166,-0.0087382936\C,0,0.
 5889697987,-1.2100800487,-0.0369731785\C,0,-0.8061028857,-1.2044883293
 ,-0.0317762047\C,0,-1.5507047997,-2.5137877974,0.0021824401\F,0,-2.758
 6647108,-2.4128230419,-0.5899960978\F,0,-1.7616166562,-2.9237833371,1.
 2720471967\F,0,-0.8640719461,-3.4925194265,-0.6235044747\C,0,-1.515672
 6914,-0.0054890569,0.0020122978\H,0,1.1192636143,2.1533251825,0.062164
 8659\H,0,1.1356305434,-2.1437867769,-0.0703002102\H,0,-2.5981595382,-0
 .0096903418,0.0045109124\\Version=ES64L-G16RevC.02\State=1-A\HF=-3480.
 0055533\RMSD=1.373e-09\Dipole=0.5121249,0.0020717,-0.0011831\Quadrupol
 e=1.8374092,-2.7885954,0.9511862,0.0194099,-0.003391,0.3396274\PG=C01 
 [X(C8H3Br1F6)]\\@
 The archive entry for this job was punched.


 WHERE THERE IS MUCH DESIRE TO LEARN, THERE OF NECESSITY WILL BE
 MUCH ARGUING, MUCH WRITING, MANY OPINIONS; FOR OPINION IN GOOD MEN
 IS BUT KNOWLEDGE IN THE MAKING. -- JOHN MILTON.
 Job cpu time:       0 days  0 hours 17 minutes 54.7 seconds.
 Elapsed time:       0 days  0 hours 17 minutes 58.1 seconds.
 File lengths (MBytes):  RWF=    304 Int=      0 D2E=      0 Chk=     32 Scr=     16
 Normal termination of Gaussian 16 at Tue Sep 17 10:58:45 2024.
