 Entering Gaussian System, Link 0=g16
 Input=smiles_00017_conf_9.gjf
 Output=smiles_00017_conf_9.log
 Initial command:
 /groups/ReismanLab/Software/Gaussian16_RevC/Linux_Binary_AVX2-enabled-CPU/g16/l1.exe "/central/groups/ReismanLab/DM/dft_final/smiles_00017/Gau-948743.inp" -scrdir="/central/groups/ReismanLab/DM/dft_final/smiles_00017/"
 Entering Link 1 = /groups/ReismanLab/Software/Gaussian16_RevC/Linux_Binary_AVX2-enabled-CPU/g16/l1.exe PID=    948753.
  
 Copyright (c) 1988-2021, Gaussian, Inc.  All Rights Reserved.
  
 This is part of the Gaussian(R) 16 program.  It is based on
 the Gaussian(R) 09 system (copyright 2009, Gaussian, Inc.),
 the Gaussian(R) 03 system (copyright 2003, Gaussian, Inc.),
 the Gaussian(R) 98 system (copyright 1998, Gaussian, Inc.),
 the Gaussian(R) 94 system (copyright 1995, Gaussian, Inc.),
 the Gaussian 92(TM) system (copyright 1992, Gaussian, Inc.),
 the Gaussian 90(TM) system (copyright 1990, Gaussian, Inc.),
 the Gaussian 88(TM) system (copyright 1988, Gaussian, Inc.),
 the Gaussian 86(TM) system (copyright 1986, Carnegie Mellon
 University), and the Gaussian 82(TM) system (copyright 1983,
 Carnegie Mellon University). Gaussian is a federally registered
 trademark of Gaussian, Inc.
  
 This software contains proprietary and confidential information,
 including trade secrets, belonging to Gaussian, Inc.
  
 This software is provided under written license and may be
 used, copied, transmitted, or stored only in accord with that
 written license.
  
 The following legend is applicable only to US Government
 contracts under FAR:
  
                    RESTRICTED RIGHTS LEGEND
  
 Use, reproduction and disclosure by the US Government is
 subject to restrictions as set forth in subparagraphs (a)
 and (c) of the Commercial Computer Software - Restricted
 Rights clause in FAR 52.227-19.
  
 Gaussian, Inc.
 340 Quinnipiac St., Bldg. 40, Wallingford CT 06492
  
  
 ---------------------------------------------------------------
 Warning -- This program may not be used in any manner that
 competes with the business of Gaussian, Inc. or will provide
 assistance to any competitor of Gaussian, Inc.  The licensee
 of this program is prohibited from giving any competitor of
 Gaussian, Inc. access to this program.  By using this program,
 the user acknowledges that Gaussian, Inc. is engaged in the
 business of creating and licensing software in the field of
 computational chemistry and represents and warrants to the
 licensee that it is not a competitor of Gaussian, Inc. and that
 it will not use this program in any manner prohibited above.
 ---------------------------------------------------------------
  

 Cite this work as:
 Gaussian 16, Revision C.02,
 M. J. Frisch, G. W. Trucks, H. B. Schlegel, G. E. Scuseria, 
 M. A. Robb, J. R. Cheeseman, G. Scalmani, V. Barone, 
 G. A. Petersson, H. Nakatsuji, X. Li, M. Caricato, A. V. Marenich, 
 J. Bloino, B. G. Janesko, R. Gomperts, B. Mennucci, H. P. Hratchian, 
 J. V. Ortiz, A. F. Izmaylov, J. L. Sonnenberg, D. Williams-Young, 
 F. Ding, F. Lipparini, F. Egidi, J. Goings, B. Peng, A. Petrone, 
 T. Henderson, D. Ranasinghe, V. G. Zakrzewski, J. Gao, N. Rega, 
 G. Zheng, W. Liang, M. Hada, M. Ehara, K. Toyota, R. Fukuda, 
 J. Hasegawa, M. Ishida, T. Nakajima, Y. Honda, O. Kitao, H. Nakai, 
 T. Vreven, K. Throssell, J. A. Montgomery, Jr., J. E. Peralta, 
 F. Ogliaro, M. J. Bearpark, J. J. Heyd, E. N. Brothers, K. N. Kudin, 
 V. N. Staroverov, T. A. Keith, R. Kobayashi, J. Normand, 
 K. Raghavachari, A. P. Rendell, J. C. Burant, S. S. Iyengar, 
 J. Tomasi, M. Cossi, J. M. Millam, M. Klene, C. Adamo, R. Cammi, 
 J. W. Ochterski, R. L. Martin, K. Morokuma, O. Farkas, 
 J. B. Foresman, and D. J. Fox, Gaussian, Inc., Wallingford CT, 2019.
 
 ******************************************
 Gaussian 16:  ES64L-G16RevC.02  7-Dec-2021
                17-Sep-2024 
 ******************************************
 %nprocshared=8
 Will use up to    8 processors via shared memory.
 %Mem=10GB
 %Chk=smiles_00017_conf_9.chk
 ----------------------------------------------------------------------
 #p B3LYP/6-31G(d,p) EmpiricalDispersion=GD3BJ opt freq scf(xqc,tight) 
 integral(grid=ultrafine)
 ----------------------------------------------------------------------
 1/18=20,19=15,26=4,38=1/1,3;
 2/9=110,12=2,17=6,18=5,40=1/2;
 3/5=1,6=6,7=101,11=2,25=1,30=1,71=1,74=-5,75=-5,124=41/1,2,3;
 4//1;
 5/5=2,8=3,13=1,32=2,38=5/2,8;
 6/7=2,8=2,9=2,10=2,28=1/1;
 7//1,2,3,16;
 1/18=20,19=15,26=4/3(2);
 2/9=110/2;
 99//99;
 2/9=110/2;
 3/5=1,6=6,7=101,11=2,25=1,30=1,71=1,74=-5,75=-5,124=41/1,2,3;
 4/5=5,16=3,69=1/1;
 5/5=2,8=3,13=1,32=2,38=5/2,8;
 7//1,2,3,16;
 1/18=20,19=15,26=4/3(-5);
 2/9=110/2;
 6/7=2,8=2,9=2,10=2,19=2,28=1/1;
 99/9=1/99;
 Leave Link    1 at Tue Sep 17 09:52:46 2024, MaxMem=  1342177280 cpu:               0.0 elap:               0.7
 (Enter /groups/ReismanLab/Software/Gaussian16_RevC/Linux_Binary_AVX2-enabled-CPU/g16/l101.exe)
 ----------------------------------
 opt-freq conformers_unique/conf_aj
 ----------------------------------
 Symbolic Z-matrix:
 Charge =  0 Multiplicity = 1
 C                     2.21015   0.32285  -1.59936 
 C                     2.11436   0.79566  -0.15178 
 C                     3.48826   1.11881   0.42304 
 O                     1.58063  -0.22698   0.70092 
 C                     0.49719  -0.95482   0.31477 
 C                     0.65702  -2.34235   0.29323 
 C                    -0.38633  -3.18886  -0.02157 
 C                    -1.6287   -2.66577  -0.33895 
 C                    -1.81876  -1.29761  -0.3085 
 C                    -0.77276  -0.45221   0.02556 
 Br                   -1.17164   1.41427   0.12635 
 H                     2.80042  -0.58973  -1.65718 
 H                     2.68627   1.09117  -2.20186 
 H                     1.22252   0.12401  -2.01189 
 H                     1.49076   1.6971   -0.10211 
 H                     4.13774   0.25032   0.34882 
 H                     3.39231   1.39129   1.47026 
 H                     3.93211   1.94717  -0.12127 
 H                     1.63298  -2.73082   0.54038 
 H                    -0.22705  -4.25626  -0.02832 
 H                    -2.45029  -3.31492  -0.59846 
 H                    -2.78671  -0.87489  -0.53189 
 
 ITRead=  0  0  0  0  0  0  0  0  0  0  0  0  0  0  0  0  0  0  0  0
 ITRead=  0  0
 MicOpt= -1 -1 -1 -1 -1 -1 -1 -1 -1 -1 -1 -1 -1 -1 -1 -1 -1 -1 -1 -1
 MicOpt= -1 -1
 NAtoms=     22 NQM=       22 NQMF=       0 NMMI=      0 NMMIF=      0
                NMic=       0 NMicF=      0.
                    Isotopes and Nuclear Properties:
 (Nuclear quadrupole moments (NQMom) in fm**2, nuclear magnetic moments (NMagM)
  in nuclear magnetons)

  Atom         1           2           3           4           5           6           7           8           9          10
 IAtWgt=          12          12          12          16          12          12          12          12          12          12
 AtmWgt=  12.0000000  12.0000000  12.0000000  15.9949146  12.0000000  12.0000000  12.0000000  12.0000000  12.0000000  12.0000000
 NucSpn=           0           0           0           0           0           0           0           0           0           0
 AtZEff=  -0.0000000  -0.0000000  -0.0000000  -0.0000000  -0.0000000  -0.0000000  -0.0000000  -0.0000000  -0.0000000  -0.0000000
 NQMom=    0.0000000   0.0000000   0.0000000   0.0000000   0.0000000   0.0000000   0.0000000   0.0000000   0.0000000   0.0000000
 NMagM=    0.0000000   0.0000000   0.0000000   0.0000000   0.0000000   0.0000000   0.0000000   0.0000000   0.0000000   0.0000000
 AtZNuc=   6.0000000   6.0000000   6.0000000   8.0000000   6.0000000   6.0000000   6.0000000   6.0000000   6.0000000   6.0000000

  Atom        11          12          13          14          15          16          17          18          19          20
 IAtWgt=          79           1           1           1           1           1           1           1           1           1
 AtmWgt=  78.9183361   1.0078250   1.0078250   1.0078250   1.0078250   1.0078250   1.0078250   1.0078250   1.0078250   1.0078250
 NucSpn=           3           1           1           1           1           1           1           1           1           1
 AtZEff=  -0.0000000  -0.0000000  -0.0000000  -0.0000000  -0.0000000  -0.0000000  -0.0000000  -0.0000000  -0.0000000  -0.0000000
 NQMom=   31.3000000   0.0000000   0.0000000   0.0000000   0.0000000   0.0000000   0.0000000   0.0000000   0.0000000   0.0000000
 NMagM=    2.1063990   2.7928460   2.7928460   2.7928460   2.7928460   2.7928460   2.7928460   2.7928460   2.7928460   2.7928460
 AtZNuc=  35.0000000   1.0000000   1.0000000   1.0000000   1.0000000   1.0000000   1.0000000   1.0000000   1.0000000   1.0000000

  Atom        21          22
 IAtWgt=           1           1
 AtmWgt=   1.0078250   1.0078250
 NucSpn=           1           1
 AtZEff=  -0.0000000  -0.0000000
 NQMom=    0.0000000   0.0000000
 NMagM=    2.7928460   2.7928460
 AtZNuc=   1.0000000   1.0000000
 Leave Link  101 at Tue Sep 17 09:52:46 2024, MaxMem=  1342177280 cpu:               0.2 elap:               0.3
 (Enter /groups/ReismanLab/Software/Gaussian16_RevC/Linux_Binary_AVX2-enabled-CPU/g16/l103.exe)

 GradGradGradGradGradGradGradGradGradGradGradGradGradGradGradGradGradGrad
 Berny optimization.
 Initialization pass.
                           ----------------------------
                           !    Initial Parameters    !
                           ! (Angstroms and Degrees)  !
 --------------------------                            --------------------------
 ! Name  Definition              Value          Derivative Info.                !
 --------------------------------------------------------------------------------
 ! R1    R(1,2)                  1.5259         estimate D2E/DX2                !
 ! R2    R(1,12)                 1.0884         estimate D2E/DX2                !
 ! R3    R(1,13)                 1.0863         estimate D2E/DX2                !
 ! R4    R(1,14)                 1.0886         estimate D2E/DX2                !
 ! R5    R(2,3)                  1.524          estimate D2E/DX2                !
 ! R6    R(2,4)                  1.4345         estimate D2E/DX2                !
 ! R7    R(2,15)                 1.0972         estimate D2E/DX2                !
 ! R8    R(3,16)                 1.087          estimate D2E/DX2                !
 ! R9    R(3,17)                 1.0863         estimate D2E/DX2                !
 ! R10   R(3,18)                 1.086          estimate D2E/DX2                !
 ! R11   R(4,5)                  1.3611         estimate D2E/DX2                !
 ! R12   R(5,6)                  1.3969         estimate D2E/DX2                !
 ! R13   R(5,10)                 1.3961         estimate D2E/DX2                !
 ! R14   R(6,7)                  1.3799         estimate D2E/DX2                !
 ! R15   R(6,19)                 1.0791         estimate D2E/DX2                !
 ! R16   R(7,8)                  1.3849         estimate D2E/DX2                !
 ! R17   R(7,20)                 1.0792         estimate D2E/DX2                !
 ! R18   R(8,9)                  1.3816         estimate D2E/DX2                !
 ! R19   R(8,21)                 1.0788         estimate D2E/DX2                !
 ! R20   R(9,10)                 1.3858         estimate D2E/DX2                !
 ! R21   R(9,22)                 1.0796         estimate D2E/DX2                !
 ! R22   R(10,11)                1.9113         estimate D2E/DX2                !
 ! A1    A(2,1,12)             110.1365         estimate D2E/DX2                !
 ! A2    A(2,1,13)             109.5444         estimate D2E/DX2                !
 ! A3    A(2,1,14)             111.0478         estimate D2E/DX2                !
 ! A4    A(12,1,13)            109.019          estimate D2E/DX2                !
 ! A5    A(12,1,14)            108.587          estimate D2E/DX2                !
 ! A6    A(13,1,14)            108.4602         estimate D2E/DX2                !
 ! A7    A(1,2,3)              111.5277         estimate D2E/DX2                !
 ! A8    A(1,2,4)              111.4931         estimate D2E/DX2                !
 ! A9    A(1,2,15)             109.4629         estimate D2E/DX2                !
 ! A10   A(3,2,4)              105.2119         estimate D2E/DX2                !
 ! A11   A(3,2,15)             108.729          estimate D2E/DX2                !
 ! A12   A(4,2,15)             110.3231         estimate D2E/DX2                !
 ! A13   A(2,3,16)             110.0893         estimate D2E/DX2                !
 ! A14   A(2,3,17)             109.7048         estimate D2E/DX2                !
 ! A15   A(2,3,18)             109.9469         estimate D2E/DX2                !
 ! A16   A(16,3,17)            108.602          estimate D2E/DX2                !
 ! A17   A(16,3,18)            109.3289         estimate D2E/DX2                !
 ! A18   A(17,3,18)            109.1428         estimate D2E/DX2                !
 ! A19   A(2,4,5)              120.5792         estimate D2E/DX2                !
 ! A20   A(4,5,6)              116.3884         estimate D2E/DX2                !
 ! A21   A(4,5,10)             126.1801         estimate D2E/DX2                !
 ! A22   A(6,5,10)             117.29           estimate D2E/DX2                !
 ! A23   A(5,6,7)              121.7587         estimate D2E/DX2                !
 ! A24   A(5,6,19)             117.2277         estimate D2E/DX2                !
 ! A25   A(7,6,19)             121.0124         estimate D2E/DX2                !
 ! A26   A(6,7,8)              119.9245         estimate D2E/DX2                !
 ! A27   A(6,7,20)             119.7715         estimate D2E/DX2                !
 ! A28   A(8,7,20)             120.3014         estimate D2E/DX2                !
 ! A29   A(7,8,9)              119.4983         estimate D2E/DX2                !
 ! A30   A(7,8,21)             120.7351         estimate D2E/DX2                !
 ! A31   A(9,8,21)             119.7631         estimate D2E/DX2                !
 ! A32   A(8,9,10)             120.3699         estimate D2E/DX2                !
 ! A33   A(8,9,22)             120.4322         estimate D2E/DX2                !
 ! A34   A(10,9,22)            119.1931         estimate D2E/DX2                !
 ! A35   A(5,10,9)             121.1259         estimate D2E/DX2                !
 ! A36   A(5,10,11)            122.0389         estimate D2E/DX2                !
 ! A37   A(9,10,11)            116.8038         estimate D2E/DX2                !
 ! D1    D(12,1,2,3)            61.4484         estimate D2E/DX2                !
 ! D2    D(12,1,2,4)           -55.8405         estimate D2E/DX2                !
 ! D3    D(12,1,2,15)         -178.1876         estimate D2E/DX2                !
 ! D4    D(13,1,2,3)           -58.4514         estimate D2E/DX2                !
 ! D5    D(13,1,2,4)          -175.7403         estimate D2E/DX2                !
 ! D6    D(13,1,2,15)           61.9126         estimate D2E/DX2                !
 ! D7    D(14,1,2,3)          -178.229          estimate D2E/DX2                !
 ! D8    D(14,1,2,4)            64.4821         estimate D2E/DX2                !
 ! D9    D(14,1,2,15)          -57.8649         estimate D2E/DX2                !
 ! D10   D(1,2,3,16)           -56.9935         estimate D2E/DX2                !
 ! D11   D(1,2,3,17)          -176.4506         estimate D2E/DX2                !
 ! D12   D(1,2,3,18)            63.5144         estimate D2E/DX2                !
 ! D13   D(4,2,3,16)            64.0326         estimate D2E/DX2                !
 ! D14   D(4,2,3,17)           -55.4245         estimate D2E/DX2                !
 ! D15   D(4,2,3,18)          -175.4595         estimate D2E/DX2                !
 ! D16   D(15,2,3,16)         -177.7876         estimate D2E/DX2                !
 ! D17   D(15,2,3,17)           62.7553         estimate D2E/DX2                !
 ! D18   D(15,2,3,18)          -57.2796         estimate D2E/DX2                !
 ! D19   D(1,2,4,5)            -44.5097         estimate D2E/DX2                !
 ! D20   D(3,2,4,5)           -165.5585         estimate D2E/DX2                !
 ! D21   D(15,2,4,5)            77.3412         estimate D2E/DX2                !
 ! D22   D(2,4,5,6)            123.9129         estimate D2E/DX2                !
 ! D23   D(2,4,5,10)           -60.5505         estimate D2E/DX2                !
 ! D24   D(4,5,6,7)            176.9939         estimate D2E/DX2                !
 ! D25   D(4,5,6,19)            -2.6048         estimate D2E/DX2                !
 ! D26   D(10,5,6,7)             1.0471         estimate D2E/DX2                !
 ! D27   D(10,5,6,19)         -178.5516         estimate D2E/DX2                !
 ! D28   D(4,5,10,9)          -177.4114         estimate D2E/DX2                !
 ! D29   D(4,5,10,11)            0.4851         estimate D2E/DX2                !
 ! D30   D(6,5,10,9)            -1.9106         estimate D2E/DX2                !
 ! D31   D(6,5,10,11)          175.9859         estimate D2E/DX2                !
 ! D32   D(5,6,7,8)              0.5962         estimate D2E/DX2                !
 ! D33   D(5,6,7,20)          -179.9871         estimate D2E/DX2                !
 ! D34   D(19,6,7,8)          -179.8202         estimate D2E/DX2                !
 ! D35   D(19,6,7,20)           -0.4035         estimate D2E/DX2                !
 ! D36   D(6,7,8,9)             -1.4086         estimate D2E/DX2                !
 ! D37   D(6,7,8,21)           179.2686         estimate D2E/DX2                !
 ! D38   D(20,7,8,9)           179.1778         estimate D2E/DX2                !
 ! D39   D(20,7,8,21)           -0.145          estimate D2E/DX2                !
 ! D40   D(7,8,9,10)             0.5531         estimate D2E/DX2                !
 ! D41   D(7,8,9,22)          -178.6419         estimate D2E/DX2                !
 ! D42   D(21,8,9,10)          179.8825         estimate D2E/DX2                !
 ! D43   D(21,8,9,22)            0.6876         estimate D2E/DX2                !
 ! D44   D(8,9,10,5)             1.1456         estimate D2E/DX2                !
 ! D45   D(8,9,10,11)         -176.8567         estimate D2E/DX2                !
 ! D46   D(22,9,10,5)         -179.6495         estimate D2E/DX2                !
 ! D47   D(22,9,10,11)           2.3482         estimate D2E/DX2                !
 --------------------------------------------------------------------------------
 Trust Radius=3.00D-01 FncErr=1.00D-07 GrdErr=1.00D-06 EigMax=2.50D+02 EigMin=1.00D-04
 Number of steps in this run=    116 maximum allowed number of steps=    132.
 GradGradGradGradGradGradGradGradGradGradGradGradGradGradGradGradGradGrad

 Leave Link  103 at Tue Sep 17 09:52:46 2024, MaxMem=  1342177280 cpu:               0.0 elap:               0.0
 (Enter /groups/ReismanLab/Software/Gaussian16_RevC/Linux_Binary_AVX2-enabled-CPU/g16/l202.exe)
                          Input orientation:                          
 ---------------------------------------------------------------------
 Center     Atomic      Atomic             Coordinates (Angstroms)
 Number     Number       Type             X           Y           Z
 ---------------------------------------------------------------------
      1          6           0        2.210149    0.322852   -1.599365
      2          6           0        2.114360    0.795663   -0.151778
      3          6           0        3.488255    1.118811    0.423039
      4          8           0        1.580632   -0.226980    0.700917
      5          6           0        0.497193   -0.954819    0.314767
      6          6           0        0.657018   -2.342353    0.293228
      7          6           0       -0.386330   -3.188858   -0.021570
      8          6           0       -1.628696   -2.665767   -0.338948
      9          6           0       -1.818757   -1.297611   -0.308502
     10          6           0       -0.772758   -0.452208    0.025559
     11         35           0       -1.171637    1.414266    0.126348
     12          1           0        2.800421   -0.589730   -1.657178
     13          1           0        2.686265    1.091170   -2.201856
     14          1           0        1.222516    0.124013   -2.011894
     15          1           0        1.490759    1.697103   -0.102107
     16          1           0        4.137736    0.250325    0.348815
     17          1           0        3.392313    1.391291    1.470257
     18          1           0        3.932112    1.947172   -0.121267
     19          1           0        1.632979   -2.730821    0.540383
     20          1           0       -0.227047   -4.256264   -0.028315
     21          1           0       -2.450288   -3.314921   -0.598456
     22          1           0       -2.786708   -0.874886   -0.531887
 ---------------------------------------------------------------------
                    Distance matrix (angstroms):
                    1          2          3          4          5
     1  C    0.000000
     2  C    1.525854   0.000000
     3  C    2.521353   1.523952   0.000000
     4  O    2.447427   1.434487   2.351042   0.000000
     5  C    2.868896   2.428391   3.641170   1.361140   0.000000
     6  C    3.619038   3.488412   4.473523   2.343944   1.396874
     7  C    4.643624   4.706040   5.810861   3.628174   2.425833
     8  C    5.025657   5.101666   6.409902   4.162786   2.806081
     9  C    4.530377   4.458225   5.876958   3.704190   2.422725
    10  C    3.484083   3.150251   4.558764   2.458715   1.396078
    11  Br   3.950411   3.355264   4.678666   3.255580   2.903973
    12  H    1.088379   2.157828   2.778405   2.679568   3.053967
    13  H    1.086276   2.148771   2.744817   3.374320   3.912991
    14  H    1.088640   2.169454   3.471613   2.758765   2.665206
    15  H    2.155892   1.097242   2.144806   2.086869   2.862455
    16  H    2.741579   2.154539   1.087015   2.624991   3.834981
    17  H    3.458562   2.149171   1.086331   2.548112   3.901424
    18  H    2.790760   2.152005   1.086029   3.306415   4.517781
    19  H    3.773137   3.625866   4.274984   2.509528   2.120163
    20  H    5.420001   5.569505   6.549704   4.476003   3.397317
    21  H    5.996240   6.158932   7.481159   5.241380   3.884804
    22  H    5.248111   5.191886   6.652960   4.584020   3.392229
                    6          7          8          9         10
     6  C    0.000000
     7  C    1.379944   0.000000
     8  C    2.393477   1.384856   0.000000
     9  C    2.753730   2.389768   1.381629   0.000000
    10  C    2.385069   2.764200   2.401112   1.385792   0.000000
    11  Br   4.181389   4.671973   4.131836   2.821726   1.911279
    12  H    3.386731   4.425614   5.066037   4.863829   3.951977
    13  H    4.704505   5.702028   6.016967   5.439329   4.394114
    14  H    3.422913   4.186274   4.325625   3.764559   2.909358
    15  H    4.143503   5.234746   5.368587   4.468088   3.123995
    16  H    4.340560   5.694939   6.498334   6.189344   4.971015
    17  H    4.775702   6.122210   6.703989   6.127759   4.778437
    18  H    5.412769   6.711012   7.228359   6.605768   5.283406
    19  H    1.079116   2.145506   3.378754   3.832646   3.353310
    20  H    2.132608   1.079246   2.142614   3.371301   3.843377
    21  H    3.375847   2.146768   1.078777   2.133646   3.376186
    22  H    3.833213   3.372937   2.141371   1.079595   2.131994
                   11         12         13         14         15
    11  Br   0.000000
    12  H    4.793142   0.000000
    13  H    4.517558   1.770630   0.000000
    14  H    3.459595   1.767777   1.764665   0.000000
    15  H    2.687106   3.059913   2.491051   2.488745   0.000000
    16  H    5.440008   2.553059   3.052820   3.753320   3.050080
    17  H    4.757758   3.749084   3.751398   4.294111   2.486315
    18  H    5.137466   3.174211   2.571715   3.773631   2.454202
    19  H    5.021856   3.282752   4.820467   3.851321   4.476553
    20  H    5.750745   5.026154   6.465811   5.022215   6.196683
    21  H    4.952323   6.009784   6.954762   5.226238   6.395202
    22  H    2.877836   5.706452   6.050422   4.388860   5.009646
                   16         17         18         19         20
    16  H    0.000000
    17  H    1.764962   0.000000
    18  H    1.772723   1.770123   0.000000
    19  H    3.898427   4.577305   5.254275   0.000000
    20  H    6.285133   6.873162   7.469260   2.471859   0.000000
    21  H    7.550521   7.782288   8.285672   4.279159   2.480724
    22  H    7.070336   6.879276   7.298983   4.912015   4.270734
                   21         22
    21  H    0.000000
    22  H    2.464018   0.000000
 Stoichiometry    C9H11BrO
 Framework group  C1[X(C9H11BrO)]
 Deg. of freedom    60
 Full point group                 C1      NOp   1
 Largest Abelian subgroup         C1      NOp   1
 Largest concise Abelian subgroup C1      NOp   1
                         Standard orientation:                         
 ---------------------------------------------------------------------
 Center     Atomic      Atomic             Coordinates (Angstroms)
 Number     Number       Type             X           Y           Z
 ---------------------------------------------------------------------
      1          6           0       -1.976912   -0.841761    1.537492
      2          6           0       -2.150703   -0.335517    0.108595
      3          6           0       -3.480713   -0.783381   -0.485475
      4          8           0       -1.148091   -0.873258   -0.765108
      5          6           0        0.156523   -0.915051   -0.379185
      6          6           0        0.772200   -2.168627   -0.406537
      7          6           0        2.107304   -2.329019   -0.096672
      8          6           0        2.869378   -1.230693    0.264923
      9          6           0        2.289621    0.023276    0.283408
     10          6           0        0.952899    0.182069   -0.045800
     11         35           0        0.279462    1.970508   -0.076715
     12          1           0       -1.980157   -1.930033    1.552429
     13          1           0       -2.793346   -0.476831    2.154141
     14          1           0       -1.038914   -0.491659    1.964956
     15          1           0       -2.113403    0.761072    0.102165
     16          1           0       -3.557622   -1.867215   -0.454004
     17          1           0       -3.546414   -0.461235   -1.520860
     18          1           0       -4.302419   -0.348259    0.075708
     19          1           0        0.161399   -3.012643   -0.687696
     20          1           0        2.550378   -3.312611   -0.128331
     21          1           0        3.911281   -1.342799    0.521108
     22          1           0        2.875183    0.892701    0.541759
 ---------------------------------------------------------------------
 Rotational constants (GHZ):           0.8791553           0.7647576           0.4540518
 Leave Link  202 at Tue Sep 17 09:52:46 2024, MaxMem=  1342177280 cpu:               0.0 elap:               0.0
 (Enter /groups/ReismanLab/Software/Gaussian16_RevC/Linux_Binary_AVX2-enabled-CPU/g16/l301.exe)
 Standard basis: 6-31G(d,p) (6D, 7F)
 Ernie: Thresh=  0.10000D-02 Tol=  0.10000D-05 Strict=F.
 There are   235 symmetry adapted cartesian basis functions of A   symmetry.
 There are   235 symmetry adapted basis functions of A   symmetry.
   235 basis functions,   440 primitive gaussians,   235 cartesian basis functions
    54 alpha electrons       54 beta electrons
       nuclear repulsion energy       891.0613727107 Hartrees.
 IExCor=  402 DFT=T Ex+Corr=B3LYP ExCW=0 ScaHFX=  0.200000
 ScaDFX=  0.800000  0.720000  1.000000  0.810000 ScalE2=  1.000000  1.000000
 IRadAn=      5 IRanWt=     -1 IRanGd=            0 ICorTp=0 IEmpDi=141
 NAtoms=   22 NActive=   22 NUniq=   22 SFac= 1.00D+00 NAtFMM=   60 NAOKFM=F Big=F
 Integral buffers will be    131072 words long.
 Raffenetti 2 integral format.
 Two-electron integral symmetry is turned on.
 R6Disp:  Grimme-D3(BJ) Dispersion energy=       -0.0438010779 Hartrees.
 Nuclear repulsion after empirical dispersion term =      891.0175716328 Hartrees.
 Leave Link  301 at Tue Sep 17 09:52:46 2024, MaxMem=  1342177280 cpu:               0.1 elap:               0.0
 (Enter /groups/ReismanLab/Software/Gaussian16_RevC/Linux_Binary_AVX2-enabled-CPU/g16/l302.exe)
 NPDir=0 NMtPBC=     1 NCelOv=     1 NCel=       1 NClECP=     1 NCelD=      1
         NCelK=      1 NCelE2=     1 NClLst=     1 CellRange=     0.0.
 One-electron integrals computed using PRISM.
 One-electron integral symmetry used in STVInt
 NBasis=   235 RedAO= T EigKep=  4.00D-04  NBF=   235
 NBsUse=   235 1.00D-06 EigRej= -1.00D+00 NBFU=   235
 Precomputing XC quadrature grid using
 IXCGrd= 4 IRadAn=           5 IRanWt=          -1 IRanGd=           0 AccXCQ= 0.00D+00.
 Generated NRdTot=       0 NPtTot=           0 NUsed=           0 NTot=          32
 NSgBfM=   234   234   234   234   234 MxSgAt=    22 MxSgA2=    22.
 Leave Link  302 at Tue Sep 17 09:52:46 2024, MaxMem=  1342177280 cpu:               0.9 elap:               0.2
 (Enter /groups/ReismanLab/Software/Gaussian16_RevC/Linux_Binary_AVX2-enabled-CPU/g16/l303.exe)
 DipDrv:  MaxL=1.
 Leave Link  303 at Tue Sep 17 09:52:46 2024, MaxMem=  1342177280 cpu:               0.1 elap:               0.0
 (Enter /groups/ReismanLab/Software/Gaussian16_RevC/Linux_Binary_AVX2-enabled-CPU/g16/l401.exe)
 ExpMin= 1.43D-01 ExpMax= 5.74D+05 ExpMxC= 5.74D+03 IAcc=3 IRadAn=         5 AccDes= 0.00D+00
 Harris functional with IExCor=  402 and IRadAn=       5 diagonalized for initial guess.
 HarFok:  IExCor=  402 AccDes= 0.00D+00 IRadAn=         5 IDoV= 1 UseB2=F ITyADJ=14
 ICtDFT=  3500011 ScaDFX=  1.000000  1.000000  1.000000  1.000000
 FoFCou: FMM=F IPFlag=           0 FMFlag=      100000 FMFlg1=           0
         NFxFlg=           0 DoJE=T BraDBF=F KetDBF=T FulRan=T
         wScrn=  0.000000 ICntrl=       500 IOpCl=  0 I1Cent=   200000004 NGrid=           0
         NMat0=    1 NMatS0=      1 NMatT0=    0 NMatD0=    1 NMtDS0=    0 NMtDT0=    0
 Petite list used in FoFCou.
 Harris En= -2996.71735392679    
 JPrj=0 DoOrth=F DoCkMO=F.
 Leave Link  401 at Tue Sep 17 09:52:47 2024, MaxMem=  1342177280 cpu:               5.6 elap:               0.7
 (Enter /groups/ReismanLab/Software/Gaussian16_RevC/Linux_Binary_AVX2-enabled-CPU/g16/l502.exe)
 Integral symmetry usage will be decided dynamically.
 Closed shell SCF:
 Using DIIS extrapolation, IDIIS=  1040.
 NGot=  1342177280 LenX=  1342061866 LenY=  1342006200
 Requested convergence on RMS density matrix=1.00D-08 within  32 cycles.
 Requested convergence on MAX density matrix=1.00D-06.
 Requested convergence on             energy=1.00D-06.
 No special actions if energy rises.
 Fock matrices will be formed incrementally for  20 cycles.
 Integral accuracy reduced to 1.0D-05 until final iterations.

 Cycle   1  Pass 0  IDiag  1:
 FoFJK:  IHMeth= 1 ICntrl=       0 DoSepK=F KAlg= 0 I1Cent=           0 FoldK=F
 IRaf= 880000000 NMat=       1 IRICut=       1 DoRegI=T DoRafI=F ISym2E= 0 IDoP0=0 IntGTp=1.
 FoFCou: FMM=F IPFlag=           0 FMFlag=      100000 FMFlg1=           0
         NFxFlg=           0 DoJE=F BraDBF=F KetDBF=F FulRan=T
         wScrn=  0.000000 ICntrl=         0 IOpCl=  0 I1Cent=           0 NGrid=           0
         NMat0=    1 NMatS0=      1 NMatT0=    0 NMatD0=    1 NMtDS0=    0 NMtDT0=    0
 Symmetry not used in FoFCou.
 E= -2996.27168660757    
 DIIS: error= 1.71D-01 at cycle   1 NSaved=   1.
 NSaved= 1 IEnMin= 1 EnMin= -2996.27168660757     IErMin= 1 ErrMin= 1.71D-01
 ErrMax= 1.71D-01  0.00D+00 EMaxC= 1.00D-01 BMatC= 6.32D-01 BMatP= 6.32D-01
 IDIUse=3 WtCom= 0.00D+00 WtEn= 1.00D+00
 Coeff-Com:  0.100D+01
 Coeff-En:   0.100D+01
 Coeff:      0.100D+01
 Gap=     0.276 Goal=   None    Shift=    0.000
 GapD=    0.276 DampG=1.000 DampE=0.250 DampFc=0.2500 IDamp=-1.
 Damping current iteration by 2.50D-01
 RMSDP=5.14D-03 MaxDP=1.41D-01              OVMax= 1.66D-01

 Cycle   2  Pass 0  IDiag  1:
 RMSU=  1.25D-03    CP:  9.92D-01
 E= -2996.37805464643     Delta-E=       -0.106368038859 Rises=F Damp=T
 DIIS: error= 1.26D-01 at cycle   2 NSaved=   2.
 NSaved= 2 IEnMin= 2 EnMin= -2996.37805464643     IErMin= 2 ErrMin= 1.26D-01
 ErrMax= 1.26D-01  0.00D+00 EMaxC= 1.00D-01 BMatC= 2.64D-01 BMatP= 6.32D-01
 IDIUse=3 WtCom= 0.00D+00 WtEn= 1.00D+00
 Coeff-Com: -0.137D+01 0.237D+01
 Coeff-En:   0.000D+00 0.100D+01
 Coeff:      0.000D+00 0.100D+01
 Gap=     0.216 Goal=   None    Shift=    0.000
 RMSDP=2.68D-03 MaxDP=1.11D-01 DE=-1.06D-01 OVMax= 7.09D-02

 Cycle   3  Pass 0  IDiag  1:
 RMSU=  8.50D-04    CP:  9.69D-01  2.90D+00
 E= -2996.49681825428     Delta-E=       -0.118763607851 Rises=F Damp=F
 DIIS: error= 1.18D-02 at cycle   3 NSaved=   3.
 NSaved= 3 IEnMin= 3 EnMin= -2996.49681825428     IErMin= 3 ErrMin= 1.18D-02
 ErrMax= 1.18D-02  0.00D+00 EMaxC= 1.00D-01 BMatC= 6.61D-02 BMatP= 2.64D-01
 IDIUse=3 WtCom= 8.82D-01 WtEn= 1.18D-01
 EnCoef did   100 forward-backward iterations
 Coeff-Com:  0.193D+01-0.251D+01 0.157D+01
 Coeff-En:   0.138D+00 0.182D-02 0.860D+00
 Coeff:      0.172D+01-0.221D+01 0.149D+01
 Gap=     0.239 Goal=   None    Shift=    0.000
 RMSDP=1.35D-03 MaxDP=3.86D-02 DE=-1.19D-01 OVMax= 4.77D-02

 Cycle   4  Pass 0  IDiag  1:
 RMSU=  6.04D-04    CP:  9.70D-01  1.95D+00  1.29D+00
 E= -2996.55745371060     Delta-E=       -0.060635456323 Rises=F Damp=F
 DIIS: error= 5.81D-03 at cycle   4 NSaved=   4.
 NSaved= 4 IEnMin= 4 EnMin= -2996.55745371060     IErMin= 4 ErrMin= 5.81D-03
 ErrMax= 5.81D-03  0.00D+00 EMaxC= 1.00D-01 BMatC= 6.85D-03 BMatP= 6.61D-02
 IDIUse=3 WtCom= 9.42D-01 WtEn= 5.81D-02
 Coeff-Com:  0.109D+01-0.143D+01 0.896D+00 0.447D+00
 Coeff-En:   0.000D+00 0.000D+00 0.000D+00 0.100D+01
 Coeff:      0.103D+01-0.135D+01 0.844D+00 0.479D+00
 Gap=     0.222 Goal=   None    Shift=    0.000
 RMSDP=5.19D-04 MaxDP=1.58D-02 DE=-6.06D-02 OVMax= 4.00D-02

 Cycle   5  Pass 0  IDiag  1:
 RMSU=  1.75D-04    CP:  9.70D-01  2.06D+00  1.41D+00  2.38D-01
 E= -2996.56408841127     Delta-E=       -0.006634700674 Rises=F Damp=F
 DIIS: error= 2.24D-03 at cycle   5 NSaved=   5.
 NSaved= 5 IEnMin= 5 EnMin= -2996.56408841127     IErMin= 5 ErrMin= 2.24D-03
 ErrMax= 2.24D-03  0.00D+00 EMaxC= 1.00D-01 BMatC= 7.53D-04 BMatP= 6.85D-03
 IDIUse=3 WtCom= 9.78D-01 WtEn= 2.24D-02
 Coeff-Com:  0.196D+00-0.257D+00 0.180D+00 0.268D+00 0.613D+00
 Coeff-En:   0.000D+00 0.000D+00 0.000D+00 0.987D-01 0.901D+00
 Coeff:      0.191D+00-0.251D+00 0.176D+00 0.265D+00 0.620D+00
 Gap=     0.221 Goal=   None    Shift=    0.000
 RMSDP=1.55D-04 MaxDP=4.74D-03 DE=-6.63D-03 OVMax= 1.02D-02

 Cycle   6  Pass 0  IDiag  1:
 RMSU=  6.11D-05    CP:  9.70D-01  2.05D+00  1.40D+00  4.25D-01  5.07D-01
 E= -2996.56487559112     Delta-E=       -0.000787179845 Rises=F Damp=F
 DIIS: error= 2.82D-04 at cycle   6 NSaved=   6.
 NSaved= 6 IEnMin= 6 EnMin= -2996.56487559112     IErMin= 6 ErrMin= 2.82D-04
 ErrMax= 2.82D-04  0.00D+00 EMaxC= 1.00D-01 BMatC= 4.98D-05 BMatP= 7.53D-04
 IDIUse=3 WtCom= 9.97D-01 WtEn= 2.82D-03
 Coeff-Com:  0.454D-01-0.598D-01 0.485D-01 0.120D+00 0.344D+00 0.502D+00
 Coeff-En:   0.000D+00 0.000D+00 0.000D+00 0.000D+00 0.000D+00 0.100D+01
 Coeff:      0.453D-01-0.596D-01 0.483D-01 0.120D+00 0.343D+00 0.503D+00
 Gap=     0.222 Goal=   None    Shift=    0.000
 RMSDP=3.72D-05 MaxDP=1.61D-03 DE=-7.87D-04 OVMax= 1.88D-03

 Cycle   7  Pass 0  IDiag  1:
 RMSU=  1.81D-05    CP:  9.70D-01  2.05D+00  1.39D+00  4.18D-01  5.82D-01
                    CP:  5.60D-01
 E= -2996.56492579419     Delta-E=       -0.000050203072 Rises=F Damp=F
 DIIS: error= 6.10D-05 at cycle   7 NSaved=   7.
 NSaved= 7 IEnMin= 7 EnMin= -2996.56492579419     IErMin= 7 ErrMin= 6.10D-05
 ErrMax= 6.10D-05  0.00D+00 EMaxC= 1.00D-01 BMatC= 2.76D-06 BMatP= 4.98D-05
 IDIUse=1 WtCom= 1.00D+00 WtEn= 0.00D+00
 Coeff-Com:  0.146D-01-0.191D-01 0.168D-01 0.487D-01 0.147D+00 0.271D+00
 Coeff-Com:  0.521D+00
 Coeff:      0.146D-01-0.191D-01 0.168D-01 0.487D-01 0.147D+00 0.271D+00
 Coeff:      0.521D+00
 Gap=     0.222 Goal=   None    Shift=    0.000
 RMSDP=1.05D-05 MaxDP=4.31D-04 DE=-5.02D-05 OVMax= 8.09D-04

 Cycle   8  Pass 0  IDiag  1:
 RMSU=  6.14D-06    CP:  9.70D-01  2.06D+00  1.39D+00  4.17D-01  5.92D-01
                    CP:  5.89D-01  5.67D-01
 E= -2996.56492839348     Delta-E=       -0.000002599286 Rises=F Damp=F
 DIIS: error= 3.11D-05 at cycle   8 NSaved=   8.
 NSaved= 8 IEnMin= 8 EnMin= -2996.56492839348     IErMin= 8 ErrMin= 3.11D-05
 ErrMax= 3.11D-05  0.00D+00 EMaxC= 1.00D-01 BMatC= 3.69D-07 BMatP= 2.76D-06
 IDIUse=1 WtCom= 1.00D+00 WtEn= 0.00D+00
 Coeff-Com:  0.270D-02-0.351D-02 0.367D-02 0.136D-01 0.444D-01 0.990D-01
 Coeff-Com:  0.303D+00 0.537D+00
 Coeff:      0.270D-02-0.351D-02 0.367D-02 0.136D-01 0.444D-01 0.990D-01
 Coeff:      0.303D+00 0.537D+00
 Gap=     0.222 Goal=   None    Shift=    0.000
 RMSDP=3.42D-06 MaxDP=9.79D-05 DE=-2.60D-06 OVMax= 2.97D-04

 Initial convergence to 1.0D-05 achieved.  Increase integral accuracy.
 Cycle   9  Pass 1  IDiag  1:
 E= -2996.56497902075     Delta-E=       -0.000050627270 Rises=F Damp=F
 DIIS: error= 5.49D-05 at cycle   1 NSaved=   1.
 NSaved= 1 IEnMin= 1 EnMin= -2996.56497902075     IErMin= 1 ErrMin= 5.49D-05
 ErrMax= 5.49D-05  0.00D+00 EMaxC= 1.00D-01 BMatC= 2.63D-07 BMatP= 2.63D-07
 IDIUse=1 WtCom= 1.00D+00 WtEn= 0.00D+00
 Coeff-Com:  0.100D+01
 Coeff:      0.100D+01
 Gap=     0.222 Goal=   None    Shift=    0.000
 RMSDP=3.42D-06 MaxDP=9.79D-05 DE=-5.06D-05 OVMax= 1.75D-04

 Cycle  10  Pass 1  IDiag  1:
 RMSU=  2.33D-05    CP:  1.00D+00
 E= -2996.56497912898     Delta-E=       -0.000000108229 Rises=F Damp=F
 DIIS: error= 1.69D-05 at cycle   2 NSaved=   2.
 NSaved= 2 IEnMin= 2 EnMin= -2996.56497912898     IErMin= 2 ErrMin= 1.69D-05
 ErrMax= 1.69D-05  0.00D+00 EMaxC= 1.00D-01 BMatC= 7.82D-08 BMatP= 2.63D-07
 IDIUse=1 WtCom= 1.00D+00 WtEn= 0.00D+00
 Coeff-Com:  0.283D+00 0.717D+00
 Coeff:      0.283D+00 0.717D+00
 Gap=     0.222 Goal=   None    Shift=    0.000
 RMSDP=2.64D-06 MaxDP=9.26D-05 DE=-1.08D-07 OVMax= 2.22D-04

 Cycle  11  Pass 1  IDiag  1:
 RMSU=  2.63D-06    CP:  1.00D+00  1.01D+00
 E= -2996.56497911376     Delta-E=        0.000000015220 Rises=F Damp=F
 DIIS: error= 1.89D-05 at cycle   3 NSaved=   3.
 NSaved= 3 IEnMin= 2 EnMin= -2996.56497912898     IErMin= 2 ErrMin= 1.69D-05
 ErrMax= 1.89D-05  0.00D+00 EMaxC= 1.00D-01 BMatC= 8.97D-08 BMatP= 7.82D-08
 IDIUse=1 WtCom= 1.00D+00 WtEn= 0.00D+00
 Coeff-Com:  0.649D-02 0.516D+00 0.478D+00
 Coeff:      0.649D-02 0.516D+00 0.478D+00
 Gap=     0.222 Goal=   None    Shift=    0.000
 RMSDP=1.47D-06 MaxDP=4.94D-05 DE= 1.52D-08 OVMax= 1.25D-04

 Cycle  12  Pass 1  IDiag  1:
 RMSU=  3.94D-07    CP:  1.00D+00  1.02D+00  4.63D-01
 E= -2996.56497921067     Delta-E=       -0.000000096919 Rises=F Damp=F
 DIIS: error= 1.36D-06 at cycle   4 NSaved=   4.
 NSaved= 4 IEnMin= 4 EnMin= -2996.56497921067     IErMin= 4 ErrMin= 1.36D-06
 ErrMax= 1.36D-06  0.00D+00 EMaxC= 1.00D-01 BMatC= 1.60D-09 BMatP= 7.82D-08
 IDIUse=1 WtCom= 1.00D+00 WtEn= 0.00D+00
 Coeff-Com: -0.283D-02 0.275D+00 0.272D+00 0.456D+00
 Coeff:     -0.283D-02 0.275D+00 0.272D+00 0.456D+00
 Gap=     0.222 Goal=   None    Shift=    0.000
 RMSDP=2.03D-07 MaxDP=8.86D-06 DE=-9.69D-08 OVMax= 1.55D-05

 Cycle  13  Pass 1  IDiag  1:
 RMSU=  8.32D-08    CP:  1.00D+00  1.02D+00  4.88D-01  5.59D-01
 E= -2996.56497921234     Delta-E=       -0.000000001669 Rises=F Damp=F
 DIIS: error= 2.92D-07 at cycle   5 NSaved=   5.
 NSaved= 5 IEnMin= 5 EnMin= -2996.56497921234     IErMin= 5 ErrMin= 2.92D-07
 ErrMax= 2.92D-07  0.00D+00 EMaxC= 1.00D-01 BMatC= 3.72D-11 BMatP= 1.60D-09
 IDIUse=1 WtCom= 1.00D+00 WtEn= 0.00D+00
 Coeff-Com: -0.170D-02 0.124D+00 0.124D+00 0.236D+00 0.518D+00
 Coeff:     -0.170D-02 0.124D+00 0.124D+00 0.236D+00 0.518D+00
 Gap=     0.222 Goal=   None    Shift=    0.000
 RMSDP=3.24D-08 MaxDP=1.36D-06 DE=-1.67D-09 OVMax= 1.49D-06

 Cycle  14  Pass 1  IDiag  1:
 RMSU=  2.80D-08    CP:  1.00D+00  1.02D+00  4.88D-01  5.54D-01  8.07D-01
 E= -2996.56497921236     Delta-E=       -0.000000000020 Rises=F Damp=F
 DIIS: error= 1.34D-07 at cycle   6 NSaved=   6.
 NSaved= 6 IEnMin= 6 EnMin= -2996.56497921236     IErMin= 6 ErrMin= 1.34D-07
 ErrMax= 1.34D-07  0.00D+00 EMaxC= 1.00D-01 BMatC= 2.68D-12 BMatP= 3.72D-11
 IDIUse=1 WtCom= 1.00D+00 WtEn= 0.00D+00
 Coeff-Com: -0.624D-03 0.411D-01 0.414D-01 0.841D-01 0.259D+00 0.575D+00
 Coeff:     -0.624D-03 0.411D-01 0.414D-01 0.841D-01 0.259D+00 0.575D+00
 Gap=     0.222 Goal=   None    Shift=    0.000
 RMSDP=1.08D-08 MaxDP=3.65D-07 DE=-2.05D-11 OVMax= 8.08D-07

 Cycle  15  Pass 1  IDiag  1:
 RMSU=  9.27D-09    CP:  1.00D+00  1.02D+00  4.88D-01  5.56D-01  8.36D-01
                    CP:  8.32D-01
 E= -2996.56497921239     Delta-E=       -0.000000000025 Rises=F Damp=F
 DIIS: error= 6.00D-08 at cycle   7 NSaved=   7.
 NSaved= 7 IEnMin= 7 EnMin= -2996.56497921239     IErMin= 7 ErrMin= 6.00D-08
 ErrMax= 6.00D-08  0.00D+00 EMaxC= 1.00D-01 BMatC= 7.01D-13 BMatP= 2.68D-12
 IDIUse=1 WtCom= 1.00D+00 WtEn= 0.00D+00
 Coeff-Com: -0.423D-04 0.403D-03 0.437D-03 0.458D-02 0.529D-01 0.363D+00
 Coeff-Com:  0.579D+00
 Coeff:     -0.423D-04 0.403D-03 0.437D-03 0.458D-02 0.529D-01 0.363D+00
 Coeff:      0.579D+00
 Gap=     0.222 Goal=   None    Shift=    0.000
 RMSDP=4.97D-09 MaxDP=1.94D-07 DE=-2.55D-11 OVMax= 4.04D-07

 SCF Done:  E(RB3LYP) =  -2996.56497921     A.U. after   15 cycles
            NFock= 15  Conv=0.50D-08     -V/T= 2.0066
 KE= 2.976983525164D+03 PE=-8.901944414251D+03 EE= 2.037378338242D+03
 Leave Link  502 at Tue Sep 17 09:53:01 2024, MaxMem=  1342177280 cpu:             100.2 elap:              13.7
 (Enter /groups/ReismanLab/Software/Gaussian16_RevC/Linux_Binary_AVX2-enabled-CPU/g16/l508.exe)
 QCSCF skips out because SCF is already converged.
 Leave Link  508 at Tue Sep 17 09:53:01 2024, MaxMem=  1342177280 cpu:               0.0 elap:               0.0
 (Enter /groups/ReismanLab/Software/Gaussian16_RevC/Linux_Binary_AVX2-enabled-CPU/g16/l601.exe)
 Copying SCF densities to generalized density rwf, IOpCl= 0 IROHF=0.

 **********************************************************************

            Population analysis using the SCF Density.

 **********************************************************************

 Orbital symmetries:
       Occupied  (A) (A) (A) (A) (A) (A) (A) (A) (A) (A) (A) (A)
                 (A) (A) (A) (A) (A) (A) (A) (A) (A) (A) (A) (A)
                 (A) (A) (A) (A) (A) (A) (A) (A) (A) (A) (A) (A)
                 (A) (A) (A) (A) (A) (A) (A) (A) (A) (A) (A) (A)
                 (A) (A) (A) (A) (A) (A)
       Virtual   (A) (A) (A) (A) (A) (A) (A) (A) (A) (A) (A) (A)
                 (A) (A) (A) (A) (A) (A) (A) (A) (A) (A) (A) (A)
                 (A) (A) (A) (A) (A) (A) (A) (A) (A) (A) (A) (A)
                 (A) (A) (A) (A) (A) (A) (A) (A) (A) (A) (A) (A)
                 (A) (A) (A) (A) (A) (A) (A) (A) (A) (A) (A) (A)
                 (A) (A) (A) (A) (A) (A) (A) (A) (A) (A) (A) (A)
                 (A) (A) (A) (A) (A) (A) (A) (A) (A) (A) (A) (A)
                 (A) (A) (A) (A) (A) (A) (A) (A) (A) (A) (A) (A)
                 (A) (A) (A) (A) (A) (A) (A) (A) (A) (A) (A) (A)
                 (A) (A) (A) (A) (A) (A) (A) (A) (A) (A) (A) (A)
                 (A) (A) (A) (A) (A) (A) (A) (A) (A) (A) (A) (A)
                 (A) (A) (A) (A) (A) (A) (A) (A) (A) (A) (A) (A)
                 (A) (A) (A) (A) (A) (A) (A) (A) (A) (A) (A) (A)
                 (A) (A) (A) (A) (A) (A) (A) (A) (A) (A) (A) (A)
                 (A) (A) (A) (A) (A) (A) (A) (A) (A) (A) (A) (A)
                 (A)
 The electronic state is 1-A.
 Alpha  occ. eigenvalues -- -482.91249 -61.87371 -56.39461 -56.39059 -56.39038
 Alpha  occ. eigenvalues --  -19.16644 -10.25488 -10.24235 -10.24010 -10.19993
 Alpha  occ. eigenvalues --  -10.19474 -10.19280 -10.19145 -10.17569 -10.17364
 Alpha  occ. eigenvalues --   -8.58425  -6.53800  -6.52530  -6.52498  -2.65370
 Alpha  occ. eigenvalues --   -2.65009  -2.64985  -2.63972  -2.63971  -1.05823
 Alpha  occ. eigenvalues --   -0.87248  -0.80285  -0.79272  -0.74413  -0.72160
 Alpha  occ. eigenvalues --   -0.69254  -0.62446  -0.61661  -0.57381  -0.52646
 Alpha  occ. eigenvalues --   -0.49423  -0.48193  -0.46099  -0.44732  -0.44252
 Alpha  occ. eigenvalues --   -0.42033  -0.39696  -0.39308  -0.38509  -0.37370
 Alpha  occ. eigenvalues --   -0.36970  -0.36370  -0.35013  -0.32814  -0.31267
 Alpha  occ. eigenvalues --   -0.29535  -0.27563  -0.24778  -0.23203
 Alpha virt. eigenvalues --   -0.01036  -0.00274   0.00789   0.09897   0.10629
 Alpha virt. eigenvalues --    0.12687   0.13990   0.14631   0.15294   0.15821
 Alpha virt. eigenvalues --    0.16993   0.18034   0.18217   0.18830   0.19403
 Alpha virt. eigenvalues --    0.19577   0.23154   0.24709   0.26228   0.27564
 Alpha virt. eigenvalues --    0.29999   0.30705   0.33719   0.34903   0.43056
 Alpha virt. eigenvalues --    0.43659   0.44955   0.46119   0.47200   0.48307
 Alpha virt. eigenvalues --    0.48943   0.49158   0.51746   0.52542   0.55051
 Alpha virt. eigenvalues --    0.56091   0.56660   0.57152   0.57986   0.60185
 Alpha virt. eigenvalues --    0.60266   0.60613   0.61360   0.62604   0.62981
 Alpha virt. eigenvalues --    0.65588   0.66852   0.69254   0.70252   0.72487
 Alpha virt. eigenvalues --    0.73384   0.76494   0.79109   0.80740   0.82004
 Alpha virt. eigenvalues --    0.82109   0.83520   0.84282   0.86839   0.87346
 Alpha virt. eigenvalues --    0.88375   0.89548   0.89762   0.92243   0.93817
 Alpha virt. eigenvalues --    0.94831   0.95707   0.97839   1.00389   1.01660
 Alpha virt. eigenvalues --    1.04944   1.06159   1.08774   1.10423   1.14575
 Alpha virt. eigenvalues --    1.18438   1.22572   1.23292   1.26710   1.29897
 Alpha virt. eigenvalues --    1.33413   1.34268   1.38961   1.40291   1.41119
 Alpha virt. eigenvalues --    1.41893   1.44917   1.49310   1.54760   1.55935
 Alpha virt. eigenvalues --    1.56539   1.59079   1.63534   1.70774   1.72509
 Alpha virt. eigenvalues --    1.76794   1.80131   1.81348   1.83802   1.85119
 Alpha virt. eigenvalues --    1.86886   1.88604   1.90200   1.91366   1.95365
 Alpha virt. eigenvalues --    1.96455   1.98694   1.99384   2.00199   2.02709
 Alpha virt. eigenvalues --    2.04223   2.04346   2.04939   2.08510   2.09119
 Alpha virt. eigenvalues --    2.09826   2.11262   2.13394   2.15339   2.18060
 Alpha virt. eigenvalues --    2.23900   2.26822   2.29630   2.31778   2.33143
 Alpha virt. eigenvalues --    2.35720   2.37657   2.38102   2.39482   2.40344
 Alpha virt. eigenvalues --    2.43085   2.46951   2.49071   2.50275   2.51427
 Alpha virt. eigenvalues --    2.54137   2.55403   2.56928   2.58450   2.64935
 Alpha virt. eigenvalues --    2.66144   2.69288   2.71231   2.73030   2.74700
 Alpha virt. eigenvalues --    2.76431   2.77555   2.82047   2.85830   2.89552
 Alpha virt. eigenvalues --    2.91059   2.92076   2.97823   3.01848   3.09467
 Alpha virt. eigenvalues --    3.09649   3.20102   3.21627   3.24834   3.25331
 Alpha virt. eigenvalues --    3.33016   3.33908   3.35550   3.43494   3.47599
 Alpha virt. eigenvalues --    3.48012   3.49782   3.53825   3.85632   4.12371
 Alpha virt. eigenvalues --    4.14369   4.15222   4.28373   4.37288   4.41578
 Alpha virt. eigenvalues --    4.52673   4.54259   4.68306   4.83122   8.64646
 Alpha virt. eigenvalues --   73.55073
          Condensed to atoms (all electrons):
               1          2          3          4          5          6
     1  C    5.014529   0.362188  -0.050873  -0.049191   0.001746   0.001798
     2  C    0.362188   4.699624   0.384950   0.222832  -0.024928  -0.000419
     3  C   -0.050873   0.384950   4.965900  -0.052909   0.002316  -0.000167
     4  O   -0.049191   0.222832  -0.052909   8.317832   0.262052  -0.061209
     5  C    0.001746  -0.024928   0.002316   0.262052   4.641039   0.515932
     6  C    0.001798  -0.000419  -0.000167  -0.061209   0.515932   4.956952
     7  C   -0.000036  -0.000143   0.000004   0.005090  -0.016322   0.503836
     8  C    0.000024   0.000020  -0.000000  -0.000021  -0.042462  -0.031494
     9  C   -0.000316   0.000121   0.000007   0.004010  -0.010027  -0.047897
    10  C   -0.003553  -0.008268   0.000077  -0.067966   0.417780  -0.064387
    11  Br   0.000574  -0.012152   0.000376   0.000048  -0.056377   0.006080
    12  H    0.374824  -0.030143  -0.008862   0.000389  -0.000324   0.000496
    13  H    0.369841  -0.025681  -0.003055   0.003316   0.000078  -0.000013
    14  H    0.381635  -0.028353   0.005263  -0.003743   0.005560  -0.000314
    15  H   -0.065152   0.382118  -0.048080  -0.041707  -0.006084  -0.000199
    16  H   -0.010055  -0.030254   0.376308   0.001840  -0.000196  -0.000002
    17  H    0.005925  -0.027070   0.377782   0.001257   0.000289  -0.000004
    18  H   -0.002368  -0.028047   0.369279   0.003461  -0.000078   0.000002
    19  H   -0.000133  -0.000195  -0.000127  -0.000069  -0.036081   0.357155
    20  H   -0.000001   0.000002  -0.000000  -0.000071   0.004141  -0.034925
    21  H    0.000000  -0.000000  -0.000000   0.000002   0.000819   0.004557
    22  H   -0.000004  -0.000003  -0.000000  -0.000046   0.004176   0.000411
               7          8          9         10         11         12
     1  C   -0.000036   0.000024  -0.000316  -0.003553   0.000574   0.374824
     2  C   -0.000143   0.000020   0.000121  -0.008268  -0.012152  -0.030143
     3  C    0.000004  -0.000000   0.000007   0.000077   0.000376  -0.008862
     4  O    0.005090  -0.000021   0.004010  -0.067966   0.000048   0.000389
     5  C   -0.016322  -0.042462  -0.010027   0.417780  -0.056377  -0.000324
     6  C    0.503836  -0.031494  -0.047897  -0.064387   0.006080   0.000496
     7  C    4.832974   0.538951  -0.031250  -0.037249  -0.000052   0.000076
     8  C    0.538951   4.823378   0.525227  -0.031621   0.005998   0.000003
     9  C   -0.031250   0.525227   4.893860   0.495309  -0.068224  -0.000022
    10  C   -0.037249  -0.031621   0.495309   5.044824   0.249854   0.000366
    11  Br  -0.000052   0.005998  -0.068224   0.249854  34.992801  -0.000047
    12  H    0.000076   0.000003  -0.000022   0.000366  -0.000047   0.597626
    13  H    0.000002  -0.000000   0.000003   0.000043  -0.000041  -0.027140
    14  H   -0.000059  -0.000049   0.000176   0.001443   0.001190  -0.032338
    15  H    0.000029  -0.000003  -0.000045   0.003965   0.006318   0.006261
    16  H    0.000003   0.000000  -0.000000   0.000017  -0.000029   0.006134
    17  H   -0.000001   0.000000  -0.000000  -0.000020   0.000097  -0.000055
    18  H   -0.000000   0.000000  -0.000000   0.000008   0.000000   0.000207
    19  H   -0.041402   0.005183   0.000303   0.007734  -0.000147   0.000571
    20  H    0.366952  -0.041889   0.004959   0.000671   0.000009  -0.000003
    21  H   -0.040349   0.369934  -0.038626   0.004727  -0.000171  -0.000000
    22  H    0.004980  -0.038426   0.369410  -0.039756  -0.003792   0.000000
              13         14         15         16         17         18
     1  C    0.369841   0.381635  -0.065152  -0.010055   0.005925  -0.002368
     2  C   -0.025681  -0.028353   0.382118  -0.030254  -0.027070  -0.028047
     3  C   -0.003055   0.005263  -0.048080   0.376308   0.377782   0.369279
     4  O    0.003316  -0.003743  -0.041707   0.001840   0.001257   0.003461
     5  C    0.000078   0.005560  -0.006084  -0.000196   0.000289  -0.000078
     6  C   -0.000013  -0.000314  -0.000199  -0.000002  -0.000004   0.000002
     7  C    0.000002  -0.000059   0.000029   0.000003  -0.000001  -0.000000
     8  C   -0.000000  -0.000049  -0.000003   0.000000   0.000000   0.000000
     9  C    0.000003   0.000176  -0.000045  -0.000000  -0.000000  -0.000000
    10  C    0.000043   0.001443   0.003965   0.000017  -0.000020   0.000008
    11  Br  -0.000041   0.001190   0.006318  -0.000029   0.000097   0.000000
    12  H   -0.027140  -0.032338   0.006261   0.006134  -0.000055   0.000207
    13  H    0.600489  -0.028387   0.000616   0.000182  -0.000056   0.001939
    14  H   -0.028387   0.585572  -0.005534  -0.000044  -0.000215  -0.000046
    15  H    0.000616  -0.005534   0.661398   0.006181  -0.005245  -0.000119
    16  H    0.000182  -0.000044   0.006181   0.599589  -0.031114  -0.028240
    17  H   -0.000056  -0.000215  -0.005245  -0.031114   0.587222  -0.027534
    18  H    0.001939  -0.000046  -0.000119  -0.028240  -0.027534   0.608147
    19  H   -0.000003  -0.000052   0.000050   0.000130   0.000004   0.000004
    20  H   -0.000000   0.000000  -0.000000  -0.000000   0.000000   0.000000
    21  H   -0.000000  -0.000000   0.000000  -0.000000   0.000000  -0.000000
    22  H    0.000000  -0.000002   0.000006   0.000000  -0.000000   0.000000
              19         20         21         22
     1  C   -0.000133  -0.000001   0.000000  -0.000004
     2  C   -0.000195   0.000002  -0.000000  -0.000003
     3  C   -0.000127  -0.000000  -0.000000  -0.000000
     4  O   -0.000069  -0.000071   0.000002  -0.000046
     5  C   -0.036081   0.004141   0.000819   0.004176
     6  C    0.357155  -0.034925   0.004557   0.000411
     7  C   -0.041402   0.366952  -0.040349   0.004980
     8  C    0.005183  -0.041889   0.369934  -0.038426
     9  C    0.000303   0.004959  -0.038626   0.369410
    10  C    0.007734   0.000671   0.004727  -0.039756
    11  Br  -0.000147   0.000009  -0.000171  -0.003792
    12  H    0.000571  -0.000003  -0.000000   0.000000
    13  H   -0.000003  -0.000000  -0.000000   0.000000
    14  H   -0.000052   0.000000  -0.000000  -0.000002
    15  H    0.000050  -0.000000   0.000000   0.000006
    16  H    0.000130  -0.000000  -0.000000   0.000000
    17  H    0.000004   0.000000   0.000000  -0.000000
    18  H    0.000004   0.000000  -0.000000   0.000000
    19  H    0.616975  -0.007066  -0.000196   0.000016
    20  H   -0.007066   0.622029  -0.005928  -0.000206
    21  H   -0.000196  -0.005928   0.620664  -0.006508
    22  H    0.000016  -0.000206  -0.006508   0.602228
 Mulliken charges:
               1
     1  C   -0.331401
     2  C    0.163801
     3  C   -0.318188
     4  O   -0.545197
     5  C    0.336951
     6  C   -0.106188
     7  C   -0.086036
     8  C   -0.082752
     9  C   -0.096977
    10  C    0.026000
    11  Br  -0.122314
    12  H    0.111980
    13  H    0.107868
    14  H    0.118295
    15  H    0.105224
    16  H    0.109549
    17  H    0.118737
    18  H    0.103385
    19  H    0.097346
    20  H    0.091327
    21  H    0.091075
    22  H    0.107514
 Sum of Mulliken charges =  -0.00000
 Mulliken charges with hydrogens summed into heavy atoms:
               1
     1  C    0.006741
     2  C    0.269025
     3  C    0.013483
     4  O   -0.545197
     5  C    0.336951
     6  C   -0.008842
     7  C    0.005291
     8  C    0.008323
     9  C    0.010537
    10  C    0.026000
    11  Br  -0.122314
 Electronic spatial extent (au):  <R**2>=           2451.3439
 Charge=             -0.0000 electrons
 Dipole moment (field-independent basis, Debye):
    X=              0.0506    Y=             -1.0494    Z=              1.1121  Tot=              1.5299
 Quadrupole moment (field-independent basis, Debye-Ang):
   XX=            -69.4287   YY=            -74.3004   ZZ=            -80.4672
   XY=             -2.1130   XZ=             -0.2411   YZ=              0.0282
 Traceless Quadrupole moment (field-independent basis, Debye-Ang):
   XX=              5.3034   YY=              0.4317   ZZ=             -5.7351
   XY=             -2.1130   XZ=             -0.2411   YZ=              0.0282
 Octapole moment (field-independent basis, Debye-Ang**2):
  XXX=              9.9728  YYY=             48.5575  ZZZ=             -4.7413  XYY=              5.1341
  XXY=             15.9084  XXZ=              6.3608  XZZ=             -3.4614  YZZ=             23.1369
  YYZ=             -3.6674  XYZ=              1.4523
 Hexadecapole moment (field-independent basis, Debye-Ang**3):
 XXXX=          -1648.5811 YYYY=          -1003.1544 ZZZZ=           -264.1958 XXXY=              0.1263
 XXXZ=             16.1558 YYYX=             -4.3014 YYYZ=              5.6342 ZZZX=              2.5278
 ZZZY=             -2.5127 XXYY=           -451.7321 XXZZ=           -341.0807 YYZZ=           -233.8750
 XXYZ=             -3.1142 YYXZ=              0.6106 ZZXY=             10.5002
 N-N= 8.910175716328D+02 E-N=-8.901944429740D+03  KE= 2.976983525164D+03
 No NMR shielding tensors so no spin-rotation constants.
 Leave Link  601 at Tue Sep 17 09:53:01 2024, MaxMem=  1342177280 cpu:               0.4 elap:               0.1
 (Enter /groups/ReismanLab/Software/Gaussian16_RevC/Linux_Binary_AVX2-enabled-CPU/g16/l701.exe)
 ... and contract with generalized density number  0.
 Compute integral first derivatives.
 R6Disp: Adding Grimme-D3(BJ) dispersion energy 1st derivatives to the gradient.
 Leave Link  701 at Tue Sep 17 09:53:01 2024, MaxMem=  1342177280 cpu:               0.5 elap:               0.1
 (Enter /groups/ReismanLab/Software/Gaussian16_RevC/Linux_Binary_AVX2-enabled-CPU/g16/l702.exe)
 L702 exits ... SP integral derivatives will be done elsewhere.
 Leave Link  702 at Tue Sep 17 09:53:01 2024, MaxMem=  1342177280 cpu:               0.1 elap:               0.0
 (Enter /groups/ReismanLab/Software/Gaussian16_RevC/Linux_Binary_AVX2-enabled-CPU/g16/l703.exe)
 Integral derivatives from FoFJK, PRISM(SPDF).
 Compute integral first derivatives, UseDBF=F ICtDFT=           0.
 Calling FoFJK, ICntrl=      2127 FMM=F ISym2X=0 I1Cent= 0 IOpClX= 0 NMat=1 NMatS=1 NMatT=0.
 FoFJK:  IHMeth= 1 ICntrl=    2127 DoSepK=F KAlg= 0 I1Cent=           0 FoldK=F
 IRaf=         0 NMat=       1 IRICut=       1 DoRegI=T DoRafI=F ISym2E= 0 IDoP0=0 IntGTp=1.
 FoFCou: FMM=F IPFlag=           0 FMFlag=      100000 FMFlg1=         800
         NFxFlg=           0 DoJE=F BraDBF=F KetDBF=F FulRan=T
         wScrn=  0.000000 ICntrl=      2127 IOpCl=  0 I1Cent=           0 NGrid=           0
         NMat0=    1 NMatS0=      1 NMatT0=    0 NMatD0=    1 NMtDS0=    0 NMtDT0=    0
 Symmetry not used in FoFCou.
 Leave Link  703 at Tue Sep 17 09:53:05 2024, MaxMem=  1342177280 cpu:              33.9 elap:               4.3
 (Enter /groups/ReismanLab/Software/Gaussian16_RevC/Linux_Binary_AVX2-enabled-CPU/g16/l716.exe)
 Dipole        = 1.99230216D-02-4.12878893D-01 4.37526029D-01
 ***** Axes restored to original set *****
 -------------------------------------------------------------------
 Center     Atomic                   Forces (Hartrees/Bohr)
 Number     Number              X              Y              Z
 -------------------------------------------------------------------
      1        6          -0.004135313    0.000939689    0.004959412
      2        6           0.008541771    0.007200487   -0.008276749
      3        6          -0.007489125   -0.002158873    0.000333207
      4        8          -0.003497395   -0.000781168    0.006030438
      5        6           0.001544630   -0.001480533    0.002307667
      6        6           0.006052156    0.001197990    0.001163615
      7        6           0.000916610   -0.005660290   -0.000225424
      8        6          -0.004549494   -0.003586494   -0.001387953
      9        6          -0.005993468    0.001984468   -0.001980109
     10        6          -0.000220188    0.008385766    0.000904687
     11       35           0.002119653    0.001256159    0.000165617
     12        1           0.002464121   -0.003267308   -0.000808918
     13        1           0.001923050    0.003008690   -0.003249252
     14        1          -0.002441919   -0.000362689   -0.001980387
     15        1          -0.001165114   -0.002957634    0.000724766
     16        1           0.003539344   -0.003319084   -0.000254023
     17        1           0.000840742    0.001701115    0.004441710
     18        1           0.002595153    0.003678859   -0.001983211
     19        1           0.004046468   -0.000729953    0.000659450
     20        1           0.000870307   -0.004269422   -0.000017309
     21        1          -0.003462683   -0.002601837   -0.000932192
     22        1          -0.002499308    0.001822061   -0.000595041
 -------------------------------------------------------------------
 Cartesian Forces:  Max     0.008541771 RMS     0.003444664
 Leave Link  716 at Tue Sep 17 09:53:05 2024, MaxMem=  1342177280 cpu:               0.1 elap:               0.0
 (Enter /groups/ReismanLab/Software/Gaussian16_RevC/Linux_Binary_AVX2-enabled-CPU/g16/l103.exe)

 GradGradGradGradGradGradGradGradGradGradGradGradGradGradGradGradGradGrad
 Berny optimization.
 FormGI is forming the generalized inverse of G from B-inverse, IUseBI=4.
 Internal  Forces:  Max     0.011223031 RMS     0.002866451
 Search for a local minimum.
 Step number   1 out of a maximum of  116
 All quantities printed in internal units (Hartrees-Bohrs-Radians)
 RMS Force = .28665D-02 SwitMx=.10000D-02 MixMth= 1
 Mixed Optimization -- RFO/linear search
 Second derivative matrix not updated -- first step.
 ITU=  0
     Eigenvalues ---    0.00424   0.00449   0.01236   0.02148   0.02184
     Eigenvalues ---    0.02206   0.02208   0.02246   0.02276   0.02300
     Eigenvalues ---    0.02312   0.02315   0.02328   0.04491   0.04999
     Eigenvalues ---    0.05636   0.05748   0.05764   0.05806   0.07275
     Eigenvalues ---    0.15998   0.15999   0.15999   0.16000   0.16000
     Eigenvalues ---    0.16000   0.16000   0.16000   0.16000   0.16000
     Eigenvalues ---    0.16318   0.17711   0.19606   0.21999   0.22483
     Eigenvalues ---    0.24466   0.24919   0.24986   0.25000   0.29810
     Eigenvalues ---    0.29989   0.33989   0.34970   0.35001   0.35160
     Eigenvalues ---    0.35240   0.35247   0.35276   0.36043   0.36086
     Eigenvalues ---    0.36101   0.36142   0.40351   0.42897   0.43294
     Eigenvalues ---    0.46782   0.47547   0.48384   0.48849   0.52718
 RFO step:  Lambda=-2.49565052D-03 EMin= 4.23942722D-03
 Linear search not attempted -- first point.
 Iteration  1 RMS(Cart)=  0.02134975 RMS(Int)=  0.00022271
 Iteration  2 RMS(Cart)=  0.00029975 RMS(Int)=  0.00006024
 Iteration  3 RMS(Cart)=  0.00000006 RMS(Int)=  0.00006024
 ITry= 1 IFail=0 DXMaxC= 1.11D-01 DCOld= 1.00D+10 DXMaxT= 3.00D-01 DXLimC= 3.00D+00 Rises=F
 Variable       Old X    -DE/DX   Delta X   Delta X   Delta X     New X
                                 (Linear)    (Quad)   (Total)
    R1        2.88345   0.00079   0.00000   0.00262   0.00262   2.88607
    R2        2.05674   0.00412   0.00000   0.01169   0.01169   2.06842
    R3        2.05276   0.00477   0.00000   0.01345   0.01345   2.06621
    R4        2.05723   0.00303   0.00000   0.00861   0.00861   2.06584
    R5        2.87985   0.00047   0.00000   0.00157   0.00157   2.88142
    R6        2.71079   0.00854   0.00000   0.02104   0.02104   2.73183
    R7        2.07349  -0.00174   0.00000  -0.00507  -0.00507   2.06842
    R8        2.05416   0.00478   0.00000   0.01351   0.01351   2.06767
    R9        2.05287   0.00463   0.00000   0.01306   0.01306   2.06593
   R10        2.05230   0.00486   0.00000   0.01368   0.01368   2.06598
   R11        2.57218   0.00289   0.00000   0.00545   0.00545   2.57763
   R12        2.63971   0.00540   0.00000   0.01111   0.01111   2.65082
   R13        2.63821   0.00547   0.00000   0.01110   0.01111   2.64931
   R14        2.60772   0.01039   0.00000   0.02115   0.02115   2.62886
   R15        2.03923   0.00407   0.00000   0.01121   0.01121   2.05044
   R16        2.61700   0.01122   0.00000   0.02379   0.02378   2.64078
   R17        2.03948   0.00435   0.00000   0.01197   0.01197   2.05145
   R18        2.61090   0.01061   0.00000   0.02215   0.02215   2.63305
   R19        2.03859   0.00443   0.00000   0.01216   0.01216   2.05076
   R20        2.61877   0.00947   0.00000   0.01948   0.01949   2.63825
   R21        2.04014   0.00308   0.00000   0.00848   0.00848   2.04862
   R22        3.61179   0.00079   0.00000   0.00442   0.00442   3.61621
    A1        1.92224   0.00052   0.00000   0.00380   0.00379   1.92603
    A2        1.91191   0.00063   0.00000   0.00269   0.00269   1.91460
    A3        1.93815   0.00092   0.00000   0.00624   0.00623   1.94438
    A4        1.90274  -0.00071   0.00000  -0.00543  -0.00543   1.89731
    A5        1.89520  -0.00049   0.00000  -0.00082  -0.00084   1.89436
    A6        1.89299  -0.00093   0.00000  -0.00690  -0.00690   1.88609
    A7        1.94653   0.00263   0.00000   0.02218   0.02206   1.96858
    A8        1.94592   0.00067   0.00000   0.00684   0.00673   1.95265
    A9        1.91049  -0.00116   0.00000  -0.00625  -0.00644   1.90405
   A10        1.83629  -0.00154   0.00000  -0.00343  -0.00359   1.83271
   A11        1.89768   0.00037   0.00000   0.00867   0.00859   1.90627
   A12        1.92550  -0.00097   0.00000  -0.02816  -0.02815   1.89735
   A13        1.92142   0.00074   0.00000   0.00486   0.00484   1.92626
   A14        1.91471   0.00164   0.00000   0.01102   0.01098   1.92569
   A15        1.91893   0.00052   0.00000   0.00194   0.00193   1.92087
   A16        1.89546  -0.00090   0.00000  -0.00303  -0.00309   1.89237
   A17        1.90815  -0.00087   0.00000  -0.00717  -0.00717   1.90098
   A18        1.90490  -0.00117   0.00000  -0.00784  -0.00785   1.89705
   A19        2.10450   0.00087   0.00000   0.00345   0.00345   2.10795
   A20        2.03136   0.00144   0.00000   0.00736   0.00725   2.03861
   A21        2.20226  -0.00433   0.00000  -0.01558  -0.01571   2.18655
   A22        2.04710   0.00293   0.00000   0.00997   0.00990   2.05700
   A23        2.12509  -0.00117   0.00000  -0.00599  -0.00598   2.11910
   A24        2.04601  -0.00020   0.00000  -0.00184  -0.00185   2.04416
   A25        2.11207   0.00137   0.00000   0.00786   0.00785   2.11992
   A26        2.09308  -0.00035   0.00000   0.00022   0.00020   2.09328
   A27        2.09041  -0.00005   0.00000  -0.00151  -0.00150   2.08890
   A28        2.09965   0.00040   0.00000   0.00129   0.00129   2.10095
   A29        2.08564  -0.00041   0.00000   0.00087   0.00084   2.08648
   A30        2.10723   0.00030   0.00000   0.00016   0.00016   2.10739
   A31        2.09026   0.00012   0.00000  -0.00095  -0.00095   2.08931
   A32        2.10085  -0.00113   0.00000  -0.00403  -0.00403   2.09682
   A33        2.10194   0.00125   0.00000   0.00624   0.00624   2.10818
   A34        2.08031  -0.00012   0.00000  -0.00219  -0.00219   2.07812
   A35        2.11405   0.00015   0.00000  -0.00060  -0.00061   2.11343
   A36        2.12998  -0.00420   0.00000  -0.01581  -0.01586   2.11412
   A37        2.03861   0.00406   0.00000   0.01691   0.01686   2.05547
    D1        1.07248  -0.00057   0.00000  -0.00684  -0.00678   1.06569
    D2       -0.97460  -0.00077   0.00000  -0.02132  -0.02136  -0.99597
    D3       -3.10996   0.00081   0.00000   0.01406   0.01403  -3.09593
    D4       -1.02017  -0.00041   0.00000  -0.00420  -0.00413  -1.02430
    D5       -3.06725  -0.00061   0.00000  -0.01867  -0.01871  -3.08596
    D6        1.08058   0.00097   0.00000   0.01671   0.01668   1.09726
    D7       -3.11068  -0.00024   0.00000  -0.00130  -0.00122  -3.11191
    D8        1.12543  -0.00044   0.00000  -0.01577  -0.01581   1.10962
    D9       -1.00993   0.00114   0.00000   0.01961   0.01959  -0.99035
   D10       -0.99472  -0.00009   0.00000  -0.00062  -0.00055  -0.99528
   D11       -3.07964  -0.00046   0.00000  -0.00675  -0.00671  -3.08635
   D12        1.10854  -0.00036   0.00000  -0.00519  -0.00514   1.10340
   D13        1.11758   0.00123   0.00000   0.01782   0.01785   1.13543
   D14       -0.96734   0.00086   0.00000   0.01169   0.01170  -0.95564
   D15       -3.06235   0.00095   0.00000   0.01325   0.01327  -3.04908
   D16       -3.10298  -0.00054   0.00000  -0.01254  -0.01260  -3.11558
   D17        1.09529  -0.00091   0.00000  -0.01867  -0.01875   1.07653
   D18       -0.99972  -0.00081   0.00000  -0.01711  -0.01719  -1.01691
   D19       -0.77684   0.00140   0.00000   0.01485   0.01480  -0.76204
   D20       -2.88954  -0.00120   0.00000  -0.01363  -0.01353  -2.90307
   D21        1.34986  -0.00030   0.00000  -0.00798  -0.00803   1.34183
   D22        2.16269  -0.00064   0.00000  -0.02292  -0.02283   2.13986
   D23       -1.05681   0.00020   0.00000   0.00529   0.00519  -1.05161
   D24        3.08913   0.00013   0.00000   0.01042   0.01060   3.09973
   D25       -0.04546   0.00003   0.00000   0.00577   0.00594  -0.03952
   D26        0.01827  -0.00030   0.00000  -0.01401  -0.01409   0.00419
   D27       -3.11631  -0.00040   0.00000  -0.01866  -0.01874  -3.13506
   D28       -3.09641  -0.00051   0.00000  -0.01544  -0.01524  -3.11165
   D29        0.00847   0.00002   0.00000   0.00156   0.00159   0.01005
   D30       -0.03335   0.00027   0.00000   0.01288   0.01293  -0.02042
   D31        3.07153   0.00080   0.00000   0.02988   0.02975   3.10129
   D32        0.01041   0.00005   0.00000   0.00300   0.00303   0.01343
   D33       -3.14137   0.00006   0.00000   0.00209   0.00209  -3.13928
   D34       -3.13846   0.00015   0.00000   0.00779   0.00785  -3.13061
   D35       -0.00704   0.00016   0.00000   0.00688   0.00691  -0.00014
   D36       -0.02458   0.00026   0.00000   0.00959   0.00958  -0.01500
   D37        3.12883   0.00006   0.00000   0.00126   0.00123   3.13006
   D38        3.12724   0.00025   0.00000   0.01052   0.01054   3.13779
   D39       -0.00253   0.00005   0.00000   0.00219   0.00219  -0.00034
   D40        0.00965  -0.00025   0.00000  -0.01061  -0.01064  -0.00099
   D41       -3.11789  -0.00031   0.00000  -0.01265  -0.01267  -3.13056
   D42        3.13954  -0.00005   0.00000  -0.00235  -0.00237   3.13717
   D43        0.01200  -0.00011   0.00000  -0.00439  -0.00440   0.00760
   D44        0.01999  -0.00006   0.00000  -0.00101  -0.00093   0.01906
   D45       -3.08673  -0.00040   0.00000  -0.01651  -0.01656  -3.10329
   D46       -3.13548   0.00001   0.00000   0.00108   0.00113  -3.13435
   D47        0.04098  -0.00032   0.00000  -0.01443  -0.01450   0.02648
         Item               Value     Threshold  Converged?
 Maximum Force            0.011223     0.000450     NO 
 RMS     Force            0.002866     0.000300     NO 
 Maximum Displacement     0.111179     0.001800     NO 
 RMS     Displacement     0.021421     0.001200     NO 
 Predicted change in Energy=-1.266854D-03
 Lowest energy point so far.  Saving SCF results.
 GradGradGradGradGradGradGradGradGradGradGradGradGradGradGradGradGradGrad

 Leave Link  103 at Tue Sep 17 09:53:05 2024, MaxMem=  1342177280 cpu:               0.1 elap:               0.0
 (Enter /groups/ReismanLab/Software/Gaussian16_RevC/Linux_Binary_AVX2-enabled-CPU/g16/l202.exe)
                          Input orientation:                          
 ---------------------------------------------------------------------
 Center     Atomic      Atomic             Coordinates (Angstroms)
 Number     Number       Type             X           Y           Z
 ---------------------------------------------------------------------
      1          6           0        2.205870    0.319878   -1.607833
      2          6           0        2.121755    0.792511   -0.158002
      3          6           0        3.485604    1.134481    0.431852
      4          8           0        1.583515   -0.229402    0.711372
      5          6           0        0.499837   -0.966901    0.334150
      6          6           0        0.663303   -2.359686    0.300249
      7          6           0       -0.392407   -3.206038   -0.022894
      8          6           0       -1.644120   -2.670599   -0.338105
      9          6           0       -1.828105   -1.289777   -0.308104
     10          6           0       -0.768233   -0.448691    0.035920
     11         35           0       -1.112803    1.431854    0.118056
     12          1           0        2.810902   -0.589617   -1.677271
     13          1           0        2.668692    1.096752   -2.222461
     14          1           0        1.214207    0.109735   -2.017126
     15          1           0        1.475229    1.674178   -0.105761
     16          1           0        4.156374    0.272629    0.364929
     17          1           0        3.385285    1.413367    1.484152
     18          1           0        3.929856    1.972457   -0.111906
     19          1           0        1.647875   -2.748141    0.539090
     20          1           0       -0.235029   -4.280037   -0.038570
     21          1           0       -2.473894   -3.318118   -0.602464
     22          1           0       -2.793221   -0.853387   -0.539081
 ---------------------------------------------------------------------
                    Distance matrix (angstroms):
                    1          2          3          4          5
     1  C    0.000000
     2  C    1.527241   0.000000
     3  C    2.541970   1.524781   0.000000
     4  O    2.463279   1.445620   2.357170   0.000000
     5  C    2.887498   2.443023   3.652418   1.364023   0.000000
     6  C    3.633229   3.503344   4.493540   2.356676   1.402755
     7  C    4.657806   4.725215   5.838310   3.647434   2.436660
     8  C    5.037617   5.119315   6.433159   4.180726   2.819763
     9  C    4.533568   4.467644   5.887280   3.715222   2.436401
    10  C    3.483950   3.151225   4.556131   2.456632   1.401957
    11  Br   3.902406   3.308675   4.618685   3.222100   2.898505
    12  H    1.094562   2.166421   2.806445   2.709584   3.086937
    13  H    1.093392   2.157242   2.777435   3.397597   3.936858
    14  H    1.093196   2.178571   3.493829   2.774186   2.682903
    15  H    2.150392   1.094560   2.149862   2.074379   2.849598
    16  H    2.774615   2.164118   1.094166   2.644175   3.861042
    17  H    3.485270   2.163016   1.093241   2.557783   3.913309
    18  H    2.817968   2.159544   1.093269   3.321338   4.539144
    19  H    3.785944   3.639603   4.296917   2.525444   2.129039
    20  H    5.438731   5.594590   6.586457   4.503017   3.414062
    21  H    6.012152   6.181812   7.510730   5.265823   3.904938
    22  H    5.244968   5.197229   6.657175   4.594432   3.408760
                    6          7          8          9         10
     6  C    0.000000
     7  C    1.391135   0.000000
     8  C    2.414200   1.397440   0.000000
     9  C    2.778833   2.411354   1.393349   0.000000
    10  C    2.402305   2.783462   2.417426   1.396104   0.000000
    11  Br   4.190886   4.695623   4.161791   2.846146   1.913616
    12  H    3.414075   4.454639   5.096183   4.887251   3.970528
    13  H    4.725739   5.720351   6.028605   5.438884   4.393305
    14  H    3.431001   4.189573   4.326593   3.759661   2.908076
    15  H    4.134747   5.226034   5.353636   4.442746   3.091888
    16  H    4.374336   5.739594   6.542368   6.221581   4.988016
    17  H    4.800702   6.154758   6.730105   6.139919   4.776646
    18  H    5.441296   6.745865   7.257985   6.620784   5.287329
    19  H    1.085046   2.165236   3.407744   3.863548   3.373163
    20  H    2.146985   1.085582   2.159988   3.398852   3.868988
    21  H    3.402277   2.163573   1.085214   2.148920   3.398591
    22  H    3.862767   3.400782   2.159417   1.084083   2.143591
                   11         12         13         14         15
    11  Br   0.000000
    12  H    4.764977   0.000000
    13  H    4.459822   1.778003   0.000000
    14  H    3.423737   1.775959   1.769715   0.000000
    15  H    2.608970   3.062423   2.497638   2.483734   0.000000
    16  H    5.400831   2.593134   3.096282   3.789072   3.061768
    17  H    4.700995   3.786351   3.788499   4.321109   2.498831
    18  H    5.076765   3.204161   2.609950   3.804517   2.472691
    19  H    5.027024   3.305165   4.842668   3.858726   4.472420
    20  H    5.781066   5.057889   6.489286   5.028427   6.195335
    21  H    4.993391   6.043922   6.968619   5.230061   6.384771
    22  H    2.911694   5.724618   6.038982   4.378550   4.979560
                   16         17         18         19         20
    16  H    0.000000
    17  H    1.774407   0.000000
    18  H    1.779915   1.776665   0.000000
    19  H    3.930388   4.607590   5.283491   0.000000
    20  H    6.338297   6.916662   7.513011   2.495141   0.000000
    21  H    7.601958   7.814786   8.320988   4.314742   2.501156
    22  H    7.098029   6.885171   7.305316   4.947311   4.305437
                   21         22
    21  H    0.000000
    22  H    2.486138   0.000000
 Stoichiometry    C9H11BrO
 Framework group  C1[X(C9H11BrO)]
 Deg. of freedom    60
 Full point group                 C1      NOp   1
 RotChk:  IX=0 Diff= 7.74D-02
 Largest Abelian subgroup         C1      NOp   1
 Largest concise Abelian subgroup C1      NOp   1
                         Standard orientation:                         
 ---------------------------------------------------------------------
 Center     Atomic      Atomic             Coordinates (Angstroms)
 Number     Number       Type             X           Y           Z
 ---------------------------------------------------------------------
      1          6           0       -1.903986   -0.935182    1.551858
      2          6           0       -2.116328   -0.451754    0.118793
      3          6           0       -3.423586   -0.952228   -0.485821
      4          8           0       -1.083787   -0.933622   -0.770860
      5          6           0        0.227481   -0.909994   -0.395925
      6          6           0        0.910778   -2.135025   -0.407181
      7          6           0        2.262990   -2.214022   -0.090103
      8          6           0        2.964784   -1.058770    0.264458
      9          6           0        2.305134    0.168444    0.279634
     10          6           0        0.952580    0.241480   -0.058549
     11         35           0        0.130288    1.969313   -0.077379
     12          1           0       -1.861555   -2.028493    1.582475
     13          1           0       -2.732538   -0.598621    2.180930
     14          1           0       -0.976072   -0.539401    1.973060
     15          1           0       -2.108784    0.642697    0.105296
     16          1           0       -3.462348   -2.045340   -0.457506
     17          1           0       -3.508304   -0.630330   -1.527157
     18          1           0       -4.273054   -0.552793    0.074619
     19          1           0        0.339627   -3.017551   -0.675992
     20          1           0        2.764473   -3.176631   -0.109826
     21          1           0        4.017263   -1.106890    0.524579
     22          1           0        2.832421    1.078686    0.541671
 ---------------------------------------------------------------------
 Rotational constants (GHZ):           0.8837539           0.7613065           0.4549449
 Leave Link  202 at Tue Sep 17 09:53:05 2024, MaxMem=  1342177280 cpu:               0.0 elap:               0.0
 (Enter /groups/ReismanLab/Software/Gaussian16_RevC/Linux_Binary_AVX2-enabled-CPU/g16/l301.exe)
 Standard basis: 6-31G(d,p) (6D, 7F)
 Ernie: Thresh=  0.10000D-02 Tol=  0.10000D-05 Strict=F.
 There are   235 symmetry adapted cartesian basis functions of A   symmetry.
 There are   235 symmetry adapted basis functions of A   symmetry.
   235 basis functions,   440 primitive gaussians,   235 cartesian basis functions
    54 alpha electrons       54 beta electrons
       nuclear repulsion energy       889.8546305078 Hartrees.
 IExCor=  402 DFT=T Ex+Corr=B3LYP ExCW=0 ScaHFX=  0.200000
 ScaDFX=  0.800000  0.720000  1.000000  0.810000 ScalE2=  1.000000  1.000000
 IRadAn=      5 IRanWt=     -1 IRanGd=            0 ICorTp=0 IEmpDi=141
 NAtoms=   22 NActive=   22 NUniq=   22 SFac= 1.00D+00 NAtFMM=   60 NAOKFM=F Big=F
 Integral buffers will be    131072 words long.
 Raffenetti 2 integral format.
 Two-electron integral symmetry is turned on.
 R6Disp:  Grimme-D3(BJ) Dispersion energy=       -0.0437512877 Hartrees.
[...]
                 (A) (A) (A) (A) (A) (A) (A) (A) (A) (A) (A) (A)
                 (A) (A) (A) (A) (A) (A) (A) (A) (A) (A) (A) (A)
                 (A) (A) (A) (A) (A) (A) (A) (A) (A) (A) (A) (A)
                 (A) (A) (A) (A) (A) (A) (A) (A) (A) (A) (A) (A)
                 (A) (A) (A) (A) (A) (A) (A) (A) (A) (A) (A) (A)
                 (A) (A) (A) (A) (A) (A) (A) (A) (A) (A) (A) (A)
                 (A) (A) (A) (A) (A) (A) (A) (A) (A) (A) (A) (A)
                 (A) (A) (A) (A) (A) (A) (A) (A) (A) (A) (A) (A)
                 (A) (A) (A) (A) (A) (A) (A) (A) (A) (A) (A) (A)
                 (A) (A) (A) (A) (A) (A) (A) (A) (A) (A) (A) (A)
                 (A) (A) (A) (A) (A) (A) (A) (A) (A) (A) (A) (A)
                 (A) (A) (A) (A) (A) (A) (A) (A) (A) (A) (A) (A)
                 (A) (A) (A) (A) (A) (A) (A) (A) (A) (A) (A) (A)
                 (A) (A) (A) (A) (A) (A) (A) (A) (A) (A) (A) (A)
                 (A) (A) (A) (A) (A) (A) (A) (A) (A) (A) (A) (A)
                 (A) (A) (A) (A) (A) (A) (A) (A) (A) (A)
 The electronic state is 1-A.
 Alpha  occ. eigenvalues -- -485.37585 -63.36053 -57.18001 -57.17764 -57.17754
 Alpha  occ. eigenvalues --  -19.64240 -10.61058 -10.60107 -10.59366 -10.55681
 Alpha  occ. eigenvalues --  -10.55120 -10.54943 -10.54902 -10.52355 -10.52092
 Alpha  occ. eigenvalues --   -9.02687  -6.85099  -6.84224  -6.84189  -2.88476
 Alpha  occ. eigenvalues --   -2.88164  -2.88125  -2.87310  -2.87309  -1.17856
 Alpha  occ. eigenvalues --   -0.97487  -0.89972  -0.88913  -0.83934  -0.81228
 Alpha  occ. eigenvalues --   -0.78094  -0.70374  -0.69707  -0.65833  -0.60792
 Alpha  occ. eigenvalues --   -0.56255  -0.55680  -0.52961  -0.51844  -0.50555
 Alpha  occ. eigenvalues --   -0.48396  -0.46736  -0.46109  -0.44977  -0.43667
 Alpha  occ. eigenvalues --   -0.43059  -0.42499  -0.40914  -0.39760  -0.37737
 Alpha  occ. eigenvalues --   -0.35060  -0.34877  -0.30906  -0.29313
 Alpha virt. eigenvalues --    0.00884   0.01692   0.03680   0.07577   0.09743
 Alpha virt. eigenvalues --    0.10337   0.11200   0.12708   0.12885   0.13992
 Alpha virt. eigenvalues --    0.14170   0.15062   0.15280   0.16663   0.17403
 Alpha virt. eigenvalues --    0.18386   0.18894   0.19788   0.20528   0.21489
 Alpha virt. eigenvalues --    0.22027   0.22969   0.23677   0.23957   0.25720
 Alpha virt. eigenvalues --    0.26149   0.26607   0.26914   0.28491   0.29503
 Alpha virt. eigenvalues --    0.30007   0.30617   0.31590   0.33328   0.33574
 Alpha virt. eigenvalues --    0.34109   0.34365   0.35858   0.36352   0.36860
 Alpha virt. eigenvalues --    0.37878   0.38269   0.39758   0.40232   0.40666
 Alpha virt. eigenvalues --    0.41755   0.42591   0.43260   0.44658   0.45061
 Alpha virt. eigenvalues --    0.45840   0.46169   0.46993   0.47931   0.48417
 Alpha virt. eigenvalues --    0.48974   0.49856   0.50259   0.51356   0.52248
 Alpha virt. eigenvalues --    0.53156   0.53430   0.53797   0.55075   0.55919
 Alpha virt. eigenvalues --    0.56506   0.57673   0.58903   0.59920   0.60859
 Alpha virt. eigenvalues --    0.63279   0.64706   0.65575   0.66258   0.69624
 Alpha virt. eigenvalues --    0.70671   0.71553   0.72571   0.74543   0.75299
 Alpha virt. eigenvalues --    0.76200   0.77705   0.79360   0.80126   0.81721
 Alpha virt. eigenvalues --    0.83488   0.84941   0.86708   0.87665   0.88396
 Alpha virt. eigenvalues --    0.89816   0.91542   0.92025   0.93072   0.93638
 Alpha virt. eigenvalues --    0.94682   0.96319   0.98649   1.01937   1.03216
 Alpha virt. eigenvalues --    1.04285   1.04898   1.05132   1.07441   1.08425
 Alpha virt. eigenvalues --    1.09232   1.10707   1.13091   1.13919   1.15099
 Alpha virt. eigenvalues --    1.18694   1.19364   1.20486   1.21325   1.22638
 Alpha virt. eigenvalues --    1.23805   1.24490   1.25430   1.27853   1.28674
 Alpha virt. eigenvalues --    1.30755   1.32047   1.32905   1.34518   1.36797
 Alpha virt. eigenvalues --    1.40051   1.41657   1.43076   1.46056   1.47383
 Alpha virt. eigenvalues --    1.47573   1.48097   1.49744   1.51476   1.53494
 Alpha virt. eigenvalues --    1.55563   1.56833   1.57731   1.58249   1.58599
 Alpha virt. eigenvalues --    1.59407   1.59827   1.60326   1.61268   1.62133
 Alpha virt. eigenvalues --    1.63370   1.64316   1.64513   1.65057   1.66904
 Alpha virt. eigenvalues --    1.68285   1.68599   1.70065   1.71553   1.72477
 Alpha virt. eigenvalues --    1.72675   1.74007   1.75533   1.76317   1.77140
 Alpha virt. eigenvalues --    1.77847   1.79025   1.81261   1.82209   1.83787
 Alpha virt. eigenvalues --    1.84936   1.88064   1.88281   1.90225   1.91417
 Alpha virt. eigenvalues --    1.93459   1.94670   1.97388   1.98153   2.00063
 Alpha virt. eigenvalues --    2.01846   2.04299   2.05738   2.06798   2.07902
 Alpha virt. eigenvalues --    2.12607   2.13379   2.14241   2.15952   2.17212
 Alpha virt. eigenvalues --    2.18749   2.20340   2.20980   2.24728   2.26088
 Alpha virt. eigenvalues --    2.28736   2.30099   2.33656   2.34436   2.36406
 Alpha virt. eigenvalues --    2.38071   2.40065   2.40434   2.41977   2.42675
 Alpha virt. eigenvalues --    2.43523   2.44146   2.46049   2.47353   2.50082
 Alpha virt. eigenvalues --    2.51387   2.54915   2.55310   2.59113   2.60321
 Alpha virt. eigenvalues --    2.60910   2.61197   2.62276   2.63862   2.65052
 Alpha virt. eigenvalues --    2.65670   2.66734   2.67282   2.67857   2.69135
 Alpha virt. eigenvalues --    2.70310   2.71234   2.72522   2.75034   2.75096
 Alpha virt. eigenvalues --    2.75938   2.77736   2.78429   2.80861   2.82860
 Alpha virt. eigenvalues --    2.84056   2.84465   2.85080   2.88152   2.89242
 Alpha virt. eigenvalues --    2.90566   2.91468   2.91615   2.92680   2.97455
 Alpha virt. eigenvalues --    2.99332   3.01520   3.03800   3.06875   3.08436
 Alpha virt. eigenvalues --    3.09438   3.09730   3.10578   3.12335   3.12667
 Alpha virt. eigenvalues --    3.14661   3.16122   3.16612   3.17132   3.18075
 Alpha virt. eigenvalues --    3.19533   3.20176   3.23337   3.24024   3.25655
 Alpha virt. eigenvalues --    3.26041   3.27523   3.29173   3.29889   3.31401
 Alpha virt. eigenvalues --    3.32280   3.34070   3.35755   3.36792   3.37998
 Alpha virt. eigenvalues --    3.39716   3.41111   3.42623   3.43166   3.43828
 Alpha virt. eigenvalues --    3.45646   3.47684   3.48336   3.49384   3.51535
 Alpha virt. eigenvalues --    3.52260   3.53562   3.54590   3.56037   3.56951
 Alpha virt. eigenvalues --    3.58885   3.60701   3.62247   3.64762   3.65968
 Alpha virt. eigenvalues --    3.68898   3.72002   3.75684   3.80954   3.81246
 Alpha virt. eigenvalues --    3.86030   3.89357   3.91941   3.92314   3.97146
 Alpha virt. eigenvalues --    3.98043   4.01275   4.03170   4.04366   4.06059
 Alpha virt. eigenvalues --    4.08252   4.08968   4.10998   4.11743   4.14057
 Alpha virt. eigenvalues --    4.15024   4.15898   4.18144   4.18691   4.20272
 Alpha virt. eigenvalues --    4.20918   4.22436   4.25668   4.27667   4.30289
 Alpha virt. eigenvalues --    4.33475   4.35248   4.37084   4.38342   4.41035
 Alpha virt. eigenvalues --    4.44983   4.47316   4.53066   4.53941   4.56389
 Alpha virt. eigenvalues --    4.57655   4.59500   4.61401   4.69090   4.74509
 Alpha virt. eigenvalues --    4.76639   4.79645   4.82315   4.83028   4.91804
 Alpha virt. eigenvalues --    4.99747   5.02129   5.06204   5.21372   5.22010
 Alpha virt. eigenvalues --    5.31829   5.41806   5.47663   5.52689   5.81606
 Alpha virt. eigenvalues --    6.02042   6.12576   6.25142   6.32594   6.72674
 Alpha virt. eigenvalues --    6.80903   7.08168   7.21866   7.28605   7.88218
 Alpha virt. eigenvalues --   22.11060  22.45010  22.47666  22.67814  22.71448
 Alpha virt. eigenvalues --   22.73182  22.84894  22.88992  23.31468  44.55185
          Condensed to atoms (all electrons):
               1          2          3          4          5          6
     1  C    5.136926   0.263745  -0.063139  -0.039485   0.029160  -0.017180
     2  C    0.263745   5.127972   0.291389   0.179105  -0.085817  -0.009472
     3  C   -0.063139   0.291389   5.078795  -0.042705   0.004153  -0.002574
     4  O   -0.039485   0.179105  -0.042705   8.053961   0.300642  -0.041744
     5  C    0.029160  -0.085817   0.004153   0.300642   5.262023   0.284065
     6  C   -0.017180  -0.009472  -0.002574  -0.041744   0.284065   5.213363
     7  C    0.000088   0.003150   0.000076   0.011549   0.030606   0.355477
     8  C   -0.000690  -0.000947  -0.000011  -0.001529  -0.139525   0.025689
     9  C    0.001526   0.004572  -0.000046   0.013126   0.116727  -0.155664
    10  C   -0.004252  -0.011438  -0.001680  -0.078511   0.182683   0.111753
    11  Br   0.002309   0.015469  -0.015976  -0.002829  -0.141050   0.017360
    12  H    0.401641  -0.030937  -0.010979   0.000677  -0.004054   0.001971
    13  H    0.408130  -0.034116  -0.006400   0.005307  -0.001680   0.000777
    14  H    0.408760  -0.039418   0.009720  -0.003763   0.016849  -0.012738
    15  H   -0.070292   0.453192  -0.061044  -0.052039  -0.014324   0.008624
    16  H   -0.016437  -0.019653   0.399838  -0.002128  -0.000578   0.000277
    17  H    0.011572  -0.035163   0.406962  -0.000695  -0.000067   0.000046
    18  H   -0.001696  -0.044069   0.412312   0.005943   0.000715   0.000127
    19  H   -0.002489  -0.002108  -0.000434   0.004469  -0.056125   0.423685
    20  H    0.000033   0.000034   0.000000  -0.000221   0.007327  -0.029494
    21  H    0.000002  -0.000008  -0.000000   0.000006  -0.000734   0.005677
    22  H    0.000016  -0.000091  -0.000002  -0.000053   0.011382  -0.001437
               7          8          9         10         11         12
     1  C    0.000088  -0.000690   0.001526  -0.004252   0.002309   0.401641
     2  C    0.003150  -0.000947   0.004572  -0.011438   0.015469  -0.030937
     3  C    0.000076  -0.000011  -0.000046  -0.001680  -0.015976  -0.010979
     4  O    0.011549  -0.001529   0.013126  -0.078511  -0.002829   0.000677
     5  C    0.030606  -0.139525   0.116727   0.182683  -0.141050  -0.004054
     6  C    0.355477   0.025689  -0.155664   0.111753   0.017360   0.001971
     7  C    5.037608   0.454661   0.013767  -0.095486  -0.003814   0.000002
     8  C    0.454661   5.010918   0.399534   0.044064   0.016997   0.000038
     9  C    0.013767   0.399534   5.185017   0.299866  -0.084071  -0.000083
    10  C   -0.095486   0.044064   0.299866   5.197832   0.378800   0.000467
    11  Br  -0.003814   0.016997  -0.084071   0.378800  34.926861  -0.000139
    12  H    0.000002   0.000038  -0.000083   0.000467  -0.000139   0.521931
    13  H    0.000091   0.000016  -0.000055   0.000111   0.000020  -0.022526
    14  H    0.000973  -0.000541   0.000595  -0.000587   0.000156  -0.026350
    15  H    0.000288   0.000264  -0.002295   0.008449  -0.008573   0.009228
    16  H    0.000028  -0.000004   0.000003   0.000019   0.000175   0.004668
    17  H   -0.000031   0.000010  -0.000072  -0.000066   0.005064  -0.000147
    18  H   -0.000019   0.000005  -0.000017   0.000221   0.000296   0.000362
    19  H   -0.033247   0.007315  -0.003413   0.012975  -0.000322   0.000606
    20  H    0.410021  -0.036957   0.006400  -0.001991   0.000025  -0.000003
    21  H   -0.034049   0.414008  -0.034161   0.005163  -0.000357   0.000000
    22  H    0.003856  -0.031791   0.409041  -0.038627  -0.004008  -0.000000
              13         14         15         16         17         18
     1  C    0.408130   0.408760  -0.070292  -0.016437   0.011572  -0.001696
     2  C   -0.034116  -0.039418   0.453192  -0.019653  -0.035163  -0.044069
     3  C   -0.006400   0.009720  -0.061044   0.399838   0.406962   0.412312
     4  O    0.005307  -0.003763  -0.052039  -0.002128  -0.000695   0.005943
     5  C   -0.001680   0.016849  -0.014324  -0.000578  -0.000067   0.000715
     6  C    0.000777  -0.012738   0.008624   0.000277   0.000046   0.000127
     7  C    0.000091   0.000973   0.000288   0.000028  -0.000031  -0.000019
     8  C    0.000016  -0.000541   0.000264  -0.000004   0.000010   0.000005
     9  C   -0.000055   0.000595  -0.002295   0.000003  -0.000072  -0.000017
    10  C    0.000111  -0.000587   0.008449   0.000019  -0.000066   0.000221
    11  Br   0.000020   0.000156  -0.008573   0.000175   0.005064   0.000296
    12  H   -0.022526  -0.026350   0.009228   0.004668  -0.000147   0.000362
    13  H    0.515230  -0.020103  -0.000635   0.000996  -0.000206  -0.000185
    14  H   -0.020103   0.516236  -0.004738  -0.000099  -0.000378  -0.000143
    15  H   -0.000635  -0.004738   0.580928   0.009422  -0.007427  -0.003177
    16  H    0.000996  -0.000099   0.009422   0.520949  -0.023180  -0.027158
    17  H   -0.000206  -0.000378  -0.007427  -0.023180   0.514505  -0.020863
    18  H   -0.000185  -0.000143  -0.003177  -0.027158  -0.020863   0.530747
    19  H    0.000185  -0.002984   0.000727   0.000051   0.000008   0.000022
    20  H   -0.000002   0.000028  -0.000007  -0.000000  -0.000000   0.000000
    21  H   -0.000000  -0.000001  -0.000001  -0.000000   0.000000   0.000000
    22  H   -0.000000   0.000001   0.000049   0.000000   0.000001   0.000000
              19         20         21         22
     1  C   -0.002489   0.000033   0.000002   0.000016
     2  C   -0.002108   0.000034  -0.000008  -0.000091
     3  C   -0.000434   0.000000  -0.000000  -0.000002
     4  O    0.004469  -0.000221   0.000006  -0.000053
     5  C   -0.056125   0.007327  -0.000734   0.011382
     6  C    0.423685  -0.029494   0.005677  -0.001437
     7  C   -0.033247   0.410021  -0.034049   0.003856
     8  C    0.007315  -0.036957   0.414008  -0.031791
     9  C   -0.003413   0.006400  -0.034161   0.409041
    10  C    0.012975  -0.001991   0.005163  -0.038627
    11  Br  -0.000322   0.000025  -0.000357  -0.004008
    12  H    0.000606  -0.000003   0.000000  -0.000000
    13  H    0.000185  -0.000002  -0.000000  -0.000000
    14  H   -0.002984   0.000028  -0.000001   0.000001
    15  H    0.000727  -0.000007  -0.000001   0.000049
    16  H    0.000051  -0.000000  -0.000000   0.000000
    17  H    0.000008  -0.000000   0.000000   0.000001
    18  H    0.000022   0.000000   0.000000   0.000000
    19  H    0.473315  -0.003680  -0.000133   0.000058
    20  H   -0.003680   0.486178  -0.003335  -0.000171
    21  H   -0.000133  -0.003335   0.484926  -0.002744
    22  H    0.000058  -0.000171  -0.002744   0.476163
 Mulliken charges:
               1
     1  C   -0.448246
     2  C   -0.025390
     3  C   -0.398256
     4  O   -0.309084
     5  C    0.197621
     6  C   -0.178586
     7  C   -0.155596
     8  C   -0.161525
     9  C   -0.170297
    10  C   -0.009766
    11  Br  -0.102394
    12  H    0.153626
    13  H    0.155045
    14  H    0.158522
    15  H    0.153380
    16  H    0.152812
    17  H    0.150127
    18  H    0.146578
    19  H    0.181519
    20  H    0.165813
    21  H    0.165741
    22  H    0.178357
 Sum of Mulliken charges =  -0.00000
 Mulliken charges with hydrogens summed into heavy atoms:
               1
     1  C    0.018947
     2  C    0.127990
     3  C    0.051260
     4  O   -0.309084
     5  C    0.197621
     6  C    0.002933
     7  C    0.010217
     8  C    0.004215
     9  C    0.008060
    10  C   -0.009766
    11  Br  -0.102394
 Electronic spatial extent (au):  <R**2>=           2476.6107
 Charge=              0.0000 electrons
 Dipole moment (field-independent basis, Debye):
    X=              0.3898    Y=             -1.6729    Z=              1.4158  Tot=              2.2260
 Quadrupole moment (field-independent basis, Debye-Ang):
   XX=            -68.5694   YY=            -75.0162   ZZ=            -82.5480
   XY=             -1.2175   XZ=             -0.5920   YZ=              0.3799
 Traceless Quadrupole moment (field-independent basis, Debye-Ang):
   XX=              6.8085   YY=              0.3617   ZZ=             -7.1701
   XY=             -1.2175   XZ=             -0.5920   YZ=              0.3799
 Octapole moment (field-independent basis, Debye-Ang**2):
  XXX=              8.9860  YYY=             46.2227  ZZZ=              0.2737  XYY=              3.8444
  XXY=             12.2451  XXZ=             10.3724  XZZ=             -8.0697  YZZ=             22.3820
  YYZ=             -3.9704  XYZ=              2.9258
 Hexadecapole moment (field-independent basis, Debye-Ang**3):
 XXXX=          -1671.5127 YYYY=          -1131.3743 ZZZZ=           -202.8604 XXXY=             -8.4831
 XXXZ=             21.8162 YYYX=            -30.9066 YYYZ=             21.0416 ZZZX=             -1.9033
 ZZZY=              1.9941 XXYY=           -468.0728 XXZZ=           -342.2190 YYZZ=           -239.7211
 XXYZ=              3.0692 YYXZ=              1.1277 ZZXY=             10.9325
 N-N= 8.887155162583D+02 E-N=-8.917924907009D+03  KE= 2.993328130917D+03
 Calculating spin-rotation constants.
 Leave Link  601 at Tue Sep 17 10:59:59 2024, MaxMem=  1342177280 cpu:               5.2 elap:               5.2
 (Enter /groups/ReismanLab/Software/Gaussian16_RevC/Linux_Binary_AVX2-enabled-CPU/g16/l9999.exe)
 Unable to Open any file for archive entry.
 1\1\GINC-HPC-21-27\SP\RM062X\def2TZVP\C9H11Br1O1\MANTIND\17-Sep-2024\0
 \\#p M062X/def2tzvp geom=check guess=read scf(xqc,tight) integral(grid
 =ultrafine) scrf(SMD, solvent=1,4-Dioxane) nmr=giao\\spe\\0,1\C,0,2.91
 51788803,-0.1182574021,-1.5281840493\C,0,2.1599241045,0.5610463819,-0.
 3934726535\C,0,2.9986548838,1.5462770484,0.4006911445\O,0,1.7128362009
 ,-0.4415495831,0.5628888239\C,0,0.5407097917,-1.0750178127,0.266660653
 5\C,0,0.564716569,-2.3962377343,-0.1901811431\C,0,-0.6199515686,-3.082
 9704276,-0.4488455988\C,0,-1.8493226566,-2.4519558569,-0.2584208215\C,
 0,-1.8926841585,-1.1365525357,0.2033213643\C,0,-0.7046418091,-0.460656
 1083,0.4668837685\Br,0,-0.7738789907,1.3243429281,1.1410775254\H,0,3.7
 932663438,-0.6433824946,-1.1396820264\H,0,3.2487623849,0.622097128,-2.
 2623261085\H,0,2.2764975034,-0.8421816122,-2.0424550649\H,0,1.27584990
 83,1.0736198156,-0.7902004719\H,0,3.850152789,1.0359818297,0.861245546
 5\H,0,2.3900741692,1.993542869,1.1898271712\H,0,3.3785078001,2.3393017
 395,-0.2502450982\H,0,1.5326613476,-2.8663079245,-0.32570768\H,0,-0.58
 15251515,-4.1086423552,-0.8014353174\H,0,-2.7758473444,-2.9794272333,-
 0.4599569411\H,0,-2.8394528924,-0.6356229827,0.36870898\\Version=ES64L
 -G16RevC.02\State=1-A\HF=-2998.974677\RMSD=5.634e-09\Dipole=0.0444201,
 -0.3807195,-0.7874318\Quadrupole=2.1474519,2.2636866,-4.4111385,3.0430
 24,-1.4520174,1.477864\PG=C01 [X(C9H11Br1O1)]\\@
 The archive entry for this job was punched.


 A ROPE OVER THE TOP OF A FENCE HAS THE SAME LENGTH ON EACH SIDE.
 WEIGHS 1/3 POUND PER FOOT.  ON ONE END HANGS A MONKEY HOLDING A
 BANANA, AND ON THE OTHER END A WEIGHT EQUAL TO THE WEIGHT
 OF THE MONKEY.  THE BANANA WEIGHS TWO OUNCES PER INCH.
 THE ROPE IS AS LONG AS THE AGE OF THE MONKEY, 
 AND THE WEIGHT OF THE MONKEY (IN OUNCES) IS AS MUCH
 AS THE AGE OF THE MONKEY'S MOTHER.  THE COMBINED AGES OF MONKEY
 AND MOTHER ARE THIRTY YEARS.  HALF THE WEIGHT OF THE MONKEY,
  PLUS THE WEIGHT OF THE BANANA, IS ONE FOURTH AS MUCH AS THE WEIGHT
 OF THE WEIGHT AND THE ROPE.
 THE MONKEY'S MOTHER IS HALF AS OLD AS THE MONKEY WILL BE
 WHEN IT IS 3 TIMES AS OLD AS ITS MOTHER WAS WHEN
 SHE WAS HALF AS OLD AS THE MONKEY WILL BE WHEN IT IS
 AS OLD AS ITS MOTHER WILL BE WHEN SHE IS 4 TIMES AS
 OLD AS THE MONKEY WAS WHEN IT WAS TWICE AS OLD AS 
 ITS MOTHER WAS WHEN SHE WAS ONE THIRD AS OLD AS THE
 MONKEY WAS WHEN IT WAS AS OLD AS ITS MOTHER WAS WHEN 
 SHE WAS 3 TIMES AS OLD AS THE MONKEY WAS WHEN IT WAS AS OLD AS ITS
 MOTHER WAS WHEN SHE WAS 3 TIMES AS OLD AS THE MONKEY 
 WAS WHEN IT WAS ONE FOURTH WAS OLD AS IT IS NOW.

 HOW LONG IS THE BANANA?
 Job cpu time:       0 days  0 hours 16 minutes 16.3 seconds.
 Elapsed time:       0 days  0 hours 16 minutes 19.1 seconds.
 File lengths (MBytes):  RWF=    272 Int=      0 D2E=      0 Chk=     32 Scr=     16
 Normal termination of Gaussian 16 at Tue Sep 17 10:59:59 2024.
