 Entering Gaussian System, Link 0=g16
 Input=smiles_00081_conf_4.gjf
 Output=smiles_00081_conf_4.log
 Initial command:
 /groups/ReismanLab/Software/Gaussian16_RevC/Linux_Binary_AVX2-enabled-CPU/g16/l1.exe "/central/groups/ReismanLab/DM/dft_final/smiles_00081/Gau-198183.inp" -scrdir="/central/groups/ReismanLab/DM/dft_final/smiles_00081/"
 Entering Link 1 = /groups/ReismanLab/Software/Gaussian16_RevC/Linux_Binary_AVX2-enabled-CPU/g16/l1.exe PID=    198192.
  
 Copyright (c) 1988-2021, Gaussian, Inc.  All Rights Reserved.
  
 This is part of the Gaussian(R) 16 program.  It is based on
 the Gaussian(R) 09 system (copyright 2009, Gaussian, Inc.),
 the Gaussian(R) 03 system (copyright 2003, Gaussian, Inc.),
 the Gaussian(R) 98 system (copyright 1998, Gaussian, Inc.),
 the Gaussian(R) 94 system (copyright 1995, Gaussian, Inc.),
 the Gaussian 92(TM) system (copyright 1992, Gaussian, Inc.),
 the Gaussian 90(TM) system (copyright 1990, Gaussian, Inc.),
 the Gaussian 88(TM) system (copyright 1988, Gaussian, Inc.),
 the Gaussian 86(TM) system (copyright 1986, Carnegie Mellon
 University), and the Gaussian 82(TM) system (copyright 1983,
 Carnegie Mellon University). Gaussian is a federally registered
 trademark of Gaussian, Inc.
  
 This software contains proprietary and confidential information,
 including trade secrets, belonging to Gaussian, Inc.
  
 This software is provided under written license and may be
 used, copied, transmitted, or stored only in accord with that
 written license.
  
 The following legend is applicable only to US Government
 contracts under FAR:
  
                    RESTRICTED RIGHTS LEGEND
  
 Use, reproduction and disclosure by the US Government is
 subject to restrictions as set forth in subparagraphs (a)
 and (c) of the Commercial Computer Software - Restricted
 Rights clause in FAR 52.227-19.
  
 Gaussian, Inc.
 340 Quinnipiac St., Bldg. 40, Wallingford CT 06492
  
  
 ---------------------------------------------------------------
 Warning -- This program may not be used in any manner that
 competes with the business of Gaussian, Inc. or will provide
 assistance to any competitor of Gaussian, Inc.  The licensee
 of this program is prohibited from giving any competitor of
 Gaussian, Inc. access to this program.  By using this program,
 the user acknowledges that Gaussian, Inc. is engaged in the
 business of creating and licensing software in the field of
 computational chemistry and represents and warrants to the
 licensee that it is not a competitor of Gaussian, Inc. and that
 it will not use this program in any manner prohibited above.
 ---------------------------------------------------------------
  

 Cite this work as:
 Gaussian 16, Revision C.02,
 M. J. Frisch, G. W. Trucks, H. B. Schlegel, G. E. Scuseria, 
 M. A. Robb, J. R. Cheeseman, G. Scalmani, V. Barone, 
 G. A. Petersson, H. Nakatsuji, X. Li, M. Caricato, A. V. Marenich, 
 J. Bloino, B. G. Janesko, R. Gomperts, B. Mennucci, H. P. Hratchian, 
 J. V. Ortiz, A. F. Izmaylov, J. L. Sonnenberg, D. Williams-Young, 
 F. Ding, F. Lipparini, F. Egidi, J. Goings, B. Peng, A. Petrone, 
 T. Henderson, D. Ranasinghe, V. G. Zakrzewski, J. Gao, N. Rega, 
 G. Zheng, W. Liang, M. Hada, M. Ehara, K. Toyota, R. Fukuda, 
 J. Hasegawa, M. Ishida, T. Nakajima, Y. Honda, O. Kitao, H. Nakai, 
 T. Vreven, K. Throssell, J. A. Montgomery, Jr., J. E. Peralta, 
 F. Ogliaro, M. J. Bearpark, J. J. Heyd, E. N. Brothers, K. N. Kudin, 
 V. N. Staroverov, T. A. Keith, R. Kobayashi, J. Normand, 
 K. Raghavachari, A. P. Rendell, J. C. Burant, S. S. Iyengar, 
 J. Tomasi, M. Cossi, J. M. Millam, M. Klene, C. Adamo, R. Cammi, 
 J. W. Ochterski, R. L. Martin, K. Morokuma, O. Farkas, 
 J. B. Foresman, and D. J. Fox, Gaussian, Inc., Wallingford CT, 2019.
 
 ******************************************
 Gaussian 16:  ES64L-G16RevC.02  7-Dec-2021
                17-Sep-2024 
 ******************************************
 %nprocshared=8
 Will use up to    8 processors via shared memory.
 %Mem=10GB
 %Chk=smiles_00081_conf_4.chk
 ----------------------------------------------------------------------
 #p B3LYP/6-31G(d,p) EmpiricalDispersion=GD3BJ opt freq scf(xqc,tight) 
 integral(grid=ultrafine)
 ----------------------------------------------------------------------
 1/18=20,19=15,26=4,38=1/1,3;
 2/9=110,12=2,17=6,18=5,40=1/2;
 3/5=1,6=6,7=101,11=2,25=1,30=1,71=1,74=-5,75=-5,124=41/1,2,3;
 4//1;
 5/5=2,8=3,13=1,32=2,38=5/2,8;
 6/7=2,8=2,9=2,10=2,28=1/1;
 7//1,2,3,16;
 1/18=20,19=15,26=4/3(2);
 2/9=110/2;
 99//99;
 2/9=110/2;
 3/5=1,6=6,7=101,11=2,25=1,30=1,71=1,74=-5,75=-5,124=41/1,2,3;
 4/5=5,16=3,69=1/1;
 5/5=2,8=3,13=1,32=2,38=5/2,8;
 7//1,2,3,16;
 1/18=20,19=15,26=4/3(-5);
 2/9=110/2;
 6/7=2,8=2,9=2,10=2,19=2,28=1/1;
 99/9=1/99;
 Leave Link    1 at Tue Sep 17 09:51:24 2024, MaxMem=  1342177280 cpu:               0.1 elap:               0.6
 (Enter /groups/ReismanLab/Software/Gaussian16_RevC/Linux_Binary_AVX2-enabled-CPU/g16/l101.exe)
 ----------------------------------
 opt-freq conformers_unique/conf_ae
 ----------------------------------
 Symbolic Z-matrix:
 Charge =  0 Multiplicity = 1
 C                     5.1478    0.45697  -0.43034 
 C                     3.75712   0.20265   0.10353 
 O                     3.51189  -0.21249   1.20513 
 N                     2.77879   0.51817  -0.81669 
 C                     1.40714   0.38354  -0.5814 
 C                     0.52611   1.40986  -0.91406 
 C                    -0.82934   1.29888  -0.67305 
 C                    -1.31908   0.14645  -0.08116 
 Br                   -3.1782   -0.00896   0.27058 
 C                    -0.47835  -0.90499   0.2386 
 C                     0.87268  -0.78248  -0.02715 
 F                     1.65908  -1.84131   0.20463 
 H                     5.30052  -0.0931   -1.35606 
 H                     5.28776   1.5188   -0.62389 
 H                     5.8754    0.13203   0.30706 
 H                     3.04213   1.09107  -1.6051 
 H                     0.91585   2.31003  -1.36557 
 H                    -1.49883   2.10303  -0.93435 
 H                    -0.85322  -1.8182    0.67273 
 
 ITRead=  0  0  0  0  0  0  0  0  0  0  0  0  0  0  0  0  0  0  0
 MicOpt= -1 -1 -1 -1 -1 -1 -1 -1 -1 -1 -1 -1 -1 -1 -1 -1 -1 -1 -1
 NAtoms=     19 NQM=       19 NQMF=       0 NMMI=      0 NMMIF=      0
                NMic=       0 NMicF=      0.
                    Isotopes and Nuclear Properties:
 (Nuclear quadrupole moments (NQMom) in fm**2, nuclear magnetic moments (NMagM)
  in nuclear magnetons)

  Atom         1           2           3           4           5           6           7           8           9          10
 IAtWgt=          12          12          16          14          12          12          12          12          79          12
 AtmWgt=  12.0000000  12.0000000  15.9949146  14.0030740  12.0000000  12.0000000  12.0000000  12.0000000  78.9183361  12.0000000
 NucSpn=           0           0           0           2           0           0           0           0           3           0
 AtZEff=  -0.0000000  -0.0000000  -0.0000000  -0.0000000  -0.0000000  -0.0000000  -0.0000000  -0.0000000  -0.0000000  -0.0000000
 NQMom=    0.0000000   0.0000000   0.0000000   2.0440000   0.0000000   0.0000000   0.0000000   0.0000000  31.3000000   0.0000000
 NMagM=    0.0000000   0.0000000   0.0000000   0.4037610   0.0000000   0.0000000   0.0000000   0.0000000   2.1063990   0.0000000
 AtZNuc=   6.0000000   6.0000000   8.0000000   7.0000000   6.0000000   6.0000000   6.0000000   6.0000000  35.0000000   6.0000000

  Atom        11          12          13          14          15          16          17          18          19
 IAtWgt=          12          19           1           1           1           1           1           1           1
 AtmWgt=  12.0000000  18.9984032   1.0078250   1.0078250   1.0078250   1.0078250   1.0078250   1.0078250   1.0078250
 NucSpn=           0           1           1           1           1           1           1           1           1
 AtZEff=  -0.0000000  -0.0000000  -0.0000000  -0.0000000  -0.0000000  -0.0000000  -0.0000000  -0.0000000  -0.0000000
 NQMom=    0.0000000   0.0000000   0.0000000   0.0000000   0.0000000   0.0000000   0.0000000   0.0000000   0.0000000
 NMagM=    0.0000000   2.6288670   2.7928460   2.7928460   2.7928460   2.7928460   2.7928460   2.7928460   2.7928460
 AtZNuc=   6.0000000   9.0000000   1.0000000   1.0000000   1.0000000   1.0000000   1.0000000   1.0000000   1.0000000
 Leave Link  101 at Tue Sep 17 09:51:24 2024, MaxMem=  1342177280 cpu:               0.4 elap:               0.4
 (Enter /groups/ReismanLab/Software/Gaussian16_RevC/Linux_Binary_AVX2-enabled-CPU/g16/l103.exe)

 GradGradGradGradGradGradGradGradGradGradGradGradGradGradGradGradGradGrad
 Berny optimization.
 Initialization pass.
                           ----------------------------
                           !    Initial Parameters    !
                           ! (Angstroms and Degrees)  !
 --------------------------                            --------------------------
 ! Name  Definition              Value          Derivative Info.                !
 --------------------------------------------------------------------------------
 ! R1    R(1,2)                  1.5112         estimate D2E/DX2                !
 ! R2    R(1,13)                 1.0876         estimate D2E/DX2                !
 ! R3    R(1,14)                 1.0884         estimate D2E/DX2                !
 ! R4    R(1,15)                 1.0857         estimate D2E/DX2                !
 ! R5    R(2,3)                  1.2025         estimate D2E/DX2                !
 ! R6    R(2,4)                  1.3797         estimate D2E/DX2                !
 ! R7    R(4,5)                  1.3982         estimate D2E/DX2                !
 ! R8    R(4,16)                 1.0095         estimate D2E/DX2                !
 ! R9    R(5,6)                  1.3929         estimate D2E/DX2                !
 ! R10   R(5,11)                 1.3973         estimate D2E/DX2                !
 ! R11   R(6,7)                  1.3812         estimate D2E/DX2                !
 ! R12   R(6,17)                 1.0799         estimate D2E/DX2                !
 ! R13   R(7,8)                  1.385          estimate D2E/DX2                !
 ! R14   R(7,18)                 1.0785         estimate D2E/DX2                !
 ! R15   R(8,9)                  1.8985         estimate D2E/DX2                !
 ! R16   R(8,10)                 1.3837         estimate D2E/DX2                !
 ! R17   R(10,11)                1.3824         estimate D2E/DX2                !
 ! R18   R(10,19)                1.0784         estimate D2E/DX2                !
 ! R19   R(11,12)                1.3391         estimate D2E/DX2                !
 ! A1    A(2,1,13)             110.1697         estimate D2E/DX2                !
 ! A2    A(2,1,14)             110.2032         estimate D2E/DX2                !
 ! A3    A(2,1,15)             109.0512         estimate D2E/DX2                !
 ! A4    A(13,1,14)            108.906          estimate D2E/DX2                !
 ! A5    A(13,1,15)            109.4289         estimate D2E/DX2                !
 ! A6    A(14,1,15)            109.062          estimate D2E/DX2                !
 ! A7    A(1,2,3)              124.7091         estimate D2E/DX2                !
 ! A8    A(1,2,4)              112.237          estimate D2E/DX2                !
 ! A9    A(3,2,4)              123.0493         estimate D2E/DX2                !
 ! A10   A(2,4,5)              124.1518         estimate D2E/DX2                !
 ! A11   A(2,4,16)             117.7553         estimate D2E/DX2                !
 ! A12   A(5,4,16)             116.2297         estimate D2E/DX2                !
 ! A13   A(4,5,6)              120.6223         estimate D2E/DX2                !
 ! A14   A(4,5,11)             121.4893         estimate D2E/DX2                !
 ! A15   A(6,5,11)             117.882          estimate D2E/DX2                !
 ! A16   A(5,6,7)              121.3226         estimate D2E/DX2                !
 ! A17   A(5,6,17)             119.064          estimate D2E/DX2                !
 ! A18   A(7,6,17)             119.613          estimate D2E/DX2                !
 ! A19   A(6,7,8)              119.238          estimate D2E/DX2                !
 ! A20   A(6,7,18)             120.4652         estimate D2E/DX2                !
 ! A21   A(8,7,18)             120.2947         estimate D2E/DX2                !
 ! A22   A(7,8,9)              119.5749         estimate D2E/DX2                !
 ! A23   A(7,8,10)             121.0768         estimate D2E/DX2                !
 ! A24   A(9,8,10)             119.3394         estimate D2E/DX2                !
 ! A25   A(8,10,11)            118.8199         estimate D2E/DX2                !
 ! A26   A(8,10,19)            121.6886         estimate D2E/DX2                !
 ! A27   A(11,10,19)           119.4839         estimate D2E/DX2                !
 ! A28   A(5,11,10)            121.6036         estimate D2E/DX2                !
 ! A29   A(5,11,12)            120.2546         estimate D2E/DX2                !
 ! A30   A(10,11,12)           118.0728         estimate D2E/DX2                !
 ! D1    D(13,1,2,3)           124.5339         estimate D2E/DX2                !
 ! D2    D(13,1,2,4)           -56.2294         estimate D2E/DX2                !
 ! D3    D(14,1,2,3)          -115.2681         estimate D2E/DX2                !
 ! D4    D(14,1,2,4)            63.9686         estimate D2E/DX2                !
 ! D5    D(15,1,2,3)             4.4179         estimate D2E/DX2                !
 ! D6    D(15,1,2,4)          -176.3454         estimate D2E/DX2                !
 ! D7    D(1,2,4,5)           -179.7657         estimate D2E/DX2                !
 ! D8    D(1,2,4,16)           -15.924          estimate D2E/DX2                !
 ! D9    D(3,2,4,5)             -0.5143         estimate D2E/DX2                !
 ! D10   D(3,2,4,16)           163.3274         estimate D2E/DX2                !
 ! D11   D(2,4,5,6)            133.5157         estimate D2E/DX2                !
 ! D12   D(2,4,5,11)           -47.4281         estimate D2E/DX2                !
 ! D13   D(16,4,5,6)           -30.5496         estimate D2E/DX2                !
 ! D14   D(16,4,5,11)          148.5066         estimate D2E/DX2                !
 ! D15   D(4,5,6,7)           -179.2002         estimate D2E/DX2                !
 ! D16   D(4,5,6,17)             0.5494         estimate D2E/DX2                !
 ! D17   D(11,5,6,7)             1.7104         estimate D2E/DX2                !
 ! D18   D(11,5,6,17)         -178.54           estimate D2E/DX2                !
 ! D19   D(4,5,11,10)          178.2957         estimate D2E/DX2                !
 ! D20   D(4,5,11,12)           -4.784          estimate D2E/DX2                !
 ! D21   D(6,5,11,10)           -2.6231         estimate D2E/DX2                !
 ! D22   D(6,5,11,12)          174.2972         estimate D2E/DX2                !
 ! D23   D(5,6,7,8)              0.4009         estimate D2E/DX2                !
 ! D24   D(5,6,7,18)           179.8719         estimate D2E/DX2                !
 ! D25   D(17,6,7,8)          -179.3473         estimate D2E/DX2                !
 ! D26   D(17,6,7,18)            0.1237         estimate D2E/DX2                !
 ! D27   D(6,7,8,9)            179.3818         estimate D2E/DX2                !
 ! D28   D(6,7,8,10)            -1.7117         estimate D2E/DX2                !
 ! D29   D(18,7,8,9)            -0.0902         estimate D2E/DX2                !
 ! D30   D(18,7,8,10)          178.8163         estimate D2E/DX2                !
 ! D31   D(7,8,10,11)            0.8299         estimate D2E/DX2                !
 ! D32   D(7,8,10,19)         -178.157          estimate D2E/DX2                !
 ! D33   D(9,8,10,11)          179.739          estimate D2E/DX2                !
 ! D34   D(9,8,10,19)            0.7521         estimate D2E/DX2                !
 ! D35   D(8,10,11,5)            1.3854         estimate D2E/DX2                !
 ! D36   D(8,10,11,12)        -175.5997         estimate D2E/DX2                !
 ! D37   D(19,10,11,5)        -179.6049         estimate D2E/DX2                !
 ! D38   D(19,10,11,12)          3.41           estimate D2E/DX2                !
 --------------------------------------------------------------------------------
 Trust Radius=3.00D-01 FncErr=1.00D-07 GrdErr=1.00D-06 EigMax=2.50D+02 EigMin=1.00D-04
 Number of steps in this run=     97 maximum allowed number of steps=    114.
 GradGradGradGradGradGradGradGradGradGradGradGradGradGradGradGradGradGrad

 Leave Link  103 at Tue Sep 17 09:51:24 2024, MaxMem=  1342177280 cpu:               0.1 elap:               0.0
 (Enter /groups/ReismanLab/Software/Gaussian16_RevC/Linux_Binary_AVX2-enabled-CPU/g16/l202.exe)
                          Input orientation:                          
 ---------------------------------------------------------------------
 Center     Atomic      Atomic             Coordinates (Angstroms)
 Number     Number       Type             X           Y           Z
 ---------------------------------------------------------------------
      1          6           0        5.147803    0.456966   -0.430341
      2          6           0        3.757120    0.202653    0.103534
      3          8           0        3.511888   -0.212489    1.205128
      4          7           0        2.778790    0.518166   -0.816689
      5          6           0        1.407142    0.383540   -0.581401
      6          6           0        0.526106    1.409857   -0.914058
      7          6           0       -0.829343    1.298878   -0.673054
      8          6           0       -1.319080    0.146454   -0.081155
      9         35           0       -3.178200   -0.008961    0.270579
     10          6           0       -0.478351   -0.904993    0.238601
     11          6           0        0.872679   -0.782482   -0.027149
     12          9           0        1.659084   -1.841312    0.204631
     13          1           0        5.300516   -0.093104   -1.356064
     14          1           0        5.287764    1.518797   -0.623886
     15          1           0        5.875402    0.132030    0.307060
     16          1           0        3.042134    1.091068   -1.605097
     17          1           0        0.915846    2.310034   -1.365573
     18          1           0       -1.498834    2.103029   -0.934351
     19          1           0       -0.853219   -1.818199    0.672729
 ---------------------------------------------------------------------
                    Distance matrix (angstroms):
                    1          2          3          4          5
     1  C    0.000000
     2  C    1.511191   0.000000
     3  O    2.408142   1.202494   0.000000
     4  N    2.401090   1.379669   2.271350   0.000000
     5  C    3.744430   2.454435   2.824339   1.398179   0.000000
     6  C    4.743635   3.596149   4.004728   2.424703   1.392915
     7  C    6.041027   4.779167   4.965690   3.694424   2.418287
     8  C    6.483743   5.079869   5.012146   4.179919   2.781859
     9  Br   8.368436   6.940559   6.758112   6.078302   4.680309
    10  C    5.827180   4.379992   4.163621   3.707828   2.426480
    11  C    4.469395   3.050831   2.967966   2.438918   1.397303
    12  F    4.225687   2.930831   2.662131   2.804277   2.373033
    13  H    1.087594   2.144753   3.126203   2.650222   3.998206
    14  H    1.088363   2.145751   3.081620   2.708022   4.043493
    15  H    1.085699   2.129209   2.551748   3.316763   4.562671
    16  H    2.493187   2.054240   3.133256   1.009531   2.054689
    17  H    4.713596   3.830427   4.439714   2.642466   2.137213
    18  H    6.865955   5.684513   5.919994   4.563300   3.394984
    19  H    6.511943   5.065871   4.681443   4.568201   3.395546
                    6          7          8          9         10
     6  C    0.000000
     7  C    1.381173   0.000000
     8  C    2.386341   1.385015   0.000000
     9  Br   4.139842   2.849213   1.898473   0.000000
    10  C    2.774182   2.410676   1.383694   2.844835   0.000000
    11  C    2.390203   2.765164   2.381102   4.134803   1.382357
    12  F    3.620111   4.101633   3.591983   5.173121   2.333768
    13  H    5.024863   6.322917   6.745504   8.633752   6.049580
    14  H    4.771735   6.121256   6.769658   8.649084   6.314010
    15  H    5.633733   6.875737   7.204963   9.054774   6.438189
    16  H    2.628604   3.987508   4.715387   6.589445   4.447167
    17  H    1.079853   2.132534   3.365367   4.981560   3.854031
    18  H    2.140393   1.078496   2.142065   2.955102   3.386060
    19  H    3.852373   3.395272   2.155280   2.973316   1.078397
                   11         12         13         14         15
    11  C    0.000000
    12  F    1.339132   0.000000
    13  H    4.674077   4.330361   0.000000
    14  H    5.014475   5.014388   1.770444   0.000000
    15  H    5.096594   4.656384   1.774024   1.770621   0.000000
    16  H    3.272101   3.713057   2.562141   2.487686   3.550141
    17  H    3.370000   4.500179   5.000049   4.504423   5.669092
    18  H    3.843601   5.179532   7.157653   6.818770   7.733388
    19  H    2.131023   2.555644   6.705252   7.108335   7.015087
                   16         17         18         19
    16  H    0.000000
    17  H    2.462591   0.000000
    18  H    4.700464   2.461601   0.000000
    19  H    5.368994   4.932198   4.286672   0.000000
 Stoichiometry    C8H7BrFNO
 Framework group  C1[X(C8H7BrFNO)]
 Deg. of freedom    51
 Full point group                 C1      NOp   1
 Largest Abelian subgroup         C1      NOp   1
 Largest concise Abelian subgroup C1      NOp   1
                         Standard orientation:                         
 ---------------------------------------------------------------------
 Center     Atomic      Atomic             Coordinates (Angstroms)
 Number     Number       Type             X           Y           Z
 ---------------------------------------------------------------------
      1          6           0        4.955290    0.419474    0.018911
      2          6           0        3.540245   -0.014886    0.323336
      3          8           0        3.243139   -0.889852    1.092851
      4          7           0        2.606142    0.722446   -0.374719
      5          6           0        1.224307    0.532938   -0.277141
      6          6           0        0.368330    1.620532   -0.120119
      7          6           0       -0.997351    1.448773   -0.005859
      8          6           0       -1.523304    0.167966   -0.040134
      9         35           0       -3.397416   -0.080346    0.133779
     10          6           0       -0.707264   -0.934632   -0.221701
     11          6           0        0.655193   -0.740984   -0.352554
     12          9           0        1.420746   -1.807387   -0.617106
     13          1           0        5.143230    0.362187   -1.050789
     14          1           0        5.113528    1.443981    0.350393
     15          1           0        5.646830   -0.233446    0.542562
     16          1           0        2.909106    1.589752   -0.793222
     17          1           0        0.785878    2.615719   -0.083541
     18          1           0       -1.647199    2.300641    0.117313
     19          1           0       -1.109316   -1.933624   -0.279222
 ---------------------------------------------------------------------
 Rotational constants (GHZ):           2.3078632           0.2725857           0.2526648
 Leave Link  202 at Tue Sep 17 09:51:24 2024, MaxMem=  1342177280 cpu:               0.1 elap:               0.0
 (Enter /groups/ReismanLab/Software/Gaussian16_RevC/Linux_Binary_AVX2-enabled-CPU/g16/l301.exe)
 Standard basis: 6-31G(d,p) (6D, 7F)
 Ernie: Thresh=  0.10000D-02 Tol=  0.10000D-05 Strict=F.
 There are   230 symmetry adapted cartesian basis functions of A   symmetry.
 There are   230 symmetry adapted basis functions of A   symmetry.
   230 basis functions,   440 primitive gaussians,   230 cartesian basis functions
    57 alpha electrons       57 beta electrons
       nuclear repulsion energy       926.4758212172 Hartrees.
 IExCor=  402 DFT=T Ex+Corr=B3LYP ExCW=0 ScaHFX=  0.200000
 ScaDFX=  0.800000  0.720000  1.000000  0.810000 ScalE2=  1.000000  1.000000
 IRadAn=      5 IRanWt=     -1 IRanGd=            0 ICorTp=0 IEmpDi=141
 NAtoms=   19 NActive=   19 NUniq=   19 SFac= 1.00D+00 NAtFMM=   60 NAOKFM=F Big=F
 Integral buffers will be    131072 words long.
 Raffenetti 2 integral format.
 Two-electron integral symmetry is turned on.
 R6Disp:  Grimme-D3(BJ) Dispersion energy=       -0.0382586703 Hartrees.
 Nuclear repulsion after empirical dispersion term =      926.4375625469 Hartrees.
 Leave Link  301 at Tue Sep 17 09:51:24 2024, MaxMem=  1342177280 cpu:               0.1 elap:               0.1
 (Enter /groups/ReismanLab/Software/Gaussian16_RevC/Linux_Binary_AVX2-enabled-CPU/g16/l302.exe)
 NPDir=0 NMtPBC=     1 NCelOv=     1 NCel=       1 NClECP=     1 NCelD=      1
         NCelK=      1 NCelE2=     1 NClLst=     1 CellRange=     0.0.
 One-electron integrals computed using PRISM.
 One-electron integral symmetry used in STVInt
 NBasis=   230 RedAO= T EigKep=  3.70D-04  NBF=   230
 NBsUse=   230 1.00D-06 EigRej= -1.00D+00 NBFU=   230
 Precomputing XC quadrature grid using
 IXCGrd= 4 IRadAn=           5 IRanWt=          -1 IRanGd=           0 AccXCQ= 0.00D+00.
 Generated NRdTot=       0 NPtTot=           0 NUsed=           0 NTot=          32
 NSgBfM=   227   227   227   227   227 MxSgAt=    19 MxSgA2=    19.
 Leave Link  302 at Tue Sep 17 09:51:25 2024, MaxMem=  1342177280 cpu:               1.1 elap:               0.2
 (Enter /groups/ReismanLab/Software/Gaussian16_RevC/Linux_Binary_AVX2-enabled-CPU/g16/l303.exe)
 DipDrv:  MaxL=1.
 Leave Link  303 at Tue Sep 17 09:51:25 2024, MaxMem=  1342177280 cpu:               0.1 elap:               0.1
 (Enter /groups/ReismanLab/Software/Gaussian16_RevC/Linux_Binary_AVX2-enabled-CPU/g16/l401.exe)
 ExpMin= 1.43D-01 ExpMax= 5.74D+05 ExpMxC= 5.74D+03 IAcc=3 IRadAn=         5 AccDes= 0.00D+00
 Harris functional with IExCor=  402 and IRadAn=       5 diagonalized for initial guess.
 HarFok:  IExCor=  402 AccDes= 0.00D+00 IRadAn=         5 IDoV= 1 UseB2=F ITyADJ=14
 ICtDFT=  3500011 ScaDFX=  1.000000  1.000000  1.000000  1.000000
 FoFCou: FMM=F IPFlag=           0 FMFlag=      100000 FMFlg1=           0
         NFxFlg=           0 DoJE=T BraDBF=F KetDBF=T FulRan=T
         wScrn=  0.000000 ICntrl=       500 IOpCl=  0 I1Cent=   200000004 NGrid=           0
         NMat0=    1 NMatS0=      1 NMatT0=    0 NMatD0=    1 NMtDS0=    0 NMtDT0=    0
 Petite list used in FoFCou.
 Harris En= -3110.75942412865    
 JPrj=0 DoOrth=F DoCkMO=F.
 Leave Link  401 at Tue Sep 17 09:51:25 2024, MaxMem=  1342177280 cpu:               5.1 elap:               0.7
 (Enter /groups/ReismanLab/Software/Gaussian16_RevC/Linux_Binary_AVX2-enabled-CPU/g16/l502.exe)
 Integral symmetry usage will be decided dynamically.
 Closed shell SCF:
 Using DIIS extrapolation, IDIIS=  1040.
 NGot=  1342177280 LenX=  1342066761 LenY=  1342013420
 Requested convergence on RMS density matrix=1.00D-08 within  32 cycles.
 Requested convergence on MAX density matrix=1.00D-06.
 Requested convergence on             energy=1.00D-06.
 No special actions if energy rises.
 Fock matrices will be formed incrementally for  20 cycles.
 Integral accuracy reduced to 1.0D-05 until final iterations.

 Cycle   1  Pass 0  IDiag  1:
 FoFJK:  IHMeth= 1 ICntrl=       0 DoSepK=F KAlg= 0 I1Cent=           0 FoldK=F
 IRaf= 840000000 NMat=       1 IRICut=       1 DoRegI=T DoRafI=F ISym2E= 0 IDoP0=0 IntGTp=1.
 FoFCou: FMM=F IPFlag=           0 FMFlag=      100000 FMFlg1=           0
         NFxFlg=           0 DoJE=F BraDBF=F KetDBF=F FulRan=T
         wScrn=  0.000000 ICntrl=         0 IOpCl=  0 I1Cent=           0 NGrid=           0
         NMat0=    1 NMatS0=      1 NMatT0=    0 NMatD0=    1 NMtDS0=    0 NMtDT0=    0
 Symmetry not used in FoFCou.
 E= -3110.36256847632    
 DIIS: error= 1.93D-01 at cycle   1 NSaved=   1.
 NSaved= 1 IEnMin= 1 EnMin= -3110.36256847632     IErMin= 1 ErrMin= 1.93D-01
 ErrMax= 1.93D-01  0.00D+00 EMaxC= 1.00D-01 BMatC= 6.52D-01 BMatP= 6.52D-01
 IDIUse=3 WtCom= 0.00D+00 WtEn= 1.00D+00
 Coeff-Com:  0.100D+01
 Coeff-En:   0.100D+01
 Coeff:      0.100D+01
 Gap=     0.237 Goal=   None    Shift=    0.000
 GapD=    0.237 DampG=1.000 DampE=0.250 DampFc=0.2500 IDamp=-1.
 Damping current iteration by 2.50D-01
 RMSDP=6.34D-03 MaxDP=2.41D-01              OVMax= 2.74D-01

 Cycle   2  Pass 0  IDiag  1:
 RMSU=  1.56D-03    CP:  9.93D-01
 E= -3110.46111877638     Delta-E=       -0.098550300060 Rises=F Damp=T
 DIIS: error= 1.43D-01 at cycle   2 NSaved=   2.
 NSaved= 2 IEnMin= 2 EnMin= -3110.46111877638     IErMin= 2 ErrMin= 1.43D-01
 ErrMax= 1.43D-01  0.00D+00 EMaxC= 1.00D-01 BMatC= 2.56D-01 BMatP= 6.52D-01
 IDIUse=3 WtCom= 0.00D+00 WtEn= 1.00D+00
 Coeff-Com: -0.101D+01 0.201D+01
 Coeff-En:   0.000D+00 0.100D+01
 Coeff:      0.000D+00 0.100D+01
 Gap=     0.226 Goal=   None    Shift=    0.000
 RMSDP=2.59D-03 MaxDP=1.10D-01 DE=-9.86D-02 OVMax= 1.28D-01

 Cycle   3  Pass 0  IDiag  1:
 RMSU=  1.49D-03    CP:  9.72D-01  2.24D+00
 E= -3110.58747328458     Delta-E=       -0.126354508198 Rises=F Damp=F
 DIIS: error= 9.63D-03 at cycle   3 NSaved=   3.
 NSaved= 3 IEnMin= 3 EnMin= -3110.58747328458     IErMin= 3 ErrMin= 9.63D-03
 ErrMax= 9.63D-03  0.00D+00 EMaxC= 1.00D-01 BMatC= 5.93D-02 BMatP= 2.56D-01
 IDIUse=3 WtCom= 9.04D-01 WtEn= 9.63D-02
 Coeff-Com:  0.587D+00-0.595D+00 0.101D+01
 Coeff-En:   0.117D+00 0.000D+00 0.883D+00
 Coeff:      0.542D+00-0.537D+00 0.996D+00
 Gap=     0.209 Goal=   None    Shift=    0.000
 RMSDP=1.46D-03 MaxDP=4.97D-02 DE=-1.26D-01 OVMax= 6.37D-02

 Cycle   4  Pass 0  IDiag  1:
 RMSU=  1.07D-03    CP:  9.73D-01  1.66D+00  7.31D-01
 E= -3110.62033258686     Delta-E=       -0.032859302277 Rises=F Damp=F
 DIIS: error= 6.93D-03 at cycle   4 NSaved=   4.
 NSaved= 4 IEnMin= 4 EnMin= -3110.62033258686     IErMin= 4 ErrMin= 6.93D-03
 ErrMax= 6.93D-03  0.00D+00 EMaxC= 1.00D-01 BMatC= 2.40D-02 BMatP= 5.93D-02
 IDIUse=3 WtCom= 9.31D-01 WtEn= 6.93D-02
 Coeff-Com:  0.486D+00-0.623D+00 0.639D+00 0.497D+00
 Coeff-En:   0.000D+00 0.000D+00 0.241D+00 0.759D+00
 Coeff:      0.453D+00-0.580D+00 0.612D+00 0.516D+00
 Gap=     0.209 Goal=   None    Shift=    0.000
 RMSDP=7.53D-04 MaxDP=2.71D-02 DE=-3.29D-02 OVMax= 4.66D-02

 Cycle   5  Pass 0  IDiag  1:
 RMSU=  2.45D-04    CP:  9.72D-01  1.64D+00  9.44D-01  4.07D-01
 E= -3110.64181102293     Delta-E=       -0.021478436073 Rises=F Damp=F
 DIIS: error= 1.08D-03 at cycle   5 NSaved=   5.
 NSaved= 5 IEnMin= 5 EnMin= -3110.64181102293     IErMin= 5 ErrMin= 1.08D-03
 ErrMax= 1.08D-03  0.00D+00 EMaxC= 1.00D-01 BMatC= 1.09D-03 BMatP= 2.40D-02
 IDIUse=3 WtCom= 9.89D-01 WtEn= 1.08D-02
 Coeff-Com:  0.245D+00-0.318D+00 0.322D+00 0.293D+00 0.457D+00
 Coeff-En:   0.000D+00 0.000D+00 0.000D+00 0.000D+00 0.100D+01
 Coeff:      0.242D+00-0.314D+00 0.319D+00 0.290D+00 0.463D+00
 Gap=     0.204 Goal=   None    Shift=    0.000
 RMSDP=2.01D-04 MaxDP=7.52D-03 DE=-2.15D-02 OVMax= 1.46D-02

 Cycle   6  Pass 0  IDiag  1:
 RMSU=  9.41D-05    CP:  9.73D-01  1.66D+00  9.34D-01  4.81D-01  3.76D-01
 E= -3110.64277678957     Delta-E=       -0.000965766638 Rises=F Damp=F
 DIIS: error= 4.11D-04 at cycle   6 NSaved=   6.
 NSaved= 6 IEnMin= 6 EnMin= -3110.64277678957     IErMin= 6 ErrMin= 4.11D-04
 ErrMax= 4.11D-04  0.00D+00 EMaxC= 1.00D-01 BMatC= 9.93D-05 BMatP= 1.09D-03
 IDIUse=3 WtCom= 9.96D-01 WtEn= 4.11D-03
 Coeff-Com:  0.700D-01-0.916D-01 0.859D-01 0.789D-01 0.260D+00 0.597D+00
 Coeff-En:   0.000D+00 0.000D+00 0.000D+00 0.000D+00 0.760D-01 0.924D+00
 Coeff:      0.697D-01-0.912D-01 0.856D-01 0.785D-01 0.259D+00 0.598D+00
 Gap=     0.204 Goal=   None    Shift=    0.000
 RMSDP=5.81D-05 MaxDP=1.72D-03 DE=-9.66D-04 OVMax= 4.51D-03

 Cycle   7  Pass 0  IDiag  1:
 RMSU=  2.77D-05    CP:  9.72D-01  1.66D+00  9.40D-01  4.78D-01  4.85D-01
                    CP:  5.56D-01
 E= -3110.64287117814     Delta-E=       -0.000094388576 Rises=F Damp=F
 DIIS: error= 1.07D-04 at cycle   7 NSaved=   7.
 NSaved= 7 IEnMin= 7 EnMin= -3110.64287117814     IErMin= 7 ErrMin= 1.07D-04
 ErrMax= 1.07D-04  0.00D+00 EMaxC= 1.00D-01 BMatC= 9.04D-06 BMatP= 9.93D-05
 IDIUse=3 WtCom= 9.99D-01 WtEn= 1.07D-03
 Coeff-Com:  0.253D-01-0.334D-01 0.283D-01 0.237D-01 0.115D+00 0.337D+00
 Coeff-Com:  0.504D+00
 Coeff-En:   0.000D+00 0.000D+00 0.000D+00 0.000D+00 0.000D+00 0.000D+00
 Coeff-En:   0.100D+01
 Coeff:      0.253D-01-0.334D-01 0.282D-01 0.236D-01 0.115D+00 0.337D+00
 Coeff:      0.505D+00
 Gap=     0.204 Goal=   None    Shift=    0.000
 RMSDP=1.57D-05 MaxDP=5.56D-04 DE=-9.44D-05 OVMax= 1.25D-03

 Cycle   8  Pass 0  IDiag  1:
 RMSU=  9.05D-06    CP:  9.72D-01  1.65D+00  9.41D-01  4.75D-01  4.91D-01
                    CP:  6.23D-01  6.62D-01
 E= -3110.64287978181     Delta-E=       -0.000008603662 Rises=F Damp=F
 DIIS: error= 3.95D-05 at cycle   8 NSaved=   8.
 NSaved= 8 IEnMin= 8 EnMin= -3110.64287978181     IErMin= 8 ErrMin= 3.95D-05
 ErrMax= 3.95D-05  0.00D+00 EMaxC= 1.00D-01 BMatC= 6.66D-07 BMatP= 9.04D-06
 IDIUse=1 WtCom= 1.00D+00 WtEn= 0.00D+00
 Coeff-Com:  0.567D-02-0.760D-02 0.521D-02 0.287D-02 0.289D-01 0.106D+00
 Coeff-Com:  0.262D+00 0.597D+00
 Coeff:      0.567D-02-0.760D-02 0.521D-02 0.287D-02 0.289D-01 0.106D+00
 Coeff:      0.262D+00 0.597D+00
 Gap=     0.204 Goal=   None    Shift=    0.000
 RMSDP=4.55D-06 MaxDP=1.39D-04 DE=-8.60D-06 OVMax= 2.27D-04

 Initial convergence to 1.0D-05 achieved.  Increase integral accuracy.
 Cycle   9  Pass 1  IDiag  1:
 E= -3110.64288685390     Delta-E=       -0.000007072093 Rises=F Damp=F
 DIIS: error= 2.93D-05 at cycle   1 NSaved=   1.
 NSaved= 1 IEnMin= 1 EnMin= -3110.64288685390     IErMin= 1 ErrMin= 2.93D-05
 ErrMax= 2.93D-05  0.00D+00 EMaxC= 1.00D-01 BMatC= 2.24D-07 BMatP= 2.24D-07
 IDIUse=1 WtCom= 1.00D+00 WtEn= 0.00D+00
 Coeff-Com:  0.100D+01
 Coeff:      0.100D+01
 Gap=     0.204 Goal=   None    Shift=    0.000
 RMSDP=4.55D-06 MaxDP=1.39D-04 DE=-7.07D-06 OVMax= 2.75D-04

 Cycle  10  Pass 1  IDiag  1:
 RMSU=  1.92D-05    CP:  1.00D+00
 E= -3110.64288678145     Delta-E=        0.000000072449 Rises=F Damp=F
 DIIS: error= 2.56D-05 at cycle   2 NSaved=   2.
 NSaved= 2 IEnMin= 1 EnMin= -3110.64288685390     IErMin= 2 ErrMin= 2.56D-05
 ErrMax= 2.56D-05  0.00D+00 EMaxC= 1.00D-01 BMatC= 2.29D-07 BMatP= 2.24D-07
 IDIUse=1 WtCom= 1.00D+00 WtEn= 0.00D+00
 Coeff-Com:  0.504D+00 0.496D+00
 Coeff:      0.504D+00 0.496D+00
 Gap=     0.204 Goal=   None    Shift=    0.000
 RMSDP=3.31D-06 MaxDP=1.16D-04 DE= 7.24D-08 OVMax= 2.63D-04

 Cycle  11  Pass 1  IDiag  1:
 RMSU=  3.30D-06    CP:  1.00D+00  9.87D-01
 E= -3110.64288696953     Delta-E=       -0.000000188078 Rises=F Damp=F
 DIIS: error= 1.31D-05 at cycle   3 NSaved=   3.
 NSaved= 3 IEnMin= 3 EnMin= -3110.64288696953     IErMin= 3 ErrMin= 1.31D-05
 ErrMax= 1.31D-05  0.00D+00 EMaxC= 1.00D-01 BMatC= 5.67D-08 BMatP= 2.24D-07
 IDIUse=1 WtCom= 1.00D+00 WtEn= 0.00D+00
 Coeff-Com:  0.439D-01 0.328D+00 0.628D+00
 Coeff:      0.439D-01 0.328D+00 0.628D+00
 Gap=     0.204 Goal=   None    Shift=    0.000
 RMSDP=1.26D-06 MaxDP=4.99D-05 DE=-1.88D-07 OVMax= 1.08D-04

 Cycle  12  Pass 1  IDiag  1:
 RMSU=  6.63D-07    CP:  1.00D+00  9.98D-01  6.80D-01
 E= -3110.64288702801     Delta-E=       -0.000000058480 Rises=F Damp=F
 DIIS: error= 2.37D-06 at cycle   4 NSaved=   4.
 NSaved= 4 IEnMin= 4 EnMin= -3110.64288702801     IErMin= 4 ErrMin= 2.37D-06
 ErrMax= 2.37D-06  0.00D+00 EMaxC= 1.00D-01 BMatC= 5.49D-09 BMatP= 5.67D-08
 IDIUse=1 WtCom= 1.00D+00 WtEn= 0.00D+00
 Coeff-Com:  0.190D-03 0.179D+00 0.391D+00 0.431D+00
 Coeff:      0.190D-03 0.179D+00 0.391D+00 0.431D+00
 Gap=     0.204 Goal=   None    Shift=    0.000
 RMSDP=3.81D-07 MaxDP=1.28D-05 DE=-5.85D-08 OVMax= 2.25D-05

 Cycle  13  Pass 1  IDiag  1:
 RMSU=  1.41D-07    CP:  1.00D+00  1.00D+00  6.92D-01  4.71D-01
 E= -3110.64288703276     Delta-E=       -0.000000004756 Rises=F Damp=F
 DIIS: error= 6.69D-07 at cycle   5 NSaved=   5.
 NSaved= 5 IEnMin= 5 EnMin= -3110.64288703276     IErMin= 5 ErrMin= 6.69D-07
 ErrMax= 6.69D-07  0.00D+00 EMaxC= 1.00D-01 BMatC= 2.50D-10 BMatP= 5.49D-09
 IDIUse=1 WtCom= 1.00D+00 WtEn= 0.00D+00
 Coeff-Com: -0.176D-02 0.952D-01 0.213D+00 0.265D+00 0.428D+00
 Coeff:     -0.176D-02 0.952D-01 0.213D+00 0.265D+00 0.428D+00
 Gap=     0.204 Goal=   None    Shift=    0.000
 RMSDP=7.51D-08 MaxDP=2.53D-06 DE=-4.76D-09 OVMax= 3.85D-06

 Cycle  14  Pass 1  IDiag  1:
 RMSU=  3.77D-08    CP:  1.00D+00  1.00D+00  6.93D-01  4.73D-01  5.42D-01
 E= -3110.64288703300     Delta-E=       -0.000000000241 Rises=F Damp=F
 DIIS: error= 1.47D-07 at cycle   6 NSaved=   6.
 NSaved= 6 IEnMin= 6 EnMin= -3110.64288703300     IErMin= 6 ErrMin= 1.47D-07
 ErrMax= 1.47D-07  0.00D+00 EMaxC= 1.00D-01 BMatC= 1.20D-11 BMatP= 2.50D-10
 IDIUse=1 WtCom= 1.00D+00 WtEn= 0.00D+00
 Coeff-Com: -0.106D-02 0.444D-01 0.100D+00 0.128D+00 0.252D+00 0.477D+00
 Coeff:     -0.106D-02 0.444D-01 0.100D+00 0.128D+00 0.252D+00 0.477D+00
 Gap=     0.204 Goal=   None    Shift=    0.000
 RMSDP=1.58D-08 MaxDP=5.53D-07 DE=-2.41D-10 OVMax= 6.40D-07

 Cycle  15  Pass 1  IDiag  1:
 RMSU=  1.36D-08    CP:  1.00D+00  1.00D+00  6.93D-01  4.69D-01  5.56D-01
                    CP:  8.09D-01
 E= -3110.64288703300     Delta-E=        0.000000000003 Rises=F Damp=F
 DIIS: error= 2.23D-08 at cycle   7 NSaved=   7.
 NSaved= 7 IEnMin= 6 EnMin= -3110.64288703300     IErMin= 7 ErrMin= 2.23D-08
 ErrMax= 2.23D-08  0.00D+00 EMaxC= 1.00D-01 BMatC= 4.58D-13 BMatP= 1.20D-11
 IDIUse=1 WtCom= 1.00D+00 WtEn= 0.00D+00
 Coeff-Com: -0.289D-03 0.104D-01 0.238D-01 0.309D-01 0.716D-01 0.205D+00
 Coeff-Com:  0.659D+00
 Coeff:     -0.289D-03 0.104D-01 0.238D-01 0.309D-01 0.716D-01 0.205D+00
 Coeff:      0.659D+00
 Gap=     0.204 Goal=   None    Shift=    0.000
 RMSDP=4.92D-09 MaxDP=1.29D-07 DE= 2.73D-12 OVMax= 2.70D-07

 SCF Done:  E(RB3LYP) =  -3110.64288703     A.U. after   15 cycles
            NFock= 15  Conv=0.49D-08     -V/T= 2.0065
 KE= 3.090440524876D+03 PE=-9.245554359966D+03 EE= 2.118033385510D+03
 Leave Link  502 at Tue Sep 17 09:51:38 2024, MaxMem=  1342177280 cpu:              89.9 elap:              12.1
 (Enter /groups/ReismanLab/Software/Gaussian16_RevC/Linux_Binary_AVX2-enabled-CPU/g16/l508.exe)
 QCSCF skips out because SCF is already converged.
 Leave Link  508 at Tue Sep 17 09:51:38 2024, MaxMem=  1342177280 cpu:               0.0 elap:               0.0
 (Enter /groups/ReismanLab/Software/Gaussian16_RevC/Linux_Binary_AVX2-enabled-CPU/g16/l601.exe)
 Copying SCF densities to generalized density rwf, IOpCl= 0 IROHF=0.

 **********************************************************************

            Population analysis using the SCF Density.

 **********************************************************************

 Orbital symmetries:
       Occupied  (A) (A) (A) (A) (A) (A) (A) (A) (A) (A) (A) (A)
                 (A) (A) (A) (A) (A) (A) (A) (A) (A) (A) (A) (A)
                 (A) (A) (A) (A) (A) (A) (A) (A) (A) (A) (A) (A)
                 (A) (A) (A) (A) (A) (A) (A) (A) (A) (A) (A) (A)
                 (A) (A) (A) (A) (A) (A) (A) (A) (A)
       Virtual   (A) (A) (A) (A) (A) (A) (A) (A) (A) (A) (A) (A)
                 (A) (A) (A) (A) (A) (A) (A) (A) (A) (A) (A) (A)
                 (A) (A) (A) (A) (A) (A) (A) (A) (A) (A) (A) (A)
                 (A) (A) (A) (A) (A) (A) (A) (A) (A) (A) (A) (A)
                 (A) (A) (A) (A) (A) (A) (A) (A) (A) (A) (A) (A)
                 (A) (A) (A) (A) (A) (A) (A) (A) (A) (A) (A) (A)
                 (A) (A) (A) (A) (A) (A) (A) (A) (A) (A) (A) (A)
                 (A) (A) (A) (A) (A) (A) (A) (A) (A) (A) (A) (A)
                 (A) (A) (A) (A) (A) (A) (A) (A) (A) (A) (A) (A)
                 (A) (A) (A) (A) (A) (A) (A) (A) (A) (A) (A) (A)
                 (A) (A) (A) (A) (A) (A) (A) (A) (A) (A) (A) (A)
                 (A) (A) (A) (A) (A) (A) (A) (A) (A) (A) (A) (A)
                 (A) (A) (A) (A) (A) (A) (A) (A) (A) (A) (A) (A)
                 (A) (A) (A) (A) (A) (A) (A) (A) (A) (A) (A) (A)
                 (A) (A) (A) (A) (A)
 The electronic state is 1-A.
 Alpha  occ. eigenvalues -- -482.91407 -61.87575 -56.39715 -56.39300 -56.39288
 Alpha  occ. eigenvalues --  -24.71075 -19.12259 -14.37850 -10.29636 -10.28378
 Alpha  occ. eigenvalues --  -10.25211 -10.24739 -10.21219 -10.20809 -10.20737
 Alpha  occ. eigenvalues --  -10.19734  -8.58721  -6.54124  -6.52839  -6.52812
 Alpha  occ. eigenvalues --   -2.65697  -2.65328  -2.65309  -2.64283  -2.64283
 Alpha  occ. eigenvalues --   -1.22529  -1.05146  -0.95212  -0.88245  -0.80912
 Alpha  occ. eigenvalues --   -0.76979  -0.76095  -0.71961  -0.64579  -0.62803
 Alpha  occ. eigenvalues --   -0.59357  -0.55667  -0.52425  -0.50754  -0.48803
 Alpha  occ. eigenvalues --   -0.46973  -0.46053  -0.45900  -0.45516  -0.41423
 Alpha  occ. eigenvalues --   -0.40931  -0.40740  -0.40006  -0.38866  -0.37326
 Alpha  occ. eigenvalues --   -0.36187  -0.32683  -0.29029  -0.28609  -0.26389
 Alpha  occ. eigenvalues --   -0.25866  -0.22901
 Alpha virt. eigenvalues --   -0.02498  -0.01081   0.00457   0.02865   0.06521
 Alpha virt. eigenvalues --    0.10465   0.12232   0.13928   0.14833   0.15242
 Alpha virt. eigenvalues --    0.15923   0.16929   0.19064   0.21831   0.22427
 Alpha virt. eigenvalues --    0.26801   0.28241   0.30037   0.31737   0.33108
 Alpha virt. eigenvalues --    0.34562   0.37443   0.44313   0.44998   0.46131
 Alpha virt. eigenvalues --    0.46142   0.47088   0.48152   0.48365   0.49683
 Alpha virt. eigenvalues --    0.51048   0.51992   0.52653   0.53477   0.55196
 Alpha virt. eigenvalues --    0.57115   0.58369   0.58631   0.58860   0.60108
 Alpha virt. eigenvalues --    0.61518   0.62934   0.65364   0.66480   0.69188
 Alpha virt. eigenvalues --    0.71651   0.72975   0.73388   0.74695   0.76689
 Alpha virt. eigenvalues --    0.78736   0.80627   0.81335   0.81916   0.84097
 Alpha virt. eigenvalues --    0.85526   0.86056   0.86978   0.87617   0.90639
 Alpha virt. eigenvalues --    0.91035   0.93778   0.96246   0.97276   1.00795
 Alpha virt. eigenvalues --    1.02918   1.05017   1.06372   1.10063   1.12652
 Alpha virt. eigenvalues --    1.17086   1.21255   1.22802   1.24014   1.27415
 Alpha virt. eigenvalues --    1.29247   1.33768   1.34406   1.34874   1.37825
 Alpha virt. eigenvalues --    1.38984   1.40016   1.41878   1.45816   1.46870
 Alpha virt. eigenvalues --    1.50011   1.53016   1.56843   1.60185   1.62070
 Alpha virt. eigenvalues --    1.70781   1.71628   1.74574   1.75682   1.77662
 Alpha virt. eigenvalues --    1.78355   1.80259   1.81831   1.85358   1.85795
 Alpha virt. eigenvalues --    1.88882   1.90407   1.91942   1.92752   1.93559
 Alpha virt. eigenvalues --    1.96834   1.98687   2.02038   2.03975   2.04566
 Alpha virt. eigenvalues --    2.05244   2.05679   2.06521   2.10240   2.12647
 Alpha virt. eigenvalues --    2.18353   2.21302   2.23905   2.24664   2.29140
 Alpha virt. eigenvalues --    2.30734   2.32179   2.33309   2.36444   2.38589
 Alpha virt. eigenvalues --    2.41700   2.42420   2.45630   2.48005   2.51581
 Alpha virt. eigenvalues --    2.54371   2.55747   2.58599   2.59501   2.60084
 Alpha virt. eigenvalues --    2.62204   2.64846   2.65565   2.71001   2.71760
 Alpha virt. eigenvalues --    2.75334   2.76579   2.79712   2.86879   2.88688
 Alpha virt. eigenvalues --    2.92135   2.99400   3.02647   3.06814   3.11103
 Alpha virt. eigenvalues --    3.13200   3.19255   3.21830   3.27858   3.32365
 Alpha virt. eigenvalues --    3.41424   3.42864   3.45547   3.54944   3.75419
 Alpha virt. eigenvalues --    4.01596   4.09844   4.12227   4.14370   4.21606
 Alpha virt. eigenvalues --    4.30300   4.40653   4.41094   4.58353   4.75884
 Alpha virt. eigenvalues --    5.71369   8.60400  72.81645
          Condensed to atoms (all electrons):
               1          2          3          4          5          6
     1  C    5.174129   0.345600  -0.076248  -0.139113   0.006020  -0.000298
     2  C    0.345600   4.367821   0.626388   0.210140  -0.017574   0.002461
     3  O   -0.076248   0.626388   7.997147  -0.105689   0.013128  -0.000054
     4  N   -0.139113   0.210140  -0.105689   7.210934   0.194281  -0.062951
     5  C    0.006020  -0.017574   0.013128   0.194281   4.886584   0.486736
     6  C   -0.000298   0.002461  -0.000054  -0.062951   0.486736   4.944907
     7  C    0.000004  -0.000026   0.000004   0.006562  -0.017212   0.490644
     8  C   -0.000000  -0.000023  -0.000005   0.000184  -0.030902  -0.029703
     9  Br   0.000000   0.000000  -0.000000   0.000001   0.000160   0.006036
    10  C    0.000001   0.000426  -0.000460   0.006148  -0.067651  -0.047284
    11  C    0.000358  -0.005511   0.004370  -0.052404   0.422547  -0.012523
    12  F   -0.000103   0.007307  -0.004596  -0.002354  -0.053534   0.003098
    13  H    0.366105  -0.028032   0.001234   0.004691   0.000249  -0.000020
    14  H    0.362581  -0.022285   0.001208   0.001626  -0.000398   0.000046
    15  H    0.370155  -0.020858   0.004351   0.005136  -0.000154   0.000003
    16  H    0.001021  -0.020505   0.003549   0.337208  -0.029692  -0.004198
    17  H   -0.000044   0.000092  -0.000007  -0.007513  -0.044446   0.364039
    18  H   -0.000000  -0.000000   0.000000  -0.000116   0.004166  -0.033980
    19  H   -0.000000  -0.000007   0.000007  -0.000106   0.006535   0.000109
               7          8          9         10         11         12
     1  C    0.000004  -0.000000   0.000000   0.000001   0.000358  -0.000103
     2  C   -0.000026  -0.000023   0.000000   0.000426  -0.005511   0.007307
     3  O    0.000004  -0.000005  -0.000000  -0.000460   0.004370  -0.004596
     4  N    0.006562   0.000184   0.000001   0.006148  -0.052404  -0.002354
     5  C   -0.017212  -0.030902   0.000160  -0.067651   0.422547  -0.053534
     6  C    0.490644  -0.029703   0.006036  -0.047284  -0.012523   0.003098
     7  C    4.885105   0.530216  -0.058901  -0.035817  -0.046297  -0.000035
     8  C    0.530216   4.838782   0.258495   0.458779  -0.008784   0.003402
     9  Br  -0.058901   0.258495  34.975807  -0.056164   0.004991  -0.000025
    10  C   -0.035817   0.458779  -0.056164   5.111050   0.460218  -0.043136
    11  C   -0.046297  -0.008784   0.004991   0.460218   4.570229   0.308838
    12  F   -0.000035   0.003402  -0.000025  -0.043136   0.308838   9.055977
    13  H   -0.000000   0.000000   0.000000  -0.000000   0.000006   0.000021
    14  H    0.000000  -0.000000  -0.000000   0.000000  -0.000015  -0.000001
    15  H   -0.000000  -0.000000  -0.000000  -0.000000  -0.000006   0.000002
    16  H    0.000018   0.000008  -0.000000  -0.000132   0.003388  -0.000064
    17  H   -0.031253   0.004508  -0.000171   0.000487   0.004235  -0.000021
    18  H    0.369259  -0.041594  -0.003069   0.005381   0.000522   0.000001
    19  H    0.005346  -0.041350  -0.004392   0.360270  -0.029866  -0.000674
              13         14         15         16         17         18
     1  C    0.366105   0.362581   0.370155   0.001021  -0.000044  -0.000000
     2  C   -0.028032  -0.022285  -0.020858  -0.020505   0.000092  -0.000000
     3  O    0.001234   0.001208   0.004351   0.003549  -0.000007   0.000000
     4  N    0.004691   0.001626   0.005136   0.337208  -0.007513  -0.000116
     5  C    0.000249  -0.000398  -0.000154  -0.029692  -0.044446   0.004166
     6  C   -0.000020   0.000046   0.000003  -0.004198   0.364039  -0.033980
     7  C   -0.000000   0.000000  -0.000000   0.000018  -0.031253   0.369259
     8  C    0.000000  -0.000000  -0.000000   0.000008   0.004508  -0.041594
     9  Br   0.000000  -0.000000  -0.000000  -0.000000  -0.000171  -0.003069
    10  C   -0.000000   0.000000  -0.000000  -0.000132   0.000487   0.005381
    11  C    0.000006  -0.000015  -0.000006   0.003388   0.004235   0.000522
    12  F    0.000021  -0.000001   0.000002  -0.000064  -0.000021   0.000001
    13  H    0.571256  -0.028769  -0.021261  -0.000260   0.000001   0.000000
    14  H   -0.028769   0.577005  -0.021085   0.001522  -0.000000   0.000000
    15  H   -0.021261  -0.021085   0.533385  -0.000169   0.000000   0.000000
    16  H   -0.000260   0.001522  -0.000169   0.441992   0.004371  -0.000007
    17  H    0.000001  -0.000000   0.000000   0.004371   0.618050  -0.006501
    18  H    0.000000   0.000000   0.000000  -0.000007  -0.006501   0.596282
    19  H   -0.000000   0.000000   0.000000   0.000003   0.000014  -0.000154
              19
     1  C   -0.000000
     2  C   -0.000007
     3  O    0.000007
     4  N   -0.000106
     5  C    0.006535
     6  C    0.000109
     7  C    0.005346
     8  C   -0.041350
     9  Br  -0.004392
    10  C    0.360270
    11  C   -0.029866
    12  F   -0.000674
    13  H   -0.000000
    14  H    0.000000
    15  H    0.000000
    16  H    0.000003
    17  H    0.000014
    18  H   -0.000154
    19  H    0.578620
 Mulliken charges:
               1
     1  C   -0.410168
     2  C    0.554586
     3  O   -0.464327
     4  N   -0.606665
     5  C    0.241157
     6  C   -0.107069
     7  C   -0.097617
     8  C    0.057985
     9  Br  -0.122768
    10  C   -0.152116
    11  C    0.375703
    12  F   -0.274104
    13  H    0.134779
    14  H    0.128564
    15  H    0.150501
    16  H    0.261946
    17  H    0.094159
    18  H    0.109809
    19  H    0.125645
 Sum of Mulliken charges =  -0.00000
 Mulliken charges with hydrogens summed into heavy atoms:
               1
     1  C    0.003676
     2  C    0.554586
     3  O   -0.464327
     4  N   -0.344719
     5  C    0.241157
     6  C   -0.012910
     7  C    0.012192
     8  C    0.057985
     9  Br  -0.122768
    10  C   -0.026471
    11  C    0.375703
    12  F   -0.274104
 Electronic spatial extent (au):  <R**2>=           3844.3653
 Charge=             -0.0000 electrons
 Dipole moment (field-independent basis, Debye):
    X=              1.7687    Y=              3.6846    Z=             -1.8993  Tot=              4.5068
 Quadrupole moment (field-independent basis, Debye-Ang):
   XX=            -73.0669   YY=            -75.0310   ZZ=            -83.4428
   XY=             10.7932   XZ=             -6.0986   YZ=              0.8671
 Traceless Quadrupole moment (field-independent basis, Debye-Ang):
   XX=              4.1133   YY=              2.1492   ZZ=             -6.2625
   XY=             10.7932   XZ=             -6.0986   YZ=              0.8671
 Octapole moment (field-independent basis, Debye-Ang**2):
  XXX=            -20.8426  YYY=             -3.0423  ZZZ=              0.1374  XYY=            -26.7376
  XXY=             25.0255  XXZ=            -16.2226  XZZ=            -28.4221  YZZ=             -3.9044
  YYZ=             -2.2701  XYZ=              2.0166
 Hexadecapole moment (field-independent basis, Debye-Ang**3):
 XXXX=          -3315.4187 YYYY=           -461.7216 ZZZZ=           -158.7248 XXXY=             82.8311
 XXXZ=            -68.2770 YYYX=             11.8250 YYYZ=              2.6608 ZZZX=            -22.4300
 ZZZY=              6.2278 XXYY=           -678.9544 XXZZ=           -655.3651 YYZZ=           -113.7535
 XXYZ=             13.2685 YYXZ=            -14.4774 ZZXY=              6.4078
 N-N= 9.264375625469D+02 E-N=-9.245554364661D+03  KE= 3.090440524876D+03
 No NMR shielding tensors so no spin-rotation constants.
 Leave Link  601 at Tue Sep 17 09:51:38 2024, MaxMem=  1342177280 cpu:               0.7 elap:               0.1
 (Enter /groups/ReismanLab/Software/Gaussian16_RevC/Linux_Binary_AVX2-enabled-CPU/g16/l701.exe)
 ... and contract with generalized density number  0.
 Compute integral first derivatives.
 R6Disp: Adding Grimme-D3(BJ) dispersion energy 1st derivatives to the gradient.
 Leave Link  701 at Tue Sep 17 09:51:38 2024, MaxMem=  1342177280 cpu:               0.6 elap:               0.1
 (Enter /groups/ReismanLab/Software/Gaussian16_RevC/Linux_Binary_AVX2-enabled-CPU/g16/l702.exe)
 L702 exits ... SP integral derivatives will be done elsewhere.
 Leave Link  702 at Tue Sep 17 09:51:38 2024, MaxMem=  1342177280 cpu:               0.1 elap:               0.0
 (Enter /groups/ReismanLab/Software/Gaussian16_RevC/Linux_Binary_AVX2-enabled-CPU/g16/l703.exe)
 Integral derivatives from FoFJK, PRISM(SPDF).
 Compute integral first derivatives, UseDBF=F ICtDFT=           0.
 Calling FoFJK, ICntrl=      2127 FMM=F ISym2X=0 I1Cent= 0 IOpClX= 0 NMat=1 NMatS=1 NMatT=0.
 FoFJK:  IHMeth= 1 ICntrl=    2127 DoSepK=F KAlg= 0 I1Cent=           0 FoldK=F
 IRaf=         0 NMat=       1 IRICut=       1 DoRegI=T DoRafI=F ISym2E= 0 IDoP0=0 IntGTp=1.
 FoFCou: FMM=F IPFlag=           0 FMFlag=      100000 FMFlg1=         800
         NFxFlg=           0 DoJE=F BraDBF=F KetDBF=F FulRan=T
         wScrn=  0.000000 ICntrl=      2127 IOpCl=  0 I1Cent=           0 NGrid=           0
         NMat0=    1 NMatS0=      1 NMatT0=    0 NMatD0=    1 NMtDS0=    0 NMtDT0=    0
 Symmetry not used in FoFCou.
 Leave Link  703 at Tue Sep 17 09:51:41 2024, MaxMem=  1342177280 cpu:              26.4 elap:               3.4
 (Enter /groups/ReismanLab/Software/Gaussian16_RevC/Linux_Binary_AVX2-enabled-CPU/g16/l716.exe)
 Dipole        = 6.95862856D-01 1.44961363D+00-7.47235380D-01
 ***** Axes restored to original set *****
 -------------------------------------------------------------------
 Center     Atomic                   Forces (Hartrees/Bohr)
 Number     Number              X              Y              Z
 -------------------------------------------------------------------
      1        6           0.002129986   -0.002644830    0.003678756
      2        6           0.007069875    0.009042680   -0.013729840
      3        8          -0.003275432   -0.008878156    0.020686663
      4        7          -0.003115553    0.000245280   -0.007961361
      5        6           0.000644508   -0.000375720    0.002783550
      6        6           0.003406459    0.000446584   -0.000436185
      7        6          -0.006193433    0.004026037   -0.001969708
      8        6          -0.004121640   -0.000307551    0.000342406
      9       35          -0.003719791   -0.000309379    0.000820371
     10        6          -0.000678156   -0.003453438    0.002616304
     11        6           0.001305965   -0.002724179   -0.001375593
     12        9           0.001326929   -0.000363769    0.000049503
     13        1           0.001794021   -0.001021201   -0.004235419
     14        1           0.001660586    0.004300311   -0.001878787
     15        1           0.001617139   -0.000411212    0.001818711
     16        1           0.000909903   -0.001164735   -0.000829902
     17        1           0.002071765    0.003910927   -0.000822724
     18        1          -0.002191603    0.002371054   -0.000671397
     19        1          -0.000641526   -0.002688702    0.001114652
 -------------------------------------------------------------------
 Cartesian Forces:  Max     0.020686663 RMS     0.004539554
 Leave Link  716 at Tue Sep 17 09:51:41 2024, MaxMem=  1342177280 cpu:               0.1 elap:               0.0
 (Enter /groups/ReismanLab/Software/Gaussian16_RevC/Linux_Binary_AVX2-enabled-CPU/g16/l103.exe)

 GradGradGradGradGradGradGradGradGradGradGradGradGradGradGradGradGradGrad
 Berny optimization.
 FormGI is forming the generalized inverse of G from B-inverse, IUseBI=4.
 GSVD:  received Info=                   1 from GESDD.
 Internal  Forces:  Max     0.022683900 RMS     0.003903093
 Search for a local minimum.
 Step number   1 out of a maximum of   97
 All quantities printed in internal units (Hartrees-Bohrs-Radians)
 RMS Force = .39031D-02 SwitMx=.10000D-02 MixMth= 1
 Mixed Optimization -- RFO/linear search
 Second derivative matrix not updated -- first step.
 ITU=  0
     Eigenvalues ---    0.00618   0.01143   0.01716   0.01961   0.01987
     Eigenvalues ---    0.02024   0.02174   0.02230   0.02258   0.02288
     Eigenvalues ---    0.02296   0.02306   0.02314   0.02317   0.07328
     Eigenvalues ---    0.07447   0.15702   0.15998   0.15999   0.16000
     Eigenvalues ---    0.16000   0.16000   0.16000   0.18326   0.22099
     Eigenvalues ---    0.22369   0.23494   0.24606   0.24966   0.24996
     Eigenvalues ---    0.24997   0.24998   0.25000   0.31231   0.35003
     Eigenvalues ---    0.35092   0.35314   0.36012   0.36177   0.36189
     Eigenvalues ---    0.43059   0.43547   0.45924   0.46051   0.46948
     Eigenvalues ---    0.47599   0.48416   0.48791   0.49163   0.57400
     Eigenvalues ---    1.03580
 RFO step:  Lambda=-3.07382872D-03 EMin= 6.17918480D-03
 Linear search not attempted -- first point.
 Iteration  1 RMS(Cart)=  0.04277363 RMS(Int)=  0.00061645
 Iteration  2 RMS(Cart)=  0.00121148 RMS(Int)=  0.00004009
 Iteration  3 RMS(Cart)=  0.00000122 RMS(Int)=  0.00004009
 Iteration  4 RMS(Cart)=  0.00000000 RMS(Int)=  0.00004009
 ITry= 1 IFail=0 DXMaxC= 1.17D-01 DCOld= 1.00D+10 DXMaxT= 3.00D-01 DXLimC= 3.00D+00 Rises=F
 Variable       Old X    -DE/DX   Delta X   Delta X   Delta X     New X
                                 (Linear)    (Quad)   (Total)
    R1        2.85574   0.00688   0.00000   0.02182   0.02182   2.87756
    R2        2.05526   0.00437   0.00000   0.01235   0.01235   2.06761
    R3        2.05671   0.00474   0.00000   0.01343   0.01343   2.07014
    R4        2.05167   0.00244   0.00000   0.00686   0.00686   2.05853
    R5        2.27238   0.02268   0.00000   0.02184   0.02184   2.29422
    R6        2.60720   0.01194   0.00000   0.02413   0.02413   2.63133
    R7        2.64217   0.00898   0.00000   0.01943   0.01943   2.66161
    R8        1.90774   0.00022   0.00000   0.00048   0.00048   1.90822
    R9        2.63223   0.00687   0.00000   0.01449   0.01450   2.64673
   R10        2.64052   0.00469   0.00000   0.00968   0.00968   2.65020
   R11        2.61004   0.01074   0.00000   0.02213   0.02214   2.63218
   R12        2.04063   0.00435   0.00000   0.01198   0.01198   2.05261
   R13        2.61730   0.00746   0.00000   0.01579   0.01578   2.63308
   R14        2.03806   0.00329   0.00000   0.00902   0.00902   2.04708
   R15        3.58759   0.00382   0.00000   0.02050   0.02050   3.60810
   R16        2.61480   0.00803   0.00000   0.01657   0.01656   2.63137
   R17        2.61228   0.00691   0.00000   0.01379   0.01378   2.62606
   R18        2.03787   0.00295   0.00000   0.00808   0.00808   2.04595
   R19        2.53059   0.00108   0.00000   0.00186   0.00186   2.53246
    A1        1.92282   0.00200   0.00000   0.01265   0.01262   1.93545
    A2        1.92341   0.00149   0.00000   0.00824   0.00822   1.93163
    A3        1.90330  -0.00055   0.00000  -0.00288  -0.00288   1.90042
    A4        1.90077  -0.00197   0.00000  -0.01305  -0.01309   1.88768
    A5        1.90990  -0.00040   0.00000  -0.00067  -0.00068   1.90921
    A6        1.90349  -0.00060   0.00000  -0.00447  -0.00446   1.89903
    A7        2.17658  -0.00384   0.00000  -0.01509  -0.01521   2.16138
    A8        1.95891   0.00463   0.00000   0.01841   0.01829   1.97719
    A9        2.14762  -0.00078   0.00000  -0.00298  -0.00310   2.14452
   A10        2.16686   0.00224   0.00000   0.00921   0.00918   2.17604
   A11        2.05522  -0.00196   0.00000  -0.01158  -0.01160   2.04362
   A12        2.02859  -0.00032   0.00000  -0.00128  -0.00132   2.02728
   A13        2.10526   0.00002   0.00000   0.00050   0.00039   2.10565
   A14        2.12039   0.00127   0.00000   0.00545   0.00534   2.12573
   A15        2.05743  -0.00130   0.00000  -0.00631  -0.00639   2.05104
   A16        2.11748   0.00134   0.00000   0.00641   0.00643   2.12391
   A17        2.07806  -0.00107   0.00000  -0.00569  -0.00570   2.07236
   A18        2.08764  -0.00027   0.00000  -0.00075  -0.00076   2.08688
   A19        2.08110  -0.00132   0.00000  -0.00443  -0.00444   2.07666
   A20        2.10251   0.00087   0.00000   0.00345   0.00343   2.10594
   A21        2.09954   0.00045   0.00000   0.00090   0.00088   2.10042
   A22        2.08698   0.00048   0.00000   0.00148   0.00148   2.08845
   A23        2.11319  -0.00080   0.00000  -0.00222  -0.00224   2.11095
   A24        2.08287   0.00032   0.00000   0.00087   0.00087   2.08374
   A25        2.07380   0.00051   0.00000   0.00166   0.00163   2.07543
   A26        2.12387   0.00018   0.00000   0.00174   0.00172   2.12559
   A27        2.08539  -0.00069   0.00000  -0.00357  -0.00358   2.08180
   A28        2.12238   0.00157   0.00000   0.00479   0.00479   2.12717
   A29        2.09884  -0.00184   0.00000  -0.00647  -0.00647   2.09237
   A30        2.06076   0.00027   0.00000   0.00188   0.00188   2.06264
    D1        2.17353  -0.00007   0.00000  -0.01902  -0.01898   2.15454
    D2       -0.98139   0.00034   0.00000   0.00895   0.00890  -0.97249
    D3       -2.01181  -0.00029   0.00000  -0.02188  -0.02182  -2.03362
    D4        1.11646   0.00012   0.00000   0.00609   0.00607   1.12253
    D5        0.07711  -0.00047   0.00000  -0.02414  -0.02410   0.05301
    D6       -3.07781  -0.00005   0.00000   0.00383   0.00378  -3.07403
    D7       -3.13750   0.00033   0.00000   0.01213   0.01204  -3.12546
    D8       -0.27793   0.00010   0.00000  -0.00378  -0.00383  -0.28176
    D9       -0.00898   0.00071   0.00000   0.03945   0.03950   0.03053
   D10        2.85060   0.00048   0.00000   0.02354   0.02363   2.87423
   D11        2.33029  -0.00130   0.00000  -0.06337  -0.06334   2.26695
   D12       -0.82778  -0.00192   0.00000  -0.09006  -0.09012  -0.91789
   D13       -0.53319  -0.00083   0.00000  -0.04613  -0.04607  -0.57926
   D14        2.59193  -0.00145   0.00000  -0.07282  -0.07285   2.51908
   D15       -3.12763  -0.00080   0.00000  -0.03355  -0.03351   3.12205
   D16        0.00959  -0.00095   0.00000  -0.03938  -0.03932  -0.02973
   D17        0.02985  -0.00023   0.00000  -0.00791  -0.00795   0.02190
   D18       -3.11611  -0.00037   0.00000  -0.01374  -0.01377  -3.12988
   D19        3.11185   0.00047   0.00000   0.02099   0.02100   3.13285
   D20       -0.08350   0.00064   0.00000   0.02561   0.02562  -0.05788
   D21       -0.04578  -0.00012   0.00000  -0.00494  -0.00492  -0.05070
   D22        3.04206   0.00005   0.00000  -0.00031  -0.00030   3.04176
   D23        0.00700   0.00028   0.00000   0.01068   0.01069   0.01769
   D24        3.13936   0.00002   0.00000   0.00033   0.00034   3.13970
   D25       -3.13020   0.00043   0.00000   0.01655   0.01656  -3.11364
   D26        0.00216   0.00017   0.00000   0.00620   0.00622   0.00838
   D27        3.13080  -0.00021   0.00000  -0.00898  -0.00895   3.12185
   D28       -0.02987  -0.00000   0.00000  -0.00071  -0.00068  -0.03056
   D29       -0.00157   0.00005   0.00000   0.00133   0.00135  -0.00023
   D30        3.12093   0.00025   0.00000   0.00960   0.00961   3.13055
   D31        0.01448  -0.00027   0.00000  -0.01154  -0.01152   0.00296
   D32       -3.10943   0.00003   0.00000  -0.00003   0.00000  -3.10942
   D33        3.13704  -0.00007   0.00000  -0.00329  -0.00327   3.13376
   D34        0.01313   0.00024   0.00000   0.00823   0.00826   0.02138
   D35        0.02418   0.00040   0.00000   0.01465   0.01466   0.03884
   D36       -3.06479   0.00030   0.00000   0.01037   0.01037  -3.05442
   D37       -3.13470   0.00011   0.00000   0.00344   0.00348  -3.13122
   D38        0.05952   0.00001   0.00000  -0.00083  -0.00081   0.05870
         Item               Value     Threshold  Converged?
 Maximum Force            0.022684     0.000450     NO 
 RMS     Force            0.003903     0.000300     NO 
 Maximum Displacement     0.117280     0.001800     NO 
 RMS     Displacement     0.043202     0.001200     NO 
 Predicted change in Energy=-1.590049D-03
 Lowest energy point so far.  Saving SCF results.
 GradGradGradGradGradGradGradGradGradGradGradGradGradGradGradGradGradGrad

 Leave Link  103 at Tue Sep 17 09:51:41 2024, MaxMem=  1342177280 cpu:               0.1 elap:               0.0
 (Enter /groups/ReismanLab/Software/Gaussian16_RevC/Linux_Binary_AVX2-enabled-CPU/g16/l202.exe)
                          Input orientation:                          
 ---------------------------------------------------------------------
 Center     Atomic      Atomic             Coordinates (Angstroms)
 Number     Number       Type             X           Y           Z
 ---------------------------------------------------------------------
      1          6           0        5.186206    0.468472   -0.437122
      2          6           0        3.784292    0.233762    0.109030
      3          8           0        3.554069   -0.154961    1.235887
      4          7           0        2.780805    0.492125   -0.821103
      5          6           0        1.400961    0.371765   -0.565536
      6          6           0        0.521832    1.413592   -0.887051
      7          6           0       -0.849252    1.308860   -0.665017
      8          6           0       -1.352924    0.144423   -0.088933
      9         35           0       -3.225130   -0.006743    0.253855
     10          6           0       -0.511853   -0.918565    0.229815
     11          6           0        0.847781   -0.801574   -0.032557
     12          9           0        1.628392   -1.868987    0.184685
     13          1           0        5.355324   -0.120063   -1.343848
     14          1           0        5.333153    1.525605   -0.683968
     15          1           0        5.912956    0.180714    0.321602
     16          1           0        3.037195    1.029006   -1.637004
     17          1           0        0.927847    2.327301   -1.311438
     18          1           0       -1.513914    2.125851   -0.918438
     19          1           0       -0.892492   -1.840652    0.650584
 ---------------------------------------------------------------------
                    Distance matrix (angstroms):
                    1          2          3          4          5
     1  C    0.000000
     2  C    1.522739   0.000000
     3  O    2.418987   1.214048   0.000000
     4  N    2.435971   1.392439   2.290822   0.000000
     5  C    3.788656   2.480796   2.856298   1.408463   0.000000
     6  C    4.780384   3.609407   4.020160   2.440575   1.400587
     7  C    6.097945   4.819202   5.014523   3.724074   2.439570
     8  C    6.556406   5.141805   5.091498   4.212444   2.804054
     9  Br   8.453038   7.015042   6.851562   6.121736   4.713321
    10  C    5.902250   4.449641   4.257581   3.733105   2.440573
    11  C    4.538570   3.116899   3.057949   2.456022   1.402427
    12  F    4.302139   3.012504   2.784087   2.813275   2.373926
    13  H    1.094132   2.168914   3.146548   2.697441   4.060129
    14  H    1.095471   2.167182   3.110512   2.757058   4.099696
    15  H    1.089327   2.139909   2.552046   3.348600   4.602348
    16  H    2.524314   2.058932   3.149990   1.009787   2.063315
    17  H    4.727927   3.815746   4.421260   2.653630   2.145770
    18  H    6.918828   5.718975   5.960510   4.595992   3.420213
    19  H    6.592855   5.144782   4.791246   4.593564   3.410817
                    6          7          8          9         10
     6  C    0.000000
     7  C    1.392889   0.000000
     8  C    2.400520   1.393367   0.000000
     9  Br   4.166383   2.867043   1.909322   0.000000
    10  C    2.784754   2.424043   1.392459   2.862493   0.000000
    11  C    2.396532   2.780982   2.396078   4.159615   1.389652
    12  F    3.626075   4.118182   3.607898   5.198982   2.342219
    13  H    5.091503   6.403077   6.829740   8.728670   6.126809
    14  H    4.816907   6.186232   6.853127   8.744816   6.401021
    15  H    5.660834   6.926297   7.277559   9.140259   6.518820
    16  H    2.652807   4.015911   4.738370   6.623053   4.458003
    17  H    1.086194   2.147828   3.385468   5.014491   3.870897
    18  H    2.156980   1.083270   2.154079   2.974976   3.404567
    19  H    3.867137   3.413518   2.167811   2.993629   1.082672
                   11         12         13         14         15
    11  C    0.000000
    12  F    1.340118   0.000000
    13  H    4.743615   4.391489   0.000000
    14  H    5.094964   5.099320   1.773177   0.000000
    15  H    5.171684   4.751580   1.781893   1.776535   0.000000
    16  H    3.273959   3.701572   2.603848   2.535017   3.581304
    17  H    3.381096   4.509765   5.058972   4.521411   5.667978
    18  H    3.864222   5.200932   7.239581   6.877325   7.776867
    19  H    2.138906   2.563732   6.780369   7.202179   7.106918
                   16         17         18         19
    16  H    0.000000
    17  H    2.498182   0.000000
    18  H    4.736243   2.481377   0.000000
    19  H    5.376843   4.953282   4.310585   0.000000
 Stoichiometry    C8H7BrFNO
 Framework group  C1[X(C8H7BrFNO)]
 Deg. of freedom    51
 Full point group                 C1      NOp   1
 RotChk:  IX=0 Diff= 2.60D-02
 Largest Abelian subgroup         C1      NOp   1
 Largest concise Abelian subgroup C1      NOp   1
                         Standard orientation:                         
 ---------------------------------------------------------------------
 Center     Atomic      Atomic             Coordinates (Angstroms)
 Number     Number       Type             X           Y           Z
 ---------------------------------------------------------------------
      1          6           0        5.010057    0.426387   -0.004470
      2          6           0        3.584537    0.010486    0.332658
      3          8           0        3.304348   -0.838681    1.153829
      4          7           0        2.622633    0.689864   -0.410358
      5          6           0        1.232266    0.506588   -0.279755
      6          6           0        0.378983    1.605972   -0.121943
      7          6           0       -1.001094    1.451531   -0.013880
      8          6           0       -1.541118    0.167400   -0.043090
      9         35           0       -3.427303   -0.068652    0.136070
     10          6           0       -0.725992   -0.948512   -0.214124
     11          6           0        0.644422   -0.764586   -0.352940
     12          9           0        1.403206   -1.836847   -0.618307
     13          1           0        5.208988    0.306479   -1.073663
     14          1           0        5.179087    1.476295    0.258550
     15          1           0        5.702079   -0.193825    0.563926
     16          1           0        2.918072    1.529882   -0.886547
     17          1           0        0.812392    2.600798   -0.074044
     18          1           0       -1.645458    2.313533    0.109490
     19          1           0       -1.133998   -1.949900   -0.268254
 ---------------------------------------------------------------------
 Rotational constants (GHZ):           2.2803847           0.2669454           0.2481908
 Leave Link  202 at Tue Sep 17 09:51:41 2024, MaxMem=  1342177280 cpu:               0.0 elap:               0.0
 (Enter /groups/ReismanLab/Software/Gaussian16_RevC/Linux_Binary_AVX2-enabled-CPU/g16/l301.exe)
 Standard basis: 6-31G(d,p) (6D, 7F)
 Ernie: Thresh=  0.10000D-02 Tol=  0.10000D-05 Strict=F.
 There are   230 symmetry adapted cartesian basis functions of A   symmetry.
 There are   230 symmetry adapted basis functions of A   symmetry.
   230 basis functions,   440 primitive gaussians,   230 cartesian basis functions
    57 alpha electrons       57 beta electrons
       nuclear repulsion energy       918.9851460525 Hartrees.
 IExCor=  402 DFT=T Ex+Corr=B3LYP ExCW=0 ScaHFX=  0.200000
 ScaDFX=  0.800000  0.720000  1.000000  0.810000 ScalE2=  1.000000  1.000000
 IRadAn=      5 IRanWt=     -1 IRanGd=            0 ICorTp=0 IEmpDi=141
 NAtoms=   19 NActive=   19 NUniq=   19 SFac= 1.00D+00 NAtFMM=   60 NAOKFM=F Big=F
 Integral buffers will be    131072 words long.
 Raffenetti 2 integral format.
 Two-electron integral symmetry is turned on.
 R6Disp:  Grimme-D3(BJ) Dispersion energy=       -0.0379279854 Hartrees.
 Nuclear repulsion after empirical dispersion term =      918.9472180671 Hartrees.
 Leave Link  301 at Tue Sep 17 09:51:41 2024, MaxMem=  1342177280 cpu:               0.1 elap:               0.0
 (Enter /groups/ReismanLab/Software/Gaussian16_RevC/Linux_Binary_AVX2-enabled-CPU/g16/l302.exe)
 NPDir=0 NMtPBC=     1 NCelOv=     1 NCel=       1 NClECP=     1 NCelD=      1
         NCelK=      1 NCelE2=     1 NClLst=     1 CellRange=     0.0.
 One-electron integrals computed using PRISM.
 One-electron integral symmetry used in STVInt
 NBasis=   230 RedAO= T EigKep=  3.93D-04  NBF=   230
 NBsUse=   230 1.00D-06 EigRej= -1.00D+00 NBFU=   230
 Precomputing XC quadrature grid using
 IXCGrd= 4 IRadAn=           5 IRanWt=          -1 IRanGd=           0 AccXCQ= 0.00D+00.
 Generated NRdTot=       0 NPtTot=           0 NUsed=           0 NTot=          32
 NSgBfM=   228   228   228   228   228 MxSgAt=    19 MxSgA2=    19.
 Leave Link  302 at Tue Sep 17 09:51:42 2024, MaxMem=  1342177280 cpu:               1.1 elap:               0.3
 (Enter /groups/ReismanLab/Software/Gaussian16_RevC/Linux_Binary_AVX2-enabled-CPU/g16/l303.exe)
 DipDrv:  MaxL=1.
 Leave Link  303 at Tue Sep 17 09:51:42 2024, MaxMem=  1342177280 cpu:               0.1 elap:               0.0
 (Enter /groups/ReismanLab/Software/Gaussian16_RevC/Linux_Binary_AVX2-enabled-CPU/g16/l401.exe)
 Initial guess from the checkpoint file:  "smiles_00081_conf_4.chk"
 B after Tr=    -0.000000    0.000000    0.000000
         Rot=    0.999958    0.009097   -0.000597    0.000624 Ang=   1.05 deg.
 Guess basis will be translated and rotated to current coordinates.
 JPrj=2 DoOrth=T DoCkMO=T.
 Generating alternative initial guess.
 ExpMin= 1.43D-01 ExpMax= 5.74D+05 ExpMxC= 5.74D+03 IAcc=3 IRadAn=         5 AccDes= 0.00D+00
 Harris functional with IExCor=  402 and IRadAn=       5 diagonalized for initial guess.
 HarFok:  IExCor=  402 AccDes= 0.00D+00 IRadAn=         5 IDoV= 1 UseB2=F ITyADJ=14
 ICtDFT=  3500011 ScaDFX=  1.000000  1.000000  1.000000  1.000000
 FoFCou: FMM=F IPFlag=           0 FMFlag=      100000 FMFlg1=           0
         NFxFlg=           0 DoJE=T BraDBF=F KetDBF=T FulRan=T
         wScrn=  0.000000 ICntrl=       500 IOpCl=  0 I1Cent=   200000004 NGrid=           0
         NMat0=    1 NMatS0=      1 NMatT0=    0 NMatD0=    1 NMtDS0=    0 NMtDT0=    0
 Petite list used in FoFCou.
 Harris En= -3110.75455032348    
 Leave Link  401 at Tue Sep 17 09:51:42 2024, MaxMem=  1342177280 cpu:               4.8 elap:               0.7
 (Enter /groups/ReismanLab/Software/Gaussian16_RevC/Linux_Binary_AVX2-enabled-CPU/g16/l502.exe)
 Integral symmetry usage will be decided dynamically.
 Closed shell SCF:
 Using DIIS extrapolation, IDIIS=  1040.
 NGot=  1342177280 LenX=  1342066761 LenY=  1342013420
 Requested convergence on RMS density matrix=1.00D-08 within  32 cycles.
 Requested convergence on MAX density matrix=1.00D-06.
 Requested convergence on             energy=1.00D-06.
 No special actions if energy rises.
 Fock matrices will be formed incrementally for  20 cycles.
 Integral accuracy reduced to 1.0D-05 until final iterations.

 Cycle   1  Pass 0  IDiag  1:
 FoFJK:  IHMeth= 1 ICntrl=       0 DoSepK=F KAlg= 0 I1Cent=           0 FoldK=F
 IRaf= 830000000 NMat=       1 IRICut=       1 DoRegI=T DoRafI=F ISym2E= 0 IDoP0=0 IntGTp=1.
 FoFCou: FMM=F IPFlag=           0 FMFlag=      100000 FMFlg1=           0
         NFxFlg=           0 DoJE=F BraDBF=F KetDBF=F FulRan=T
         wScrn=  0.000000 ICntrl=         0 IOpCl=  0 I1Cent=           0 NGrid=           0
         NMat0=    1 NMatS0=      1 NMatT0=    0 NMatD0=    1 NMtDS0=    0 NMtDT0=    0
 Symmetry not used in FoFCou.
 E= -3110.64086565264    
 DIIS: error= 2.07D-03 at cycle   1 NSaved=   1.
 NSaved= 1 IEnMin= 1 EnMin= -3110.64086565264     IErMin= 1 ErrMin= 2.07D-03
 ErrMax= 2.07D-03  0.00D+00 EMaxC= 1.00D-01 BMatC= 2.96D-03 BMatP= 2.96D-03
 IDIUse=3 WtCom= 9.79D-01 WtEn= 2.07D-02
 Coeff-Com:  0.100D+01
 Coeff-En:   0.100D+01
 Coeff:      0.100D+01
 Gap=     1.771 Goal=   None    Shift=    0.000
 GapD=    1.771 DampG=2.000 DampE=1.000 DampFc=2.0000 IDamp=-1.
 RMSDP=3.76D-04 MaxDP=1.04D-02              OVMax= 1.30D-02

 Cycle   2  Pass 0  IDiag  1:
 RMSU=  3.76D-04    CP:  1.00D+00
 E= -3110.64412267854     Delta-E=       -0.003257025898 Rises=F Damp=F
 DIIS: error= 2.76D-04 at cycle   2 NSaved=   2.
 NSaved= 2 IEnMin= 2 EnMin= -3110.64412267854     IErMin= 2 ErrMin= 2.76D-04
 ErrMax= 2.76D-04  0.00D+00 EMaxC= 1.00D-01 BMatC= 9.36D-05 BMatP= 2.96D-03
 IDIUse=3 WtCom= 9.97D-01 WtEn= 2.76D-03
 Coeff-Com:  0.124D-01 0.988D+00
 Coeff-En:   0.000D+00 0.100D+01
 Coeff:      0.124D-01 0.988D+00
 Gap=     0.203 Goal=   None    Shift=    0.000
 RMSDP=1.07D-04 MaxDP=2.66D-03 DE=-3.26D-03 OVMax= 5.54D-03

 Cycle   3  Pass 0  IDiag  1:
 RMSU=  1.06D-04    CP:  1.00D+00  1.04D+00
 E= -3110.64406110269     Delta-E=        0.000061575854 Rises=F Damp=F
 DIIS: error= 4.28D-04 at cycle   3 NSaved=   3.
 NSaved= 3 IEnMin= 2 EnMin= -3110.64412267854     IErMin= 2 ErrMin= 2.76D-04
 ErrMax= 4.28D-04  0.00D+00 EMaxC= 1.00D-01 BMatC= 1.71D-04 BMatP= 9.36D-05
 IDIUse=3 WtCom= 3.26D-01 WtEn= 6.74D-01
 Coeff-Com: -0.211D-01 0.592D+00 0.429D+00
 Coeff-En:   0.000D+00 0.609D+00 0.391D+00
 Coeff:     -0.687D-02 0.604D+00 0.403D+00
 Gap=     0.203 Goal=   None    Shift=    0.000
 RMSDP=6.77D-05 MaxDP=2.01D-03 DE= 6.16D-05 OVMax= 4.50D-03

 Cycle   4  Pass 0  IDiag  1:
 RMSU=  3.00D-05    CP:  1.00D+00  1.06D+00  4.32D-01
 E= -3110.64422782296     Delta-E=       -0.000166720270 Rises=F Damp=F
 DIIS: error= 1.21D-04 at cycle   4 NSaved=   4.
 NSaved= 4 IEnMin= 4 EnMin= -3110.64422782296     IErMin= 4 ErrMin= 1.21D-04
 ErrMax= 1.21D-04  0.00D+00 EMaxC= 1.00D-01 BMatC= 9.06D-06 BMatP= 9.36D-05
 IDIUse=3 WtCom= 9.99D-01 WtEn= 1.21D-03
 Coeff-Com: -0.136D-01 0.249D+00 0.232D+00 0.533D+00
 Coeff-En:   0.000D+00 0.000D+00 0.000D+00 0.100D+01
 Coeff:     -0.135D-01 0.248D+00 0.232D+00 0.534D+00
 Gap=     0.203 Goal=   None    Shift=    0.000
 RMSDP=1.70D-05 MaxDP=4.82D-04 DE=-1.67D-04 OVMax= 1.30D-03

 Cycle   5  Pass 0  IDiag  1:
 RMSU=  1.27D-05    CP:  1.00D+00  1.06D+00  4.77D-01  6.63D-01
 E= -3110.64423606756     Delta-E=       -0.000008244598 Rises=F Damp=F
 DIIS: error= 3.98D-05 at cycle   5 NSaved=   5.
 NSaved= 5 IEnMin= 5 EnMin= -3110.64423606756     IErMin= 5 ErrMin= 3.98D-05
 ErrMax= 3.98D-05  0.00D+00 EMaxC= 1.00D-01 BMatC= 1.05D-06 BMatP= 9.06D-06
 IDIUse=1 WtCom= 1.00D+00 WtEn= 0.00D+00
 Coeff-Com: -0.379D-02 0.479D-01 0.628D-01 0.283D+00 0.610D+00
 Coeff:     -0.379D-02 0.479D-01 0.628D-01 0.283D+00 0.610D+00
 Gap=     0.203 Goal=   None    Shift=    0.000
 RMSDP=6.83D-06 MaxDP=2.06D-04 DE=-8.24D-06 OVMax= 5.73D-04

 Initial convergence to 1.0D-05 achieved.  Increase integral accuracy.
 Cycle   6  Pass 1  IDiag  1:
 E= -3110.64425177546     Delta-E=       -0.000015707900 Rises=F Damp=F
 DIIS: error= 2.72D-05 at cycle   1 NSaved=   1.
 NSaved= 1 IEnMin= 1 EnMin= -3110.64425177546     IErMin= 1 ErrMin= 2.72D-05
 ErrMax= 2.72D-05  0.00D+00 EMaxC= 1.00D-01 BMatC= 3.80D-07 BMatP= 3.80D-07
 IDIUse=1 WtCom= 1.00D+00 WtEn= 0.00D+00
 Coeff-Com:  0.100D+01
 Coeff:      0.100D+01
 Gap=     0.203 Goal=   None    Shift=    0.000
 RMSDP=6.83D-06 MaxDP=2.06D-04 DE=-1.57D-05 OVMax= 4.54D-04

 Cycle   7  Pass 1  IDiag  1:
 RMSU=  1.78D-05    CP:  1.00D+00
 E= -3110.64425116048     Delta-E=        0.000000614981 Rises=F Damp=F
 DIIS: error= 4.30D-05 at cycle   2 NSaved=   2.
 NSaved= 2 IEnMin= 1 EnMin= -3110.64425177546     IErMin= 1 ErrMin= 2.72D-05
 ErrMax= 4.30D-05  0.00D+00 EMaxC= 1.00D-01 BMatC= 1.02D-06 BMatP= 3.80D-07
 IDIUse=1 WtCom= 1.00D+00 WtEn= 0.00D+00
 Coeff-Com:  0.634D+00 0.366D+00
 Coeff:      0.634D+00 0.366D+00
 Gap=     0.203 Goal=   None    Shift=    0.000
 RMSDP=5.33D-06 MaxDP=2.08D-04 DE= 6.15D-07 OVMax= 3.62D-04

 Cycle   8  Pass 1  IDiag  1:
 RMSU=  5.04D-06    CP:  1.00D+00  9.04D-01
[...]
   Eigenvalues:    20.6122    22.7064    29.1593
     18  H    Isotropic =    23.9350   Anisotropy =     9.6733
   XX=    26.5956   YX=     4.7364   ZX=    -0.3043
   XY=     3.7490   YY=    25.6173   ZY=     0.0321
   XZ=    -0.1229   YZ=    -0.3585   ZZ=    19.5922
   Eigenvalues:    19.5854    21.8358    30.3839
     19  H    Isotropic =    23.9066   Anisotropy =    10.2333
   XX=    29.1628   YX=    -3.4289   ZX=    -1.2662
   XY=    -3.1303   YY=    22.9272   ZY=     0.5924
   XZ=    -1.1446   YZ=     0.5208   ZZ=    19.6298
   Eigenvalues:    19.4704    21.5205    30.7288
 End of Minotr F.D. properties file   721 does not exist.
 End of Minotr F.D. properties file   722 does not exist.
 End of Minotr F.D. properties file   788 does not exist.
 Leave Link 1002 at Tue Sep 17 10:47:54 2024, MaxMem=  1342177280 cpu:             872.4 elap:             875.8
 (Enter /groups/ReismanLab/Software/Gaussian16_RevC/Linux_Binary_AVX2-enabled-CPU/g16/l601.exe)
 Copying SCF densities to generalized density rwf, IOpCl= 0 IROHF=0.

 **********************************************************************

            Population analysis using the SCF Density.

 **********************************************************************

 Orbital symmetries:
       Occupied  (A) (A) (A) (A) (A) (A) (A) (A) (A) (A) (A) (A)
                 (A) (A) (A) (A) (A) (A) (A) (A) (A) (A) (A) (A)
                 (A) (A) (A) (A) (A) (A) (A) (A) (A) (A) (A) (A)
                 (A) (A) (A) (A) (A) (A) (A) (A) (A) (A) (A) (A)
                 (A) (A) (A) (A) (A) (A) (A) (A) (A)
       Virtual   (A) (A) (A) (A) (A) (A) (A) (A) (A) (A) (A) (A)
                 (A) (A) (A) (A) (A) (A) (A) (A) (A) (A) (A) (A)
                 (A) (A) (A) (A) (A) (A) (A) (A) (A) (A) (A) (A)
                 (A) (A) (A) (A) (A) (A) (A) (A) (A) (A) (A) (A)
                 (A) (A) (A) (A) (A) (A) (A) (A) (A) (A) (A) (A)
                 (A) (A) (A) (A) (A) (A) (A) (A) (A) (A) (A) (A)
                 (A) (A) (A) (A) (A) (A) (A) (A) (A) (A) (A) (A)
                 (A) (A) (A) (A) (A) (A) (A) (A) (A) (A) (A) (A)
                 (A) (A) (A) (A) (A) (A) (A) (A) (A) (A) (A) (A)
                 (A) (A) (A) (A) (A) (A) (A) (A) (A) (A) (A) (A)
                 (A) (A) (A) (A) (A) (A) (A) (A) (A) (A) (A) (A)
                 (A) (A) (A) (A) (A) (A) (A) (A) (A) (A) (A) (A)
                 (A) (A) (A) (A) (A) (A) (A) (A) (A) (A) (A) (A)
                 (A) (A) (A) (A) (A) (A) (A) (A) (A) (A) (A) (A)
                 (A) (A) (A) (A) (A) (A) (A) (A) (A) (A) (A) (A)
                 (A) (A) (A) (A) (A) (A) (A) (A) (A) (A) (A) (A)
                 (A) (A) (A) (A) (A) (A) (A) (A) (A) (A) (A) (A)
                 (A) (A) (A) (A) (A) (A) (A) (A) (A) (A) (A) (A)
                 (A) (A) (A) (A) (A) (A) (A) (A) (A) (A) (A) (A)
                 (A) (A) (A) (A) (A) (A) (A) (A) (A) (A) (A) (A)
                 (A) (A) (A) (A) (A) (A) (A) (A) (A) (A) (A) (A)
                 (A) (A) (A) (A) (A) (A) (A) (A) (A) (A) (A) (A)
                 (A) (A) (A) (A) (A) (A) (A) (A) (A) (A) (A) (A)
                 (A) (A) (A) (A) (A) (A) (A) (A) (A) (A) (A) (A)
                 (A) (A) (A) (A) (A) (A) (A) (A) (A) (A) (A) (A)
                 (A) (A) (A) (A) (A) (A) (A) (A) (A) (A) (A) (A)
                 (A) (A) (A) (A) (A) (A) (A) (A) (A) (A) (A) (A)
                 (A) (A) (A) (A) (A) (A) (A) (A) (A) (A) (A) (A)
                 (A) (A) (A) (A) (A) (A) (A) (A) (A) (A) (A) (A)
                 (A) (A) (A) (A) (A) (A) (A) (A) (A) (A) (A) (A)
                 (A) (A) (A) (A) (A) (A) (A) (A) (A) (A) (A) (A)
                 (A) (A)
 The electronic state is 1-A.
 Alpha  occ. eigenvalues -- -485.38042 -63.36519 -57.18467 -57.18227 -57.18221
 Alpha  occ. eigenvalues --  -25.26515 -19.60139 -14.78882 -10.65478 -10.64393
 Alpha  occ. eigenvalues --  -10.61322 -10.60404 -10.56690 -10.56558 -10.56300
 Alpha  occ. eigenvalues --  -10.54328  -9.03164  -6.85580  -6.84691  -6.84671
 Alpha  occ. eigenvalues --   -2.88956  -2.88635  -2.88610  -2.87782  -2.87782
 Alpha  occ. eigenvalues --   -1.38179  -1.16931  -1.05604  -0.98530  -0.90552
 Alpha  occ. eigenvalues --   -0.86740  -0.84987  -0.81054  -0.73218  -0.71292
 Alpha  occ. eigenvalues --   -0.67848  -0.63295  -0.60921  -0.59488  -0.58180
 Alpha  occ. eigenvalues --   -0.55923  -0.53635  -0.52489  -0.52216  -0.50266
 Alpha  occ. eigenvalues --   -0.48904  -0.47029  -0.46718  -0.45735  -0.43706
 Alpha  occ. eigenvalues --   -0.42568  -0.39221  -0.35722  -0.35131  -0.34216
 Alpha  occ. eigenvalues --   -0.32228  -0.29031
 Alpha virt. eigenvalues --   -0.00483   0.01015   0.03019   0.05872   0.06132
 Alpha virt. eigenvalues --    0.09792   0.10758   0.11788   0.12866   0.13575
 Alpha virt. eigenvalues --    0.15062   0.15714   0.16147   0.17592   0.17655
 Alpha virt. eigenvalues --    0.19391   0.19683   0.22029   0.22844   0.23412
 Alpha virt. eigenvalues --    0.23825   0.24538   0.24966   0.25768   0.26337
 Alpha virt. eigenvalues --    0.26930   0.27513   0.28262   0.29759   0.30375
 Alpha virt. eigenvalues --    0.31300   0.32015   0.33612   0.34511   0.34652
 Alpha virt. eigenvalues --    0.36054   0.37094   0.37756   0.38500   0.39403
 Alpha virt. eigenvalues --    0.40525   0.40917   0.41622   0.42609   0.42811
 Alpha virt. eigenvalues --    0.43297   0.44387   0.44522   0.45093   0.45757
 Alpha virt. eigenvalues --    0.46884   0.47533   0.48734   0.49828   0.51129
 Alpha virt. eigenvalues --    0.51981   0.53052   0.53841   0.54841   0.55889
 Alpha virt. eigenvalues --    0.56480   0.57599   0.58743   0.59776   0.60943
 Alpha virt. eigenvalues --    0.61361   0.63958   0.66125   0.66984   0.67528
 Alpha virt. eigenvalues --    0.68822   0.69785   0.71287   0.72604   0.73284
 Alpha virt. eigenvalues --    0.73829   0.75423   0.77130   0.78209   0.79935
 Alpha virt. eigenvalues --    0.81004   0.82658   0.84560   0.85194   0.86267
 Alpha virt. eigenvalues --    0.89097   0.89802   0.91102   0.93045   0.93937
 Alpha virt. eigenvalues --    0.95437   0.96209   0.96576   0.98747   1.00894
 Alpha virt. eigenvalues --    1.01690   1.02307   1.04457   1.06031   1.07131
 Alpha virt. eigenvalues --    1.09180   1.10733   1.11379   1.13344   1.14786
 Alpha virt. eigenvalues --    1.17753   1.20523   1.21204   1.21750   1.23727
 Alpha virt. eigenvalues --    1.24431   1.25478   1.26948   1.28632   1.29804
 Alpha virt. eigenvalues --    1.33680   1.34645   1.37510   1.37886   1.40535
 Alpha virt. eigenvalues --    1.41612   1.42396   1.42609   1.43398   1.46171
 Alpha virt. eigenvalues --    1.48020   1.48852   1.49689   1.50948   1.52573
 Alpha virt. eigenvalues --    1.52995   1.53929   1.55528   1.56727   1.57114
 Alpha virt. eigenvalues --    1.57556   1.57860   1.58449   1.59215   1.60741
 Alpha virt. eigenvalues --    1.62883   1.63734   1.64916   1.65601   1.66209
 Alpha virt. eigenvalues --    1.66910   1.67373   1.69943   1.71205   1.71948
 Alpha virt. eigenvalues --    1.73568   1.75211   1.75989   1.78640   1.81164
 Alpha virt. eigenvalues --    1.82148   1.85297   1.85717   1.86613   1.88764
 Alpha virt. eigenvalues --    1.89223   1.91007   1.93451   1.93960   1.95443
 Alpha virt. eigenvalues --    1.96390   1.97578   1.99886   2.00759   2.01859
 Alpha virt. eigenvalues --    2.06316   2.07580   2.09125   2.12735   2.16294
 Alpha virt. eigenvalues --    2.17370   2.18850   2.19411   2.20716   2.22876
 Alpha virt. eigenvalues --    2.23596   2.24150   2.26524   2.29283   2.30162
 Alpha virt. eigenvalues --    2.32981   2.35869   2.37672   2.37903   2.40227
 Alpha virt. eigenvalues --    2.41559   2.44073   2.46549   2.49968   2.51995
 Alpha virt. eigenvalues --    2.54761   2.55672   2.56235   2.58047   2.58830
 Alpha virt. eigenvalues --    2.59811   2.61284   2.62338   2.65248   2.68410
 Alpha virt. eigenvalues --    2.68841   2.70360   2.70970   2.72158   2.73090
 Alpha virt. eigenvalues --    2.74652   2.75444   2.77951   2.79518   2.82427
 Alpha virt. eigenvalues --    2.82889   2.84109   2.84647   2.86095   2.88032
 Alpha virt. eigenvalues --    2.89196   2.91161   2.92649   2.94013   2.95665
 Alpha virt. eigenvalues --    2.96525   2.97449   2.99066   3.02084   3.02908
 Alpha virt. eigenvalues --    3.03468   3.05538   3.07207   3.08631   3.09684
 Alpha virt. eigenvalues --    3.10958   3.11369   3.12530   3.13998   3.14601
 Alpha virt. eigenvalues --    3.15625   3.18051   3.19344   3.20676   3.22459
 Alpha virt. eigenvalues --    3.23067   3.24079   3.25258   3.27017   3.27898
 Alpha virt. eigenvalues --    3.30278   3.31599   3.33510   3.33826   3.36102
 Alpha virt. eigenvalues --    3.36676   3.37871   3.39227   3.40930   3.41683
 Alpha virt. eigenvalues --    3.42206   3.43131   3.45028   3.47994   3.48751
 Alpha virt. eigenvalues --    3.50285   3.52239   3.52654   3.52901   3.57655
 Alpha virt. eigenvalues --    3.60508   3.61945   3.65419   3.68382   3.70028
 Alpha virt. eigenvalues --    3.73215   3.75409   3.79194   3.81336   3.83316
 Alpha virt. eigenvalues --    3.84846   3.86597   3.89168   3.94791   3.96470
 Alpha virt. eigenvalues --    3.97203   3.99048   4.01482   4.04139   4.06336
 Alpha virt. eigenvalues --    4.07880   4.09412   4.09884   4.12265   4.12677
 Alpha virt. eigenvalues --    4.15544   4.16207   4.17621   4.18224   4.18852
 Alpha virt. eigenvalues --    4.22123   4.22696   4.26375   4.33014   4.34602
 Alpha virt. eigenvalues --    4.37641   4.38813   4.42744   4.44424   4.45727
 Alpha virt. eigenvalues --    4.50446   4.54480   4.56373   4.61252   4.62554
 Alpha virt. eigenvalues --    4.68990   4.69718   4.74614   4.75218   4.78641
 Alpha virt. eigenvalues --    4.81874   4.85512   4.89903   4.98734   5.01859
 Alpha virt. eigenvalues --    5.08448   5.12281   5.16316   5.17109   5.19264
 Alpha virt. eigenvalues --    5.25731   5.28630   5.32395   5.35052   5.39846
 Alpha virt. eigenvalues --    5.45292   5.51251   5.62352   5.68544   5.75041
 Alpha virt. eigenvalues --    5.83539   5.88557   6.12283   6.33240   6.42875
 Alpha virt. eigenvalues --    6.54080   6.67617   6.82767   6.90909   6.92364
 Alpha virt. eigenvalues --    7.01614   7.04394   7.08836   7.10982   7.25890
 Alpha virt. eigenvalues --    7.42566   7.59029   7.85596   8.38227   8.55134
 Alpha virt. eigenvalues --    8.76905   8.98639   9.01681  22.17768  22.41108
 Alpha virt. eigenvalues --   22.73135  22.78965  22.90107  22.94259  23.31315
 Alpha virt. eigenvalues --   23.37439  32.66797  44.04724  57.55875
          Condensed to atoms (all electrons):
               1          2          3          4          5          6
     1  C    5.161515   0.295129  -0.076956  -0.094366   0.016474  -0.001795
     2  C    0.295129   4.559370   0.654320   0.315937  -0.071588   0.016471
     3  O   -0.076956   0.654320   7.901851  -0.134040   0.034670  -0.003559
     4  N   -0.094366   0.315937  -0.134040   6.860270   0.052063   0.011541
     5  C    0.016474  -0.071588   0.034670   0.052063   5.401769   0.257952
     6  C   -0.001795   0.016471  -0.003559   0.011541   0.257952   5.210962
     7  C    0.000029   0.000204  -0.000448   0.014586  -0.009604   0.359232
     8  C    0.000019   0.000585   0.000385   0.001415  -0.114662   0.036314
     9  Br  -0.000000   0.000002  -0.000000  -0.000033  -0.007055   0.026239
    10  C   -0.000239  -0.002736  -0.005272   0.005883   0.035439  -0.117671
    11  C   -0.000093  -0.022713   0.008420  -0.006230   0.329395   0.051759
    12  F   -0.001615   0.008935  -0.009323   0.002689  -0.073355   0.010509
    13  H    0.380401  -0.011401   0.000541  -0.001393  -0.001652   0.000125
    14  H    0.398969  -0.053559   0.003716   0.013325  -0.000592   0.000811
    15  H    0.407640  -0.041116   0.005812   0.005772  -0.000336  -0.000187
    16  H   -0.002179  -0.032191   0.004448   0.378840  -0.034686  -0.004113
    17  H   -0.000217   0.000404  -0.000154   0.006016  -0.027819   0.386229
    18  H    0.000000  -0.000039  -0.000000  -0.000339   0.008716  -0.030851
    19  H   -0.000003  -0.000036  -0.000074  -0.000031   0.021549  -0.006669
               7          8          9         10         11         12
     1  C    0.000029   0.000019  -0.000000  -0.000239  -0.000093  -0.001615
     2  C    0.000204   0.000585   0.000002  -0.002736  -0.022713   0.008935
     3  O   -0.000448   0.000385  -0.000000  -0.005272   0.008420  -0.009323
     4  N    0.014586   0.001415  -0.000033   0.005883  -0.006230   0.002689
     5  C   -0.009604  -0.114662  -0.007055   0.035439   0.329395  -0.073355
     6  C    0.359232   0.036314   0.026239  -0.117671   0.051759   0.010509
     7  C    5.198255   0.396489  -0.104415   0.024935  -0.129903  -0.001274
     8  C    0.396489   5.008897   0.364411   0.289134   0.066237   0.009865
     9  Br  -0.104415   0.364411  34.911427  -0.095849   0.023515  -0.000174
    10  C    0.024935   0.289134  -0.095849   5.301024   0.372952  -0.047359
    11  C   -0.129903   0.066237   0.023515   0.372952   4.859010   0.269497
    12  F   -0.001274   0.009865  -0.000174  -0.047359   0.269497   9.023361
    13  H   -0.000000   0.000001   0.000000  -0.000002   0.000213   0.000199
    14  H    0.000051  -0.000011   0.000000   0.000047  -0.000930   0.000014
    15  H   -0.000011   0.000001   0.000000   0.000003   0.000397   0.000008
    16  H    0.001744  -0.000366  -0.000003   0.000271  -0.002074  -0.000173
    17  H   -0.002341  -0.000711  -0.000232   0.002913  -0.003570  -0.000025
    18  H    0.414870  -0.047530  -0.006582   0.010356  -0.001531   0.000011
    19  H    0.014937  -0.058256  -0.008593   0.430347  -0.051418   0.001538
              13         14         15         16         17         18
     1  C    0.380401   0.398969   0.407640  -0.002179  -0.000217   0.000000
     2  C   -0.011401  -0.053559  -0.041116  -0.032191   0.000404  -0.000039
     3  O    0.000541   0.003716   0.005812   0.004448  -0.000154  -0.000000
     4  N   -0.001393   0.013325   0.005772   0.378840   0.006016  -0.000339
     5  C   -0.001652  -0.000592  -0.000336  -0.034686  -0.027819   0.008716
     6  C    0.000125   0.000811  -0.000187  -0.004113   0.386229  -0.030851
     7  C   -0.000000   0.000051  -0.000011   0.001744  -0.002341   0.414870
     8  C    0.000001  -0.000011   0.000001  -0.000366  -0.000711  -0.047530
     9  Br   0.000000   0.000000   0.000000  -0.000003  -0.000232  -0.006582
    10  C   -0.000002   0.000047   0.000003   0.000271   0.002913   0.010356
    11  C    0.000213  -0.000930   0.000397  -0.002074  -0.003570  -0.001531
    12  F    0.000199   0.000014   0.000008  -0.000173  -0.000025   0.000011
    13  H    0.492343  -0.022811  -0.015825  -0.000257   0.000007  -0.000000
    14  H   -0.022811   0.537860  -0.021759  -0.001922   0.000014   0.000000
    15  H   -0.015825  -0.021759   0.489798   0.000193   0.000003   0.000000
    16  H   -0.000257  -0.001922   0.000193   0.416475   0.000950   0.000010
    17  H    0.000007   0.000014   0.000003   0.000950   0.457588  -0.002806
    18  H   -0.000000   0.000000   0.000000   0.000010  -0.002806   0.472675
    19  H   -0.000000   0.000000  -0.000000   0.000022   0.000038   0.000058
              19
     1  C   -0.000003
     2  C   -0.000036
     3  O   -0.000074
     4  N   -0.000031
     5  C    0.021549
     6  C   -0.006669
     7  C    0.014937
     8  C   -0.058256
     9  Br  -0.008593
    10  C    0.430347
    11  C   -0.051418
    12  F    0.001538
    13  H   -0.000000
    14  H    0.000000
    15  H   -0.000000
    16  H    0.000022
    17  H    0.000038
    18  H    0.000058
    19  H    0.466631
 Mulliken charges:
               1
     1  C   -0.482710
     2  C    0.384022
     3  O   -0.384336
     4  N   -0.431905
     5  C    0.183321
     6  C   -0.203300
     7  C   -0.177337
     8  C    0.047781
     9  Br  -0.102659
    10  C   -0.204176
    11  C    0.237066
    12  F   -0.193330
    13  H    0.179513
    14  H    0.146776
    15  H    0.169607
    16  H    0.275013
    17  H    0.183714
    18  H    0.182982
    19  H    0.189958
 Sum of Mulliken charges =  -0.00000
 Mulliken charges with hydrogens summed into heavy atoms:
               1
     1  C    0.013187
     2  C    0.384022
     3  O   -0.384336
     4  N   -0.156892
     5  C    0.183321
     6  C   -0.019586
     7  C    0.005644
     8  C    0.047781
     9  Br  -0.102659
    10  C   -0.014218
    11  C    0.237066
    12  F   -0.193330
 Electronic spatial extent (au):  <R**2>=           3887.2902
 Charge=              0.0000 electrons
 Dipole moment (field-independent basis, Debye):
    X=              1.9495    Y=              4.2419    Z=             -2.6591  Tot=              5.3726
 Quadrupole moment (field-independent basis, Debye-Ang):
   XX=            -72.8776   YY=            -75.8458   ZZ=            -86.2004
   XY=             11.8104   XZ=             -8.8760   YZ=              0.6588
 Traceless Quadrupole moment (field-independent basis, Debye-Ang):
   XX=              5.4303   YY=              2.4621   ZZ=             -7.8924
   XY=             11.8104   XZ=             -8.8760   YZ=              0.6588
 Octapole moment (field-independent basis, Debye-Ang**2):
  XXX=             -1.3493  YYY=              1.1432  ZZZ=             -1.7441  XYY=            -28.9441
  XXY=             28.8651  XXZ=            -25.7053  XZZ=            -30.3830  YZZ=             -2.1814
  YYZ=             -3.1939  XYZ=              1.0734
 Hexadecapole moment (field-independent basis, Debye-Ang**3):
 XXXX=          -3339.8862 YYYY=           -461.2230 ZZZZ=           -187.2121 XXXY=             98.5814
 XXXZ=           -103.1232 YYYX=             16.0234 YYYZ=              0.9924 ZZZX=            -27.9724
 ZZZY=              6.3758 XXYY=           -699.7498 XXZZ=           -683.3505 YYZZ=           -118.8675
 XXYZ=             14.0110 YYXZ=            -21.9645 ZZXY=             12.0811
 N-N= 9.213707665033D+02 E-N=-9.256032621384D+03  KE= 3.107096656745D+03
 Calculating spin-rotation constants.
 Leave Link  601 at Tue Sep 17 10:47:58 2024, MaxMem=  1342177280 cpu:               4.3 elap:               4.3
 (Enter /groups/ReismanLab/Software/Gaussian16_RevC/Linux_Binary_AVX2-enabled-CPU/g16/l9999.exe)
 Unable to Open any file for archive entry.
 1\1\GINC-HPC-52-29\SP\RM062X\def2TZVP\C8H7Br1F1N1O1\MANTIND\17-Sep-202
 4\0\\#p M062X/def2tzvp geom=check guess=read scf(xqc,tight) integral(g
 rid=ultrafine) scrf(SMD, solvent=1,4-Dioxane) nmr=giao\\spe\\0,1\C,0,5
 .1762468759,0.4409314828,-0.4256699672\C,0,3.7600391342,0.2504417083,0
 .0874443797\O,0,3.5052059757,-0.1517843647,1.2070774016\N,0,2.77484802
 91,0.5326046838,-0.8460069567\C,0,1.3952918043,0.4079341061,-0.5802478
 996\C,0,0.5172217553,1.471231663,-0.8061959363\C,0,-0.8507429958,1.344
 6388666,-0.5754437167\C,0,-1.3410870739,0.1365397965,-0.0865146474\Br,
 0,-3.2077500063,-0.0492371944,0.2582445773\C,0,-0.496676398,-0.9447028
 957,0.1504984909\C,0,0.8577091126,-0.7990941832,-0.1168063839\F,0,1.66
 02127101,-1.8592261086,0.045899246\H,0,5.532182511,-0.5029497608,-0.85
 15630913\H,0,5.2550702574,1.2132021229,-1.1966783496\H,0,5.8194007863,
 0.6978413376,0.4161852403\H,0,3.0400841271,1.0235773028,-1.6867826398\
 H,0,0.9196512102,2.4158577602,-1.1590130691\H,0,-1.5216420984,2.175122
 8266,-0.7559531061\H,0,-0.8700189566,-1.8929965786,0.514972051\\Versio
 n=ES64L-G16RevC.02\State=1-A\HF=-3113.0987354\RMSD=3.229e-09\Dipole=0.
 6736407,1.1357049,-1.6505571\Quadrupole=2.9725845,1.1778332,-4.1504177
 ,5.4018825,-9.8432561,-2.8523978\PG=C01 [X(C8H7Br1F1N1O1)]\\@
 The archive entry for this job was punched.


 HE THAT IS UNAWARE OF HIS IGNORANCE WILL BE MISLED BY HIS KNOWLEDGE.

                                        -- WHATLEY
 Job cpu time:       0 days  0 hours 16 minutes  2.2 seconds.
 Elapsed time:       0 days  0 hours 16 minutes  7.3 seconds.
 File lengths (MBytes):  RWF=    280 Int=      0 D2E=      0 Chk=     32 Scr=     16
 Normal termination of Gaussian 16 at Tue Sep 17 10:47:58 2024.
