 Entering Gaussian System, Link 0=g16
 Input=smiles_00115_conf_4.gjf
 Output=smiles_00115_conf_4.log
 Initial command:
 /groups/ReismanLab/Software/Gaussian16_RevC/Linux_Binary_AVX2-enabled-CPU/g16/l1.exe "/central/groups/ReismanLab/DM/dft_final/smiles_00115/Gau-797189.inp" -scrdir="/central/groups/ReismanLab/DM/dft_final/smiles_00115/"
 Entering Link 1 = /groups/ReismanLab/Software/Gaussian16_RevC/Linux_Binary_AVX2-enabled-CPU/g16/l1.exe PID=    797193.
  
 Copyright (c) 1988-2021, Gaussian, Inc.  All Rights Reserved.
  
 This is part of the Gaussian(R) 16 program.  It is based on
 the Gaussian(R) 09 system (copyright 2009, Gaussian, Inc.),
 the Gaussian(R) 03 system (copyright 2003, Gaussian, Inc.),
 the Gaussian(R) 98 system (copyright 1998, Gaussian, Inc.),
 the Gaussian(R) 94 system (copyright 1995, Gaussian, Inc.),
 the Gaussian 92(TM) system (copyright 1992, Gaussian, Inc.),
 the Gaussian 90(TM) system (copyright 1990, Gaussian, Inc.),
 the Gaussian 88(TM) system (copyright 1988, Gaussian, Inc.),
 the Gaussian 86(TM) system (copyright 1986, Carnegie Mellon
 University), and the Gaussian 82(TM) system (copyright 1983,
 Carnegie Mellon University). Gaussian is a federally registered
 trademark of Gaussian, Inc.
  
 This software contains proprietary and confidential information,
 including trade secrets, belonging to Gaussian, Inc.
  
 This software is provided under written license and may be
 used, copied, transmitted, or stored only in accord with that
 written license.
  
 The following legend is applicable only to US Government
 contracts under FAR:
  
                    RESTRICTED RIGHTS LEGEND
  
 Use, reproduction and disclosure by the US Government is
 subject to restrictions as set forth in subparagraphs (a)
 and (c) of the Commercial Computer Software - Restricted
 Rights clause in FAR 52.227-19.
  
 Gaussian, Inc.
 340 Quinnipiac St., Bldg. 40, Wallingford CT 06492
  
  
 ---------------------------------------------------------------
 Warning -- This program may not be used in any manner that
 competes with the business of Gaussian, Inc. or will provide
 assistance to any competitor of Gaussian, Inc.  The licensee
 of this program is prohibited from giving any competitor of
 Gaussian, Inc. access to this program.  By using this program,
 the user acknowledges that Gaussian, Inc. is engaged in the
 business of creating and licensing software in the field of
 computational chemistry and represents and warrants to the
 licensee that it is not a competitor of Gaussian, Inc. and that
 it will not use this program in any manner prohibited above.
 ---------------------------------------------------------------
  

 Cite this work as:
 Gaussian 16, Revision C.02,
 M. J. Frisch, G. W. Trucks, H. B. Schlegel, G. E. Scuseria, 
 M. A. Robb, J. R. Cheeseman, G. Scalmani, V. Barone, 
 G. A. Petersson, H. Nakatsuji, X. Li, M. Caricato, A. V. Marenich, 
 J. Bloino, B. G. Janesko, R. Gomperts, B. Mennucci, H. P. Hratchian, 
 J. V. Ortiz, A. F. Izmaylov, J. L. Sonnenberg, D. Williams-Young, 
 F. Ding, F. Lipparini, F. Egidi, J. Goings, B. Peng, A. Petrone, 
 T. Henderson, D. Ranasinghe, V. G. Zakrzewski, J. Gao, N. Rega, 
 G. Zheng, W. Liang, M. Hada, M. Ehara, K. Toyota, R. Fukuda, 
 J. Hasegawa, M. Ishida, T. Nakajima, Y. Honda, O. Kitao, H. Nakai, 
 T. Vreven, K. Throssell, J. A. Montgomery, Jr., J. E. Peralta, 
 F. Ogliaro, M. J. Bearpark, J. J. Heyd, E. N. Brothers, K. N. Kudin, 
 V. N. Staroverov, T. A. Keith, R. Kobayashi, J. Normand, 
 K. Raghavachari, A. P. Rendell, J. C. Burant, S. S. Iyengar, 
 J. Tomasi, M. Cossi, J. M. Millam, M. Klene, C. Adamo, R. Cammi, 
 J. W. Ochterski, R. L. Martin, K. Morokuma, O. Farkas, 
 J. B. Foresman, and D. J. Fox, Gaussian, Inc., Wallingford CT, 2019.
 
 ******************************************
 Gaussian 16:  ES64L-G16RevC.02  7-Dec-2021
                17-Sep-2024 
 ******************************************
 %nprocshared=8
 Will use up to    8 processors via shared memory.
 %Mem=10GB
 %Chk=smiles_00115_conf_4.chk
 ----------------------------------------------------------------------
 #p B3LYP/gen pseudo=read EmpiricalDispersion=GD3BJ opt freq scf(xqc,ti
 ght) integral(grid=ultrafine)
 ----------------------------------------------------------------------
 1/18=20,19=15,26=4,38=1/1,3;
 2/9=110,12=2,17=6,18=5,40=1/2;
 3/5=7,11=2,16=1,17=8,25=1,30=1,71=1,74=-5,75=-5,124=41/1,2,3;
 4//1;
 5/5=2,8=3,13=1,32=2,38=5/2,8;
 6/7=2,8=2,9=2,10=2,28=1/1;
 7//1,2,3,16;
 1/18=20,19=15,26=4/3(2);
 2/9=110/2;
 99//99;
 2/9=110/2;
 3/5=7,6=1,11=2,16=1,17=8,25=1,30=1,71=1,74=-5,75=-5,82=7,124=41/1,2,3;
 4/5=5,16=3,69=1/1;
 5/5=2,8=3,13=1,32=2,38=5/2,8;
 7//1,2,3,16;
 1/18=20,19=15,26=4/3(-5);
 2/9=110/2;
 6/7=2,8=2,9=2,10=2,19=2,28=1/1;
 99/9=1/99;
 Leave Link    1 at Tue Sep 17 09:56:38 2024, MaxMem=  1342177280 cpu:               0.1 elap:               0.9
 (Enter /groups/ReismanLab/Software/Gaussian16_RevC/Linux_Binary_AVX2-enabled-CPU/g16/l101.exe)
 ----------------------------------
 opt-freq conformers_unique/conf_ae
 ----------------------------------
 Symbolic Z-matrix:
 Charge =  0 Multiplicity = 1
 C                    -0.51088  -3.60248   1.07699 
 O                    -0.9165   -2.23856   1.10343 
 C                    -1.0253   -1.60094  -0.0622 
 O                    -0.82988  -2.0885   -1.14253 
 C                    -1.44291  -0.17925   0.15853 
 C                    -2.7715    0.11656   0.43526 
 C                    -3.17381   1.43063   0.59704 
 C                    -2.2491    2.45567   0.48691 
 C                    -0.92098   2.17207   0.21921 
 C                    -0.52656   0.85623   0.0544 
 I                     1.50748   0.42446  -0.318 
 H                    -0.24635  -3.89188   0.05837 
 H                     0.34951  -3.70708   1.73681 
 H                    -1.33551  -4.21693   1.43923 
 H                    -3.48483  -0.68966   0.51688 
 H                    -4.20806   1.65346   0.80967 
 H                    -2.55776   3.48239   0.61222 
 H                    -0.1977    2.96903   0.13994 
 
 ITRead=  0  0  0  0  0  0  0  0  0  0  0  0  0  0  0  0  0  0
 MicOpt= -1 -1 -1 -1 -1 -1 -1 -1 -1 -1 -1 -1 -1 -1 -1 -1 -1 -1
 NAtoms=     18 NQM=       18 NQMF=       0 NMMI=      0 NMMIF=      0
                NMic=       0 NMicF=      0.
                    Isotopes and Nuclear Properties:
 (Nuclear quadrupole moments (NQMom) in fm**2, nuclear magnetic moments (NMagM)
  in nuclear magnetons)

  Atom         1           2           3           4           5           6           7           8           9          10
 IAtWgt=          12          16          12          16          12          12          12          12          12          12
 AtmWgt=  12.0000000  15.9949146  12.0000000  15.9949146  12.0000000  12.0000000  12.0000000  12.0000000  12.0000000  12.0000000
 NucSpn=           0           0           0           0           0           0           0           0           0           0
 AtZEff=  -0.0000000  -0.0000000  -0.0000000  -0.0000000  -0.0000000  -0.0000000  -0.0000000  -0.0000000  -0.0000000  -0.0000000
 NQMom=    0.0000000   0.0000000   0.0000000   0.0000000   0.0000000   0.0000000   0.0000000   0.0000000   0.0000000   0.0000000
 NMagM=    0.0000000   0.0000000   0.0000000   0.0000000   0.0000000   0.0000000   0.0000000   0.0000000   0.0000000   0.0000000
 AtZNuc=   6.0000000   8.0000000   6.0000000   8.0000000   6.0000000   6.0000000   6.0000000   6.0000000   6.0000000   6.0000000

  Atom        11          12          13          14          15          16          17          18
 IAtWgt=         127           1           1           1           1           1           1           1
 AtmWgt= 126.9004000   1.0078250   1.0078250   1.0078250   1.0078250   1.0078250   1.0078250   1.0078250
 NucSpn=           5           1           1           1           1           1           1           1
 AtZEff=  -0.0000000  -0.0000000  -0.0000000  -0.0000000  -0.0000000  -0.0000000  -0.0000000  -0.0000000
 NQMom=  -71.0000000   0.0000000   0.0000000   0.0000000   0.0000000   0.0000000   0.0000000   0.0000000
 NMagM=    2.8132800   2.7928460   2.7928460   2.7928460   2.7928460   2.7928460   2.7928460   2.7928460
 AtZNuc=  53.0000000   1.0000000   1.0000000   1.0000000   1.0000000   1.0000000   1.0000000   1.0000000
 Leave Link  101 at Tue Sep 17 09:56:39 2024, MaxMem=  1342177280 cpu:               0.4 elap:               0.4
 (Enter /groups/ReismanLab/Software/Gaussian16_RevC/Linux_Binary_AVX2-enabled-CPU/g16/l103.exe)

 GradGradGradGradGradGradGradGradGradGradGradGradGradGradGradGradGradGrad
 Berny optimization.
 Initialization pass.
                           ----------------------------
                           !    Initial Parameters    !
                           ! (Angstroms and Degrees)  !
 --------------------------                            --------------------------
 ! Name  Definition              Value          Derivative Info.                !
 --------------------------------------------------------------------------------
 ! R1    R(1,2)                  1.4232         estimate D2E/DX2                !
 ! R2    R(1,12)                 1.0915         estimate D2E/DX2                !
 ! R3    R(1,13)                 1.0893         estimate D2E/DX2                !
 ! R4    R(1,14)                 1.0903         estimate D2E/DX2                !
 ! R5    R(2,3)                  1.3331         estimate D2E/DX2                !
 ! R6    R(3,4)                  1.2013         estimate D2E/DX2                !
 ! R7    R(3,5)                  1.4981         estimate D2E/DX2                !
 ! R8    R(5,6)                  1.389          estimate D2E/DX2                !
 ! R9    R(5,10)                 1.3866         estimate D2E/DX2                !
 ! R10   R(6,7)                  1.3838         estimate D2E/DX2                !
 ! R11   R(6,15)                 1.0796         estimate D2E/DX2                !
 ! R12   R(7,8)                  1.3849         estimate D2E/DX2                !
 ! R13   R(7,16)                 1.0791         estimate D2E/DX2                !
 ! R14   R(8,9)                  1.3842         estimate D2E/DX2                !
 ! R15   R(8,17)                 1.0794         estimate D2E/DX2                !
 ! R16   R(9,10)                 1.3835         estimate D2E/DX2                !
 ! R17   R(9,18)                 1.0791         estimate D2E/DX2                !
 ! R18   R(10,11)                2.1124         estimate D2E/DX2                !
 ! A1    A(2,1,12)             109.9083         estimate D2E/DX2                !
 ! A2    A(2,1,13)             107.8113         estimate D2E/DX2                !
 ! A3    A(2,1,14)             108.5634         estimate D2E/DX2                !
 ! A4    A(12,1,13)            110.3898         estimate D2E/DX2                !
 ! A5    A(12,1,14)            110.1175         estimate D2E/DX2                !
 ! A6    A(13,1,14)            110.0            estimate D2E/DX2                !
 ! A7    A(1,2,3)              117.7366         estimate D2E/DX2                !
 ! A8    A(2,3,4)              125.3766         estimate D2E/DX2                !
 ! A9    A(2,3,5)              110.355          estimate D2E/DX2                !
 ! A10   A(4,3,5)              124.2658         estimate D2E/DX2                !
 ! A11   A(3,5,6)              119.8743         estimate D2E/DX2                !
 ! A12   A(3,5,10)             120.8895         estimate D2E/DX2                !
 ! A13   A(6,5,10)             119.2123         estimate D2E/DX2                !
 ! A14   A(5,6,7)              120.2405         estimate D2E/DX2                !
 ! A15   A(5,6,15)             119.2125         estimate D2E/DX2                !
 ! A16   A(7,6,15)             120.5462         estimate D2E/DX2                !
 ! A17   A(6,7,8)              119.9643         estimate D2E/DX2                !
 ! A18   A(6,7,16)             119.8528         estimate D2E/DX2                !
 ! A19   A(8,7,16)             120.1829         estimate D2E/DX2                !
 ! A20   A(7,8,9)              120.2908         estimate D2E/DX2                !
 ! A21   A(7,8,17)             120.2563         estimate D2E/DX2                !
 ! A22   A(9,8,17)             119.4526         estimate D2E/DX2                !
 ! A23   A(8,9,10)             119.4346         estimate D2E/DX2                !
 ! A24   A(8,9,18)             120.3961         estimate D2E/DX2                !
 ! A25   A(10,9,18)            120.1692         estimate D2E/DX2                !
 ! A26   A(5,10,9)             120.8558         estimate D2E/DX2                !
 ! A27   A(5,10,11)            119.7969         estimate D2E/DX2                !
 ! A28   A(9,10,11)            119.3333         estimate D2E/DX2                !
 ! D1    D(12,1,2,3)             5.8312         estimate D2E/DX2                !
 ! D2    D(13,1,2,3)           126.1997         estimate D2E/DX2                !
 ! D3    D(14,1,2,3)          -114.6667         estimate D2E/DX2                !
 ! D4    D(1,2,3,4)              1.2895         estimate D2E/DX2                !
 ! D5    D(1,2,3,5)           -179.2804         estimate D2E/DX2                !
 ! D6    D(2,3,5,6)            -78.1081         estimate D2E/DX2                !
 ! D7    D(2,3,5,10)           103.684          estimate D2E/DX2                !
 ! D8    D(4,3,5,6)            101.3297         estimate D2E/DX2                !
 ! D9    D(4,3,5,10)           -76.8782         estimate D2E/DX2                !
 ! D10   D(3,5,6,7)           -177.8765         estimate D2E/DX2                !
 ! D11   D(3,5,6,15)             1.796          estimate D2E/DX2                !
 ! D12   D(10,5,6,7)             0.3615         estimate D2E/DX2                !
 ! D13   D(10,5,6,15)         -179.966          estimate D2E/DX2                !
 ! D14   D(3,5,10,9)           178.0654         estimate D2E/DX2                !
 ! D15   D(3,5,10,11)           -3.3051         estimate D2E/DX2                !
 ! D16   D(6,5,10,9)            -0.1543         estimate D2E/DX2                !
 ! D17   D(6,5,10,11)          178.4753         estimate D2E/DX2                !
 ! D18   D(5,6,7,8)             -0.1914         estimate D2E/DX2                !
 ! D19   D(5,6,7,16)           179.8607         estimate D2E/DX2                !
 ! D20   D(15,6,7,8)          -179.8595         estimate D2E/DX2                !
 ! D21   D(15,6,7,16)            0.1926         estimate D2E/DX2                !
 ! D22   D(6,7,8,9)             -0.1909         estimate D2E/DX2                !
 ! D23   D(6,7,8,17)           179.9993         estimate D2E/DX2                !
 ! D24   D(16,7,8,9)           179.7569         estimate D2E/DX2                !
 ! D25   D(16,7,8,17)           -0.0529         estimate D2E/DX2                !
 ! D26   D(7,8,9,10)             0.3958         estimate D2E/DX2                !
 ! D27   D(7,8,9,18)          -179.5676         estimate D2E/DX2                !
 ! D28   D(17,8,9,10)         -179.7929         estimate D2E/DX2                !
 ! D29   D(17,8,9,18)            0.2437         estimate D2E/DX2                !
 ! D30   D(8,9,10,5)            -0.2226         estimate D2E/DX2                !
 ! D31   D(8,9,10,11)         -178.8584         estimate D2E/DX2                !
 ! D32   D(18,9,10,5)          179.7409         estimate D2E/DX2                !
 ! D33   D(18,9,10,11)           1.1051         estimate D2E/DX2                !
 --------------------------------------------------------------------------------
 Trust Radius=3.00D-01 FncErr=1.00D-07 GrdErr=1.00D-06 EigMax=2.50D+02 EigMin=1.00D-04
 Number of steps in this run=     89 maximum allowed number of steps=    108.
 GradGradGradGradGradGradGradGradGradGradGradGradGradGradGradGradGradGrad

 Leave Link  103 at Tue Sep 17 09:56:39 2024, MaxMem=  1342177280 cpu:               0.1 elap:               0.1
 (Enter /groups/ReismanLab/Software/Gaussian16_RevC/Linux_Binary_AVX2-enabled-CPU/g16/l202.exe)
                          Input orientation:                          
 ---------------------------------------------------------------------
 Center     Atomic      Atomic             Coordinates (Angstroms)
 Number     Number       Type             X           Y           Z
 ---------------------------------------------------------------------
      1          6           0       -0.510885   -3.602481    1.076985
      2          8           0       -0.916497   -2.238563    1.103426
      3          6           0       -1.025305   -1.600935   -0.062200
      4          8           0       -0.829879   -2.088502   -1.142530
      5          6           0       -1.442911   -0.179247    0.158530
      6          6           0       -2.771501    0.116558    0.435260
      7          6           0       -3.173810    1.430625    0.597038
      8          6           0       -2.249104    2.455670    0.486915
      9          6           0       -0.920977    2.172066    0.219213
     10          6           0       -0.526563    0.856226    0.054397
     11         53           0        1.507476    0.424461   -0.318001
     12          1           0       -0.246353   -3.891882    0.058372
     13          1           0        0.349511   -3.707084    1.736814
     14          1           0       -1.335514   -4.216929    1.439234
     15          1           0       -3.484830   -0.689655    0.516882
     16          1           0       -4.208062    1.653464    0.809665
     17          1           0       -2.557761    3.482388    0.612223
     18          1           0       -0.197698    2.969026    0.139940
 ---------------------------------------------------------------------
                    Distance matrix (angstroms):
                    1          2          3          4          5
     1  C    0.000000
     2  O    1.423199   0.000000
     3  C    2.359779   1.333076   0.000000
     4  O    2.705576   2.252629   1.201260   0.000000
     5  C    3.664801   2.326096   1.498103   2.390360   0.000000
     6  C    4.399256   3.071495   2.499290   3.334907   1.388968
     7  C    5.714340   4.337606   3.773728   4.572129   2.404160
     8  C    6.330150   4.918511   4.272618   5.031778   2.774991
     9  C    5.852294   4.498388   3.784919   4.473822   2.409309
    10  C    4.574495   3.290931   2.509975   3.193126   1.386630
    11  I    4.715509   3.871407   3.253097   3.529597   3.048988
    12  H    1.091468   2.067534   2.422755   2.243847   3.901979
    13  H    1.089310   2.039733   3.092318   3.507334   4.260210
    14  H    1.090313   2.049945   3.032154   3.383988   4.237288
    15  H    4.200312   3.056057   2.686081   3.429167   2.135033
    16  H    6.431605   5.105738   4.634782   5.406061   3.380660
    17  H    7.389255   5.971960   5.351957   6.090940   3.854387
    18  H    6.645364   5.344526   4.648693   5.255756   3.385636
                    6          7          8          9         10
     6  C    0.000000
     7  C    1.383762   0.000000
     8  C    2.397293   1.384892   0.000000
     9  C    2.774208   2.401612   1.384202   0.000000
    10  C    2.394142   2.762664   2.390072   1.383533   0.000000
    11  I    4.355669   4.874843   4.345756   3.039754   2.112443
    12  H    4.752474   6.098299   6.669789   6.103479   4.756370
    13  H    5.104410   6.333161   6.804013   6.203358   4.941845
    14  H    4.674306   5.998624   6.801848   6.517633   5.320627
    15  H    1.079574   2.144469   3.379496   3.853751   3.369716
    16  H    2.136812   1.079141   2.141313   3.379720   3.841803
    17  H    3.377250   2.142307   1.079408   2.133181   3.366551
    18  H    3.853344   3.381251   2.142940   1.079150   2.139953
                   11         12         13         14         15
    11  I    0.000000
    12  H    4.674226   0.000000
    13  H    4.757395   1.790634   0.000000
    14  H    5.719525   1.788493   1.785442   0.000000
    15  H    5.182799   4.577360   5.029442   4.232252   0.000000
    16  H    5.953944   6.856416   7.096939   6.565775   2.469614
    17  H    5.171304   7.747853   7.836163   7.839472   4.274868
    18  H    3.097118   6.861566   6.886211   7.390585   4.932877
                   16         17         18
    16  H    0.000000
    17  H    2.471324   0.000000
    18  H    4.273436   2.460994   0.000000
 Stoichiometry    C8H7IO2
 Framework group  C1[X(C8H7IO2)]
 Deg. of freedom    48
 Full point group                 C1      NOp   1
 Largest Abelian subgroup         C1      NOp   1
 Largest concise Abelian subgroup C1      NOp   1
                         Standard orientation:                         
 ---------------------------------------------------------------------
 Center     Atomic      Atomic             Coordinates (Angstroms)
 Number     Number       Type             X           Y           Z
 ---------------------------------------------------------------------
      1          6           0       -1.596045    3.284154   -0.659878
      2          8           0       -1.572713    1.861951   -0.707715
      3          6           0       -1.228072    1.209405    0.402464
      4          8           0       -0.954427    1.721935    1.453871
      5          6           0       -1.241349   -0.269391    0.163089
      6          6           0       -2.448427   -0.956279    0.143627
      7          6           0       -2.466581   -2.328594   -0.033061
      8          6           0       -1.278162   -3.020908   -0.195197
      9          6           0       -0.069866   -2.345675   -0.185390
     10          6           0       -0.058907   -0.974132   -0.003977
     11         53           0        1.784125    0.057939   -0.025828
     12          1           0       -1.212759    3.630019    0.301773
     13          1           0       -0.972683    3.655148   -1.472516
     14          1           0       -2.624625    3.619209   -0.796054
     15          1           0       -3.369065   -0.407524    0.273145
     16          1           0       -3.407840   -2.856265   -0.044910
     17          1           0       -1.286831   -4.091403   -0.333349
     18          1           0        0.856747   -2.882543   -0.318531
 ---------------------------------------------------------------------
 Rotational constants (GHZ):           0.7882353           0.6567836           0.3877618
 Leave Link  202 at Tue Sep 17 09:56:39 2024, MaxMem=  1342177280 cpu:               0.1 elap:               0.0
 (Enter /groups/ReismanLab/Software/Gaussian16_RevC/Linux_Binary_AVX2-enabled-CPU/g16/l301.exe)
 General basis read from cards:  (5D, 7F)
 Centers:       1      3      5      6      7      8      9     10     12     13
 Centers:      14     15     16     17     18      2      4
 6-31G(d,p)
 ****
 Centers:      11
 LANL2DZ
 ****
 ======================================================================================================
                                       Pseudopotential Parameters
 ======================================================================================================
  Center     Atomic      Valence      Angular      Power
  Number     Number     Electrons     Momentum     of R      Exponent        Coefficient   SO-Coeffient
 ======================================================================================================
    1          6
                                   No pseudopotential on this center.
    2          8
                                   No pseudopotential on this center.
    3          6
                                   No pseudopotential on this center.
    4          8
                                   No pseudopotential on this center.
    5          6
                                   No pseudopotential on this center.
    6          6
                                   No pseudopotential on this center.
    7          6
                                   No pseudopotential on this center.
    8          6
                                   No pseudopotential on this center.
    9          6
                                   No pseudopotential on this center.
   10          6
                                   No pseudopotential on this center.
   11         53            7
                                      F and up 
                                                     0        1.0715702       -0.07476210    0.00000000
                                                     1       44.1936028      -30.08112240    0.00000000
                                                     2       12.9367609      -75.37227210    0.00000000
                                                     2        3.1956412      -22.05637580    0.00000000
                                                     2        0.8589806       -1.69795850    0.00000000
                                      S - F
                                                     0      127.9202670        2.93800360    0.00000000
                                                     1       78.6211465       41.24712670    0.00000000
                                                     2       36.5146237      287.86800950    0.00000000
                                                     2        9.9065681      114.37585060    0.00000000
                                                     2        1.9420086       37.65477140    0.00000000
                                      P - F
                                                     0       13.0035304        2.22226300    0.00000000
                                                     1       76.0331404       39.40908310    0.00000000
                                                     2       24.1961684      177.40750020    0.00000000
                                                     2        6.4053433       77.98894620    0.00000000
                                                     2        1.5851786       25.75476410    0.00000000
                                      D - F
                                                     0       40.4278108        7.05243600    0.00000000
                                                     1       28.9084375       33.30416350    0.00000000
                                                     2       15.6268936      186.94538750    0.00000000
                                                     2        4.1442856       71.96883610    0.00000000
                                                     2        0.9377235        9.36306570    0.00000000
   12          1
                                   No pseudopotential on this center.
   13          1
                                   No pseudopotential on this center.
   14          1
                                   No pseudopotential on this center.
   15          1
                                   No pseudopotential on this center.
   16          1
                                   No pseudopotential on this center.
   17          1
                                   No pseudopotential on this center.
   18          1
                                   No pseudopotential on this center.
 ======================================================================================================
 Ernie: Thresh=  0.10000D-02 Tol=  0.10000D-05 Strict=F.
 There are   193 symmetry adapted cartesian basis functions of A   symmetry.
 There are   183 symmetry adapted basis functions of A   symmetry.
   183 basis functions,   341 primitive gaussians,   193 cartesian basis functions
    39 alpha electrons       39 beta electrons
       nuclear repulsion energy       549.2942854591 Hartrees.
 IExCor=  402 DFT=T Ex+Corr=B3LYP ExCW=0 ScaHFX=  0.200000
 ScaDFX=  0.800000  0.720000  1.000000  0.810000 ScalE2=  1.000000  1.000000
 IRadAn=      5 IRanWt=     -1 IRanGd=            0 ICorTp=0 IEmpDi=141
 NAtoms=   18 NActive=   18 NUniq=   18 SFac= 1.00D+00 NAtFMM=   60 NAOKFM=F Big=F
 Integral buffers will be    131072 words long.
 Raffenetti 2 integral format.
 Two-electron integral symmetry is turned on.
 R6Disp:  Grimme-D3(BJ) Dispersion energy=       -0.0385915183 Hartrees.
 Nuclear repulsion after empirical dispersion term =      549.2556939408 Hartrees.
 Leave Link  301 at Tue Sep 17 09:56:39 2024, MaxMem=  1342177280 cpu:               0.1 elap:               0.1
 (Enter /groups/ReismanLab/Software/Gaussian16_RevC/Linux_Binary_AVX2-enabled-CPU/g16/l302.exe)
 NPDir=0 NMtPBC=     1 NCelOv=     1 NCel=       1 NClECP=     1 NCelD=      1
         NCelK=      1 NCelE2=     1 NClLst=     1 CellRange=     0.0.
 One-electron integrals computed using PRISM.
 One-electron integral symmetry used in STVInt
   1 Symmetry operations used in ECPInt.
 ECPInt:  NShTT=    2145 NPrTT=   11679 LenC2=    2012 LenP2D=    7578.
 LDataN:  DoStor=T MaxTD1= 5 Len=  102
 NBasis=   183 RedAO= T EigKep=  4.49D-04  NBF=   183
 NBsUse=   183 1.00D-06 EigRej= -1.00D+00 NBFU=   183
 Precomputing XC quadrature grid using
 IXCGrd= 4 IRadAn=           5 IRanWt=          -1 IRanGd=           0 AccXCQ= 0.00D+00.
 Defaulting to unpruned grid for atomic number  53.
 Generated NRdTot=       0 NPtTot=           0 NUsed=           0 NTot=          32
 NSgBfM=   193   193   193   193   193 MxSgAt=    18 MxSgA2=    18.
 Leave Link  302 at Tue Sep 17 09:56:39 2024, MaxMem=  1342177280 cpu:               1.3 elap:               0.3
 (Enter /groups/ReismanLab/Software/Gaussian16_RevC/Linux_Binary_AVX2-enabled-CPU/g16/l303.exe)
 DipDrv:  MaxL=1.
 Leave Link  303 at Tue Sep 17 09:56:39 2024, MaxMem=  1342177280 cpu:               0.1 elap:               0.1
 (Enter /groups/ReismanLab/Software/Gaussian16_RevC/Linux_Binary_AVX2-enabled-CPU/g16/l401.exe)
 ExpMin= 1.05D-01 ExpMax= 5.48D+03 ExpMxC= 8.25D+02 IAcc=3 IRadAn=         5 AccDes= 0.00D+00
 Harris functional with IExCor=  402 and IRadAn=       5 diagonalized for initial guess.
 HarFok:  IExCor=  402 AccDes= 0.00D+00 IRadAn=         5 IDoV= 1 UseB2=F ITyADJ=14
 ICtDFT=  3500011 ScaDFX=  1.000000  1.000000  1.000000  1.000000
 Defaulting to unpruned grid for atomic number  53.
 FoFCou: FMM=F IPFlag=           0 FMFlag=      100000 FMFlg1=           0
         NFxFlg=           0 DoJE=T BraDBF=F KetDBF=T FulRan=T
         wScrn=  0.000000 ICntrl=       500 IOpCl=  0 I1Cent=   200000004 NGrid=           0
         NMat0=    1 NMatS0=      1 NMatT0=    0 NMatD0=    1 NMtDS0=    0 NMtDT0=    0
 Petite list used in FoFCou.
 Harris En= -470.873863440272    
 JPrj=0 DoOrth=F DoCkMO=F.
 Leave Link  401 at Tue Sep 17 09:56:40 2024, MaxMem=  1342177280 cpu:               4.7 elap:               0.7
 (Enter /groups/ReismanLab/Software/Gaussian16_RevC/Linux_Binary_AVX2-enabled-CPU/g16/l502.exe)
 Integral symmetry usage will be decided dynamically.
 Closed shell SCF:
 Using DIIS extrapolation, IDIIS=  1040.
 NGot=  1342177280 LenX=  1342098694 LenY=  1342061004
 Requested convergence on RMS density matrix=1.00D-08 within  32 cycles.
 Requested convergence on MAX density matrix=1.00D-06.
 Requested convergence on             energy=1.00D-06.
 No special actions if energy rises.
 Fock matrices will be formed incrementally for  20 cycles.
 Integral accuracy reduced to 1.0D-05 until final iterations.

 Cycle   1  Pass 0  IDiag  1:
 FoFJK:  IHMeth= 1 ICntrl=       0 DoSepK=F KAlg= 0 I1Cent=           0 FoldK=F
 IRaf= 890000000 NMat=       1 IRICut=       1 DoRegI=T DoRafI=F ISym2E= 0 IDoP0=0 IntGTp=1.
 FoFCou: FMM=F IPFlag=           0 FMFlag=      100000 FMFlg1=           0
         NFxFlg=           0 DoJE=F BraDBF=F KetDBF=F FulRan=T
         wScrn=  0.000000 ICntrl=         0 IOpCl=  0 I1Cent=           0 NGrid=           0
         NMat0=    1 NMatS0=      1 NMatT0=    0 NMatD0=    1 NMtDS0=    0 NMtDT0=    0
 Symmetry not used in FoFCou.
 Defaulting to unpruned grid for atomic number  53.
 Defaulting to unpruned grid for atomic number  53.
 Defaulting to unpruned grid for atomic number  53.
 Defaulting to unpruned grid for atomic number  53.
 Defaulting to unpruned grid for atomic number  53.
 Defaulting to unpruned grid for atomic number  53.
 Defaulting to unpruned grid for atomic number  53.
 Defaulting to unpruned grid for atomic number  53.
 E= -470.683026082459    
 DIIS: error= 2.95D-02 at cycle   1 NSaved=   1.
 NSaved= 1 IEnMin= 1 EnMin= -470.683026082459     IErMin= 1 ErrMin= 2.95D-02
 ErrMax= 2.95D-02  0.00D+00 EMaxC= 1.00D-01 BMatC= 2.44D-01 BMatP= 2.44D-01
 IDIUse=3 WtCom= 7.05D-01 WtEn= 2.95D-01
 Coeff-Com:  0.100D+01
 Coeff-En:   0.100D+01
 Coeff:      0.100D+01
 Gap=     0.353 Goal=   None    Shift=    0.000
 GapD=    0.353 DampG=1.000 DampE=0.500 DampFc=0.5000 IDamp=-1.
 Damping current iteration by 5.00D-01
 RMSDP=6.02D-03 MaxDP=2.03D-01              OVMax= 2.60D-01

 Cycle   2  Pass 0  IDiag  1:
 RMSU=  2.98D-03    CP:  9.83D-01
 E= -470.759239192998     Delta-E=       -0.076213110539 Rises=F Damp=T
 DIIS: error= 9.54D-03 at cycle   2 NSaved=   2.
 NSaved= 2 IEnMin= 2 EnMin= -470.759239192998     IErMin= 2 ErrMin= 9.54D-03
 ErrMax= 9.54D-03  0.00D+00 EMaxC= 1.00D-01 BMatC= 3.48D-02 BMatP= 2.44D-01
 IDIUse=3 WtCom= 9.05D-01 WtEn= 9.54D-02
 Coeff-Com:  0.208D+00 0.792D+00
 Coeff-En:   0.307D+00 0.693D+00
 Coeff:      0.218D+00 0.782D+00
 Gap=     0.239 Goal=   None    Shift=    0.000
 RMSDP=1.84D-03 MaxDP=5.49D-02 DE=-7.62D-02 OVMax= 1.79D-01

 Cycle   3  Pass 0  IDiag  1:
 RMSU=  1.70D-03    CP:  9.77D-01  7.75D-01
 E= -470.897204188775     Delta-E=       -0.137964995777 Rises=F Damp=F
 DIIS: error= 1.16D-02 at cycle   3 NSaved=   3.
 NSaved= 3 IEnMin= 3 EnMin= -470.897204188775     IErMin= 2 ErrMin= 9.54D-03
 ErrMax= 1.16D-02  0.00D+00 EMaxC= 1.00D-01 BMatC= 3.54D-02 BMatP= 3.48D-02
 IDIUse=3 WtCom= 8.84D-01 WtEn= 1.16D-01
 Coeff-Com:  0.705D-01 0.498D+00 0.432D+00
 Coeff-En:   0.000D+00 0.000D+00 0.100D+01
 Coeff:      0.623D-01 0.440D+00 0.498D+00
 Gap=     0.215 Goal=   None    Shift=    0.000
 RMSDP=1.28D-03 MaxDP=4.80D-02 DE=-1.38D-01 OVMax= 7.38D-02

 Cycle   4  Pass 0  IDiag  1:
 RMSU=  1.03D-03    CP:  9.81D-01  7.95D-01  5.55D-01
 E= -470.921486458824     Delta-E=       -0.024282270049 Rises=F Damp=F
 DIIS: error= 4.48D-03 at cycle   4 NSaved=   4.
 NSaved= 4 IEnMin= 4 EnMin= -470.921486458824     IErMin= 4 ErrMin= 4.48D-03
 ErrMax= 4.48D-03  0.00D+00 EMaxC= 1.00D-01 BMatC= 7.62D-03 BMatP= 3.48D-02
 IDIUse=3 WtCom= 9.55D-01 WtEn= 4.48D-02
 Coeff-Com:  0.136D-01 0.122D+00 0.325D+00 0.539D+00
 Coeff-En:   0.000D+00 0.000D+00 0.214D+00 0.786D+00
 Coeff:      0.130D-01 0.117D+00 0.320D+00 0.550D+00
 Gap=     0.214 Goal=   None    Shift=    0.000
 RMSDP=4.69D-04 MaxDP=1.53D-02 DE=-2.43D-02 OVMax= 2.48D-02

 Cycle   5  Pass 0  IDiag  1:
 RMSU=  1.76D-04    CP:  9.80D-01  7.92D-01  6.59D-01  6.14D-01
 E= -470.927704248679     Delta-E=       -0.006217789856 Rises=F Damp=F
 DIIS: error= 8.47D-04 at cycle   5 NSaved=   5.
 NSaved= 5 IEnMin= 5 EnMin= -470.927704248679     IErMin= 5 ErrMin= 8.47D-04
 ErrMax= 8.47D-04  0.00D+00 EMaxC= 1.00D-01 BMatC= 2.45D-04 BMatP= 7.62D-03
 IDIUse=3 WtCom= 9.92D-01 WtEn= 8.47D-03
 Coeff-Com:  0.146D-02 0.194D-01 0.121D+00 0.276D+00 0.583D+00
 Coeff-En:   0.000D+00 0.000D+00 0.000D+00 0.000D+00 0.100D+01
 Coeff:      0.145D-02 0.193D-01 0.120D+00 0.273D+00 0.586D+00
 Gap=     0.212 Goal=   None    Shift=    0.000
 RMSDP=8.40D-05 MaxDP=2.95D-03 DE=-6.22D-03 OVMax= 3.71D-03

 Cycle   6  Pass 0  IDiag  1:
 RMSU=  6.08D-05    CP:  9.80D-01  7.96D-01  6.63D-01  6.33D-01  7.00D-01
 E= -470.927894522785     Delta-E=       -0.000190274105 Rises=F Damp=F
 DIIS: error= 1.94D-04 at cycle   6 NSaved=   6.
 NSaved= 6 IEnMin= 6 EnMin= -470.927894522785     IErMin= 6 ErrMin= 1.94D-04
 ErrMax= 1.94D-04  0.00D+00 EMaxC= 1.00D-01 BMatC= 2.56D-05 BMatP= 2.45D-04
 IDIUse=3 WtCom= 9.98D-01 WtEn= 1.94D-03
 Coeff-Com: -0.387D-03-0.833D-03 0.319D-01 0.901D-01 0.311D+00 0.568D+00
 Coeff-En:   0.000D+00 0.000D+00 0.000D+00 0.000D+00 0.191D-01 0.981D+00
 Coeff:     -0.386D-03-0.831D-03 0.318D-01 0.899D-01 0.311D+00 0.569D+00
 Gap=     0.212 Goal=   None    Shift=    0.000
 RMSDP=3.00D-05 MaxDP=9.73D-04 DE=-1.90D-04 OVMax= 1.62D-03

 Cycle   7  Pass 0  IDiag  1:
 RMSU=  1.91D-05    CP:  9.80D-01  7.94D-01  6.64D-01  6.40D-01  7.26D-01
                    CP:  6.66D-01
 E= -470.927915113664     Delta-E=       -0.000020590879 Rises=F Damp=F
 DIIS: error= 6.73D-05 at cycle   7 NSaved=   7.
 NSaved= 7 IEnMin= 7 EnMin= -470.927915113664     IErMin= 7 ErrMin= 6.73D-05
 ErrMax= 6.73D-05  0.00D+00 EMaxC= 1.00D-01 BMatC= 1.82D-06 BMatP= 2.56D-05
 IDIUse=1 WtCom= 1.00D+00 WtEn= 0.00D+00
 Coeff-Com: -0.221D-03-0.201D-02 0.890D-02 0.291D-01 0.129D+00 0.298D+00
 Coeff-Com:  0.536D+00
 Coeff:     -0.221D-03-0.201D-02 0.890D-02 0.291D-01 0.129D+00 0.298D+00
 Coeff:      0.536D+00
 Gap=     0.212 Goal=   None    Shift=    0.000
 RMSDP=1.15D-05 MaxDP=2.16D-04 DE=-2.06D-05 OVMax= 5.00D-04

 Cycle   8  Pass 0  IDiag  1:
 RMSU=  5.60D-06    CP:  9.80D-01  7.94D-01  6.65D-01  6.42D-01  7.31D-01
                    CP:  6.97D-01  5.05D-01
 E= -470.927916788352     Delta-E=       -0.000001674688 Rises=F Damp=F
 DIIS: error= 3.63D-05 at cycle   8 NSaved=   8.
 NSaved= 8 IEnMin= 8 EnMin= -470.927916788352     IErMin= 8 ErrMin= 3.63D-05
 ErrMax= 3.63D-05  0.00D+00 EMaxC= 1.00D-01 BMatC= 2.17D-07 BMatP= 1.82D-06
 IDIUse=1 WtCom= 1.00D+00 WtEn= 0.00D+00
 Coeff-Com: -0.619D-04-0.112D-02 0.269D-02 0.935D-02 0.507D-01 0.124D+00
 Coeff-Com:  0.312D+00 0.502D+00
 Coeff:     -0.619D-04-0.112D-02 0.269D-02 0.935D-02 0.507D-01 0.124D+00
 Coeff:      0.312D+00 0.502D+00
 Gap=     0.212 Goal=   None    Shift=    0.000
 RMSDP=3.35D-06 MaxDP=9.06D-05 DE=-1.67D-06 OVMax= 2.10D-04

 Initial convergence to 1.0D-05 achieved.  Increase integral accuracy.
 Cycle   9  Pass 1  IDiag  1:
 E= -470.927908332598     Delta-E=        0.000008455754 Rises=F Damp=F
 DIIS: error= 4.03D-05 at cycle   1 NSaved=   1.
 NSaved= 1 IEnMin= 1 EnMin= -470.927908332598     IErMin= 1 ErrMin= 4.03D-05
 ErrMax= 4.03D-05  0.00D+00 EMaxC= 1.00D-01 BMatC= 6.23D-08 BMatP= 6.23D-08
 IDIUse=1 WtCom= 1.00D+00 WtEn= 0.00D+00
 Coeff-Com:  0.100D+01
 Coeff:      0.100D+01
 Gap=     0.212 Goal=   None    Shift=    0.000
 RMSDP=3.35D-06 MaxDP=9.06D-05 DE= 8.46D-06 OVMax= 1.48D-04

 Cycle  10  Pass 1  IDiag  1:
 RMSU=  1.06D-05    CP:  1.00D+00
 E= -470.927908287541     Delta-E=        0.000000045058 Rises=F Damp=F
 DIIS: error= 2.04D-05 at cycle   2 NSaved=   2.
 NSaved= 2 IEnMin= 1 EnMin= -470.927908332598     IErMin= 2 ErrMin= 2.04D-05
 ErrMax= 2.04D-05  0.00D+00 EMaxC= 1.00D-01 BMatC= 9.76D-08 BMatP= 6.23D-08
 IDIUse=1 WtCom= 1.00D+00 WtEn= 0.00D+00
 Coeff-Com:  0.568D+00 0.432D+00
 Coeff:      0.568D+00 0.432D+00
 Gap=     0.212 Goal=   None    Shift=    0.000
 RMSDP=2.37D-06 MaxDP=5.04D-05 DE= 4.51D-08 OVMax= 1.24D-04

 Cycle  11  Pass 1  IDiag  1:
 RMSU=  2.30D-06    CP:  1.00D+00  9.47D-01
 E= -470.927908377389     Delta-E=       -0.000000089848 Rises=F Damp=F
 DIIS: error= 7.29D-06 at cycle   3 NSaved=   3.
 NSaved= 3 IEnMin= 3 EnMin= -470.927908377389     IErMin= 3 ErrMin= 7.29D-06
 ErrMax= 7.29D-06  0.00D+00 EMaxC= 1.00D-01 BMatC= 1.13D-08 BMatP= 6.23D-08
 IDIUse=1 WtCom= 1.00D+00 WtEn= 0.00D+00
 Coeff-Com:  0.592D-01 0.253D+00 0.688D+00
 Coeff:      0.592D-01 0.253D+00 0.688D+00
 Gap=     0.212 Goal=   None    Shift=    0.000
 RMSDP=7.20D-07 MaxDP=1.93D-05 DE=-8.98D-08 OVMax= 3.32D-05

 Cycle  12  Pass 1  IDiag  1:
 RMSU=  3.93D-07    CP:  1.00D+00  9.70D-01  7.59D-01
 E= -470.927908387206     Delta-E=       -0.000000009817 Rises=F Damp=F
 DIIS: error= 2.17D-06 at cycle   4 NSaved=   4.
 NSaved= 4 IEnMin= 4 EnMin= -470.927908387206     IErMin= 4 ErrMin= 2.17D-06
 ErrMax= 2.17D-06  0.00D+00 EMaxC= 1.00D-01 BMatC= 1.81D-09 BMatP= 1.13D-08
 IDIUse=1 WtCom= 1.00D+00 WtEn= 0.00D+00
 Coeff-Com: -0.184D-02 0.130D+00 0.432D+00 0.440D+00
 Coeff:     -0.184D-02 0.130D+00 0.432D+00 0.440D+00
 Gap=     0.212 Goal=   None    Shift=    0.000
 RMSDP=2.15D-07 MaxDP=9.18D-06 DE=-9.82D-09 OVMax= 8.34D-06

 Cycle  13  Pass 1  IDiag  1:
 RMSU=  7.89D-08    CP:  1.00D+00  9.70D-01  7.67D-01  4.93D-01
 E= -470.927908388717     Delta-E=       -0.000000001511 Rises=F Damp=F
 DIIS: error= 4.96D-07 at cycle   5 NSaved=   5.
 NSaved= 5 IEnMin= 5 EnMin= -470.927908388717     IErMin= 5 ErrMin= 4.96D-07
 ErrMax= 4.96D-07  0.00D+00 EMaxC= 1.00D-01 BMatC= 7.01D-11 BMatP= 1.81D-09
 IDIUse=1 WtCom= 1.00D+00 WtEn= 0.00D+00
 Coeff-Com: -0.332D-02 0.716D-01 0.242D+00 0.272D+00 0.418D+00
 Coeff:     -0.332D-02 0.716D-01 0.242D+00 0.272D+00 0.418D+00
 Gap=     0.212 Goal=   None    Shift=    0.000
 RMSDP=4.57D-08 MaxDP=1.52D-06 DE=-1.51D-09 OVMax= 1.90D-06

 Cycle  14  Pass 1  IDiag  1:
 RMSU=  3.35D-08    CP:  1.00D+00  9.69D-01  7.72D-01  4.88D-01  6.48D-01
 E= -470.927908388772     Delta-E=       -0.000000000055 Rises=F Damp=F
 DIIS: error= 1.14D-07 at cycle   6 NSaved=   6.
 NSaved= 6 IEnMin= 6 EnMin= -470.927908388772     IErMin= 6 ErrMin= 1.14D-07
 ErrMax= 1.14D-07  0.00D+00 EMaxC= 1.00D-01 BMatC= 3.88D-12 BMatP= 7.01D-11
 IDIUse=1 WtCom= 1.00D+00 WtEn= 0.00D+00
 Coeff-Com: -0.167D-02 0.295D-01 0.990D-01 0.115D+00 0.234D+00 0.524D+00
 Coeff:     -0.167D-02 0.295D-01 0.990D-01 0.115D+00 0.234D+00 0.524D+00
 Gap=     0.212 Goal=   None    Shift=    0.000
 RMSDP=1.47D-08 MaxDP=4.59D-07 DE=-5.49D-11 OVMax= 7.62D-07

 Cycle  15  Pass 1  IDiag  1:
 RMSU=  1.02D-08    CP:  1.00D+00  9.70D-01  7.70D-01  4.95D-01  6.96D-01
                    CP:  7.95D-01
 E= -470.927908388780     Delta-E=       -0.000000000008 Rises=F Damp=F
 DIIS: error= 4.31D-08 at cycle   7 NSaved=   7.
 NSaved= 7 IEnMin= 7 EnMin= -470.927908388780     IErMin= 7 ErrMin= 4.31D-08
 ErrMax= 4.31D-08  0.00D+00 EMaxC= 1.00D-01 BMatC= 6.44D-13 BMatP= 3.88D-12
 IDIUse=1 WtCom= 1.00D+00 WtEn= 0.00D+00
 Coeff-Com: -0.356D-03 0.364D-02 0.115D-01 0.153D-01 0.544D-01 0.318D+00
 Coeff-Com:  0.598D+00
 Coeff:     -0.356D-03 0.364D-02 0.115D-01 0.153D-01 0.544D-01 0.318D+00
 Coeff:      0.598D+00
 Gap=     0.212 Goal=   None    Shift=    0.000
 RMSDP=4.98D-09 MaxDP=1.15D-07 DE=-8.30D-12 OVMax= 2.35D-07

 SCF Done:  E(RB3LYP) =  -470.927908389     A.U. after   15 cycles
            NFock= 15  Conv=0.50D-08     -V/T= 2.0240
 KE= 4.599088106984D+02 PE=-2.191608175662D+03 EE= 7.115157626338D+02
 Leave Link  502 at Tue Sep 17 09:56:49 2024, MaxMem=  1342177280 cpu:              68.1 elap:               8.8
 (Enter /groups/ReismanLab/Software/Gaussian16_RevC/Linux_Binary_AVX2-enabled-CPU/g16/l508.exe)
 QCSCF skips out because SCF is already converged.
 Leave Link  508 at Tue Sep 17 09:56:49 2024, MaxMem=  1342177280 cpu:               0.0 elap:               0.2
 (Enter /groups/ReismanLab/Software/Gaussian16_RevC/Linux_Binary_AVX2-enabled-CPU/g16/l601.exe)
 Copying SCF densities to generalized density rwf, IOpCl= 0 IROHF=0.

 **********************************************************************

            Population analysis using the SCF Density.

 **********************************************************************

 Orbital symmetries:
       Occupied  (A) (A) (A) (A) (A) (A) (A) (A) (A) (A) (A) (A)
                 (A) (A) (A) (A) (A) (A) (A) (A) (A) (A) (A) (A)
                 (A) (A) (A) (A) (A) (A) (A) (A) (A) (A) (A) (A)
                 (A) (A) (A)
       Virtual   (A) (A) (A) (A) (A) (A) (A) (A) (A) (A) (A) (A)
                 (A) (A) (A) (A) (A) (A) (A) (A) (A) (A) (A) (A)
                 (A) (A) (A) (A) (A) (A) (A) (A) (A) (A) (A) (A)
                 (A) (A) (A) (A) (A) (A) (A) (A) (A) (A) (A) (A)
                 (A) (A) (A) (A) (A) (A) (A) (A) (A) (A) (A) (A)
                 (A) (A) (A) (A) (A) (A) (A) (A) (A) (A) (A) (A)
                 (A) (A) (A) (A) (A) (A) (A) (A) (A) (A) (A) (A)
                 (A) (A) (A) (A) (A) (A) (A) (A) (A) (A) (A) (A)
                 (A) (A) (A) (A) (A) (A) (A) (A) (A) (A) (A) (A)
                 (A) (A) (A) (A) (A) (A) (A) (A) (A) (A) (A) (A)
                 (A) (A) (A) (A) (A) (A) (A) (A) (A) (A) (A) (A)
                 (A) (A) (A) (A) (A) (A) (A) (A) (A) (A) (A) (A)
 The electronic state is 1-A.
 Alpha  occ. eigenvalues --  -19.19431 -19.13709 -10.31794 -10.24177 -10.23633
 Alpha  occ. eigenvalues --  -10.21357 -10.20390 -10.20363 -10.20063 -10.19879
 Alpha  occ. eigenvalues --   -1.11491  -1.02535  -0.88347  -0.78903  -0.77661
 Alpha  occ. eigenvalues --   -0.73358  -0.68407  -0.63949  -0.61164  -0.57249
 Alpha  occ. eigenvalues --   -0.54005  -0.49700  -0.49343  -0.47563  -0.46809
 Alpha  occ. eigenvalues --   -0.45511  -0.42735  -0.41663  -0.39898  -0.39064
 Alpha  occ. eigenvalues --   -0.37568  -0.35316  -0.34520  -0.30826  -0.29842
 Alpha  occ. eigenvalues --   -0.28611  -0.26642  -0.26287  -0.24182
 Alpha virt. eigenvalues --   -0.02969  -0.02200  -0.01743   0.01321   0.09744
 Alpha virt. eigenvalues --    0.11562   0.12773   0.13910   0.15439   0.16154
 Alpha virt. eigenvalues --    0.16805   0.17359   0.17823   0.23881   0.27029
 Alpha virt. eigenvalues --    0.28198   0.29957   0.33114   0.34003   0.36514
 Alpha virt. eigenvalues --    0.37462   0.39579   0.41675   0.45252   0.50119
 Alpha virt. eigenvalues --    0.51257   0.51983   0.53821   0.54597   0.56753
 Alpha virt. eigenvalues --    0.57226   0.58071   0.59501   0.59739   0.60434
 Alpha virt. eigenvalues --    0.61003   0.62240   0.64658   0.65175   0.67724
 Alpha virt. eigenvalues --    0.68761   0.70997   0.75945   0.76449   0.80214
 Alpha virt. eigenvalues --    0.81610   0.82282   0.82604   0.83168   0.85087
 Alpha virt. eigenvalues --    0.87154   0.88660   0.92061   0.94200   0.95347
 Alpha virt. eigenvalues --    0.97162   0.99953   1.01273   1.05844   1.07583
 Alpha virt. eigenvalues --    1.10093   1.10643   1.12263   1.13575   1.17474
 Alpha virt. eigenvalues --    1.22663   1.24069   1.31270   1.31794   1.32765
 Alpha virt. eigenvalues --    1.38736   1.39420   1.40908   1.45188   1.49703
 Alpha virt. eigenvalues --    1.50413   1.51683   1.61856   1.66748   1.71922
 Alpha virt. eigenvalues --    1.74235   1.75697   1.76338   1.80984   1.82296
 Alpha virt. eigenvalues --    1.86311   1.87128   1.90627   1.91597   1.92264
 Alpha virt. eigenvalues --    1.93591   1.97120   1.97698   1.98282   1.99552
 Alpha virt. eigenvalues --    2.01763   2.01884   2.04178   2.05184   2.06834
 Alpha virt. eigenvalues --    2.10327   2.10942   2.13057   2.26578   2.27622
 Alpha virt. eigenvalues --    2.28846   2.33909   2.37127   2.39289   2.41286
 Alpha virt. eigenvalues --    2.42456   2.45333   2.47656   2.48900   2.50316
 Alpha virt. eigenvalues --    2.51416   2.52258   2.54645   2.56177   2.61848
 Alpha virt. eigenvalues --    2.62182   2.66502   2.68602   2.71897   2.74858
 Alpha virt. eigenvalues --    2.79051   2.82284   2.87020   2.89752   2.95247
 Alpha virt. eigenvalues --    2.97160   3.02096   3.05212   3.16880   3.19508
 Alpha virt. eigenvalues --    3.21082   3.23913   3.32119   3.33056   3.40699
 Alpha virt. eigenvalues --    3.42931   3.47990   3.87625  10.19033
          Condensed to atoms (all electrons):
               1          2          3          4          5          6
     1  C    4.750062   0.226821  -0.026448  -0.014518   0.006125  -0.000101
     2  O    0.226821   8.185545   0.275047  -0.075610  -0.092195   0.002694
     3  C   -0.026448   0.275047   4.466802   0.605762   0.304612  -0.029507
     4  O   -0.014518  -0.075610   0.605762   7.934499  -0.067320  -0.000997
     5  C    0.006125  -0.092195   0.304612  -0.067320   4.865770   0.539902
     6  C   -0.000101   0.002694  -0.029507  -0.000997   0.539902   4.812093
     7  C    0.000008   0.000060   0.006116  -0.000054  -0.009733   0.517468
     8  C    0.000000   0.000006   0.000144   0.000002  -0.038687  -0.030633
     9  C    0.000005  -0.000085   0.005895  -0.000020  -0.020731  -0.054870
    10  C   -0.000060  -0.001248  -0.028766  -0.002190   0.465637  -0.017103
    11  I   -0.000011  -0.000796   0.010111  -0.004556  -0.082582   0.000300
    12  H    0.376323  -0.034025  -0.007375   0.024483   0.001049   0.000002
    13  H    0.390683  -0.033594   0.001993   0.000493  -0.000238   0.000004
    14  H    0.389213  -0.033247   0.000637   0.000455  -0.000176  -0.000026
    15  H   -0.000126   0.001589  -0.008767   0.000266  -0.047695   0.371788
    16  H   -0.000000   0.000000  -0.000154   0.000001   0.004740  -0.037776
    17  H    0.000000  -0.000000   0.000002  -0.000000   0.000451   0.005173
    18  H   -0.000000   0.000001  -0.000155   0.000001   0.003536   0.001053
               7          8          9         10         11         12
     1  C    0.000008   0.000000   0.000005  -0.000060  -0.000011   0.376323
     2  O    0.000060   0.000006  -0.000085  -0.001248  -0.000796  -0.034025
     3  C    0.006116   0.000144   0.005895  -0.028766   0.010111  -0.007375
     4  O   -0.000054   0.000002  -0.000020  -0.002190  -0.004556   0.024483
     5  C   -0.009733  -0.038687  -0.020731   0.465637  -0.082582   0.001049
     6  C    0.517468  -0.030633  -0.054870  -0.017103   0.000300   0.000002
     7  C    4.823841   0.542031  -0.010479  -0.070579   0.001552   0.000001
     8  C    0.542031   4.772891   0.546618  -0.024741   0.000968   0.000000
     9  C   -0.010479   0.546618   4.817707   0.473665  -0.068243   0.000000
    10  C   -0.070579  -0.024741   0.473665   5.355244   0.273512  -0.000035
    11  I    0.001552   0.000968  -0.068243   0.273512   6.685620   0.000057
    12  H    0.000001   0.000000   0.000000  -0.000035   0.000057   0.549585
    13  H    0.000000  -0.000000  -0.000000   0.000024   0.000248  -0.028182
    14  H   -0.000001   0.000000  -0.000000  -0.000003   0.000012  -0.030677
    15  H   -0.042834   0.004935   0.000250   0.007840  -0.000278  -0.000007
    16  H    0.367468  -0.041024   0.004962   0.000813   0.000033  -0.000000
    17  H   -0.042548   0.372132  -0.043692   0.006888  -0.000279   0.000000
    18  H    0.004368  -0.032682   0.369766  -0.037461  -0.001398  -0.000000
              13         14         15         16         17         18
     1  C    0.390683   0.389213  -0.000126  -0.000000   0.000000  -0.000000
     2  O   -0.033594  -0.033247   0.001589   0.000000  -0.000000   0.000001
     3  C    0.001993   0.000637  -0.008767  -0.000154   0.000002  -0.000155
     4  O    0.000493   0.000455   0.000266   0.000001  -0.000000   0.000001
     5  C   -0.000238  -0.000176  -0.047695   0.004740   0.000451   0.003536
     6  C    0.000004  -0.000026   0.371788  -0.037776   0.005173   0.001053
     7  C    0.000000  -0.000001  -0.042834   0.367468  -0.042548   0.004368
     8  C   -0.000000   0.000000   0.004935  -0.041024   0.372132  -0.032682
     9  C   -0.000000  -0.000000   0.000250   0.004962  -0.043692   0.369766
    10  C    0.000024  -0.000003   0.007840   0.000813   0.006888  -0.037461
    11  I    0.000248   0.000012  -0.000278   0.000033  -0.000279  -0.001398
    12  H   -0.028182  -0.030677  -0.000007  -0.000000   0.000000  -0.000000
    13  H    0.577982  -0.036946   0.000003  -0.000000  -0.000000   0.000000
    14  H   -0.036946   0.588608  -0.000001   0.000000  -0.000000  -0.000000
    15  H    0.000003  -0.000001   0.617290  -0.006202  -0.000190   0.000017
    16  H   -0.000000   0.000000  -0.006202   0.616886  -0.006520  -0.000189
    17  H   -0.000000  -0.000000  -0.000190  -0.006520   0.617724  -0.006708
    18  H    0.000000  -0.000000   0.000017  -0.000189  -0.006708   0.592372
 Mulliken charges:
               1
     1  C   -0.097975
     2  O   -0.420963
     3  C    0.424050
     4  O   -0.400696
     5  C    0.167533
     6  C   -0.079466
     7  C   -0.086685
     8  C   -0.071960
     9  C   -0.020746
    10  C   -0.401436
    11  I    0.185729
    12  H    0.148802
    13  H    0.127530
    14  H    0.122152
    15  H    0.102123
    16  H    0.096962
    17  H    0.097567
    18  H    0.107481
 Sum of Mulliken charges =  -0.00000
 Mulliken charges with hydrogens summed into heavy atoms:
               1
     1  C    0.300509
     2  O   -0.420963
     3  C    0.424050
     4  O   -0.400696
     5  C    0.167533
     6  C    0.022657
     7  C    0.010277
     8  C    0.025608
     9  C    0.086734
    10  C   -0.401436
    11  I    0.185729
 Electronic spatial extent (au):  <R**2>=           2153.7638
 Charge=             -0.0000 electrons
 Dipole moment (field-independent basis, Debye):
    X=             -1.7290    Y=             -0.7244    Z=             -1.7389  Tot=              2.5570
 Quadrupole moment (field-independent basis, Debye-Ang):
   XX=            -68.8610   YY=            -63.1720   ZZ=            -83.5641
   XY=              0.3136   XZ=              0.4410   YZ=             -3.6297
 Traceless Quadrupole moment (field-independent basis, Debye-Ang):
   XX=              3.0047   YY=              8.6937   ZZ=            -11.6984
   XY=              0.3136   XZ=              0.4410   YZ=             -3.6297
 Octapole moment (field-independent basis, Debye-Ang**2):
  XXX=             96.8599  YYY=             25.2158  ZZZ=             -5.7538  XYY=             19.7402
  XXY=              8.8772  XXZ=              0.9519  XZZ=             44.6392  YZZ=              6.6078
  YYZ=            -16.2144  XYZ=              3.8413
 Hexadecapole moment (field-independent basis, Debye-Ang**3):
 XXXX=          -1186.7378 YYYY=          -1409.1362 ZZZZ=           -222.4635 XXXY=             13.9009
 XXXZ=             -9.6109 YYYX=            -35.6614 YYYZ=            -19.1895 ZZZX=              1.4760
 ZZZY=            -11.6422 XXYY=           -431.7617 XXZZ=           -268.7459 YYZZ=           -323.4305
 XXYZ=             -2.9745 YYXZ=             15.3195 ZZXY=             -5.7707
 N-N= 5.492556939408D+02 E-N=-2.191608169889D+03  KE= 4.599088106984D+02
 No NMR shielding tensors so no spin-rotation constants.
 Leave Link  601 at Tue Sep 17 09:56:49 2024, MaxMem=  1342177280 cpu:               0.7 elap:               0.1
 (Enter /groups/ReismanLab/Software/Gaussian16_RevC/Linux_Binary_AVX2-enabled-CPU/g16/l701.exe)
 ... and contract with generalized density number  0.
 Compute integral first derivatives.
 R6Disp: Adding Grimme-D3(BJ) dispersion energy 1st derivatives to the gradient.
   1 Symmetry operations used in ECPInt.
 ECPInt:  NShTT=    2145 NPrTT=   11679 LenC2=    2012 LenP2D=    7578.
 LDataN:  DoStor=T MaxTD1= 6 Len=  172
 Leave Link  701 at Tue Sep 17 09:56:50 2024, MaxMem=  1342177280 cpu:               1.2 elap:               0.2
 (Enter /groups/ReismanLab/Software/Gaussian16_RevC/Linux_Binary_AVX2-enabled-CPU/g16/l702.exe)
 L702 exits ... SP integral derivatives will be done elsewhere.
 Leave Link  702 at Tue Sep 17 09:56:50 2024, MaxMem=  1342177280 cpu:               0.1 elap:               0.0
 (Enter /groups/ReismanLab/Software/Gaussian16_RevC/Linux_Binary_AVX2-enabled-CPU/g16/l703.exe)
 Integral derivatives from FoFJK, PRISM(SPDF).
 Compute integral first derivatives, UseDBF=F ICtDFT=           0.
 Calling FoFJK, ICntrl=      2127 FMM=F ISym2X=0 I1Cent= 0 IOpClX= 0 NMat=1 NMatS=1 NMatT=0.
 FoFJK:  IHMeth= 1 ICntrl=    2127 DoSepK=F KAlg= 0 I1Cent=           0 FoldK=F
 IRaf=         0 NMat=       1 IRICut=       1 DoRegI=T DoRafI=F ISym2E= 0 IDoP0=0 IntGTp=1.
 FoFCou: FMM=F IPFlag=           0 FMFlag=      100000 FMFlg1=         800
         NFxFlg=           0 DoJE=F BraDBF=F KetDBF=F FulRan=T
         wScrn=  0.000000 ICntrl=      2127 IOpCl=  0 I1Cent=           0 NGrid=           0
         NMat0=    1 NMatS0=      1 NMatT0=    0 NMatD0=    1 NMtDS0=    0 NMtDT0=    0
 Symmetry not used in FoFCou.
 Defaulting to unpruned grid for atomic number  53.
 Defaulting to unpruned grid for atomic number  53.
 Defaulting to unpruned grid for atomic number  53.
 Defaulting to unpruned grid for atomic number  53.
 Defaulting to unpruned grid for atomic number  53.
 Defaulting to unpruned grid for atomic number  53.
 Defaulting to unpruned grid for atomic number  53.
 Defaulting to unpruned grid for atomic number  53.
 Leave Link  703 at Tue Sep 17 09:56:52 2024, MaxMem=  1342177280 cpu:              19.0 elap:               2.4
 (Enter /groups/ReismanLab/Software/Gaussian16_RevC/Linux_Binary_AVX2-enabled-CPU/g16/l716.exe)
 Dipole        =-6.80254809D-01-2.85007424D-01-6.84152126D-01
 ***** Axes restored to original set *****
 -------------------------------------------------------------------
 Center     Atomic                   Forces (Hartrees/Bohr)
 Number     Number              X              Y              Z
 -------------------------------------------------------------------
      1        6           0.003116970   -0.007624140   -0.004470521
      2        8          -0.002438238    0.002490981    0.013738941
      3        6          -0.004608566    0.008045859    0.002206861
      4        8           0.001517326   -0.006461105   -0.014886255
      5        6           0.002763456   -0.007401042   -0.001747267
      6        6          -0.003057515   -0.003183769    0.000822687
      7        6          -0.006523810    0.000715304    0.000933599
      8        6          -0.002430989    0.005303421    0.000904913
      9        6           0.005179390    0.005648433   -0.000697043
     10        6           0.002473811   -0.001112220   -0.000711732
     11       53           0.010245682    0.001026414   -0.001367107
     12        1           0.000054122   -0.000893872    0.000871523
     13        1           0.000927093   -0.000088988    0.001583035
     14        1          -0.001137815   -0.001095725    0.000953934
     15        1          -0.002770422   -0.003070747    0.000722974
     16        1          -0.004278897    0.000885117    0.000797433
     17        1          -0.001276485    0.004240903    0.000533745
     18        1           0.002244885    0.002575175   -0.000189719
 -------------------------------------------------------------------
 Cartesian Forces:  Max     0.014886255 RMS     0.004434575
 Leave Link  716 at Tue Sep 17 09:56:52 2024, MaxMem=  1342177280 cpu:               0.1 elap:               0.1
 (Enter /groups/ReismanLab/Software/Gaussian16_RevC/Linux_Binary_AVX2-enabled-CPU/g16/l103.exe)

 GradGradGradGradGradGradGradGradGradGradGradGradGradGradGradGradGradGrad
 Berny optimization.
 FormGI is forming the generalized inverse of G from B-inverse, IUseBI=4.
 Internal  Forces:  Max     0.016257066 RMS     0.004674952
 Search for a local minimum.
 Step number   1 out of a maximum of   89
 All quantities printed in internal units (Hartrees-Bohrs-Radians)
 RMS Force = .46750D-02 SwitMx=.10000D-02 MixMth= 1
 Mixed Optimization -- RFO/linear search
 Second derivative matrix not updated -- first step.
 ITU=  0
     Eigenvalues ---    0.00791   0.01385   0.01398   0.01800   0.02254
     Eigenvalues ---    0.02270   0.02286   0.02292   0.02293   0.02296
     Eigenvalues ---    0.02298   0.02302   0.02577   0.10403   0.10601
     Eigenvalues ---    0.13585   0.16000   0.16000   0.16000   0.16000
     Eigenvalues ---    0.16000   0.16000   0.16000   0.22000   0.22492
     Eigenvalues ---    0.24485   0.24986   0.24994   0.24999   0.25000
     Eigenvalues ---    0.25000   0.32577   0.34644   0.34776   0.34893
     Eigenvalues ---    0.36046   0.36066   0.36097   0.36098   0.41982
     Eigenvalues ---    0.43500   0.43736   0.47785   0.48056   0.48321
     Eigenvalues ---    0.48442   0.58785   1.04192
 RFO step:  Lambda=-4.32329210D-03 EMin= 7.91035101D-03
 Linear search not attempted -- first point.
 Iteration  1 RMS(Cart)=  0.05571715 RMS(Int)=  0.00064552
 Iteration  2 RMS(Cart)=  0.00191399 RMS(Int)=  0.00013755
 Iteration  3 RMS(Cart)=  0.00000191 RMS(Int)=  0.00013754
 Iteration  4 RMS(Cart)=  0.00000000 RMS(Int)=  0.00013754
 ITry= 1 IFail=0 DXMaxC= 2.50D-01 DCOld= 1.00D+10 DXMaxT= 3.00D-01 DXLimC= 3.00D+00 Rises=F
 Variable       Old X    -DE/DX   Delta X   Delta X   Delta X     New X
                                 (Linear)    (Quad)   (Total)
    R1        2.68946   0.01016   0.00000   0.02396   0.02396   2.71342
    R2        2.06258  -0.00056   0.00000  -0.00160  -0.00160   2.06097
    R3        2.05850   0.00170   0.00000   0.00481   0.00481   2.06331
    R4        2.06039   0.00180   0.00000   0.00510   0.00510   2.06549
    R5        2.51915   0.01458   0.00000   0.02461   0.02461   2.54376
    R6        2.27005   0.01626   0.00000   0.01554   0.01554   2.28559
    R7        2.83101   0.00462   0.00000   0.01401   0.01401   2.84502
    R8        2.62477   0.01064   0.00000   0.02223   0.02223   2.64700
    R9        2.62035   0.01492   0.00000   0.03125   0.03126   2.65161
   R10        2.61493   0.00917   0.00000   0.01842   0.01841   2.63334
   R11        2.04010   0.00418   0.00000   0.01145   0.01145   2.05155
   R12        2.61707   0.00926   0.00000   0.01866   0.01865   2.63572
   R13        2.03928   0.00444   0.00000   0.01216   0.01216   2.05144
   R14        2.61576   0.01079   0.00000   0.02208   0.02208   2.63784
   R15        2.03978   0.00446   0.00000   0.01222   0.01222   2.05201
   R16        2.61450   0.01156   0.00000   0.02398   0.02399   2.63849
   R17        2.03930   0.00342   0.00000   0.00936   0.00936   2.04866
   R18        3.99194   0.00990   0.00000   0.07061   0.07061   4.06254
    A1        1.91826   0.00208   0.00000   0.01396   0.01394   1.93221
    A2        1.88166  -0.00078   0.00000  -0.00539  -0.00540   1.87626
    A3        1.89479  -0.00020   0.00000  -0.00182  -0.00184   1.89295
    A4        1.92667  -0.00007   0.00000   0.00088   0.00087   1.92754
    A5        1.92191  -0.00037   0.00000  -0.00091  -0.00094   1.92098
    A6        1.91986  -0.00066   0.00000  -0.00678  -0.00681   1.91305
    A7        2.05489   0.00063   0.00000   0.00247   0.00247   2.05737
    A8        2.18823   0.00052   0.00000   0.00186   0.00116   2.18939
    A9        1.92606   0.00004   0.00000  -0.00002  -0.00071   1.92535
   A10        2.16885  -0.00058   0.00000  -0.00246  -0.00315   2.16570
   A11        2.09220  -0.00581   0.00000  -0.02312  -0.02313   2.06908
   A12        2.10992   0.00735   0.00000   0.02864   0.02864   2.13856
   A13        2.08065  -0.00153   0.00000  -0.00544  -0.00544   2.07521
   A14        2.09859   0.00241   0.00000   0.00979   0.00977   2.10837
   A15        2.08065  -0.00109   0.00000  -0.00419  -0.00418   2.07647
   A16        2.10393  -0.00132   0.00000  -0.00561  -0.00560   2.09832
   A17        2.09377  -0.00051   0.00000  -0.00413  -0.00416   2.08961
   A18        2.09183   0.00022   0.00000   0.00183   0.00184   2.09367
   A19        2.09759   0.00030   0.00000   0.00230   0.00231   2.09990
   A20        2.09947   0.00011   0.00000  -0.00067  -0.00069   2.09878
   A21        2.09887  -0.00006   0.00000   0.00031   0.00031   2.09918
   A22        2.08484  -0.00005   0.00000   0.00035   0.00036   2.08520
   A23        2.08453   0.00137   0.00000   0.00654   0.00654   2.09107
   A24        2.10131  -0.00077   0.00000  -0.00376  -0.00376   2.09755
   A25        2.09735  -0.00061   0.00000  -0.00278  -0.00279   2.09456
   A26        2.10933  -0.00185   0.00000  -0.00615  -0.00614   2.10319
   A27        2.09085   0.00719   0.00000   0.02764   0.02763   2.11848
   A28        2.08276  -0.00534   0.00000  -0.02163  -0.02165   2.06111
    D1        0.10177   0.00015   0.00000   0.00773   0.00774   0.10952
    D2        2.20260   0.00080   0.00000   0.01369   0.01367   2.21627
    D3       -2.00131  -0.00053   0.00000   0.00156   0.00156  -1.99975
    D4        0.02251   0.00082   0.00000   0.04025   0.04030   0.06280
    D5       -3.12903  -0.00041   0.00000  -0.02684  -0.02689   3.12726
    D6       -1.36324   0.00065   0.00000   0.03659   0.03655  -1.32670
    D7        1.80963   0.00060   0.00000   0.03358   0.03352   1.84315
    D8        1.76854  -0.00056   0.00000  -0.02957  -0.02951   1.73903
    D9       -1.34178  -0.00060   0.00000  -0.03258  -0.03253  -1.37431
   D10       -3.10453   0.00010   0.00000   0.00806   0.00810  -3.09643
   D11        0.03135   0.00008   0.00000   0.00640   0.00643   0.03777
   D12        0.00631   0.00031   0.00000   0.01164   0.01164   0.01795
   D13       -3.14100   0.00029   0.00000   0.00999   0.00997  -3.13103
   D14        3.10783  -0.00022   0.00000  -0.00512  -0.00504   3.10279
   D15       -0.05768  -0.00047   0.00000  -0.01231  -0.01233  -0.07002
   D16       -0.00269  -0.00019   0.00000  -0.00780  -0.00776  -0.01045
   D17        3.11498  -0.00044   0.00000  -0.01498  -0.01506   3.09993
   D18       -0.00334  -0.00023   0.00000  -0.00817  -0.00816  -0.01150
   D19        3.13916  -0.00012   0.00000  -0.00475  -0.00476   3.13440
   D20       -3.13914  -0.00022   0.00000  -0.00649  -0.00648   3.13757
   D21        0.00336  -0.00011   0.00000  -0.00307  -0.00308   0.00029
   D22       -0.00333   0.00003   0.00000   0.00069   0.00067  -0.00266
   D23        3.14158   0.00010   0.00000   0.00350   0.00347  -3.13813
   D24        3.13735  -0.00008   0.00000  -0.00274  -0.00275   3.13460
   D25       -0.00092  -0.00001   0.00000   0.00007   0.00006  -0.00087
   D26        0.00691   0.00008   0.00000   0.00316   0.00313   0.01004
   D27       -3.13405   0.00010   0.00000   0.00494   0.00492  -3.12912
   D28       -3.13798   0.00002   0.00000   0.00037   0.00035  -3.13763
   D29        0.00425   0.00004   0.00000   0.00216   0.00215   0.00640
   D30       -0.00389   0.00000   0.00000   0.00047   0.00051  -0.00338
   D31       -3.12167   0.00009   0.00000   0.00695   0.00690  -3.11477
   D32        3.13707  -0.00002   0.00000  -0.00131  -0.00129   3.13578
   D33        0.01929   0.00007   0.00000   0.00517   0.00511   0.02440
         Item               Value     Threshold  Converged?
 Maximum Force            0.016257     0.000450     NO 
 RMS     Force            0.004675     0.000300     NO 
 Maximum Displacement     0.250438     0.001800     NO 
 RMS     Displacement     0.056986     0.001200     NO 
 Predicted change in Energy=-2.208005D-03
 Lowest energy point so far.  Saving SCF results.
 GradGradGradGradGradGradGradGradGradGradGradGradGradGradGradGradGradGrad

 Leave Link  103 at Tue Sep 17 09:56:52 2024, MaxMem=  1342177280 cpu:               0.1 elap:               0.0
 (Enter /groups/ReismanLab/Software/Gaussian16_RevC/Linux_Binary_AVX2-enabled-CPU/g16/l202.exe)
                          Input orientation:                          
 ---------------------------------------------------------------------
 Center     Atomic      Atomic             Coordinates (Angstroms)
 Number     Number       Type             X           Y           Z
 ---------------------------------------------------------------------
      1          6           0       -0.548669   -3.643370    1.082774
      2          8           0       -0.908759   -2.253572    1.106026
      3          6           0       -0.989575   -1.604526   -0.070491
      4          8           0       -0.843644   -2.107749   -1.160592
      5          6           0       -1.396179   -0.171795    0.149822
      6          6           0       -2.736437    0.105434    0.447988
      7          6           0       -3.175022    1.418420    0.607871
      8          6           0       -2.267902    2.470579    0.483528
      9          6           0       -0.925106    2.212001    0.203288
     10          6           0       -0.492215    0.895259    0.035212
     11         53           0        1.596535    0.556987   -0.344733
     12          1           0       -0.278611   -3.954927    0.073096
     13          1           0        0.296553   -3.774973    1.761322
     14          1           0       -1.400481   -4.227582    1.440248
     15          1           0       -3.434791   -0.719887    0.546732
     16          1           0       -4.218247    1.617976    0.832207
     17          1           0       -2.599358    3.496924    0.609537
     18          1           0       -0.218754    3.030007    0.118327
 ---------------------------------------------------------------------
                    Distance matrix (angstroms):
                    1          2          3          4          5
     1  C    0.000000
     2  O    1.435878   0.000000
     3  C    2.383549   1.346100   0.000000
     4  O    2.734564   2.272238   1.209483   0.000000
     5  C    3.693306   2.342157   1.505517   2.402165   0.000000
     6  C    4.386663   3.055868   2.498862   3.326917   1.400733
     7  C    5.722323   4.343689   3.791379   4.582210   2.429583
     8  C    6.379281   4.955035   4.306685   5.068799   2.802392
     9  C    5.933007   4.555936   3.826877   4.530678   2.430484
    10  C    4.658297   3.351908   2.550973   3.251385   1.403172
    11  I    4.927746   4.034903   3.381614   3.704175   3.119623
    12  H    1.090619   2.087736   2.459771   2.292012   3.945495
    13  H    1.091854   2.048622   3.117773   3.552080   4.294783
    14  H    1.093012   2.061604   3.054767   3.401196   4.256128
    15  H    4.142921   3.007630   2.672571   3.399288   2.147995
    16  H    6.419529   5.100645   4.650130   5.407423   3.410719
    17  H    7.443996   6.014385   5.392461   6.134186   3.888249
    18  H    6.750775   5.419212   4.701990   5.331290   3.411577
                    6          7          8          9         10
     6  C    0.000000
     7  C    1.393504   0.000000
     8  C    2.411369   1.394763   0.000000
     9  C    2.788983   2.419830   1.395886   0.000000
    10  C    2.414693   2.792684   2.415716   1.396228   0.000000
    11  I    4.427974   4.941384   4.391096   3.065628   2.149806
    12  H    4.761091   6.127646   6.738907   6.202089   4.855036
    13  H    5.097198   6.352449   6.871397   6.305853   5.041099
    14  H    4.641593   5.976553   6.821517   6.574518   5.389116
    15  H    1.085635   2.154896   3.397749   3.874590   3.395453
    16  H    2.152016   1.085573   2.156932   3.404877   3.878252
    17  H    3.398102   2.156750   1.085875   2.149228   3.396845
    18  H    3.873052   3.402408   2.155305   1.084105   2.153796
                   11         12         13         14         15
    11  I    0.000000
    12  H    4.903889   0.000000
    13  H    4.989118   1.792569   0.000000
    14  H    5.921179   1.789424   1.785460   0.000000
    15  H    5.266817   4.544369   4.973098   4.152193   0.000000
    16  H    6.026822   6.866895   7.094405   6.517674   2.482117
    17  H    5.211466   7.823281   7.911599   7.861004   4.299232
    18  H    3.102503   6.985337   7.019453   7.471047   4.958642
                   16         17         18
    16  H    0.000000
    17  H    2.490147   0.000000
    18  H    4.301093   2.475191   0.000000
 Stoichiometry    C8H7IO2
 Framework group  C1[X(C8H7IO2)]
 Deg. of freedom    48
 Full point group                 C1      NOp   1
 RotChk:  IX=3 Diff= 4.22D-01
 Largest Abelian subgroup         C1      NOp   1
 Largest concise Abelian subgroup C1      NOp   1
                         Standard orientation:                         
 ---------------------------------------------------------------------
 Center     Atomic      Atomic             Coordinates (Angstroms)
 Number     Number       Type             X           Y           Z
 ---------------------------------------------------------------------
      1          6           0       -2.614357    2.699666   -0.658477
      2          8           0       -2.121138    1.352238   -0.712497
      3          6           0       -1.568003    0.839264    0.402351
      4          8           0       -1.503558    1.396757    1.473750
      5          6           0       -1.129622   -0.580899    0.162475
      6          6           0       -2.104869   -1.585761    0.127875
      7          6           0       -1.746746   -2.922291   -0.037320
      8          6           0       -0.402743   -3.265127   -0.183889
      9          6           0        0.581242   -2.275157   -0.168718
     10          6           0        0.218206   -0.938311    0.005932
     11         53           0        1.773013    0.545924   -0.029939
     12          1           0       -2.359834    3.165588    0.294196
     13          1           0       -2.159677    3.249155   -1.485202
     14          1           0       -3.699607    2.676318   -0.786387
     15          1           0       -3.148854   -1.309419    0.238933
     16          1           0       -2.513374   -3.690680   -0.055457
     17          1           0       -0.113951   -4.303477   -0.316379
     18          1           0        1.624530   -2.541726   -0.294319
 ---------------------------------------------------------------------
 Rotational constants (GHZ):           0.7801190           0.6128490           0.3706556
 Leave Link  202 at Tue Sep 17 09:56:52 2024, MaxMem=  1342177280 cpu:               0.0 elap:               0.0
 (Enter /groups/ReismanLab/Software/Gaussian16_RevC/Linux_Binary_AVX2-enabled-CPU/g16/l301.exe)
 Basis read from rwf:  (5D, 7F)
 Pseudo-potential data read from rwf file.
 There are   193 symmetry adapted cartesian basis functions of A   symmetry.
 There are   183 symmetry adapted basis functions of A   symmetry.
   183 basis functions,   341 primitive gaussians,   193 cartesian basis functions
    39 alpha electrons       39 beta electrons
       nuclear repulsion energy       543.7801942897 Hartrees.
 IExCor=  402 DFT=T Ex+Corr=B3LYP ExCW=0 ScaHFX=  0.200000
 ScaDFX=  0.800000  0.720000  1.000000  0.810000 ScalE2=  1.000000  1.000000
 IRadAn=      5 IRanWt=     -1 IRanGd=            0 ICorTp=0 IEmpDi=141
 NAtoms=   18 NActive=   18 NUniq=   18 SFac= 1.00D+00 NAtFMM=   60 NAOKFM=F Big=F
 Integral buffers will be    131072 words long.
 Raffenetti 2 integral format.
 Two-electron integral symmetry is turned on.
 R6Disp:  Grimme-D3(BJ) Dispersion energy=       -0.0380022271 Hartrees.
 Nuclear repulsion after empirical dispersion term =      543.7421920626 Hartrees.
 No density basis found on file    724.
 Leave Link  301 at Tue Sep 17 09:56:53 2024, MaxMem=  1342177280 cpu:               0.1 elap:               0.1
 (Enter /groups/ReismanLab/Software/Gaussian16_RevC/Linux_Binary_AVX2-enabled-CPU/g16/l302.exe)
 NPDir=0 NMtPBC=     1 NCelOv=     1 NCel=       1 NClECP=     1 NCelD=      1
         NCelK=      1 NCelE2=     1 NClLst=     1 CellRange=     0.0.
 One-electron integrals computed using PRISM.
 One-electron integral symmetry used in STVInt
   1 Symmetry operations used in ECPInt.
 ECPInt:  NShTT=    2145 NPrTT=   11679 LenC2=    2007 LenP2D=    7536.
 LDataN:  DoStor=T MaxTD1= 5 Len=  102
 NBasis=   183 RedAO= T EigKep=  4.96D-04  NBF=   183
 NBsUse=   183 1.00D-06 EigRej= -1.00D+00 NBFU=   183
 Precomputing XC quadrature grid using
 IXCGrd= 4 IRadAn=           5 IRanWt=          -1 IRanGd=           0 AccXCQ= 0.00D+00.
 Defaulting to unpruned grid for atomic number  53.
 Generated NRdTot=       0 NPtTot=           0 NUsed=           0 NTot=          32
 NSgBfM=   193   193   193   193   193 MxSgAt=    18 MxSgA2=    18.
 Leave Link  302 at Tue Sep 17 09:56:53 2024, MaxMem=  1342177280 cpu:               1.3 elap:               0.2
 (Enter /groups/ReismanLab/Software/Gaussian16_RevC/Linux_Binary_AVX2-enabled-CPU/g16/l303.exe)
 DipDrv:  MaxL=1.
 Leave Link  303 at Tue Sep 17 09:56:53 2024, MaxMem=  1342177280 cpu:               0.1 elap:               0.0
 (Enter /groups/ReismanLab/Software/Gaussian16_RevC/Linux_Binary_AVX2-enabled-CPU/g16/l401.exe)
 Initial guess from the checkpoint file:  "smiles_00115_conf_4.chk"
 B after Tr=    -0.000000   -0.000000   -0.000000
         Rot=    0.989816    0.000781   -0.000312   -0.142348 Ang=  16.37 deg.
 Guess basis will be translated and rotated to current coordinates.
 JPrj=2 DoOrth=T DoCkMO=T.
 Generating alternative initial guess.
 ExpMin= 1.05D-01 ExpMax= 5.48D+03 ExpMxC= 8.25D+02 IAcc=3 IRadAn=         5 AccDes= 0.00D+00
 Harris functional with IExCor=  402 and IRadAn=       5 diagonalized for initial guess.
 HarFok:  IExCor=  402 AccDes= 0.00D+00 IRadAn=         5 IDoV= 1 UseB2=F ITyADJ=14
 ICtDFT=  3500011 ScaDFX=  1.000000  1.000000  1.000000  1.000000
 Defaulting to unpruned grid for atomic number  53.
 FoFCou: FMM=F IPFlag=           0 FMFlag=      100000 FMFlg1=           0
         NFxFlg=           0 DoJE=T BraDBF=F KetDBF=T FulRan=T
         wScrn=  0.000000 ICntrl=       500 IOpCl=  0 I1Cent=   200000004 NGrid=           0
         NMat0=    1 NMatS0=      1 NMatT0=    0 NMatD0=    1 NMtDS0=    0 NMtDT0=    0
 Petite list used in FoFCou.
 Harris En= -470.868971216341    
 Leave Link  401 at Tue Sep 17 09:56:53 2024, MaxMem=  1342177280 cpu:               4.5 elap:               0.6
 (Enter /groups/ReismanLab/Software/Gaussian16_RevC/Linux_Binary_AVX2-enabled-CPU/g16/l502.exe)
 Integral symmetry usage will be decided dynamically.
 Closed shell SCF:
 Using DIIS extrapolation, IDIIS=  1040.
 NGot=  1342177280 LenX=  1342098694 LenY=  1342061004
 Requested convergence on RMS density matrix=1.00D-08 within  32 cycles.
 Requested convergence on MAX density matrix=1.00D-06.
 Requested convergence on             energy=1.00D-06.
 No special actions if energy rises.
 Fock matrices will be formed incrementally for  20 cycles.
 Integral accuracy reduced to 1.0D-05 until final iterations.

 Cycle   1  Pass 0  IDiag  1:
 FoFJK:  IHMeth= 1 ICntrl=       0 DoSepK=F KAlg= 0 I1Cent=           0 FoldK=F
 IRaf= 890000000 NMat=       1 IRICut=       1 DoRegI=T DoRafI=F ISym2E= 0 IDoP0=0 IntGTp=1.
 FoFCou: FMM=F IPFlag=           0 FMFlag=      100000 FMFlg1=           0
         NFxFlg=           0 DoJE=F BraDBF=F KetDBF=F FulRan=T
         wScrn=  0.000000 ICntrl=         0 IOpCl=  0 I1Cent=           0 NGrid=           0
         NMat0=    1 NMatS0=      1 NMatT0=    0 NMatD0=    1 NMtDS0=    0 NMtDT0=    0
 Symmetry not used in FoFCou.
 Defaulting to unpruned grid for atomic number  53.
 Defaulting to unpruned grid for atomic number  53.
 Defaulting to unpruned grid for atomic number  53.
 Defaulting to unpruned grid for atomic number  53.
 Defaulting to unpruned grid for atomic number  53.
 Defaulting to unpruned grid for atomic number  53.
 Defaulting to unpruned grid for atomic number  53.
 Defaulting to unpruned grid for atomic number  53.
 E= -470.924760860564    
 DIIS: error= 2.71D-03 at cycle   1 NSaved=   1.
 NSaved= 1 IEnMin= 1 EnMin= -470.924760860564     IErMin= 1 ErrMin= 2.71D-03
 ErrMax= 2.71D-03  0.00D+00 EMaxC= 1.00D-01 BMatC= 3.04D-03 BMatP= 3.04D-03
 IDIUse=3 WtCom= 9.73D-01 WtEn= 2.71D-02
 Coeff-Com:  0.100D+01
 Coeff-En:   0.100D+01
 Coeff:      0.100D+01
 Gap=     0.803 Goal=   None    Shift=    0.000
 GapD=    0.803 DampG=2.000 DampE=1.000 DampFc=2.0000 IDamp=-1.
 RMSDP=6.04D-04 MaxDP=1.36D-02              OVMax= 1.90D-02

 Cycle   2  Pass 0  IDiag  1:
 RMSU=  6.01D-04    CP:  9.98D-01
 E= -470.929150889556     Delta-E=       -0.004390028992 Rises=F Damp=F
 DIIS: error= 1.67D-03 at cycle   2 NSaved=   2.
 NSaved= 2 IEnMin= 2 EnMin= -470.929150889556     IErMin= 2 ErrMin= 1.67D-03
 ErrMax= 1.67D-03  0.00D+00 EMaxC= 1.00D-01 BMatC= 3.10D-04 BMatP= 3.04D-03
 IDIUse=3 WtCom= 9.83D-01 WtEn= 1.67D-02
 Coeff-Com:  0.965D-01 0.904D+00
 Coeff-En:   0.000D+00 0.100D+01
 Coeff:      0.949D-01 0.905D+00
 Gap=     0.203 Goal=   None    Shift=    0.000
 RMSDP=3.23D-04 MaxDP=9.12D-03 DE=-4.39D-03 OVMax= 1.42D-02

 Cycle   3  Pass 0  IDiag  1:
 RMSU=  3.08D-04    CP:  9.99D-01  8.45D-01
 E= -470.928710733763     Delta-E=        0.000440155793 Rises=F Damp=F
 DIIS: error= 2.63D-03 at cycle   3 NSaved=   3.
 NSaved= 3 IEnMin= 2 EnMin= -470.929150889556     IErMin= 2 ErrMin= 1.67D-03
 ErrMax= 2.63D-03  0.00D+00 EMaxC= 1.00D-01 BMatC= 7.23D-04 BMatP= 3.10D-04
 IDIUse=3 WtCom= 1.63D-01 WtEn= 8.37D-01
 Coeff-Com: -0.301D-01 0.623D+00 0.408D+00
 Coeff-En:   0.000D+00 0.657D+00 0.343D+00
 Coeff:     -0.492D-02 0.651D+00 0.354D+00
 Gap=     0.204 Goal=   None    Shift=    0.000
 RMSDP=1.82D-04 MaxDP=5.70D-03 DE= 4.40D-04 OVMax= 7.54D-03

 Cycle   4  Pass 0  IDiag  1:
 RMSU=  6.31D-05    CP:  9.98D-01  9.46D-01  4.85D-01
 E= -470.929523977491     Delta-E=       -0.000813243729 Rises=F Damp=F
 DIIS: error= 1.94D-04 at cycle   4 NSaved=   4.
[...]
   Eigenvalues:   402.9803   410.3379   479.0552
     12  H    Isotropic =    27.9199   Anisotropy =     7.9137
   XX=    26.6400   YX=    -2.2167   ZX=     0.1436
   XY=    -0.2107   YY=    31.3992   ZY=    -3.0187
   XZ=     0.2134   YZ=    -3.7686   ZZ=    25.7205
   Eigenvalues:    24.0835    26.4805    33.1957
     13  H    Isotropic =    28.0518   Anisotropy =     8.0253
   XX=    31.8879   YX=    -1.6595   ZX=     2.0866
   XY=    -3.2191   YY=    27.6789   ZY=    -0.4046
   XZ=     1.8412   YZ=     0.0280   ZZ=    24.5887
   Eigenvalues:    24.0358    26.7176    33.4020
     14  H    Isotropic =    27.9950   Anisotropy =     8.3612
   XX=    27.7405   YX=    -3.5905   ZX=    -2.7978
   XY=    -2.1586   YY=    28.2736   ZY=     3.2679
   XZ=    -2.0362   YZ=     2.7915   ZZ=    27.9711
   Eigenvalues:    24.9798    25.4362    33.5692
     15  H    Isotropic =    22.7955   Anisotropy =    10.0010
   XX=    20.6073   YX=     0.6344   ZX=     0.3316
   XY=     1.3522   YY=    29.3273   ZY=    -0.1085
   XZ=     0.1639   YZ=    -0.9769   ZZ=    18.4518
   Eigenvalues:    18.3835    20.5401    29.4628
     16  H    Isotropic =    23.6025   Anisotropy =     5.8604
   XX=    25.2714   YX=    -2.3670   ZX=    -0.0723
   XY=    -2.4182   YY=    24.9459   ZY=     0.1621
   XZ=    -0.0722   YZ=     0.0841   ZZ=    20.5903
   Eigenvalues:    20.5868    22.7113    27.5095
     17  H    Isotropic =    23.5387   Anisotropy =     6.3605
   XX=    26.7889   YX=     1.8964   ZX=    -0.0798
   XY=     2.3196   YY=    23.2855   ZY=     0.0186
   XZ=     0.0162   YZ=    -0.2907   ZZ=    20.5418
   Eigenvalues:    20.5339    22.3032    27.7790
     18  H    Isotropic =    23.2793   Anisotropy =    13.5929
   XX=    19.7535   YX=     1.8800   ZX=     0.0445
   XY=     0.9941   YY=    32.1760   ZY=     0.1238
   XZ=    -0.0347   YZ=     0.1258   ZZ=    17.9082
   Eigenvalues:    17.9071    19.5895    32.3412
 End of Minotr F.D. properties file   721 does not exist.
 End of Minotr F.D. properties file   722 does not exist.
 End of Minotr F.D. properties file   788 does not exist.
 Leave Link 1002 at Tue Sep 17 10:53:56 2024, MaxMem=  1342177280 cpu:             593.9 elap:             595.1
 (Enter /groups/ReismanLab/Software/Gaussian16_RevC/Linux_Binary_AVX2-enabled-CPU/g16/l601.exe)
 Copying SCF densities to generalized density rwf, IOpCl= 0 IROHF=0.

 **********************************************************************

            Population analysis using the SCF Density.

 **********************************************************************

 Orbital symmetries:
       Occupied  (A) (A) (A) (A) (A) (A) (A) (A) (A) (A) (A) (A)
                 (A) (A) (A) (A) (A) (A) (A) (A) (A) (A) (A) (A)
                 (A) (A) (A) (A) (A) (A) (A) (A) (A) (A) (A) (A)
                 (A) (A) (A) (A) (A) (A) (A) (A) (A) (A) (A) (A)
       Virtual   (A) (A) (A) (A) (A) (A) (A) (A) (A) (A) (A) (A)
                 (A) (A) (A) (A) (A) (A) (A) (A) (A) (A) (A) (A)
                 (A) (A) (A) (A) (A) (A) (A) (A) (A) (A) (A) (A)
                 (A) (A) (A) (A) (A) (A) (A) (A) (A) (A) (A) (A)
                 (A) (A) (A) (A) (A) (A) (A) (A) (A) (A) (A) (A)
                 (A) (A) (A) (A) (A) (A) (A) (A) (A) (A) (A) (A)
                 (A) (A) (A) (A) (A) (A) (A) (A) (A) (A) (A) (A)
                 (A) (A) (A) (A) (A) (A) (A) (A) (A) (A) (A) (A)
                 (A) (A) (A) (A) (A) (A) (A) (A) (A) (A) (A) (A)
                 (A) (A) (A) (A) (A) (A) (A) (A) (A) (A) (A) (A)
                 (A) (A) (A) (A) (A) (A) (A) (A) (A) (A) (A) (A)
                 (A) (A) (A) (A) (A) (A) (A) (A) (A) (A) (A) (A)
                 (A) (A) (A) (A) (A) (A) (A) (A) (A) (A) (A) (A)
                 (A) (A) (A) (A) (A) (A) (A) (A) (A) (A) (A) (A)
                 (A) (A) (A) (A) (A) (A) (A) (A) (A) (A) (A) (A)
                 (A) (A) (A) (A) (A) (A) (A) (A) (A) (A) (A) (A)
                 (A) (A) (A) (A) (A) (A) (A) (A) (A) (A) (A) (A)
                 (A) (A) (A) (A) (A) (A) (A) (A) (A) (A) (A) (A)
                 (A) (A) (A) (A) (A) (A) (A) (A) (A) (A) (A) (A)
                 (A) (A) (A) (A) (A) (A) (A) (A) (A) (A) (A) (A)
                 (A) (A) (A) (A) (A) (A) (A) (A) (A) (A) (A) (A)
                 (A) (A) (A) (A) (A) (A) (A) (A) (A) (A) (A) (A)
                 (A) (A) (A) (A) (A) (A) (A) (A) (A) (A) (A) (A)
                 (A) (A) (A) (A) (A) (A) (A) (A) (A) (A) (A) (A)
                 (A) (A) (A) (A) (A) (A) (A) (A) (A) (A) (A) (A)
                 (A) (A) (A) (A) (A) (A) (A) (A) (A) (A) (A) (A)
                 (A) (A) (A) (A) (A) (A) (A) (A) (A) (A) (A) (A)
                 (A) (A) (A) (A) (A) (A) (A) (A) (A) (A) (A) (A)
                 (A) (A) (A) (A) (A) (A) (A) (A) (A) (A) (A) (A)
                 (A) (A) (A) (A) (A) (A)
 The electronic state is 1-A.
 Alpha  occ. eigenvalues --  -19.67608 -19.62336 -10.68325 -10.60924 -10.58865
 Alpha  occ. eigenvalues --  -10.57926 -10.56336 -10.56249 -10.56163 -10.55678
 Alpha  occ. eigenvalues --   -7.10101  -5.09493  -5.08411  -5.08339  -2.06312
 Alpha  occ. eigenvalues --   -2.05890  -2.05834  -2.04930  -2.04925  -1.23729
 Alpha  occ. eigenvalues --   -1.14501  -0.98402  -0.88466  -0.86995  -0.81877
 Alpha  occ. eigenvalues --   -0.77632  -0.72430  -0.69249  -0.65355  -0.62001
 Alpha  occ. eigenvalues --   -0.57209  -0.56924  -0.56268  -0.53219  -0.52507
 Alpha  occ. eigenvalues --   -0.49132  -0.48145  -0.47701  -0.45158  -0.43702
 Alpha  occ. eigenvalues --   -0.43406  -0.39329  -0.38271  -0.37186  -0.35528
 Alpha  occ. eigenvalues --   -0.32698  -0.30876  -0.29478
 Alpha virt. eigenvalues --   -0.02693  -0.00407   0.00319   0.07782   0.08317
 Alpha virt. eigenvalues --    0.09298   0.10922   0.11699   0.13075   0.13517
 Alpha virt. eigenvalues --    0.15220   0.15794   0.15892   0.16880   0.17450
 Alpha virt. eigenvalues --    0.18883   0.19906   0.20495   0.21457   0.22782
 Alpha virt. eigenvalues --    0.23307   0.23653   0.23827   0.24642   0.25359
 Alpha virt. eigenvalues --    0.25916   0.27412   0.28229   0.28814   0.29042
 Alpha virt. eigenvalues --    0.31305   0.31757   0.32538   0.33467   0.34150
 Alpha virt. eigenvalues --    0.35071   0.35833   0.36809   0.37708   0.38891
 Alpha virt. eigenvalues --    0.40886   0.41290   0.42053   0.42329   0.43191
 Alpha virt. eigenvalues --    0.43718   0.44955   0.45776   0.47113   0.47799
 Alpha virt. eigenvalues --    0.49113   0.49300   0.51010   0.51457   0.51721
 Alpha virt. eigenvalues --    0.52066   0.53002   0.55055   0.55573   0.56233
 Alpha virt. eigenvalues --    0.58606   0.58860   0.61609   0.62463   0.63852
 Alpha virt. eigenvalues --    0.65629   0.67236   0.67633   0.69533   0.70726
 Alpha virt. eigenvalues --    0.71495   0.71732   0.73463   0.74330   0.76308
 Alpha virt. eigenvalues --    0.76928   0.77914   0.79548   0.80072   0.82023
 Alpha virt. eigenvalues --    0.82927   0.84817   0.85726   0.86632   0.88486
 Alpha virt. eigenvalues --    0.88697   0.90721   0.91939   0.93284   0.94632
 Alpha virt. eigenvalues --    0.94867   0.95635   0.97050   0.98116   0.98502
 Alpha virt. eigenvalues --    0.99381   1.01850   1.03234   1.03894   1.04074
 Alpha virt. eigenvalues --    1.08138   1.09450   1.10765   1.11778   1.12646
 Alpha virt. eigenvalues --    1.14785   1.16497   1.17500   1.21777   1.23415
 Alpha virt. eigenvalues --    1.23629   1.25795   1.26865   1.28291   1.29370
 Alpha virt. eigenvalues --    1.31957   1.32793   1.33250   1.35542   1.36268
 Alpha virt. eigenvalues --    1.37583   1.39619   1.43886   1.44834   1.45614
 Alpha virt. eigenvalues --    1.46225   1.48414   1.49655   1.50723   1.51450
 Alpha virt. eigenvalues --    1.51870   1.52423   1.55290   1.55827   1.56572
 Alpha virt. eigenvalues --    1.58023   1.59244   1.60533   1.61141   1.61905
 Alpha virt. eigenvalues --    1.62935   1.64107   1.64750   1.66719   1.70179
 Alpha virt. eigenvalues --    1.71400   1.73116   1.73617   1.75930   1.76571
 Alpha virt. eigenvalues --    1.78875   1.82129   1.83883   1.85287   1.88045
 Alpha virt. eigenvalues --    1.90722   1.94802   1.95279   1.97641   1.98676
 Alpha virt. eigenvalues --    2.01965   2.02675   2.04689   2.05877   2.08458
 Alpha virt. eigenvalues --    2.10280   2.11676   2.12962   2.14536   2.15513
 Alpha virt. eigenvalues --    2.17332   2.18795   2.20112   2.24634   2.25869
 Alpha virt. eigenvalues --    2.27780   2.29286   2.30225   2.32952   2.35473
 Alpha virt. eigenvalues --    2.38186   2.39018   2.40925   2.42638   2.46127
 Alpha virt. eigenvalues --    2.48023   2.51961   2.54212   2.55099   2.56022
 Alpha virt. eigenvalues --    2.57914   2.59464   2.59709   2.61435   2.63759
 Alpha virt. eigenvalues --    2.65730   2.67316   2.67752   2.67938   2.70756
 Alpha virt. eigenvalues --    2.70934   2.74142   2.76237   2.76845   2.78691
 Alpha virt. eigenvalues --    2.79846   2.80812   2.81791   2.82482   2.84479
 Alpha virt. eigenvalues --    2.85911   2.86546   2.88384   2.91695   2.94256
 Alpha virt. eigenvalues --    2.95490   2.97702   2.99298   3.00659   3.02452
 Alpha virt. eigenvalues --    3.05266   3.07442   3.07733   3.08315   3.10096
 Alpha virt. eigenvalues --    3.12028   3.13308   3.14042   3.15196   3.16137
 Alpha virt. eigenvalues --    3.17285   3.18178   3.19065   3.19571   3.20783
 Alpha virt. eigenvalues --    3.21712   3.22350   3.24108   3.25299   3.26763
 Alpha virt. eigenvalues --    3.28268   3.28659   3.28711   3.30582   3.31686
 Alpha virt. eigenvalues --    3.32517   3.33004   3.34917   3.35356   3.36757
 Alpha virt. eigenvalues --    3.39060   3.40178   3.41403   3.42485   3.44426
 Alpha virt. eigenvalues --    3.45331   3.46458   3.48845   3.49397   3.51828
 Alpha virt. eigenvalues --    3.52339   3.52751   3.53592   3.55505   3.56590
 Alpha virt. eigenvalues --    3.58314   3.60829   3.61196   3.62640   3.64678
 Alpha virt. eigenvalues --    3.68617   3.72186   3.75744   3.81208   3.83660
 Alpha virt. eigenvalues --    3.86217   3.90017   3.93579   3.96775   4.04598
 Alpha virt. eigenvalues --    4.07255   4.08963   4.11159   4.12732   4.14544
 Alpha virt. eigenvalues --    4.14982   4.17331   4.18000   4.18518   4.20559
 Alpha virt. eigenvalues --    4.22568   4.26813   4.29421   4.31982   4.36194
 Alpha virt. eigenvalues --    4.38489   4.44779   4.47063   4.50598   4.57043
 Alpha virt. eigenvalues --    4.58481   4.60361   4.60757   4.67229   4.74047
 Alpha virt. eigenvalues --    4.75862   4.81470   4.88646   5.02035   5.07096
 Alpha virt. eigenvalues --    5.10365   5.18278   5.21108   5.27393   5.28374
 Alpha virt. eigenvalues --    5.31120   5.36746   5.43983   5.48062   5.51604
 Alpha virt. eigenvalues --    5.65478   5.68547   5.83451   5.94341   6.05845
 Alpha virt. eigenvalues --    6.16508   6.20722   6.36175   6.37014   6.52984
 Alpha virt. eigenvalues --    6.64598   6.68000   6.76748   6.85687   6.87810
 Alpha virt. eigenvalues --    7.01027   7.10446   7.25364   7.36960  22.08735
 Alpha virt. eigenvalues --   22.43414  22.66039  22.71147  22.79731  22.86560
 Alpha virt. eigenvalues --   23.21769  23.49558  34.48787  34.58052  34.84662
 Alpha virt. eigenvalues --   42.89122  44.05586  44.22428 117.59428
          Condensed to atoms (all electrons):
               1          2          3          4          5          6
     1  C    4.869949   0.206148  -0.051034  -0.001988   0.008381  -0.000334
     2  O    0.206148   8.009065   0.372447  -0.081467  -0.157454   0.022504
     3  C   -0.051034   0.372447   4.560784   0.647125   0.311975  -0.083460
     4  O   -0.001988  -0.081467   0.647125   7.879435  -0.079519   0.001526
     5  C    0.008381  -0.157454   0.311975  -0.079519   5.746252   0.147253
     6  C   -0.000334   0.022504  -0.083460   0.001526   0.147253   5.253131
     7  C   -0.000119  -0.000847   0.013295   0.000426   0.039288   0.401478
     8  C    0.000011   0.000451  -0.009790  -0.000581  -0.151658   0.057363
     9  C   -0.000018  -0.000039   0.027335   0.004409   0.097570  -0.180097
    10  C   -0.001459  -0.006178  -0.102671  -0.012208   0.104683   0.145778
    11  I   -0.000136  -0.000838  -0.035503  -0.022450  -0.106054   0.028826
    12  H    0.417581  -0.030135  -0.010694   0.004328  -0.003149   0.001133
    13  H    0.394797  -0.029748   0.004725   0.001797   0.002607  -0.000874
    14  H    0.421569  -0.037317  -0.005959   0.004010   0.001091  -0.000379
    15  H   -0.000653   0.016385  -0.005808   0.000172  -0.040623   0.410873
    16  H   -0.000000  -0.000137  -0.000041   0.000006   0.008557  -0.035434
    17  H    0.000000   0.000000   0.000077  -0.000002  -0.000021   0.004213
    18  H   -0.000000   0.000010   0.000799   0.000072   0.021141  -0.005251
               7          8          9         10         11         12
     1  C   -0.000119   0.000011  -0.000018  -0.001459  -0.000136   0.417581
     2  O   -0.000847   0.000451  -0.000039  -0.006178  -0.000838  -0.030135
     3  C    0.013295  -0.009790   0.027335  -0.102671  -0.035503  -0.010694
     4  O    0.000426  -0.000581   0.004409  -0.012208  -0.022450   0.004328
     5  C    0.039288  -0.151658   0.097570   0.104683  -0.106054  -0.003149
     6  C    0.401478   0.057363  -0.180097   0.145778   0.028826   0.001133
     7  C    4.992896   0.434570   0.018118  -0.098631  -0.004641   0.000003
     8  C    0.434570   5.028285   0.344273   0.071725   0.022777   0.000010
     9  C    0.018118   0.344273   5.252837   0.300769  -0.104839  -0.000031
    10  C   -0.098631   0.071725   0.300769   5.271426   0.389105   0.000164
    11  I   -0.004641   0.022777  -0.104839   0.389105  24.907907   0.000058
    12  H    0.000003   0.000010  -0.000031   0.000164   0.000058   0.522850
    13  H   -0.000036   0.000002  -0.000005   0.000206   0.000015  -0.023137
    14  H   -0.000013  -0.000007   0.000010  -0.000412   0.000090  -0.040429
    15  H   -0.030522   0.006020  -0.002052   0.008558  -0.000105   0.000359
    16  H    0.416804  -0.036087   0.006028  -0.001755   0.000042  -0.000001
    17  H   -0.030547   0.408504  -0.027857   0.002910  -0.000463   0.000000
    18  H    0.006763  -0.037061   0.431779  -0.066734  -0.008393  -0.000000
              13         14         15         16         17         18
     1  C    0.394797   0.421569  -0.000653  -0.000000   0.000000  -0.000000
     2  O   -0.029748  -0.037317   0.016385  -0.000137   0.000000   0.000010
     3  C    0.004725  -0.005959  -0.005808  -0.000041   0.000077   0.000799
     4  O    0.001797   0.004010   0.000172   0.000006  -0.000002   0.000072
     5  C    0.002607   0.001091  -0.040623   0.008557  -0.000021   0.021141
     6  C   -0.000874  -0.000379   0.410873  -0.035434   0.004213  -0.005251
     7  C   -0.000036  -0.000013  -0.030522   0.416804  -0.030547   0.006763
     8  C    0.000002  -0.000007   0.006020  -0.036087   0.408504  -0.037061
     9  C   -0.000005   0.000010  -0.002052   0.006028  -0.027857   0.431779
    10  C    0.000206  -0.000412   0.008558  -0.001755   0.002910  -0.066734
    11  I    0.000015   0.000090  -0.000105   0.000042  -0.000463  -0.008393
    12  H   -0.023137  -0.040429   0.000359  -0.000001   0.000000  -0.000000
    13  H    0.518758  -0.024063  -0.000228   0.000000   0.000000  -0.000000
    14  H   -0.024063   0.521622  -0.000374   0.000000   0.000000   0.000000
    15  H   -0.000228  -0.000374   0.462391  -0.003943  -0.000141   0.000018
    16  H    0.000000   0.000000  -0.003943   0.480233  -0.003317  -0.000162
    17  H    0.000000   0.000000  -0.000141  -0.003317   0.477544  -0.002618
    18  H   -0.000000   0.000000   0.000018  -0.000162  -0.002618   0.478312
 Mulliken charges:
               1
     1  C   -0.262694
     2  O   -0.282851
     3  C    0.366399
     4  O   -0.345092
     5  C    0.049679
     6  C   -0.168250
     7  C   -0.158282
     8  C   -0.138807
     9  C   -0.168189
    10  C   -0.005275
    11  I   -0.065399
    12  H    0.161091
    13  H    0.155186
    14  H    0.160559
    15  H    0.179673
    16  H    0.169208
    17  H    0.171718
    18  H    0.181326
 Sum of Mulliken charges =  -0.00000
 Mulliken charges with hydrogens summed into heavy atoms:
               1
     1  C    0.214142
     2  O   -0.282851
     3  C    0.366399
     4  O   -0.345092
     5  C    0.049679
     6  C    0.011423
     7  C    0.010926
     8  C    0.032911
     9  C    0.013137
    10  C   -0.005275
    11  I   -0.065399
 Electronic spatial extent (au):  <R**2>=           2540.5682
 Charge=              0.0000 electrons
 Dipole moment (field-independent basis, Debye):
    X=             -2.5821    Y=             -2.6121    Z=             -0.5955  Tot=              3.7209
 Quadrupole moment (field-independent basis, Debye-Ang):
   XX=            -71.7483   YY=            -73.5522   ZZ=            -88.3099
   XY=             -3.3562   XZ=             -0.0066   YZ=             -2.2983
 Traceless Quadrupole moment (field-independent basis, Debye-Ang):
   XX=              6.1218   YY=              4.3180   ZZ=            -10.4398
   XY=             -3.3562   XZ=             -0.0066   YZ=             -2.2983
 Octapole moment (field-independent basis, Debye-Ang**2):
  XXX=             34.0756  YYY=              7.4883  ZZZ=             -1.7372  XYY=             12.0731
  XXY=             34.7513  XXZ=             -0.3405  XZZ=             25.5876  YZZ=             23.0682
  YYZ=             -6.5896  XYZ=              3.1090
 Hexadecapole moment (field-independent basis, Debye-Ang**3):
 XXXX=          -1700.0602 YYYY=          -1351.1329 ZZZZ=           -129.7178 XXXY=            -23.1102
 XXXZ=              1.9635 YYYX=             38.7430 YYYZ=            -10.0581 ZZZX=             -4.3533
 ZZZY=              1.1494 XXYY=           -465.7708 XXZZ=           -345.7304 YYZZ=           -300.3556
 XXYZ=             -7.1995 YYXZ=              5.0305 ZZXY=              5.9044
 N-N= 7.261801437559D+02 E-N=-3.155418495883D+03  KE= 5.705867896679D+02
 Calculating spin-rotation constants.
 Leave Link  601 at Tue Sep 17 10:53:59 2024, MaxMem=  1342177280 cpu:               3.1 elap:               3.1
 (Enter /groups/ReismanLab/Software/Gaussian16_RevC/Linux_Binary_AVX2-enabled-CPU/g16/l9999.exe)
 Unable to Open any file for archive entry.
 1\1\GINC-HPC-54-28\SP\RM062X\def2TZVP\C8H7I1O2\MANTIND\17-Sep-2024\0\\
 #p M062X/def2tzvp geom=check guess=read scf(xqc,tight) integral(grid=u
 ltrafine) scrf(SMD, solvent=1,4-Dioxane) nmr=giao\\spe\\0,1\C,0,-0.889
 9760922,-3.7247820204,0.9641911287\O,0,-1.2741035116,-2.3445369486,1.0
 496628605\C,0,-0.708133407,-1.5405193946,0.1164856125\O,0,0.0799213899
 ,-1.9468731172,-0.7082877562\C,0,-1.2071851071,-0.1363793283,0.2405011
 831\C,0,-2.4608804917,0.0724714914,0.8438651275\C,0,-3.0154344896,1.34
 21107469,0.9471103784\C,0,-2.3116382662,2.4404448926,0.455323805\C,0,-
 1.0610541888,2.2612760548,-0.1328395956\C,0,-0.5116791851,0.9825015011
 ,-0.2467875245\I,0,1.4426707172,0.900198574,-1.1234884769\H,0,0.190392
 7385,-3.8294212239,1.0885074567\H,0,-1.4210878496,-4.2273959747,1.7720
 451796\H,0,-1.1734619243,-4.1441244606,-0.0044012551\H,0,-2.9935497061
 ,-0.7900707221,1.2242398954\H,0,-3.98834946,1.4727830034,1.4094969331\
 H,0,-2.7278355153,3.4404822603,0.5297018776\H,0,-0.5092788282,3.117039
 4822,-0.5031650098\\Version=ES64L-G16RevC.02\State=1-A\HF=-757.1400742
 \RMSD=3.290e-09\Dipole=-1.1903355,0.097137,0.8465687\Quadrupole=0.5466
 46,5.6757322,-6.2223782,-0.5201273,-2.8190331,-3.3085075\PG=C01 [X(C8H
 7I1O2)]\\@
 The archive entry for this job was punched.


 WHAT THE SLIME CONTAINS, THE GLOWING REVEALS
 BY THE FLAME'S BRIGHT HUE WHEN YOU IGNITE IT.
   --  LEONARD THURNEYSSER, 1531-1596
 DESCRIBING HIS FLAME PHOTOLYSIS ANALYTIC METHOD
 Job cpu time:       0 days  0 hours 10 minutes 57.2 seconds.
 Elapsed time:       0 days  0 hours 10 minutes 59.5 seconds.
 File lengths (MBytes):  RWF=    264 Int=      0 D2E=      0 Chk=     24 Scr=     16
 Normal termination of Gaussian 16 at Tue Sep 17 10:53:59 2024.
