 Entering Gaussian System, Link 0=g16
 Input=smiles_00008_conf_2.gjf
 Output=smiles_00008_conf_2.log
 Initial command:
 /groups/ReismanLab/Software/Gaussian16_RevC/Linux_Binary_AVX2-enabled-CPU/g16/l1.exe "/central/groups/ReismanLab/DM/dft_final/smiles_00008/Gau-103366.inp" -scrdir="/central/groups/ReismanLab/DM/dft_final/smiles_00008/"
 Entering Link 1 = /groups/ReismanLab/Software/Gaussian16_RevC/Linux_Binary_AVX2-enabled-CPU/g16/l1.exe PID=    103367.
  
 Copyright (c) 1988-2021, Gaussian, Inc.  All Rights Reserved.
  
 This is part of the Gaussian(R) 16 program.  It is based on
 the Gaussian(R) 09 system (copyright 2009, Gaussian, Inc.),
 the Gaussian(R) 03 system (copyright 2003, Gaussian, Inc.),
 the Gaussian(R) 98 system (copyright 1998, Gaussian, Inc.),
 the Gaussian(R) 94 system (copyright 1995, Gaussian, Inc.),
 the Gaussian 92(TM) system (copyright 1992, Gaussian, Inc.),
 the Gaussian 90(TM) system (copyright 1990, Gaussian, Inc.),
 the Gaussian 88(TM) system (copyright 1988, Gaussian, Inc.),
 the Gaussian 86(TM) system (copyright 1986, Carnegie Mellon
 University), and the Gaussian 82(TM) system (copyright 1983,
 Carnegie Mellon University). Gaussian is a federally registered
 trademark of Gaussian, Inc.
  
 This software contains proprietary and confidential information,
 including trade secrets, belonging to Gaussian, Inc.
  
 This software is provided under written license and may be
 used, copied, transmitted, or stored only in accord with that
 written license.
  
 The following legend is applicable only to US Government
 contracts under FAR:
  
                    RESTRICTED RIGHTS LEGEND
  
 Use, reproduction and disclosure by the US Government is
 subject to restrictions as set forth in subparagraphs (a)
 and (c) of the Commercial Computer Software - Restricted
 Rights clause in FAR 52.227-19.
  
 Gaussian, Inc.
 340 Quinnipiac St., Bldg. 40, Wallingford CT 06492
  
  
 ---------------------------------------------------------------
 Warning -- This program may not be used in any manner that
 competes with the business of Gaussian, Inc. or will provide
 assistance to any competitor of Gaussian, Inc.  The licensee
 of this program is prohibited from giving any competitor of
 Gaussian, Inc. access to this program.  By using this program,
 the user acknowledges that Gaussian, Inc. is engaged in the
 business of creating and licensing software in the field of
 computational chemistry and represents and warrants to the
 licensee that it is not a competitor of Gaussian, Inc. and that
 it will not use this program in any manner prohibited above.
 ---------------------------------------------------------------
  

 Cite this work as:
 Gaussian 16, Revision C.02,
 M. J. Frisch, G. W. Trucks, H. B. Schlegel, G. E. Scuseria, 
 M. A. Robb, J. R. Cheeseman, G. Scalmani, V. Barone, 
 G. A. Petersson, H. Nakatsuji, X. Li, M. Caricato, A. V. Marenich, 
 J. Bloino, B. G. Janesko, R. Gomperts, B. Mennucci, H. P. Hratchian, 
 J. V. Ortiz, A. F. Izmaylov, J. L. Sonnenberg, D. Williams-Young, 
 F. Ding, F. Lipparini, F. Egidi, J. Goings, B. Peng, A. Petrone, 
 T. Henderson, D. Ranasinghe, V. G. Zakrzewski, J. Gao, N. Rega, 
 G. Zheng, W. Liang, M. Hada, M. Ehara, K. Toyota, R. Fukuda, 
 J. Hasegawa, M. Ishida, T. Nakajima, Y. Honda, O. Kitao, H. Nakai, 
 T. Vreven, K. Throssell, J. A. Montgomery, Jr., J. E. Peralta, 
 F. Ogliaro, M. J. Bearpark, J. J. Heyd, E. N. Brothers, K. N. Kudin, 
 V. N. Staroverov, T. A. Keith, R. Kobayashi, J. Normand, 
 K. Raghavachari, A. P. Rendell, J. C. Burant, S. S. Iyengar, 
 J. Tomasi, M. Cossi, J. M. Millam, M. Klene, C. Adamo, R. Cammi, 
 J. W. Ochterski, R. L. Martin, K. Morokuma, O. Farkas, 
 J. B. Foresman, and D. J. Fox, Gaussian, Inc., Wallingford CT, 2019.
 
 ******************************************
 Gaussian 16:  ES64L-G16RevC.02  7-Dec-2021
                17-Sep-2024 
 ******************************************
 %nprocshared=8
 Will use up to    8 processors via shared memory.
 %Mem=10GB
 %Chk=smiles_00008_conf_2.chk
 ----------------------------------------------------------------------
 #p B3LYP/6-31G(d,p) EmpiricalDispersion=GD3BJ opt freq scf(xqc,tight) 
 integral(grid=ultrafine)
 ----------------------------------------------------------------------
 1/18=20,19=15,26=4,38=1/1,3;
 2/9=110,12=2,17=6,18=5,40=1/2;
 3/5=1,6=6,7=101,11=2,25=1,30=1,71=1,74=-5,75=-5,124=41/1,2,3;
 4//1;
 5/5=2,8=3,13=1,32=2,38=5/2,8;
 6/7=2,8=2,9=2,10=2,28=1/1;
 7//1,2,3,16;
 1/18=20,19=15,26=4/3(2);
 2/9=110/2;
 99//99;
 2/9=110/2;
 3/5=1,6=6,7=101,11=2,25=1,30=1,71=1,74=-5,75=-5,124=41/1,2,3;
 4/5=5,16=3,69=1/1;
 5/5=2,8=3,13=1,32=2,38=5/2,8;
 7//1,2,3,16;
 1/18=20,19=15,26=4/3(-5);
 2/9=110/2;
 6/7=2,8=2,9=2,10=2,19=2,28=1/1;
 99/9=1/99;
 Leave Link    1 at Tue Sep 17 09:45:06 2024, MaxMem=  1342177280 cpu:               0.1 elap:               0.8
 (Enter /groups/ReismanLab/Software/Gaussian16_RevC/Linux_Binary_AVX2-enabled-CPU/g16/l101.exe)
 ----------------------------------
 opt-freq conformers_unique/conf_ac
 ----------------------------------
 Symbolic Z-matrix:
 Charge =  0 Multiplicity = 1
 C                    -3.82818  -1.24633  -0.85072 
 C                    -4.0248   -0.14006   0.15223 
 O                    -5.11693   0.22875   0.52173 
 N                    -2.91232   0.50163   0.63379 
 C                    -1.54913   0.32129   0.40693 
 C                    -0.96446  -0.93348   0.24302 
 C                     0.39723  -1.04983   0.03444 
 C                     1.18641   0.0864    0.00242 
 Br                    3.06152  -0.07751  -0.28838 
 C                     0.63104   1.34088   0.19488 
 C                    -0.72894   1.45205   0.39866 
 H                    -3.71504  -2.19784  -0.33495 
 H                    -2.96081  -1.06765  -1.47986 
 H                    -4.72544  -1.30615  -1.46201 
 H                    -3.15003   1.33201   1.1653 
 H                    -1.56109  -1.82722   0.30672 
 H                     0.84382  -2.02395  -0.0916 
 H                     1.25585   2.22036   0.18426 
 H                    -1.16725   2.42745   0.55043 
 
 ITRead=  0  0  0  0  0  0  0  0  0  0  0  0  0  0  0  0  0  0  0
 MicOpt= -1 -1 -1 -1 -1 -1 -1 -1 -1 -1 -1 -1 -1 -1 -1 -1 -1 -1 -1
 NAtoms=     19 NQM=       19 NQMF=       0 NMMI=      0 NMMIF=      0
                NMic=       0 NMicF=      0.
                    Isotopes and Nuclear Properties:
 (Nuclear quadrupole moments (NQMom) in fm**2, nuclear magnetic moments (NMagM)
  in nuclear magnetons)

  Atom         1           2           3           4           5           6           7           8           9          10
 IAtWgt=          12          12          16          14          12          12          12          12          79          12
 AtmWgt=  12.0000000  12.0000000  15.9949146  14.0030740  12.0000000  12.0000000  12.0000000  12.0000000  78.9183361  12.0000000
 NucSpn=           0           0           0           2           0           0           0           0           3           0
 AtZEff=  -0.0000000  -0.0000000  -0.0000000  -0.0000000  -0.0000000  -0.0000000  -0.0000000  -0.0000000  -0.0000000  -0.0000000
 NQMom=    0.0000000   0.0000000   0.0000000   2.0440000   0.0000000   0.0000000   0.0000000   0.0000000  31.3000000   0.0000000
 NMagM=    0.0000000   0.0000000   0.0000000   0.4037610   0.0000000   0.0000000   0.0000000   0.0000000   2.1063990   0.0000000
 AtZNuc=   6.0000000   6.0000000   8.0000000   7.0000000   6.0000000   6.0000000   6.0000000   6.0000000  35.0000000   6.0000000

  Atom        11          12          13          14          15          16          17          18          19
 IAtWgt=          12           1           1           1           1           1           1           1           1
 AtmWgt=  12.0000000   1.0078250   1.0078250   1.0078250   1.0078250   1.0078250   1.0078250   1.0078250   1.0078250
 NucSpn=           0           1           1           1           1           1           1           1           1
 AtZEff=  -0.0000000  -0.0000000  -0.0000000  -0.0000000  -0.0000000  -0.0000000  -0.0000000  -0.0000000  -0.0000000
 NQMom=    0.0000000   0.0000000   0.0000000   0.0000000   0.0000000   0.0000000   0.0000000   0.0000000   0.0000000
 NMagM=    0.0000000   2.7928460   2.7928460   2.7928460   2.7928460   2.7928460   2.7928460   2.7928460   2.7928460
 AtZNuc=   6.0000000   1.0000000   1.0000000   1.0000000   1.0000000   1.0000000   1.0000000   1.0000000   1.0000000
 Leave Link  101 at Tue Sep 17 09:45:06 2024, MaxMem=  1342177280 cpu:               0.2 elap:               0.3
 (Enter /groups/ReismanLab/Software/Gaussian16_RevC/Linux_Binary_AVX2-enabled-CPU/g16/l103.exe)

 GradGradGradGradGradGradGradGradGradGradGradGradGradGradGradGradGradGrad
 Berny optimization.
 Initialization pass.
                           ----------------------------
                           !    Initial Parameters    !
                           ! (Angstroms and Degrees)  !
 --------------------------                            --------------------------
 ! Name  Definition              Value          Derivative Info.                !
 --------------------------------------------------------------------------------
 ! R1    R(1,2)                  1.5061         estimate D2E/DX2                !
 ! R2    R(1,12)                 1.0882         estimate D2E/DX2                !
 ! R3    R(1,13)                 1.0863         estimate D2E/DX2                !
 ! R4    R(1,14)                 1.0874         estimate D2E/DX2                !
 ! R5    R(2,3)                  1.2105         estimate D2E/DX2                !
 ! R6    R(2,4)                  1.3716         estimate D2E/DX2                !
 ! R7    R(4,5)                  1.3937         estimate D2E/DX2                !
 ! R8    R(4,15)                 1.0142         estimate D2E/DX2                !
 ! R9    R(5,6)                  1.394          estimate D2E/DX2                !
 ! R10   R(5,11)                 1.3969         estimate D2E/DX2                !
 ! R11   R(6,7)                  1.3825         estimate D2E/DX2                !
 ! R12   R(6,16)                 1.0765         estimate D2E/DX2                !
 ! R13   R(7,8)                  1.3838         estimate D2E/DX2                !
 ! R14   R(7,17)                 1.079          estimate D2E/DX2                !
 ! R15   R(8,9)                  1.9046         estimate D2E/DX2                !
 ! R16   R(8,10)                 1.3854         estimate D2E/DX2                !
 ! R17   R(10,11)                1.3797         estimate D2E/DX2                !
 ! R18   R(10,18)                1.0789         estimate D2E/DX2                !
 ! R19   R(11,19)                1.0801         estimate D2E/DX2                !
 ! A1    A(2,1,12)             109.8894         estimate D2E/DX2                !
 ! A2    A(2,1,13)             111.6593         estimate D2E/DX2                !
 ! A3    A(2,1,14)             107.8814         estimate D2E/DX2                !
 ! A4    A(12,1,13)            109.5911         estimate D2E/DX2                !
 ! A5    A(12,1,14)            107.707          estimate D2E/DX2                !
 ! A6    A(13,1,14)            110.0183         estimate D2E/DX2                !
 ! A7    A(1,2,3)              123.0138         estimate D2E/DX2                !
 ! A8    A(1,2,4)              118.1351         estimate D2E/DX2                !
 ! A9    A(3,2,4)              118.8202         estimate D2E/DX2                !
 ! A10   A(2,4,5)              132.5057         estimate D2E/DX2                !
 ! A11   A(2,4,15)             112.1455         estimate D2E/DX2                !
 ! A12   A(5,4,15)             114.8674         estimate D2E/DX2                !
 ! A13   A(4,5,6)              123.0846         estimate D2E/DX2                !
 ! A14   A(4,5,11)             118.068          estimate D2E/DX2                !
 ! A15   A(6,5,11)             118.7951         estimate D2E/DX2                !
 ! A16   A(5,6,7)              120.439          estimate D2E/DX2                !
 ! A17   A(5,6,16)             120.5255         estimate D2E/DX2                !
 ! A18   A(7,6,16)             119.0097         estimate D2E/DX2                !
 ! A19   A(6,7,8)              119.7431         estimate D2E/DX2                !
 ! A20   A(6,7,17)             120.0848         estimate D2E/DX2                !
 ! A21   A(8,7,17)             120.1684         estimate D2E/DX2                !
 ! A22   A(7,8,9)              119.6268         estimate D2E/DX2                !
 ! A23   A(7,8,10)             120.7771         estimate D2E/DX2                !
 ! A24   A(9,8,10)             119.5918         estimate D2E/DX2                !
 ! A25   A(8,10,11)            119.2521         estimate D2E/DX2                !
 ! A26   A(8,10,18)            120.3077         estimate D2E/DX2                !
 ! A27   A(11,10,18)           120.4402         estimate D2E/DX2                !
 ! A28   A(5,11,10)            120.9584         estimate D2E/DX2                !
 ! A29   A(5,11,19)            119.4671         estimate D2E/DX2                !
 ! A30   A(10,11,19)           119.574          estimate D2E/DX2                !
 ! D1    D(12,1,2,3)           -92.1931         estimate D2E/DX2                !
 ! D2    D(12,1,2,4)            89.856          estimate D2E/DX2                !
 ! D3    D(13,1,2,3)           145.9812         estimate D2E/DX2                !
 ! D4    D(13,1,2,4)           -31.9698         estimate D2E/DX2                !
 ! D5    D(14,1,2,3)            24.9738         estimate D2E/DX2                !
 ! D6    D(14,1,2,4)          -152.9771         estimate D2E/DX2                !
 ! D7    D(1,2,4,5)             -1.8853         estimate D2E/DX2                !
 ! D8    D(1,2,4,15)           169.5534         estimate D2E/DX2                !
 ! D9    D(3,2,4,5)           -179.9242         estimate D2E/DX2                !
 ! D10   D(3,2,4,15)            -8.4855         estimate D2E/DX2                !
 ! D11   D(2,4,5,6)            -37.3465         estimate D2E/DX2                !
 ! D12   D(2,4,5,11)           145.3185         estimate D2E/DX2                !
 ! D13   D(15,4,5,6)           151.395          estimate D2E/DX2                !
 ! D14   D(15,4,5,11)          -25.9401         estimate D2E/DX2                !
 ! D15   D(4,5,6,7)           -179.316          estimate D2E/DX2                !
 ! D16   D(4,5,6,16)            -1.1842         estimate D2E/DX2                !
 ! D17   D(11,5,6,7)            -1.9993         estimate D2E/DX2                !
 ! D18   D(11,5,6,16)          176.1325         estimate D2E/DX2                !
 ! D19   D(4,5,11,10)          179.2651         estimate D2E/DX2                !
 ! D20   D(4,5,11,19)           -0.9648         estimate D2E/DX2                !
 ! D21   D(6,5,11,10)            1.8129         estimate D2E/DX2                !
 ! D22   D(6,5,11,19)         -178.4169         estimate D2E/DX2                !
 ! D23   D(5,6,7,8)              0.6862         estimate D2E/DX2                !
 ! D24   D(5,6,7,17)           179.9927         estimate D2E/DX2                !
 ! D25   D(16,6,7,8)          -177.4737         estimate D2E/DX2                !
 ! D26   D(16,6,7,17)            1.8328         estimate D2E/DX2                !
 ! D27   D(6,7,8,9)           -179.8869         estimate D2E/DX2                !
 ! D28   D(6,7,8,10)             0.8685         estimate D2E/DX2                !
 ! D29   D(17,7,8,9)             0.8072         estimate D2E/DX2                !
 ! D30   D(17,7,8,10)         -178.4374         estimate D2E/DX2                !
 ! D31   D(7,8,10,11)           -1.0576         estimate D2E/DX2                !
 ! D32   D(7,8,10,18)          179.0067         estimate D2E/DX2                !
 ! D33   D(9,8,10,11)          179.6975         estimate D2E/DX2                !
 ! D34   D(9,8,10,18)           -0.2382         estimate D2E/DX2                !
 ! D35   D(8,10,11,5)           -0.3025         estimate D2E/DX2                !
 ! D36   D(8,10,11,19)         179.9276         estimate D2E/DX2                !
 ! D37   D(18,10,11,5)         179.6331         estimate D2E/DX2                !
 ! D38   D(18,10,11,19)         -0.1368         estimate D2E/DX2                !
 --------------------------------------------------------------------------------
 Trust Radius=3.00D-01 FncErr=1.00D-07 GrdErr=1.00D-06 EigMax=2.50D+02 EigMin=1.00D-04
 Number of steps in this run=     97 maximum allowed number of steps=    114.
 GradGradGradGradGradGradGradGradGradGradGradGradGradGradGradGradGradGrad

 Leave Link  103 at Tue Sep 17 09:45:06 2024, MaxMem=  1342177280 cpu:               0.1 elap:               0.0
 (Enter /groups/ReismanLab/Software/Gaussian16_RevC/Linux_Binary_AVX2-enabled-CPU/g16/l202.exe)
                          Input orientation:                          
 ---------------------------------------------------------------------
 Center     Atomic      Atomic             Coordinates (Angstroms)
 Number     Number       Type             X           Y           Z
 ---------------------------------------------------------------------
      1          6           0       -3.828177   -1.246333   -0.850717
      2          6           0       -4.024798   -0.140057    0.152232
      3          8           0       -5.116934    0.228753    0.521734
      4          7           0       -2.912323    0.501632    0.633788
      5          6           0       -1.549127    0.321292    0.406926
      6          6           0       -0.964461   -0.933476    0.243018
      7          6           0        0.397233   -1.049834    0.034444
      8          6           0        1.186411    0.086398    0.002420
      9         35           0        3.061515   -0.077507   -0.288377
     10          6           0        0.631045    1.340885    0.194875
     11          6           0       -0.728945    1.452052    0.398660
     12          1           0       -3.715035   -2.197838   -0.334950
     13          1           0       -2.960814   -1.067652   -1.479858
     14          1           0       -4.725443   -1.306149   -1.462014
     15          1           0       -3.150026    1.332012    1.165302
     16          1           0       -1.561089   -1.827219    0.306716
     17          1           0        0.843823   -2.023946   -0.091602
     18          1           0        1.255848    2.220358    0.184265
     19          1           0       -1.167249    2.427453    0.550427
 ---------------------------------------------------------------------
                    Distance matrix (angstroms):
                    1          2          3          4          5
     1  C    0.000000
     2  C    1.506124   0.000000
     3  O    2.391735   1.210502   0.000000
     4  N    2.469397   1.371591   2.224259   0.000000
     5  C    3.038615   2.531138   3.570853   1.393662   0.000000
     6  C    3.081396   3.162818   4.321052   2.450796   1.393967
     7  C    4.321598   4.516185   5.681397   3.703974   2.409782
     8  C    5.258337   5.218277   6.326303   4.167813   2.775242
     9  Br   7.010723   7.100273   8.224178   6.072276   4.679798
    10  C    5.260382   4.885886   5.863696   3.667757   2.416130
    11  C    4.295051   3.668540   4.556979   2.392848   1.396920
    12  H    1.088200   2.137232   2.930456   2.978244   3.404050
    13  H    1.086308   2.157826   3.214948   2.632964   2.735321
    14  H    1.087359   2.111034   2.538592   3.308756   4.028708
    15  H    3.342467   1.989604   2.345227   1.014170   2.039501
    16  H    2.610894   2.990023   4.113063   2.712260   2.150880
    17  H    4.796719   5.226084   6.401676   4.584034   3.387459
    18  H    6.239908   5.784273   6.685262   4.530976   3.394689
    19  H    4.747678   3.862157   4.520522   2.600196   2.145306
                    6          7          8          9         10
     6  C    0.000000
     7  C    1.382481   0.000000
     8  C    2.392547   1.383781   0.000000
     9  Br   4.150127   2.854476   1.904585   0.000000
    10  C    2.778610   2.407477   1.385355   2.855268   0.000000
    11  C    2.402173   2.767737   2.385499   4.144775   1.379659
    12  H    3.081934   4.285454   5.418093   7.100677   5.629537
    13  H    2.640403   3.683735   4.552851   6.218397   4.637589
    14  H    4.146204   5.342930   6.247702   7.970176   6.200325
    15  H    3.280204   4.419850   4.659241   6.533236   3.903626
    16  H    1.076475   2.124496   3.362035   4.978363   3.854197
    17  H    2.137986   1.078992   2.140037   2.957280   3.383701
    18  H    3.857447   3.384350   2.142819   2.960407   1.078872
    19  H    3.381045   3.847775   3.364604   4.986067   2.130940
                   11         12         13         14         15
    11  C    0.000000
    12  H    4.772486   0.000000
    13  H    3.854735   1.776791   0.000000
    14  H    5.200171   1.756789   1.780763   0.000000
    15  H    2.542397   3.876833   3.576459   4.042849   0.000000
    16  H    3.384455   2.277845   2.393328   3.662384   3.639042
    17  H    3.846624   4.568659   4.161371   5.780137   5.365919
    18  H    2.139080   6.670812   5.600050   7.135989   4.600361
    19  H    1.080070   5.354291   4.422069   5.536286   2.347225
                   16         17         18         19
    16  H    0.000000
    17  H    2.445600   0.000000
    18  H    4.932850   4.273171   0.000000
    19  H    4.279806   4.926618   2.459342   0.000000
 Stoichiometry    C8H8BrNO
 Framework group  C1[X(C8H8BrNO)]
 Deg. of freedom    51
 Full point group                 C1      NOp   1
 Largest Abelian subgroup         C1      NOp   1
 Largest concise Abelian subgroup C1      NOp   1
                         Standard orientation:                         
 ---------------------------------------------------------------------
 Center     Atomic      Atomic             Coordinates (Angstroms)
 Number     Number       Type             X           Y           Z
 ---------------------------------------------------------------------
      1          6           0        3.586794   -1.448292    0.611853
      2          6           0        3.815360   -0.072495    0.043215
      3          8           0        4.918315    0.399033   -0.119470
      4          7           0        2.718026    0.690922   -0.263892
      5          6           0        1.348429    0.444083   -0.189286
      6          6           0        0.781463   -0.795070   -0.482873
      7          6           0       -0.586942   -0.975477   -0.404309
      8          6           0       -1.399774    0.085376   -0.045497
      9         35           0       -3.284242   -0.167704    0.064855
     10          6           0       -0.860489    1.333661    0.219388
     11          6           0        0.506059    1.507584    0.143524
     12          1           0        3.521558   -2.176040   -0.194564
     13          1           0        2.682807   -1.488614    1.212891
     14          1           0        4.450276   -1.705663    1.220546
     15          1           0        2.967436    1.650584   -0.476926
     16          1           0        1.398847   -1.616824   -0.802804
     17          1           0       -1.019738   -1.937061   -0.632933
     18          1           0       -1.502801    2.159457    0.482944
     19          1           0        0.931965    2.478874    0.347853
 ---------------------------------------------------------------------
 Rotational constants (GHZ):           3.2986873           0.2803543           0.2628871
 Leave Link  202 at Tue Sep 17 09:45:06 2024, MaxMem=  1342177280 cpu:               0.0 elap:               0.0
 (Enter /groups/ReismanLab/Software/Gaussian16_RevC/Linux_Binary_AVX2-enabled-CPU/g16/l301.exe)
 Standard basis: 6-31G(d,p) (6D, 7F)
 Ernie: Thresh=  0.10000D-02 Tol=  0.10000D-05 Strict=F.
 There are   220 symmetry adapted cartesian basis functions of A   symmetry.
 There are   220 symmetry adapted basis functions of A   symmetry.
   220 basis functions,   419 primitive gaussians,   220 cartesian basis functions
    53 alpha electrons       53 beta electrons
       nuclear repulsion energy       792.2657746245 Hartrees.
 IExCor=  402 DFT=T Ex+Corr=B3LYP ExCW=0 ScaHFX=  0.200000
 ScaDFX=  0.800000  0.720000  1.000000  0.810000 ScalE2=  1.000000  1.000000
 IRadAn=      5 IRanWt=     -1 IRanGd=            0 ICorTp=0 IEmpDi=141
 NAtoms=   19 NActive=   19 NUniq=   19 SFac= 1.00D+00 NAtFMM=   60 NAOKFM=F Big=F
 Integral buffers will be    131072 words long.
 Raffenetti 2 integral format.
 Two-electron integral symmetry is turned on.
 R6Disp:  Grimme-D3(BJ) Dispersion energy=       -0.0387309162 Hartrees.
 Nuclear repulsion after empirical dispersion term =      792.2270437082 Hartrees.
 Leave Link  301 at Tue Sep 17 09:45:06 2024, MaxMem=  1342177280 cpu:               0.1 elap:               0.1
 (Enter /groups/ReismanLab/Software/Gaussian16_RevC/Linux_Binary_AVX2-enabled-CPU/g16/l302.exe)
 NPDir=0 NMtPBC=     1 NCelOv=     1 NCel=       1 NClECP=     1 NCelD=      1
         NCelK=      1 NCelE2=     1 NClLst=     1 CellRange=     0.0.
 One-electron integrals computed using PRISM.
 One-electron integral symmetry used in STVInt
 NBasis=   220 RedAO= T EigKep=  3.96D-04  NBF=   220
 NBsUse=   220 1.00D-06 EigRej= -1.00D+00 NBFU=   220
 Precomputing XC quadrature grid using
 IXCGrd= 4 IRadAn=           5 IRanWt=          -1 IRanGd=           0 AccXCQ= 0.00D+00.
 Generated NRdTot=       0 NPtTot=           0 NUsed=           0 NTot=          32
 NSgBfM=   218   218   218   218   218 MxSgAt=    19 MxSgA2=    19.
 Leave Link  302 at Tue Sep 17 09:45:07 2024, MaxMem=  1342177280 cpu:               1.1 elap:               0.2
 (Enter /groups/ReismanLab/Software/Gaussian16_RevC/Linux_Binary_AVX2-enabled-CPU/g16/l303.exe)
 DipDrv:  MaxL=1.
 Leave Link  303 at Tue Sep 17 09:45:07 2024, MaxMem=  1342177280 cpu:               0.1 elap:               0.0
 (Enter /groups/ReismanLab/Software/Gaussian16_RevC/Linux_Binary_AVX2-enabled-CPU/g16/l401.exe)
 ExpMin= 1.43D-01 ExpMax= 5.74D+05 ExpMxC= 5.74D+03 IAcc=3 IRadAn=         5 AccDes= 0.00D+00
 Harris functional with IExCor=  402 and IRadAn=       5 diagonalized for initial guess.
 HarFok:  IExCor=  402 AccDes= 0.00D+00 IRadAn=         5 IDoV= 1 UseB2=F ITyADJ=14
 ICtDFT=  3500011 ScaDFX=  1.000000  1.000000  1.000000  1.000000
 FoFCou: FMM=F IPFlag=           0 FMFlag=      100000 FMFlg1=           0
         NFxFlg=           0 DoJE=T BraDBF=F KetDBF=T FulRan=T
         wScrn=  0.000000 ICntrl=       500 IOpCl=  0 I1Cent=   200000004 NGrid=           0
         NMat0=    1 NMatS0=      1 NMatT0=    0 NMatD0=    1 NMtDS0=    0 NMtDT0=    0
 Petite list used in FoFCou.
 Harris En= -3011.54936346892    
 JPrj=0 DoOrth=F DoCkMO=F.
 Leave Link  401 at Tue Sep 17 09:45:07 2024, MaxMem=  1342177280 cpu:               5.2 elap:               0.7
 (Enter /groups/ReismanLab/Software/Gaussian16_RevC/Linux_Binary_AVX2-enabled-CPU/g16/l502.exe)
 Integral symmetry usage will be decided dynamically.
 Closed shell SCF:
 Using DIIS extrapolation, IDIIS=  1040.
 NGot=  1342177280 LenX=  1342075912 LenY=  1342027071
 Requested convergence on RMS density matrix=1.00D-08 within  32 cycles.
 Requested convergence on MAX density matrix=1.00D-06.
 Requested convergence on             energy=1.00D-06.
 No special actions if energy rises.
 Fock matrices will be formed incrementally for  20 cycles.
 Integral accuracy reduced to 1.0D-05 until final iterations.

 Cycle   1  Pass 0  IDiag  1:
 FoFJK:  IHMeth= 1 ICntrl=       0 DoSepK=F KAlg= 0 I1Cent=           0 FoldK=F
 IRaf= 860000000 NMat=       1 IRICut=       1 DoRegI=T DoRafI=F ISym2E= 0 IDoP0=0 IntGTp=1.
 FoFCou: FMM=F IPFlag=           0 FMFlag=      100000 FMFlg1=           0
         NFxFlg=           0 DoJE=F BraDBF=F KetDBF=F FulRan=T
         wScrn=  0.000000 ICntrl=         0 IOpCl=  0 I1Cent=           0 NGrid=           0
         NMat0=    1 NMatS0=      1 NMatT0=    0 NMatD0=    1 NMtDS0=    0 NMtDT0=    0
 Symmetry not used in FoFCou.
 E= -3011.13489920845    
 DIIS: error= 1.92D-01 at cycle   1 NSaved=   1.
 NSaved= 1 IEnMin= 1 EnMin= -3011.13489920845     IErMin= 1 ErrMin= 1.92D-01
 ErrMax= 1.92D-01  0.00D+00 EMaxC= 1.00D-01 BMatC= 6.46D-01 BMatP= 6.46D-01
 IDIUse=3 WtCom= 0.00D+00 WtEn= 1.00D+00
 Coeff-Com:  0.100D+01
 Coeff-En:   0.100D+01
 Coeff:      0.100D+01
 Gap=     0.254 Goal=   None    Shift=    0.000
 GapD=    0.254 DampG=1.000 DampE=0.250 DampFc=0.2500 IDamp=-1.
 Damping current iteration by 2.50D-01
 RMSDP=6.42D-03 MaxDP=2.36D-01              OVMax= 2.34D-01

 Cycle   2  Pass 0  IDiag  1:
 RMSU=  1.57D-03    CP:  9.93D-01
 E= -3011.23361362241     Delta-E=       -0.098714413960 Rises=F Damp=T
 DIIS: error= 1.41D-01 at cycle   2 NSaved=   2.
 NSaved= 2 IEnMin= 2 EnMin= -3011.23361362241     IErMin= 2 ErrMin= 1.41D-01
 ErrMax= 1.41D-01  0.00D+00 EMaxC= 1.00D-01 BMatC= 2.57D-01 BMatP= 6.46D-01
 IDIUse=3 WtCom= 0.00D+00 WtEn= 1.00D+00
 Coeff-Com: -0.106D+01 0.206D+01
 Coeff-En:   0.000D+00 0.100D+01
 Coeff:      0.000D+00 0.100D+01
 Gap=     0.225 Goal=   None    Shift=    0.000
 RMSDP=2.73D-03 MaxDP=1.11D-01 DE=-9.87D-02 OVMax= 1.18D-01

 Cycle   3  Pass 0  IDiag  1:
 RMSU=  1.47D-03    CP:  9.70D-01  2.33D+00
 E= -3011.35859847213     Delta-E=       -0.124984849715 Rises=F Damp=F
 DIIS: error= 1.63D-02 at cycle   3 NSaved=   3.
 NSaved= 3 IEnMin= 3 EnMin= -3011.35859847213     IErMin= 3 ErrMin= 1.63D-02
 ErrMax= 1.63D-02  0.00D+00 EMaxC= 1.00D-01 BMatC= 5.96D-02 BMatP= 2.57D-01
 IDIUse=3 WtCom= 8.37D-01 WtEn= 1.63D-01
 Coeff-Com:  0.598D+00-0.604D+00 0.101D+01
 Coeff-En:   0.113D+00 0.000D+00 0.887D+00
 Coeff:      0.519D+00-0.505D+00 0.987D+00
 Gap=     0.206 Goal=   None    Shift=    0.000
 RMSDP=1.65D-03 MaxDP=4.87D-02 DE=-1.25D-01 OVMax= 6.67D-02

 Cycle   4  Pass 0  IDiag  1:
 RMSU=  1.21D-03    CP:  9.71D-01  1.68D+00  6.98D-01
 E= -3011.39133208584     Delta-E=       -0.032733613711 Rises=F Damp=F
 DIIS: error= 7.61D-03 at cycle   4 NSaved=   4.
 NSaved= 4 IEnMin= 4 EnMin= -3011.39133208584     IErMin= 4 ErrMin= 7.61D-03
 ErrMax= 7.61D-03  0.00D+00 EMaxC= 1.00D-01 BMatC= 2.41D-02 BMatP= 5.96D-02
 IDIUse=3 WtCom= 9.24D-01 WtEn= 7.61D-02
 Coeff-Com:  0.491D+00-0.632D+00 0.638D+00 0.503D+00
 Coeff-En:   0.000D+00 0.000D+00 0.259D+00 0.741D+00
 Coeff:      0.453D+00-0.584D+00 0.609D+00 0.521D+00
 Gap=     0.210 Goal=   None    Shift=    0.000
 RMSDP=8.41D-04 MaxDP=2.67D-02 DE=-3.27D-02 OVMax= 4.31D-02

 Cycle   5  Pass 0  IDiag  1:
 RMSU=  2.00D-04    CP:  9.71D-01  1.71D+00  9.47D-01  4.00D-01
 E= -3011.41471724585     Delta-E=       -0.023385160009 Rises=F Damp=F
 DIIS: error= 1.02D-03 at cycle   5 NSaved=   5.
 NSaved= 5 IEnMin= 5 EnMin= -3011.41471724585     IErMin= 5 ErrMin= 1.02D-03
 ErrMax= 1.02D-03  0.00D+00 EMaxC= 1.00D-01 BMatC= 4.23D-04 BMatP= 2.41D-02
 IDIUse=3 WtCom= 9.90D-01 WtEn= 1.02D-02
 Coeff-Com:  0.176D+00-0.227D+00 0.240D+00 0.234D+00 0.578D+00
 Coeff-En:   0.000D+00 0.000D+00 0.000D+00 0.000D+00 0.100D+01
 Coeff:      0.174D+00-0.225D+00 0.237D+00 0.232D+00 0.582D+00
 Gap=     0.201 Goal=   None    Shift=    0.000
 RMSDP=1.49D-04 MaxDP=4.67D-03 DE=-2.34D-02 OVMax= 7.19D-03

 Cycle   6  Pass 0  IDiag  1:
 RMSU=  6.09D-05    CP:  9.71D-01  1.73D+00  9.28D-01  4.77D-01  5.55D-01
 E= -3011.41510631645     Delta-E=       -0.000389070602 Rises=F Damp=F
 DIIS: error= 2.65D-04 at cycle   6 NSaved=   6.
 NSaved= 6 IEnMin= 6 EnMin= -3011.41510631645     IErMin= 6 ErrMin= 2.65D-04
 ErrMax= 2.65D-04  0.00D+00 EMaxC= 1.00D-01 BMatC= 4.52D-05 BMatP= 4.23D-04
 IDIUse=3 WtCom= 9.97D-01 WtEn= 2.65D-03
 Coeff-Com:  0.459D-01-0.601D-01 0.598D-01 0.630D-01 0.297D+00 0.595D+00
 Coeff-En:   0.000D+00 0.000D+00 0.000D+00 0.000D+00 0.480D-01 0.952D+00
 Coeff:      0.458D-01-0.600D-01 0.597D-01 0.628D-01 0.296D+00 0.596D+00
 Gap=     0.201 Goal=   None    Shift=    0.000
 RMSDP=3.74D-05 MaxDP=1.13D-03 DE=-3.89D-04 OVMax= 2.39D-03

 Cycle   7  Pass 0  IDiag  1:
 RMSU=  1.98D-05    CP:  9.71D-01  1.72D+00  9.35D-01  4.67D-01  6.19D-01
                    CP:  6.09D-01
 E= -3011.41514910419     Delta-E=       -0.000042787738 Rises=F Damp=F
 DIIS: error= 7.28D-05 at cycle   7 NSaved=   7.
 NSaved= 7 IEnMin= 7 EnMin= -3011.41514910419     IErMin= 7 ErrMin= 7.28D-05
 ErrMax= 7.28D-05  0.00D+00 EMaxC= 1.00D-01 BMatC= 2.68D-06 BMatP= 4.52D-05
 IDIUse=1 WtCom= 1.00D+00 WtEn= 0.00D+00
 Coeff-Com:  0.151D-01-0.200D-01 0.181D-01 0.183D-01 0.113D+00 0.296D+00
 Coeff-Com:  0.560D+00
 Coeff:      0.151D-01-0.200D-01 0.181D-01 0.183D-01 0.113D+00 0.296D+00
 Coeff:      0.560D+00
 Gap=     0.201 Goal=   None    Shift=    0.000
 RMSDP=1.07D-05 MaxDP=4.84D-04 DE=-4.28D-05 OVMax= 8.01D-04

 Cycle   8  Pass 0  IDiag  1:
 RMSU=  6.51D-06    CP:  9.71D-01  1.72D+00  9.35D-01  4.66D-01  6.24D-01
                    CP:  6.51D-01  6.21D-01
 E= -3011.41515157516     Delta-E=       -0.000002470969 Rises=F Damp=F
 DIIS: error= 3.52D-05 at cycle   8 NSaved=   8.
 NSaved= 8 IEnMin= 8 EnMin= -3011.41515157516     IErMin= 8 ErrMin= 3.52D-05
 ErrMax= 3.52D-05  0.00D+00 EMaxC= 1.00D-01 BMatC= 4.43D-07 BMatP= 2.68D-06
 IDIUse=1 WtCom= 1.00D+00 WtEn= 0.00D+00
 Coeff-Com:  0.335D-02-0.450D-02 0.328D-02 0.277D-02 0.304D-01 0.106D+00
 Coeff-Com:  0.332D+00 0.528D+00
 Coeff:      0.335D-02-0.450D-02 0.328D-02 0.277D-02 0.304D-01 0.106D+00
 Coeff:      0.332D+00 0.528D+00
 Gap=     0.201 Goal=   None    Shift=    0.000
 RMSDP=3.65D-06 MaxDP=1.14D-04 DE=-2.47D-06 OVMax= 2.65D-04

 Initial convergence to 1.0D-05 achieved.  Increase integral accuracy.
 Cycle   9  Pass 1  IDiag  1:
 E= -3011.41513137667     Delta-E=        0.000020198493 Rises=F Damp=F
 DIIS: error= 2.71D-05 at cycle   1 NSaved=   1.
 NSaved= 1 IEnMin= 1 EnMin= -3011.41513137667     IErMin= 1 ErrMin= 2.71D-05
 ErrMax= 2.71D-05  0.00D+00 EMaxC= 1.00D-01 BMatC= 1.23D-07 BMatP= 1.23D-07
 IDIUse=1 WtCom= 1.00D+00 WtEn= 0.00D+00
 Coeff-Com:  0.100D+01
 Coeff:      0.100D+01
 Gap=     0.201 Goal=   None    Shift=    0.000
 RMSDP=3.65D-06 MaxDP=1.14D-04 DE= 2.02D-05 OVMax= 2.37D-04

 Cycle  10  Pass 1  IDiag  1:
 RMSU=  1.24D-05    CP:  1.00D+00
 E= -3011.41513131529     Delta-E=        0.000000061371 Rises=F Damp=F
 DIIS: error= 3.03D-05 at cycle   2 NSaved=   2.
 NSaved= 2 IEnMin= 1 EnMin= -3011.41513137667     IErMin= 1 ErrMin= 2.71D-05
 ErrMax= 3.03D-05  0.00D+00 EMaxC= 1.00D-01 BMatC= 1.42D-07 BMatP= 1.23D-07
 IDIUse=1 WtCom= 1.00D+00 WtEn= 0.00D+00
 Coeff-Com:  0.522D+00 0.478D+00
 Coeff:      0.522D+00 0.478D+00
 Gap=     0.201 Goal=   None    Shift=    0.000
 RMSDP=2.62D-06 MaxDP=7.95D-05 DE= 6.14D-08 OVMax= 2.27D-04

 Cycle  11  Pass 1  IDiag  1:
 RMSU=  2.61D-06    CP:  1.00D+00  9.78D-01
 E= -3011.41513143750     Delta-E=       -0.000000122209 Rises=F Damp=F
 DIIS: error= 1.38D-05 at cycle   3 NSaved=   3.
 NSaved= 3 IEnMin= 3 EnMin= -3011.41513143750     IErMin= 3 ErrMin= 1.38D-05
 ErrMax= 1.38D-05  0.00D+00 EMaxC= 1.00D-01 BMatC= 3.06D-08 BMatP= 1.23D-07
 IDIUse=1 WtCom= 1.00D+00 WtEn= 0.00D+00
 Coeff-Com:  0.364D-01 0.314D+00 0.649D+00
 Coeff:      0.364D-01 0.314D+00 0.649D+00
 Gap=     0.201 Goal=   None    Shift=    0.000
 RMSDP=9.64D-07 MaxDP=3.73D-05 DE=-1.22D-07 OVMax= 7.94D-05

 Cycle  12  Pass 1  IDiag  1:
 RMSU=  4.65D-07    CP:  1.00D+00  9.92D-01  6.84D-01
 E= -3011.41513146944     Delta-E=       -0.000000031939 Rises=F Damp=F
 DIIS: error= 2.09D-06 at cycle   4 NSaved=   4.
 NSaved= 4 IEnMin= 4 EnMin= -3011.41513146944     IErMin= 4 ErrMin= 2.09D-06
 ErrMax= 2.09D-06  0.00D+00 EMaxC= 1.00D-01 BMatC= 2.75D-09 BMatP= 3.06D-08
 IDIUse=1 WtCom= 1.00D+00 WtEn= 0.00D+00
 Coeff-Com:  0.641D-03 0.176D+00 0.406D+00 0.417D+00
 Coeff:      0.641D-03 0.176D+00 0.406D+00 0.417D+00
 Gap=     0.201 Goal=   None    Shift=    0.000
 RMSDP=2.61D-07 MaxDP=1.02D-05 DE=-3.19D-08 OVMax= 1.65D-05

 Cycle  13  Pass 1  IDiag  1:
 RMSU=  1.10D-07    CP:  1.00D+00  9.93D-01  7.00D-01  5.00D-01
 E= -3011.41513147181     Delta-E=       -0.000000002369 Rises=F Damp=F
 DIIS: error= 7.57D-07 at cycle   5 NSaved=   5.
 NSaved= 5 IEnMin= 5 EnMin= -3011.41513147181     IErMin= 5 ErrMin= 7.57D-07
 ErrMax= 7.57D-07  0.00D+00 EMaxC= 1.00D-01 BMatC= 1.54D-10 BMatP= 2.75D-09
 IDIUse=1 WtCom= 1.00D+00 WtEn= 0.00D+00
 Coeff-Com: -0.186D-02 0.904D-01 0.214D+00 0.260D+00 0.438D+00
 Coeff:     -0.186D-02 0.904D-01 0.214D+00 0.260D+00 0.438D+00
 Gap=     0.201 Goal=   None    Shift=    0.000
 RMSDP=6.40D-08 MaxDP=2.61D-06 DE=-2.37D-09 OVMax= 3.31D-06

 Cycle  14  Pass 1  IDiag  1:
 RMSU=  2.98D-08    CP:  1.00D+00  9.93D-01  7.00D-01  4.96D-01  4.94D-01
 E= -3011.41513147192     Delta-E=       -0.000000000110 Rises=F Damp=F
 DIIS: error= 1.14D-07 at cycle   6 NSaved=   6.
 NSaved= 6 IEnMin= 6 EnMin= -3011.41513147192     IErMin= 6 ErrMin= 1.14D-07
 ErrMax= 1.14D-07  0.00D+00 EMaxC= 1.00D-01 BMatC= 7.56D-12 BMatP= 1.54D-10
 IDIUse=1 WtCom= 1.00D+00 WtEn= 0.00D+00
 Coeff-Com: -0.115D-02 0.450D-01 0.107D+00 0.134D+00 0.266D+00 0.449D+00
 Coeff:     -0.115D-02 0.450D-01 0.107D+00 0.134D+00 0.266D+00 0.449D+00
 Gap=     0.201 Goal=   None    Shift=    0.000
 RMSDP=1.35D-08 MaxDP=4.53D-07 DE=-1.10D-10 OVMax= 5.89D-07

 Cycle  15  Pass 1  IDiag  1:
 RMSU=  1.14D-08    CP:  1.00D+00  9.93D-01  7.00D-01  4.91D-01  5.18D-01
                    CP:  7.89D-01
 E= -3011.41513147194     Delta-E=       -0.000000000017 Rises=F Damp=F
 DIIS: error= 1.54D-08 at cycle   7 NSaved=   7.
 NSaved= 7 IEnMin= 7 EnMin= -3011.41513147194     IErMin= 7 ErrMin= 1.54D-08
 ErrMax= 1.54D-08  0.00D+00 EMaxC= 1.00D-01 BMatC= 1.65D-13 BMatP= 7.56D-12
 IDIUse=1 WtCom= 1.00D+00 WtEn= 0.00D+00
 Coeff-Com: -0.132D-03 0.337D-02 0.821D-02 0.113D-01 0.344D-01 0.147D+00
 Coeff-Com:  0.796D+00
 Coeff:     -0.132D-03 0.337D-02 0.821D-02 0.113D-01 0.344D-01 0.147D+00
 Coeff:      0.796D+00
 Gap=     0.201 Goal=   None    Shift=    0.000
 RMSDP=2.99D-09 MaxDP=1.05D-07 DE=-1.73D-11 OVMax= 1.87D-07

 SCF Done:  E(RB3LYP) =  -3011.41513147     A.U. after   15 cycles
            NFock= 15  Conv=0.30D-08     -V/T= 2.0065
 KE= 2.991869399074D+03 PE=-8.739817932048D+03 EE= 1.944306357794D+03
 Leave Link  502 at Tue Sep 17 09:45:21 2024, MaxMem=  1342177280 cpu:              91.4 elap:              13.2
 (Enter /groups/ReismanLab/Software/Gaussian16_RevC/Linux_Binary_AVX2-enabled-CPU/g16/l508.exe)
 QCSCF skips out because SCF is already converged.
 Leave Link  508 at Tue Sep 17 09:45:21 2024, MaxMem=  1342177280 cpu:               0.0 elap:               0.0
 (Enter /groups/ReismanLab/Software/Gaussian16_RevC/Linux_Binary_AVX2-enabled-CPU/g16/l601.exe)
 Copying SCF densities to generalized density rwf, IOpCl= 0 IROHF=0.

 **********************************************************************

            Population analysis using the SCF Density.

 **********************************************************************

 Orbital symmetries:
       Occupied  (A) (A) (A) (A) (A) (A) (A) (A) (A) (A) (A) (A)
                 (A) (A) (A) (A) (A) (A) (A) (A) (A) (A) (A) (A)
                 (A) (A) (A) (A) (A) (A) (A) (A) (A) (A) (A) (A)
                 (A) (A) (A) (A) (A) (A) (A) (A) (A) (A) (A) (A)
                 (A) (A) (A) (A) (A)
       Virtual   (A) (A) (A) (A) (A) (A) (A) (A) (A) (A) (A) (A)
                 (A) (A) (A) (A) (A) (A) (A) (A) (A) (A) (A) (A)
                 (A) (A) (A) (A) (A) (A) (A) (A) (A) (A) (A) (A)
                 (A) (A) (A) (A) (A) (A) (A) (A) (A) (A) (A) (A)
                 (A) (A) (A) (A) (A) (A) (A) (A) (A) (A) (A) (A)
                 (A) (A) (A) (A) (A) (A) (A) (A) (A) (A) (A) (A)
                 (A) (A) (A) (A) (A) (A) (A) (A) (A) (A) (A) (A)
                 (A) (A) (A) (A) (A) (A) (A) (A) (A) (A) (A) (A)
                 (A) (A) (A) (A) (A) (A) (A) (A) (A) (A) (A) (A)
                 (A) (A) (A) (A) (A) (A) (A) (A) (A) (A) (A) (A)
                 (A) (A) (A) (A) (A) (A) (A) (A) (A) (A) (A) (A)
                 (A) (A) (A) (A) (A) (A) (A) (A) (A) (A) (A) (A)
                 (A) (A) (A) (A) (A) (A) (A) (A) (A) (A) (A) (A)
                 (A) (A) (A) (A) (A) (A) (A) (A) (A) (A) (A)
 The electronic state is 1-A.
 Alpha  occ. eigenvalues -- -482.91471 -61.87642 -56.39778 -56.39367 -56.39355
 Alpha  occ. eigenvalues --  -19.11850 -14.37714 -10.29753 -10.25207 -10.25024
 Alpha  occ. eigenvalues --  -10.21298 -10.21262 -10.21036 -10.20954 -10.19610
 Alpha  occ. eigenvalues --   -8.58786  -6.54182  -6.52905  -6.52884  -2.65755
 Alpha  occ. eigenvalues --   -2.65389  -2.65373  -2.64354  -2.64354  -1.04944
 Alpha  occ. eigenvalues --   -0.95259  -0.88084  -0.80546  -0.77694  -0.75370
 Alpha  occ. eigenvalues --   -0.72988  -0.64477  -0.62817  -0.58700  -0.55392
 Alpha  occ. eigenvalues --   -0.49273  -0.48779  -0.47178  -0.46085  -0.45736
 Alpha  occ. eigenvalues --   -0.44413  -0.41290  -0.40937  -0.40432  -0.38399
 Alpha  occ. eigenvalues --   -0.37492  -0.36677  -0.33369  -0.29113  -0.28632
 Alpha  occ. eigenvalues --   -0.27688  -0.25881  -0.22711
 Alpha virt. eigenvalues --   -0.02602  -0.02322   0.00350   0.03092   0.08418
 Alpha virt. eigenvalues --    0.09542   0.11487   0.13325   0.14245   0.15298
 Alpha virt. eigenvalues --    0.16080   0.17966   0.20157   0.21191   0.22707
 Alpha virt. eigenvalues --    0.25776   0.27450   0.28660   0.30765   0.31422
 Alpha virt. eigenvalues --    0.34320   0.38086   0.41303   0.43954   0.45784
 Alpha virt. eigenvalues --    0.45991   0.46043   0.48197   0.48319   0.50463
 Alpha virt. eigenvalues --    0.51513   0.52441   0.53597   0.55111   0.55696
 Alpha virt. eigenvalues --    0.57283   0.57472   0.59069   0.59761   0.60494
 Alpha virt. eigenvalues --    0.61638   0.62691   0.65139   0.67353   0.68583
 Alpha virt. eigenvalues --    0.71478   0.72179   0.75143   0.76295   0.78284
 Alpha virt. eigenvalues --    0.80038   0.80551   0.81136   0.82533   0.84341
 Alpha virt. eigenvalues --    0.85375   0.85990   0.87208   0.89459   0.90015
 Alpha virt. eigenvalues --    0.93194   0.93782   0.95576   0.99362   1.00840
 Alpha virt. eigenvalues --    1.03067   1.04596   1.08635   1.09597   1.12946
 Alpha virt. eigenvalues --    1.17069   1.18028   1.21730   1.23691   1.26388
 Alpha virt. eigenvalues --    1.33637   1.35021   1.36488   1.37495   1.38864
 Alpha virt. eigenvalues --    1.39923   1.43268   1.44589   1.50341   1.53238
 Alpha virt. eigenvalues --    1.56440   1.58615   1.62977   1.71011   1.72354
 Alpha virt. eigenvalues --    1.75379   1.78041   1.79457   1.81659   1.83056
 Alpha virt. eigenvalues --    1.84219   1.85894   1.86539   1.91437   1.93949
 Alpha virt. eigenvalues --    1.94907   1.97504   1.98621   2.03569   2.04144
 Alpha virt. eigenvalues --    2.04900   2.06206   2.07244   2.08565   2.10693
 Alpha virt. eigenvalues --    2.12724   2.13576   2.25330   2.27359   2.28644
 Alpha virt. eigenvalues --    2.30070   2.33169   2.35594   2.38968   2.40319
 Alpha virt. eigenvalues --    2.43096   2.45052   2.45671   2.46594   2.50014
 Alpha virt. eigenvalues --    2.50840   2.54575   2.55373   2.58154   2.59110
 Alpha virt. eigenvalues --    2.63303   2.65640   2.68225   2.69535   2.70701
 Alpha virt. eigenvalues --    2.74504   2.76896   2.78814   2.84689   2.88349
 Alpha virt. eigenvalues --    2.90958   2.98400   3.05634   3.06962   3.14440
 Alpha virt. eigenvalues --    3.19552   3.23699   3.25053   3.31029   3.35905
 Alpha virt. eigenvalues --    3.43663   3.44462   3.50056   3.53537   3.81147
 Alpha virt. eigenvalues --    4.02172   4.08898   4.12763   4.13987   4.16883
 Alpha virt. eigenvalues --    4.35103   4.41061   4.42408   4.61936   4.80339
 Alpha virt. eigenvalues --    8.60321  72.81227
          Condensed to atoms (all electrons):
               1          2          3          4          5          6
     1  C    5.173000   0.339192  -0.086521  -0.127449   0.003511  -0.002069
     2  C    0.339192   4.342059   0.623855   0.251774  -0.014307  -0.008741
     3  O   -0.086521   0.623855   8.027706  -0.101571   0.003002  -0.000014
     4  N   -0.127449   0.251774  -0.101571   7.161909   0.210123  -0.057726
     5  C    0.003511  -0.014307   0.003002   0.210123   4.614781   0.532632
     6  C   -0.002069  -0.008741  -0.000014  -0.057726   0.532632   4.909916
     7  C   -0.000172   0.000069   0.000000   0.005560  -0.017318   0.498794
     8  C    0.000008   0.000015  -0.000000   0.000459  -0.033914  -0.036237
     9  Br   0.000000  -0.000000   0.000000   0.000001   0.000331   0.005893
    10  C   -0.000006  -0.000084   0.000000   0.005577  -0.017358  -0.045588
    11  C   -0.000012   0.002736  -0.000150  -0.058890   0.525449  -0.050961
    12  H    0.371233  -0.022405   0.000176   0.002073  -0.000407  -0.002676
    13  H    0.353335  -0.019235   0.002935   0.001793   0.001910   0.003385
    14  H    0.369884  -0.023492   0.002468   0.004208   0.000068   0.000383
    15  H    0.008893  -0.013372   0.010145   0.319440  -0.029243   0.004491
    16  H    0.001163   0.000211  -0.000057  -0.005991  -0.044017   0.365638
    17  H   -0.000002  -0.000003  -0.000000  -0.000117   0.003770  -0.034552
    18  H   -0.000000   0.000000  -0.000000  -0.000117   0.003960   0.000518
    19  H   -0.000018  -0.000024  -0.000027  -0.007427  -0.047228   0.005529
               7          8          9         10         11         12
     1  C   -0.000172   0.000008   0.000000  -0.000006  -0.000012   0.371233
     2  C    0.000069   0.000015  -0.000000  -0.000084   0.002736  -0.022405
     3  O    0.000000  -0.000000   0.000000   0.000000  -0.000150   0.000176
     4  N    0.005560   0.000459   0.000001   0.005577  -0.058890   0.002073
     5  C   -0.017318  -0.033914   0.000331  -0.017358   0.525449  -0.000407
     6  C    0.498794  -0.036237   0.005893  -0.045588  -0.050961  -0.002676
     7  C    4.881193   0.531897  -0.060215  -0.032443  -0.046691   0.000073
     8  C    0.531897   4.805829   0.258259   0.529719  -0.035778  -0.000001
     9  Br  -0.060215   0.258259  34.987344  -0.060319   0.005906   0.000000
    10  C   -0.032443   0.529719  -0.060319   4.863607   0.504878   0.000000
    11  C   -0.046691  -0.035778   0.005906   0.504878   4.941268  -0.000000
    12  H    0.000073  -0.000001   0.000000   0.000000  -0.000000   0.557481
    13  H    0.000002  -0.000020   0.000000  -0.000032   0.000007  -0.028422
    14  H    0.000000  -0.000000  -0.000000  -0.000000   0.000007  -0.021530
    15  H   -0.000086   0.000007  -0.000000   0.000082  -0.007890  -0.000206
    16  H   -0.033954   0.004559  -0.000153   0.000549   0.005254   0.002498
    17  H    0.369141  -0.041718  -0.003345   0.005300   0.000649   0.000001
    18  H    0.005375  -0.041793  -0.003334   0.369806  -0.035201  -0.000000
    19  H    0.000534   0.004621  -0.000154  -0.032236   0.363001   0.000000
              13         14         15         16         17         18
     1  C    0.353335   0.369884   0.008893   0.001163  -0.000002  -0.000000
     2  C   -0.019235  -0.023492  -0.013372   0.000211  -0.000003   0.000000
     3  O    0.002935   0.002468   0.010145  -0.000057  -0.000000  -0.000000
     4  N    0.001793   0.004208   0.319440  -0.005991  -0.000117  -0.000117
     5  C    0.001910   0.000068  -0.029243  -0.044017   0.003770   0.003960
     6  C    0.003385   0.000383   0.004491   0.365638  -0.034552   0.000518
     7  C    0.000002   0.000000  -0.000086  -0.033954   0.369141   0.005375
     8  C   -0.000020  -0.000000   0.000007   0.004559  -0.041718  -0.041793
     9  Br   0.000000  -0.000000  -0.000000  -0.000153  -0.003345  -0.003334
    10  C   -0.000032  -0.000000   0.000082   0.000549   0.005300   0.369806
    11  C    0.000007   0.000007  -0.007890   0.005254   0.000649  -0.035201
    12  H   -0.028422  -0.021530  -0.000206   0.002498   0.000001  -0.000000
    13  H    0.575619  -0.022291  -0.000245  -0.001170   0.000002   0.000000
    14  H   -0.022291   0.543315  -0.000192   0.000145  -0.000000   0.000000
    15  H   -0.000245  -0.000192   0.433632  -0.000202   0.000003  -0.000014
    16  H   -0.001170   0.000145  -0.000202   0.612159  -0.006661   0.000017
    17  H    0.000002  -0.000000   0.000003  -0.006661   0.594703  -0.000179
    18  H    0.000000   0.000000  -0.000014   0.000017  -0.000179   0.594165
    19  H    0.000012  -0.000000   0.004649  -0.000195   0.000017  -0.006680
              19
     1  C   -0.000018
     2  C   -0.000024
     3  O   -0.000027
     4  N   -0.007427
     5  C   -0.047228
     6  C    0.005529
     7  C    0.000534
     8  C    0.004621
     9  Br  -0.000154
    10  C   -0.032236
    11  C    0.363001
    12  H    0.000000
    13  H    0.000012
    14  H   -0.000000
    15  H    0.004649
    16  H   -0.000195
    17  H    0.000017
    18  H   -0.006680
    19  H    0.618886
 Mulliken charges:
               1
     1  C   -0.403969
     2  C    0.541751
     3  O   -0.481949
     4  N   -0.603629
     5  C    0.304252
     6  C   -0.088618
     7  C   -0.101758
     8  C    0.054087
     9  Br  -0.130213
    10  C   -0.091451
    11  C   -0.113580
    12  H    0.142112
    13  H    0.132416
    14  H    0.147028
    15  H    0.270108
    16  H    0.100206
    17  H    0.112992
    18  H    0.113477
    19  H    0.096740
 Sum of Mulliken charges =  -0.00000
 Mulliken charges with hydrogens summed into heavy atoms:
               1
     1  C    0.017586
     2  C    0.541751
     3  O   -0.481949
     4  N   -0.333521
     5  C    0.304252
     6  C    0.011588
     7  C    0.011234
     8  C    0.054087
     9  Br  -0.130213
    10  C    0.022026
    11  C   -0.016840
 Electronic spatial extent (au):  <R**2>=           3643.4474
 Charge=             -0.0000 electrons
 Dipole moment (field-independent basis, Debye):
    X=             -1.2126    Y=             -0.3206    Z=              0.2200  Tot=              1.2734
 Quadrupole moment (field-independent basis, Debye-Ang):
   XX=            -99.1979   YY=            -66.8773   ZZ=            -77.0233
   XY=             -4.3764   XZ=              1.3941   YZ=              1.0851
 Traceless Quadrupole moment (field-independent basis, Debye-Ang):
   XX=            -18.1650   YY=             14.1555   ZZ=              4.0095
   XY=             -4.3764   XZ=              1.3941   YZ=              1.0851
 Octapole moment (field-independent basis, Debye-Ang**2):
  XXX=           -219.0042  YYY=              4.5446  ZZZ=              2.8186  XYY=            -14.8475
  XXY=            -24.5184  XXZ=             10.7382  XZZ=            -22.5490  YZZ=             -2.8829
  YYZ=             -1.0750  XYZ=             -3.2032
 Hexadecapole moment (field-independent basis, Debye-Ang**3):
 XXXX=          -4288.3756 YYYY=           -425.4346 ZZZZ=           -130.1239 XXXY=            -92.9119
 XXXZ=             37.0387 YYYX=             34.4507 YYYZ=              8.2242 ZZZX=             -6.5681
 ZZZY=             -2.6184 XXYY=           -617.3874 XXZZ=           -598.5695 YYZZ=            -98.2566
 XXYZ=             -7.1010 YYXZ=             -8.5177 ZZXY=              5.1117
 N-N= 7.922270437082D+02 E-N=-8.739817934235D+03  KE= 2.991869399074D+03
 No NMR shielding tensors so no spin-rotation constants.
 Leave Link  601 at Tue Sep 17 09:45:21 2024, MaxMem=  1342177280 cpu:               0.7 elap:               0.1
 (Enter /groups/ReismanLab/Software/Gaussian16_RevC/Linux_Binary_AVX2-enabled-CPU/g16/l701.exe)
 ... and contract with generalized density number  0.
 Compute integral first derivatives.
 R6Disp: Adding Grimme-D3(BJ) dispersion energy 1st derivatives to the gradient.
 Leave Link  701 at Tue Sep 17 09:45:21 2024, MaxMem=  1342177280 cpu:               0.7 elap:               0.1
 (Enter /groups/ReismanLab/Software/Gaussian16_RevC/Linux_Binary_AVX2-enabled-CPU/g16/l702.exe)
 L702 exits ... SP integral derivatives will be done elsewhere.
 Leave Link  702 at Tue Sep 17 09:45:21 2024, MaxMem=  1342177280 cpu:               0.0 elap:               0.0
 (Enter /groups/ReismanLab/Software/Gaussian16_RevC/Linux_Binary_AVX2-enabled-CPU/g16/l703.exe)
 Integral derivatives from FoFJK, PRISM(SPDF).
 Compute integral first derivatives, UseDBF=F ICtDFT=           0.
 Calling FoFJK, ICntrl=      2127 FMM=F ISym2X=0 I1Cent= 0 IOpClX= 0 NMat=1 NMatS=1 NMatT=0.
 FoFJK:  IHMeth= 1 ICntrl=    2127 DoSepK=F KAlg= 0 I1Cent=           0 FoldK=F
 IRaf=         0 NMat=       1 IRICut=       1 DoRegI=T DoRafI=F ISym2E= 0 IDoP0=0 IntGTp=1.
 FoFCou: FMM=F IPFlag=           0 FMFlag=      100000 FMFlg1=         800
         NFxFlg=           0 DoJE=F BraDBF=F KetDBF=F FulRan=T
         wScrn=  0.000000 ICntrl=      2127 IOpCl=  0 I1Cent=           0 NGrid=           0
         NMat0=    1 NMatS0=      1 NMatT0=    0 NMatD0=    1 NMtDS0=    0 NMtDT0=    0
 Symmetry not used in FoFCou.
 Leave Link  703 at Tue Sep 17 09:45:24 2024, MaxMem=  1342177280 cpu:              26.0 elap:               3.3
 (Enter /groups/ReismanLab/Software/Gaussian16_RevC/Linux_Binary_AVX2-enabled-CPU/g16/l716.exe)
 Dipole        =-4.77068364D-01-1.26141129D-01 8.65701929D-02
 ***** Axes restored to original set *****
 -------------------------------------------------------------------
 Center     Atomic                   Forces (Hartrees/Bohr)
 Number     Number              X              Y              Z
 -------------------------------------------------------------------
      1        6          -0.002168452    0.000480236   -0.001617391
      2        6           0.005748932   -0.004306017   -0.005992054
      3        8          -0.019660334    0.004054282    0.004714468
      4        7           0.004660087    0.010081183    0.007831598
      5        6           0.001668297   -0.000467133   -0.001047699
      6        6          -0.003553863   -0.003046238    0.000861336
      7        6           0.003957543   -0.003981284   -0.002009936
      8        6           0.006990530   -0.000835506   -0.000968725
      9       35           0.002153859   -0.000168383   -0.000345061
     10        6           0.004701295    0.003200346    0.000604430
     11        6          -0.003397397    0.002460861    0.000577092
     12        1           0.001781475   -0.004180004    0.000709704
     13        1           0.002869513   -0.002045909   -0.002433768
     14        1          -0.002069516    0.000475020   -0.000480731
     15        1          -0.002812594   -0.002328451   -0.000147209
     16        1          -0.002393157   -0.003031559    0.000442822
     17        1           0.001559172   -0.002917591   -0.000358575
     18        1           0.002054346    0.002656549   -0.000107116
     19        1          -0.002089735    0.003899598   -0.000233186
 -------------------------------------------------------------------
 Cartesian Forces:  Max     0.019660334 RMS     0.004162999
 Leave Link  716 at Tue Sep 17 09:45:24 2024, MaxMem=  1342177280 cpu:               0.1 elap:               0.0
 (Enter /groups/ReismanLab/Software/Gaussian16_RevC/Linux_Binary_AVX2-enabled-CPU/g16/l103.exe)

 GradGradGradGradGradGradGradGradGradGradGradGradGradGradGradGradGradGrad
 Berny optimization.
 FormGI is forming the generalized inverse of G from B-inverse, IUseBI=4.
 Internal  Forces:  Max     0.020412126 RMS     0.004160541
 Search for a local minimum.
 Step number   1 out of a maximum of   97
 All quantities printed in internal units (Hartrees-Bohrs-Radians)
 RMS Force = .41605D-02 SwitMx=.10000D-02 MixMth= 1
 Mixed Optimization -- RFO/linear search
 Second derivative matrix not updated -- first step.
 ITU=  0
     Eigenvalues ---    0.00685   0.01212   0.01776   0.01952   0.02046
     Eigenvalues ---    0.02068   0.02172   0.02234   0.02251   0.02289
     Eigenvalues ---    0.02293   0.02307   0.02313   0.02326   0.07178
     Eigenvalues ---    0.07649   0.15939   0.15992   0.15999   0.16000
     Eigenvalues ---    0.16000   0.16000   0.16000   0.16000   0.18029
     Eigenvalues ---    0.21998   0.22033   0.22971   0.23995   0.24972
     Eigenvalues ---    0.24988   0.24998   0.25000   0.31743   0.35021
     Eigenvalues ---    0.35120   0.35243   0.35986   0.36116   0.36131
     Eigenvalues ---    0.36424   0.42970   0.43453   0.45281   0.46687
     Eigenvalues ---    0.46969   0.47493   0.48402   0.48954   0.50672
     Eigenvalues ---    0.99718
 RFO step:  Lambda=-3.17584078D-03 EMin= 6.84933831D-03
 Linear search not attempted -- first point.
 Iteration  1 RMS(Cart)=  0.03018373 RMS(Int)=  0.00023584
 Iteration  2 RMS(Cart)=  0.00025329 RMS(Int)=  0.00005503
 Iteration  3 RMS(Cart)=  0.00000004 RMS(Int)=  0.00005503
 ITry= 1 IFail=0 DXMaxC= 1.06D-01 DCOld= 1.00D+10 DXMaxT= 3.00D-01 DXLimC= 3.00D+00 Rises=F
 Variable       Old X    -DE/DX   Delta X   Delta X   Delta X     New X
                                 (Linear)    (Quad)   (Total)
    R1        2.84616   0.00647   0.00000   0.02019   0.02019   2.86635
    R2        2.05640   0.00418   0.00000   0.01182   0.01182   2.06822
    R3        2.05282   0.00336   0.00000   0.00946   0.00946   2.06229
    R4        2.05481   0.00195   0.00000   0.00551   0.00551   2.06032
    R5        2.28752   0.02041   0.00000   0.02040   0.02040   2.30792
    R6        2.59193   0.01532   0.00000   0.03005   0.03005   2.62198
    R7        2.63364   0.01210   0.00000   0.02575   0.02575   2.65939
    R8        1.91650  -0.00132   0.00000  -0.00290  -0.00290   1.91360
    R9        2.63422   0.00852   0.00000   0.01812   0.01812   2.65233
   R10        2.63980   0.00748   0.00000   0.01606   0.01606   2.65585
   R11        2.61251   0.01090   0.00000   0.02227   0.02227   2.63478
   R12        2.03424   0.00387   0.00000   0.01053   0.01053   2.04477
   R13        2.61497   0.00769   0.00000   0.01582   0.01582   2.63079
   R14        2.03900   0.00332   0.00000   0.00912   0.00912   2.04811
   R15        3.59914   0.00219   0.00000   0.01192   0.01192   3.61107
   R16        2.61794   0.00800   0.00000   0.01653   0.01653   2.63447
   R17        2.60718   0.01085   0.00000   0.02191   0.02191   2.62909
   R18        2.03877   0.00336   0.00000   0.00921   0.00921   2.04798
   R19        2.04104   0.00434   0.00000   0.01195   0.01195   2.05298
    A1        1.91793   0.00160   0.00000   0.00901   0.00897   1.92690
    A2        1.94882   0.00338   0.00000   0.02125   0.02123   1.97005
    A3        1.88289  -0.00207   0.00000  -0.01238  -0.01235   1.87054
    A4        1.91273  -0.00275   0.00000  -0.01739  -0.01748   1.89525
    A5        1.87984   0.00004   0.00000  -0.00088  -0.00086   1.87899
    A6        1.92018  -0.00028   0.00000  -0.00015  -0.00010   1.92008
    A7        2.14700  -0.00425   0.00000  -0.01652  -0.01665   2.13035
    A8        2.06185   0.00185   0.00000   0.00760   0.00748   2.06932
    A9        2.07380   0.00241   0.00000   0.00981   0.00969   2.08350
   A10        2.31266   0.00059   0.00000   0.00306   0.00302   2.31568
   A11        1.95731  -0.00337   0.00000  -0.01958  -0.01964   1.93767
   A12        2.00481   0.00284   0.00000   0.01859   0.01856   2.02337
   A13        2.14823   0.00045   0.00000   0.00190   0.00191   2.15014
   A14        2.06068   0.00079   0.00000   0.00325   0.00327   2.06394
   A15        2.07337  -0.00124   0.00000  -0.00520  -0.00522   2.06814
   A16        2.10206   0.00074   0.00000   0.00314   0.00311   2.10517
   A17        2.10357  -0.00071   0.00000  -0.00361  -0.00360   2.09997
   A18        2.07711  -0.00003   0.00000   0.00055   0.00056   2.07767
   A19        2.08991   0.00028   0.00000   0.00119   0.00115   2.09106
   A20        2.09588   0.00006   0.00000   0.00058   0.00056   2.09644
   A21        2.09733  -0.00035   0.00000  -0.00190  -0.00192   2.09542
   A22        2.08788   0.00052   0.00000   0.00211   0.00211   2.08999
   A23        2.10796  -0.00098   0.00000  -0.00389  -0.00391   2.10405
   A24        2.08727   0.00045   0.00000   0.00184   0.00184   2.08911
   A25        2.08134   0.00060   0.00000   0.00251   0.00247   2.08381
   A26        2.09977  -0.00045   0.00000  -0.00218  -0.00219   2.09757
   A27        2.10208  -0.00015   0.00000  -0.00035  -0.00036   2.10172
   A28        2.11112   0.00060   0.00000   0.00239   0.00236   2.11348
   A29        2.08510  -0.00054   0.00000  -0.00265  -0.00264   2.08246
   A30        2.08696  -0.00007   0.00000   0.00025   0.00026   2.08722
    D1       -1.60907   0.00019   0.00000   0.00390   0.00385  -1.60523
    D2        1.56828  -0.00032   0.00000  -0.02586  -0.02572   1.54256
    D3        2.54785   0.00030   0.00000   0.00544   0.00530   2.55316
    D4       -0.55798  -0.00021   0.00000  -0.02431  -0.02427  -0.58225
    D5        0.43588  -0.00007   0.00000   0.00069   0.00061   0.43648
    D6       -2.66995  -0.00058   0.00000  -0.02906  -0.02897  -2.69892
    D7       -0.03291  -0.00001   0.00000   0.00985   0.01007  -0.02284
    D8        2.95926   0.00062   0.00000   0.02928   0.02934   2.98861
    D9       -3.14027  -0.00035   0.00000  -0.01808  -0.01814   3.12478
   D10       -0.14810   0.00027   0.00000   0.00135   0.00113  -0.14697
   D11       -0.65182  -0.00033   0.00000  -0.01172  -0.01164  -0.66346
   D12        2.53629  -0.00027   0.00000  -0.01047  -0.01039   2.52590
   D13        2.64234  -0.00055   0.00000  -0.02901  -0.02909   2.61325
   D14       -0.45274  -0.00050   0.00000  -0.02776  -0.02783  -0.48057
   D15       -3.12966  -0.00007   0.00000  -0.00180  -0.00178  -3.13144
   D16       -0.02067   0.00002   0.00000   0.00120   0.00121  -0.01946
   D17       -0.03489  -0.00007   0.00000  -0.00284  -0.00283  -0.03772
   D18        3.07409   0.00002   0.00000   0.00015   0.00016   3.07426
   D19        3.12877  -0.00034   0.00000  -0.01391  -0.01390   3.11487
   D20       -0.01684  -0.00044   0.00000  -0.01764  -0.01762  -0.03446
   D21        0.03164  -0.00034   0.00000  -0.01290  -0.01289   0.01876
   D22       -3.11396  -0.00043   0.00000  -0.01662  -0.01660  -3.13057
   D23        0.01198   0.00040   0.00000   0.01516   0.01518   0.02715
   D24        3.14147   0.00007   0.00000   0.00263   0.00264  -3.13908
   D25       -3.09750   0.00032   0.00000   0.01229   0.01230  -3.08520
   D26        0.03199  -0.00001   0.00000  -0.00025  -0.00024   0.03175
   D27       -3.13962  -0.00019   0.00000  -0.00737  -0.00735   3.13621
   D28        0.01516  -0.00031   0.00000  -0.01200  -0.01198   0.00317
   D29        0.01409   0.00013   0.00000   0.00515   0.00516   0.01925
   D30       -3.11432   0.00002   0.00000   0.00053   0.00053  -3.11379
   D31       -0.01846  -0.00010   0.00000  -0.00350  -0.00348  -0.02194
   D32        3.12426   0.00023   0.00000   0.00925   0.00926   3.13352
   D33        3.13631  -0.00021   0.00000  -0.00813  -0.00811   3.12820
   D34       -0.00416   0.00012   0.00000   0.00462   0.00463   0.00047
   D35       -0.00528   0.00041   0.00000   0.01599   0.01602   0.01074
   D36        3.14033   0.00051   0.00000   0.01973   0.01975  -3.12310
   D37        3.13519   0.00008   0.00000   0.00323   0.00324   3.13843
   D38       -0.00239   0.00018   0.00000   0.00696   0.00698   0.00459
         Item               Value     Threshold  Converged?
 Maximum Force            0.020412     0.000450     NO 
 RMS     Force            0.004161     0.000300     NO 
 Maximum Displacement     0.105998     0.001800     NO 
 RMS     Displacement     0.030170     0.001200     NO 
 Predicted change in Energy=-1.612078D-03
 Lowest energy point so far.  Saving SCF results.
 GradGradGradGradGradGradGradGradGradGradGradGradGradGradGradGradGradGrad

 Leave Link  103 at Tue Sep 17 09:45:24 2024, MaxMem=  1342177280 cpu:               0.1 elap:               0.0
 (Enter /groups/ReismanLab/Software/Gaussian16_RevC/Linux_Binary_AVX2-enabled-CPU/g16/l202.exe)
                          Input orientation:                          
 ---------------------------------------------------------------------
 Center     Atomic      Atomic             Coordinates (Angstroms)
 Number     Number       Type             X           Y           Z
 ---------------------------------------------------------------------
      1          6           0       -3.863332   -1.251559   -0.862240
      2          6           0       -4.046660   -0.133609    0.146363
      3          8           0       -5.151267    0.217907    0.530879
      4          7           0       -2.918956    0.509048    0.636681
      5          6           0       -1.542332    0.328045    0.407317
      6          6           0       -0.949473   -0.933988    0.246842
      7          6           0        0.423373   -1.051708    0.033733
      8          6           0        1.220626    0.089338    0.011534
      9         35           0        3.103249   -0.074758   -0.271881
     10          6           0        0.658564    1.350437    0.204501
     11          6           0       -0.714994    1.464064    0.394273
     12          1           0       -3.733015   -2.209954   -0.350063
     13          1           0       -3.009568   -1.091189   -1.522797
     14          1           0       -4.781535   -1.311286   -1.447075
     15          1           0       -3.173437    1.321339    1.185176
     16          1           0       -1.549465   -1.831920    0.314342
     17          1           0        0.872346   -2.030180   -0.091461
     18          1           0        1.285939    2.234057    0.193483
     19          1           0       -1.158609    2.446741    0.527683
 ---------------------------------------------------------------------
                    Distance matrix (angstroms):
                    1          2          3          4          5
     1  C    0.000000
     2  C    1.516806   0.000000
     3  O    2.399768   1.221300   0.000000
     4  N    2.497668   1.387493   2.253701   0.000000
     5  C    3.081228   2.559859   3.612729   1.407289   0.000000
     6  C    3.133925   3.200511   4.366075   2.472486   1.403553
     7  C    4.383896   4.564732   5.738962   3.737735   2.430489
     8  C    5.329926   5.273726   6.394315   4.207505   2.801350
     9  Br   7.089897   7.162373   8.298621   6.118273   4.712216
    10  C    5.325022   4.934056   5.928177   3.700454   2.435234
    11  C    4.343439   3.703244   4.609998   2.414180   1.405417
    12  H    1.094454   2.157781   2.946525   3.004884   3.437173
    13  H    1.091314   2.186004   3.243176   2.689296   2.809332
    14  H    1.090274   2.113293   2.527338   3.335395   4.076594
    15  H    3.359714   1.989605   2.357431   1.012633   2.062087
    16  H    2.659914   3.024641   4.149897   2.731215   2.161976
    17  H    4.860761   5.277325   6.459498   4.620805   3.411843
    18  H    6.307064   5.834781   6.753985   4.566532   3.417268
    19  H    4.787989   3.891587   4.572639   2.620182   2.156526
                    6          7          8          9         10
     6  C    0.000000
     7  C    1.394266   0.000000
     8  C    2.410788   1.392154   0.000000
     9  Br   4.175153   2.868723   1.910895   0.000000
    10  C    2.793953   2.419665   1.394102   2.869600   0.000000
    11  C    2.413995   2.784776   2.404784   4.170218   1.391254
    12  H    3.119694   4.331789   5.473213   7.162380   5.680660
    13  H    2.720354   3.769540   4.652135   6.321745   4.732895
    14  H    4.206710   5.417678   6.333658   8.067212   6.277512
    15  H    3.303481   4.460293   4.712011   6.593094   3.955604
    16  H    1.082048   2.139991   3.384720   5.007896   3.874900
    17  H    2.152930   1.083816   2.150410   2.972062   3.400274
    18  H    3.877682   3.400852   2.153413   2.974862   1.083745
    19  H    3.398814   3.871150   3.388882   5.016044   2.146730
                   11         12         13         14         15
    11  C    0.000000
    12  H    4.812577   0.000000
    13  H    3.933135   1.774913   0.000000
    14  H    5.256414   1.763642   1.787189   0.000000
    15  H    2.586472   3.891031   3.630464   4.055299   0.000000
    16  H    3.400918   2.313489   2.460826   3.717516   3.652215
    17  H    3.868504   4.616118   4.242603   5.858401   5.406555
    18  H    2.153355   6.725665   5.696864   7.216310   4.658598
    19  H    1.086392   5.392849   4.488593   5.581042   2.399657
                   16         17         18         19
    16  H    0.000000
    17  H    2.463565   0.000000
    18  H    4.958456   4.293712   0.000000
    19  H    4.301769   4.954890   2.476437   0.000000
 Stoichiometry    C8H8BrNO
 Framework group  C1[X(C8H8BrNO)]
 Deg. of freedom    51
 Full point group                 C1      NOp   1
 RotChk:  IX=0 Diff= 4.82D-03
 Largest Abelian subgroup         C1      NOp   1
 Largest concise Abelian subgroup C1      NOp   1
                         Standard orientation:                         
 ---------------------------------------------------------------------
 Center     Atomic      Atomic             Coordinates (Angstroms)
 Number     Number       Type             X           Y           Z
 ---------------------------------------------------------------------
      1          6           0        3.639544   -1.453893    0.618346
      2          6           0        3.850581   -0.064530    0.047527
      3          8           0        4.965740    0.397970   -0.137097
      4          7           0        2.736117    0.700598   -0.265019
      5          6           0        1.353702    0.449488   -0.185417
      6          6           0        0.780571   -0.796405   -0.484138
      7          6           0       -0.598591   -0.982408   -0.398737
      8          6           0       -1.420223    0.084418   -0.045332
      9         35           0       -3.310996   -0.170244    0.062584
     10          6           0       -0.876147    1.340086    0.220749
     11          6           0        0.502612    1.514504    0.156024
     12          1           0        3.556385   -2.189137   -0.188084
     13          1           0        2.749630   -1.523937    1.246131
     14          1           0        4.527458   -1.700909    1.200831
     15          1           0        3.001042    1.649463   -0.499318
     16          1           0        1.402370   -1.619456   -0.810912
     17          1           0       -1.032325   -1.948588   -0.629014
     18          1           0       -1.522067    2.168241    0.488052
     19          1           0        0.931330    2.487355    0.379651
 ---------------------------------------------------------------------
 Rotational constants (GHZ):           3.2637235           0.2752233           0.2582182
 Leave Link  202 at Tue Sep 17 09:45:24 2024, MaxMem=  1342177280 cpu:               0.0 elap:               0.0
 (Enter /groups/ReismanLab/Software/Gaussian16_RevC/Linux_Binary_AVX2-enabled-CPU/g16/l301.exe)
 Standard basis: 6-31G(d,p) (6D, 7F)
 Ernie: Thresh=  0.10000D-02 Tol=  0.10000D-05 Strict=F.
 There are   220 symmetry adapted cartesian basis functions of A   symmetry.
 There are   220 symmetry adapted basis functions of A   symmetry.
   220 basis functions,   419 primitive gaussians,   220 cartesian basis functions
    53 alpha electrons       53 beta electrons
       nuclear repulsion energy       786.1639704669 Hartrees.
 IExCor=  402 DFT=T Ex+Corr=B3LYP ExCW=0 ScaHFX=  0.200000
 ScaDFX=  0.800000  0.720000  1.000000  0.810000 ScalE2=  1.000000  1.000000
 IRadAn=      5 IRanWt=     -1 IRanGd=            0 ICorTp=0 IEmpDi=141
 NAtoms=   19 NActive=   19 NUniq=   19 SFac= 1.00D+00 NAtFMM=   60 NAOKFM=F Big=F
 Integral buffers will be    131072 words long.
 Raffenetti 2 integral format.
 Two-electron integral symmetry is turned on.
 R6Disp:  Grimme-D3(BJ) Dispersion energy=       -0.0383562407 Hartrees.
 Nuclear repulsion after empirical dispersion term =      786.1256142262 Hartrees.
 Leave Link  301 at Tue Sep 17 09:45:24 2024, MaxMem=  1342177280 cpu:               0.1 elap:               0.1
 (Enter /groups/ReismanLab/Software/Gaussian16_RevC/Linux_Binary_AVX2-enabled-CPU/g16/l302.exe)
 NPDir=0 NMtPBC=     1 NCelOv=     1 NCel=       1 NClECP=     1 NCelD=      1
         NCelK=      1 NCelE2=     1 NClLst=     1 CellRange=     0.0.
 One-electron integrals computed using PRISM.
 One-electron integral symmetry used in STVInt
 NBasis=   220 RedAO= T EigKep=  4.24D-04  NBF=   220
 NBsUse=   220 1.00D-06 EigRej= -1.00D+00 NBFU=   220
 Precomputing XC quadrature grid using
 IXCGrd= 4 IRadAn=           5 IRanWt=          -1 IRanGd=           0 AccXCQ= 0.00D+00.
 Generated NRdTot=       0 NPtTot=           0 NUsed=           0 NTot=          32
 NSgBfM=   218   218   218   218   218 MxSgAt=    19 MxSgA2=    19.
 Leave Link  302 at Tue Sep 17 09:45:25 2024, MaxMem=  1342177280 cpu:               1.1 elap:               0.2
 (Enter /groups/ReismanLab/Software/Gaussian16_RevC/Linux_Binary_AVX2-enabled-CPU/g16/l303.exe)
 DipDrv:  MaxL=1.
 Leave Link  303 at Tue Sep 17 09:45:25 2024, MaxMem=  1342177280 cpu:               0.1 elap:               0.0
 (Enter /groups/ReismanLab/Software/Gaussian16_RevC/Linux_Binary_AVX2-enabled-CPU/g16/l401.exe)
 Initial guess from the checkpoint file:  "smiles_00008_conf_2.chk"
 B after Tr=    -0.000000   -0.000000   -0.000000
         Rot=    1.000000   -0.000312   -0.000242   -0.000448 Ang=  -0.07 deg.
 Guess basis will be translated and rotated to current coordinates.
 JPrj=2 DoOrth=T DoCkMO=T.
 Generating alternative initial guess.
 ExpMin= 1.43D-01 ExpMax= 5.74D+05 ExpMxC= 5.74D+03 IAcc=3 IRadAn=         5 AccDes= 0.00D+00
 Harris functional with IExCor=  402 and IRadAn=       5 diagonalized for initial guess.
 HarFok:  IExCor=  402 AccDes= 0.00D+00 IRadAn=         5 IDoV= 1 UseB2=F ITyADJ=14
 ICtDFT=  3500011 ScaDFX=  1.000000  1.000000  1.000000  1.000000
 FoFCou: FMM=F IPFlag=           0 FMFlag=      100000 FMFlg1=           0
         NFxFlg=           0 DoJE=T BraDBF=F KetDBF=T FulRan=T
         wScrn=  0.000000 ICntrl=       500 IOpCl=  0 I1Cent=   200000004 NGrid=           0
         NMat0=    1 NMatS0=      1 NMatT0=    0 NMatD0=    1 NMtDS0=    0 NMtDT0=    0
 Petite list used in FoFCou.
 Harris En= -3011.54337272107    
 Leave Link  401 at Tue Sep 17 09:45:25 2024, MaxMem=  1342177280 cpu:               5.0 elap:               0.7
 (Enter /groups/ReismanLab/Software/Gaussian16_RevC/Linux_Binary_AVX2-enabled-CPU/g16/l502.exe)
 Integral symmetry usage will be decided dynamically.
 Closed shell SCF:
 Using DIIS extrapolation, IDIIS=  1040.
 NGot=  1342177280 LenX=  1342075912 LenY=  1342027071
 Requested convergence on RMS density matrix=1.00D-08 within  32 cycles.
 Requested convergence on MAX density matrix=1.00D-06.
 Requested convergence on             energy=1.00D-06.
 No special actions if energy rises.
 Fock matrices will be formed incrementally for  20 cycles.
 Integral accuracy reduced to 1.0D-05 until final iterations.

 Cycle   1  Pass 0  IDiag  1:
 FoFJK:  IHMeth= 1 ICntrl=       0 DoSepK=F KAlg= 0 I1Cent=           0 FoldK=F
 IRaf= 860000000 NMat=       1 IRICut=       1 DoRegI=T DoRafI=F ISym2E= 0 IDoP0=0 IntGTp=1.
 FoFCou: FMM=F IPFlag=           0 FMFlag=      100000 FMFlg1=           0
         NFxFlg=           0 DoJE=F BraDBF=F KetDBF=F FulRan=T
         wScrn=  0.000000 ICntrl=         0 IOpCl=  0 I1Cent=           0 NGrid=           0
         NMat0=    1 NMatS0=      1 NMatT0=    0 NMatD0=    1 NMtDS0=    0 NMtDT0=    0
 Symmetry not used in FoFCou.
 E= -3011.41549697592    
 DIIS: error= 1.23D-03 at cycle   1 NSaved=   1.
 NSaved= 1 IEnMin= 1 EnMin= -3011.41549697592     IErMin= 1 ErrMin= 1.23D-03
 ErrMax= 1.23D-03  0.00D+00 EMaxC= 1.00D-01 BMatC= 1.07D-03 BMatP= 1.07D-03
 IDIUse=3 WtCom= 9.88D-01 WtEn= 1.23D-02
 Coeff-Com:  0.100D+01
 Coeff-En:   0.100D+01
 Coeff:      0.100D+01
 Gap=     1.836 Goal=   None    Shift=    0.000
 GapD=    1.836 DampG=2.000 DampE=1.000 DampFc=2.0000 IDamp=-1.
 RMSDP=2.43D-04 MaxDP=4.40D-03              OVMax= 7.73D-03

 Cycle   2  Pass 0  IDiag  1:
 RMSU=  2.42D-04    CP:  1.00D+00
 E= -3011.41646637583     Delta-E=       -0.000969399907 Rises=F Damp=F
 DIIS: error= 4.87D-04 at cycle   2 NSaved=   2.
 NSaved= 2 IEnMin= 2 EnMin= -3011.41646637583     IErMin= 2 ErrMin= 4.87D-04
 ErrMax= 4.87D-04  0.00D+00 EMaxC= 1.00D-01 BMatC= 7.17D-05 BMatP= 1.07D-03
 IDIUse=3 WtCom= 9.95D-01 WtEn= 4.87D-03
 Coeff-Com:  0.886D-01 0.911D+00
 Coeff-En:   0.000D+00 0.100D+01
 Coeff:      0.882D-01 0.912D+00
 Gap=     0.199 Goal=   None    Shift=    0.000
 RMSDP=8.70D-05 MaxDP=2.03D-03 DE=-9.69D-04 OVMax= 3.80D-03

 Cycle   3  Pass 0  IDiag  1:
 RMSU=  8.66D-05    CP:  1.00D+00  9.71D-01
 E= -3011.41645459270     Delta-E=        0.000011783129 Rises=F Damp=F
 DIIS: error= 4.23D-04 at cycle   3 NSaved=   3.
 NSaved= 3 IEnMin= 2 EnMin= -3011.41646637583     IErMin= 3 ErrMin= 4.23D-04
 ErrMax= 4.23D-04  0.00D+00 EMaxC= 1.00D-01 BMatC= 8.93D-05 BMatP= 7.17D-05
 IDIUse=3 WtCom= 3.27D-01 WtEn= 6.73D-01
 Coeff-Com: -0.786D-02 0.531D+00 0.477D+00
 Coeff-En:   0.000D+00 0.533D+00 0.467D+00
 Coeff:     -0.257D-02 0.532D+00 0.470D+00
 Gap=     0.200 Goal=   None    Shift=    0.000
 RMSDP=5.47D-05 MaxDP=1.84D-03 DE= 1.18D-05 OVMax= 2.63D-03

 Cycle   4  Pass 0  IDiag  1:
 RMSU=  2.60D-05    CP:  1.00D+00  1.02D+00  4.61D-01
 E= -3011.41653772625     Delta-E=       -0.000083133546 Rises=F Damp=F
 DIIS: error= 2.21D-04 at cycle   4 NSaved=   4.
 NSaved= 4 IEnMin= 4 EnMin= -3011.41653772625     IErMin= 4 ErrMin= 2.21D-04
 ErrMax= 2.21D-04  0.00D+00 EMaxC= 1.00D-01 BMatC= 1.01D-05 BMatP= 7.17D-05
 IDIUse=3 WtCom= 9.98D-01 WtEn= 2.21D-03
 Coeff-Com: -0.110D-01 0.277D+00 0.308D+00 0.426D+00
 Coeff-En:   0.000D+00 0.000D+00 0.000D+00 0.100D+01
 Coeff:     -0.110D-01 0.276D+00 0.307D+00 0.428D+00
 Gap=     0.200 Goal=   None    Shift=    0.000
 RMSDP=1.54D-05 MaxDP=8.33D-04 DE=-8.31D-05 OVMax= 8.04D-04

 Cycle   5  Pass 0  IDiag  1:
 RMSU=  9.14D-06    CP:  1.00D+00  1.02D+00  4.87D-01  5.31D-01
 E= -3011.41654503173     Delta-E=       -0.000007305483 Rises=F Damp=F
 DIIS: error= 3.05D-05 at cycle   5 NSaved=   5.
 NSaved= 5 IEnMin= 5 EnMin= -3011.41654503173     IErMin= 5 ErrMin= 3.05D-05
 ErrMax= 3.05D-05  0.00D+00 EMaxC= 1.00D-01 BMatC= 5.26D-07 BMatP= 1.01D-05
 IDIUse=1 WtCom= 1.00D+00 WtEn= 0.00D+00
 Coeff-Com: -0.475D-02 0.750D-01 0.104D+00 0.223D+00 0.602D+00
 Coeff:     -0.475D-02 0.750D-01 0.104D+00 0.223D+00 0.602D+00
 Gap=     0.200 Goal=   None    Shift=    0.000
 RMSDP=4.56D-06 MaxDP=1.61D-04 DE=-7.31D-06 OVMax= 1.96D-04

 Initial convergence to 1.0D-05 achieved.  Increase integral accuracy.
 Cycle   6  Pass 1  IDiag  1:
 E= -3011.41652778378     Delta-E=        0.000017247949 Rises=F Damp=F
 DIIS: error= 2.40D-05 at cycle   1 NSaved=   1.
 NSaved= 1 IEnMin= 1 EnMin= -3011.41652778378     IErMin= 1 ErrMin= 2.40D-05
 ErrMax= 2.40D-05  0.00D+00 EMaxC= 1.00D-01 BMatC= 1.48D-07 BMatP= 1.48D-07
 IDIUse=1 WtCom= 1.00D+00 WtEn= 0.00D+00
 Coeff-Com:  0.100D+01
 Coeff:      0.100D+01
 Gap=     0.200 Goal=   None    Shift=    0.000
 RMSDP=4.56D-06 MaxDP=1.61D-04 DE= 1.72D-05 OVMax= 2.85D-04

 Cycle   7  Pass 1  IDiag  1:
 RMSU=  1.34D-05    CP:  1.00D+00
 E= -3011.41652761008     Delta-E=        0.000000173701 Rises=F Damp=F
 DIIS: error= 2.72D-05 at cycle   2 NSaved=   2.
 NSaved= 2 IEnMin= 1 EnMin= -3011.41652778378     IErMin= 1 ErrMin= 2.40D-05
 ErrMax= 2.72D-05  0.00D+00 EMaxC= 1.00D-01 BMatC= 3.07D-07 BMatP= 1.48D-07
 IDIUse=1 WtCom= 1.00D+00 WtEn= 0.00D+00
 Coeff-Com:  0.605D+00 0.395D+00
 Coeff:      0.605D+00 0.395D+00
 Gap=     0.200 Goal=   None    Shift=    0.000
 RMSDP=3.06D-06 MaxDP=1.14D-04 DE= 1.74D-07 OVMax= 2.34D-04

 Cycle   8  Pass 1  IDiag  1:
 RMSU=  2.95D-06    CP:  1.00D+00  9.42D-01
 E= -3011.41652788486     Delta-E=       -0.000000274783 Rises=F Damp=F
 DIIS: error= 7.90D-06 at cycle   3 NSaved=   3.
 NSaved= 3 IEnMin= 3 EnMin= -3011.41652788486     IErMin= 3 ErrMin= 7.90D-06
 ErrMax= 7.90D-06  0.00D+00 EMaxC= 1.00D-01 BMatC= 2.52D-08 BMatP= 1.48D-07
 IDIUse=1 WtCom= 1.00D+00 WtEn= 0.00D+00
 Coeff-Com:  0.122D+00 0.226D+00 0.652D+00
 Coeff:      0.122D+00 0.226D+00 0.652D+00
 Gap=     0.200 Goal=   None    Shift=    0.000
[...]
   XY=     1.2273   YY=    27.9331   ZY=    -1.2302
   XZ=    -3.2984   YZ=    -2.3543   ZZ=    20.5110
   Eigenvalues:    19.6367    26.0390    28.3540
     16  H    Isotropic =    23.9525   Anisotropy =     8.8086
   XX=    28.0799   YX=     2.8216   ZX=     1.9491
   XY=     2.0051   YY=    22.6152   ZY=     0.4968
   XZ=     2.8010   YZ=     2.1043   ZZ=    21.1622
   Eigenvalues:    20.2435    21.7890    29.8249
     17  H    Isotropic =    23.6438   Anisotropy =    10.4203
   XX=    28.5350   YX=    -3.9015   ZX=    -1.9692
   XY=    -3.1423   YY=    22.5231   ZY=     1.1948
   XZ=    -1.7270   YZ=     1.0546   ZZ=    19.8731
   Eigenvalues:    19.4028    20.9378    30.5906
     18  H    Isotropic =    23.6757   Anisotropy =    10.0126
   XX=    26.4502   YX=     4.9017   ZX=     0.7305
   XY=     4.0042   YY=    24.9830   ZY=     1.0810
   XZ=     0.7736   YZ=     0.6759   ZZ=    19.5941
   Eigenvalues:    19.4539    21.2225    30.3508
     19  H    Isotropic =    24.2400   Anisotropy =     7.3846
   XX=    28.0906   YX=    -2.1934   ZX=    -1.3240
   XY=    -1.5234   YY=    23.3364   ZY=     0.6191
   XZ=    -2.0117   YZ=     1.0170   ZZ=    21.2929
   Eigenvalues:    20.8341    22.7227    29.1631
 End of Minotr F.D. properties file   721 does not exist.
 End of Minotr F.D. properties file   722 does not exist.
 End of Minotr F.D. properties file   788 does not exist.
 Leave Link 1002 at Tue Sep 17 10:35:15 2024, MaxMem=  1342177280 cpu:             663.2 elap:             665.2
 (Enter /groups/ReismanLab/Software/Gaussian16_RevC/Linux_Binary_AVX2-enabled-CPU/g16/l601.exe)
 Copying SCF densities to generalized density rwf, IOpCl= 0 IROHF=0.

 **********************************************************************

            Population analysis using the SCF Density.

 **********************************************************************

 Orbital symmetries:
       Occupied  (A) (A) (A) (A) (A) (A) (A) (A) (A) (A) (A) (A)
                 (A) (A) (A) (A) (A) (A) (A) (A) (A) (A) (A) (A)
                 (A) (A) (A) (A) (A) (A) (A) (A) (A) (A) (A) (A)
                 (A) (A) (A) (A) (A) (A) (A) (A) (A) (A) (A) (A)
                 (A) (A) (A) (A) (A)
       Virtual   (A) (A) (A) (A) (A) (A) (A) (A) (A) (A) (A) (A)
                 (A) (A) (A) (A) (A) (A) (A) (A) (A) (A) (A) (A)
                 (A) (A) (A) (A) (A) (A) (A) (A) (A) (A) (A) (A)
                 (A) (A) (A) (A) (A) (A) (A) (A) (A) (A) (A) (A)
                 (A) (A) (A) (A) (A) (A) (A) (A) (A) (A) (A) (A)
                 (A) (A) (A) (A) (A) (A) (A) (A) (A) (A) (A) (A)
                 (A) (A) (A) (A) (A) (A) (A) (A) (A) (A) (A) (A)
                 (A) (A) (A) (A) (A) (A) (A) (A) (A) (A) (A) (A)
                 (A) (A) (A) (A) (A) (A) (A) (A) (A) (A) (A) (A)
                 (A) (A) (A) (A) (A) (A) (A) (A) (A) (A) (A) (A)
                 (A) (A) (A) (A) (A) (A) (A) (A) (A) (A) (A) (A)
                 (A) (A) (A) (A) (A) (A) (A) (A) (A) (A) (A) (A)
                 (A) (A) (A) (A) (A) (A) (A) (A) (A) (A) (A) (A)
                 (A) (A) (A) (A) (A) (A) (A) (A) (A) (A) (A) (A)
                 (A) (A) (A) (A) (A) (A) (A) (A) (A) (A) (A) (A)
                 (A) (A) (A) (A) (A) (A) (A) (A) (A) (A) (A) (A)
                 (A) (A) (A) (A) (A) (A) (A) (A) (A) (A) (A) (A)
                 (A) (A) (A) (A) (A) (A) (A) (A) (A) (A) (A) (A)
                 (A) (A) (A) (A) (A) (A) (A) (A) (A) (A) (A) (A)
                 (A) (A) (A) (A) (A) (A) (A) (A) (A) (A) (A) (A)
                 (A) (A) (A) (A) (A) (A) (A) (A) (A) (A) (A) (A)
                 (A) (A) (A) (A) (A) (A) (A) (A) (A) (A) (A) (A)
                 (A) (A) (A) (A) (A) (A) (A) (A) (A) (A) (A) (A)
                 (A) (A) (A) (A) (A) (A) (A) (A) (A) (A) (A) (A)
                 (A) (A) (A) (A) (A) (A) (A) (A) (A) (A) (A) (A)
                 (A) (A) (A) (A) (A) (A) (A) (A) (A) (A) (A) (A)
                 (A) (A) (A) (A) (A) (A) (A) (A) (A) (A) (A) (A)
                 (A) (A) (A) (A) (A) (A) (A) (A) (A) (A) (A) (A)
                 (A) (A) (A) (A) (A) (A) (A) (A) (A) (A) (A) (A)
                 (A) (A) (A) (A) (A)
 The electronic state is 1-A.
 Alpha  occ. eigenvalues -- -485.37878 -63.36356 -57.18302 -57.18065 -57.18060
 Alpha  occ. eigenvalues --  -19.60056 -14.78590 -10.65660 -10.60686 -10.60585
 Alpha  occ. eigenvalues --  -10.56500 -10.56496 -10.56174 -10.56166 -10.54216
 Alpha  occ. eigenvalues --   -9.03002  -6.85410  -6.84531  -6.84516  -2.88786
 Alpha  occ. eigenvalues --   -2.88467  -2.88447  -2.87629  -2.87628  -1.16873
 Alpha  occ. eigenvalues --   -1.05435  -0.97952  -0.89943  -0.86712  -0.84133
 Alpha  occ. eigenvalues --   -0.81853  -0.72217  -0.70541  -0.66082  -0.62475
 Alpha  occ. eigenvalues --   -0.56693  -0.55404  -0.54687  -0.52653  -0.52259
 Alpha  occ. eigenvalues --   -0.50639  -0.48647  -0.47431  -0.46720  -0.44836
 Alpha  occ. eigenvalues --   -0.42884  -0.42442  -0.39905  -0.35548  -0.35035
 Alpha  occ. eigenvalues --   -0.34251  -0.32964  -0.28276
 Alpha virt. eigenvalues --   -0.00185   0.00042   0.03243   0.05930   0.07193
 Alpha virt. eigenvalues --    0.08822   0.10187   0.11476   0.12368   0.13668
 Alpha virt. eigenvalues --    0.14319   0.16254   0.16556   0.17007   0.17686
 Alpha virt. eigenvalues --    0.19776   0.20391   0.21544   0.22116   0.23097
 Alpha virt. eigenvalues --    0.24505   0.24619   0.25086   0.25412   0.26710
 Alpha virt. eigenvalues --    0.26933   0.27982   0.29560   0.29781   0.30191
 Alpha virt. eigenvalues --    0.30642   0.32256   0.32528   0.33348   0.33976
 Alpha virt. eigenvalues --    0.36034   0.36763   0.37795   0.38350   0.39568
 Alpha virt. eigenvalues --    0.40549   0.40800   0.41579   0.42954   0.43264
 Alpha virt. eigenvalues --    0.43581   0.44482   0.45304   0.45678   0.46555
 Alpha virt. eigenvalues --    0.47253   0.48402   0.50072   0.50816   0.51919
 Alpha virt. eigenvalues --    0.52095   0.53810   0.54312   0.54672   0.55130
 Alpha virt. eigenvalues --    0.56669   0.57227   0.59447   0.60201   0.61095
 Alpha virt. eigenvalues --    0.63768   0.65232   0.66048   0.67340   0.68543
 Alpha virt. eigenvalues --    0.69183   0.70687   0.71446   0.71760   0.73142
 Alpha virt. eigenvalues --    0.74717   0.75130   0.77374   0.79291   0.80646
 Alpha virt. eigenvalues --    0.81804   0.84051   0.85151   0.86753   0.88552
 Alpha virt. eigenvalues --    0.89697   0.91014   0.92690   0.93259   0.95329
 Alpha virt. eigenvalues --    0.97371   0.98145   0.99728   1.01634   1.03287
 Alpha virt. eigenvalues --    1.04714   1.07438   1.08937   1.09769   1.10043
 Alpha virt. eigenvalues --    1.12060   1.12645   1.13875   1.17442   1.19852
 Alpha virt. eigenvalues --    1.21617   1.22818   1.23253   1.24605   1.26079
 Alpha virt. eigenvalues --    1.26125   1.28196   1.30689   1.33155   1.34856
 Alpha virt. eigenvalues --    1.38683   1.38923   1.40210   1.41345   1.42751
 Alpha virt. eigenvalues --    1.43944   1.45471   1.47449   1.48068   1.49282
 Alpha virt. eigenvalues --    1.50580   1.52203   1.53056   1.53843   1.55113
 Alpha virt. eigenvalues --    1.56285   1.56679   1.57563   1.57985   1.59634
 Alpha virt. eigenvalues --    1.60984   1.61031   1.63306   1.63893   1.65133
 Alpha virt. eigenvalues --    1.65462   1.66110   1.67010   1.67466   1.69324
 Alpha virt. eigenvalues --    1.69905   1.72900   1.73450   1.74105   1.75374
 Alpha virt. eigenvalues --    1.76913   1.77633   1.79386   1.81355   1.83668
 Alpha virt. eigenvalues --    1.84211   1.85598   1.86931   1.88490   1.90139
 Alpha virt. eigenvalues --    1.93328   1.94088   1.94733   1.96888   1.98574
 Alpha virt. eigenvalues --    2.01163   2.03544   2.05599   2.05760   2.08048
 Alpha virt. eigenvalues --    2.10696   2.14506   2.17080   2.18042   2.19925
 Alpha virt. eigenvalues --    2.21164   2.21920   2.23010   2.26780   2.29194
 Alpha virt. eigenvalues --    2.30780   2.32178   2.35163   2.36804   2.40067
 Alpha virt. eigenvalues --    2.41185   2.41737   2.43844   2.44686   2.47463
 Alpha virt. eigenvalues --    2.50640   2.54850   2.55918   2.57034   2.58330
 Alpha virt. eigenvalues --    2.59972   2.60528   2.61658   2.63759   2.64881
 Alpha virt. eigenvalues --    2.66965   2.68480   2.69609   2.70336   2.71033
 Alpha virt. eigenvalues --    2.73575   2.75228   2.75731   2.76303   2.78921
 Alpha virt. eigenvalues --    2.80285   2.80999   2.82851   2.83963   2.85596
 Alpha virt. eigenvalues --    2.87028   2.87640   2.90994   2.92345   2.92884
 Alpha virt. eigenvalues --    2.94841   2.97302   2.99050   3.00516   3.01918
 Alpha virt. eigenvalues --    3.04977   3.06156   3.07556   3.08421   3.08750
 Alpha virt. eigenvalues --    3.12251   3.12969   3.13538   3.14833   3.15272
 Alpha virt. eigenvalues --    3.16614   3.17965   3.19440   3.19717   3.20828
 Alpha virt. eigenvalues --    3.22414   3.23663   3.24568   3.25620   3.28754
 Alpha virt. eigenvalues --    3.29668   3.30707   3.33701   3.35334   3.36659
 Alpha virt. eigenvalues --    3.36922   3.38417   3.39511   3.40523   3.41806
 Alpha virt. eigenvalues --    3.44363   3.45131   3.46501   3.48037   3.48808
 Alpha virt. eigenvalues --    3.49336   3.50350   3.52633   3.55387   3.56063
 Alpha virt. eigenvalues --    3.58758   3.62676   3.67037   3.70291   3.74028
 Alpha virt. eigenvalues --    3.75894   3.76083   3.80302   3.81462   3.85037
 Alpha virt. eigenvalues --    3.88662   3.89989   3.92479   3.95005   3.99059
 Alpha virt. eigenvalues --    3.99992   4.02016   4.05969   4.06552   4.07995
 Alpha virt. eigenvalues --    4.12214   4.12670   4.13329   4.14866   4.16101
 Alpha virt. eigenvalues --    4.17339   4.18304   4.20249   4.22173   4.22686
 Alpha virt. eigenvalues --    4.27292   4.28053   4.30873   4.37485   4.40834
 Alpha virt. eigenvalues --    4.41528   4.43539   4.47982   4.51097   4.54105
 Alpha virt. eigenvalues --    4.54410   4.60612   4.61264   4.68772   4.72223
 Alpha virt. eigenvalues --    4.74525   4.75060   4.81348   4.85842   4.86455
 Alpha virt. eigenvalues --    4.89556   5.00274   5.04888   5.06945   5.13608
 Alpha virt. eigenvalues --    5.16619   5.17389   5.21789   5.23072   5.29142
 Alpha virt. eigenvalues --    5.33450   5.37620   5.41595   5.55935   5.63081
 Alpha virt. eigenvalues --    5.66125   5.73109   5.81352   5.97611   6.10747
 Alpha virt. eigenvalues --    6.32221   6.40301   6.52078   6.65786   6.81594
 Alpha virt. eigenvalues --    7.02146   7.06087   7.85750  22.17337  22.46789
 Alpha virt. eigenvalues --   22.72614  22.74888  22.79941  22.88988  23.28278
 Alpha virt. eigenvalues --   23.34852  32.76561  44.01147
          Condensed to atoms (all electrons):
               1          2          3          4          5          6
     1  C    5.314663   0.264205  -0.096367  -0.129982   0.018246  -0.008283
     2  C    0.264205   4.517098   0.688429   0.352054  -0.050311  -0.015174
     3  O   -0.096367   0.688429   7.908504  -0.130541   0.001686  -0.001161
     4  N   -0.129982   0.352054  -0.130541   6.727926   0.187889  -0.000742
     5  C    0.018246  -0.050311   0.001686   0.187889   4.971965   0.409615
     6  C   -0.008283  -0.015174  -0.001161  -0.000742   0.409615   5.191181
     7  C   -0.002651   0.003381  -0.000108   0.011678  -0.034001   0.344206
     8  C    0.000300  -0.000620   0.000011   0.000048  -0.076550   0.040701
     9  Br   0.000001  -0.000004   0.000000  -0.000037  -0.007912   0.027363
    10  C   -0.000087   0.001060  -0.000039   0.011818  -0.026598  -0.123505
    11  C    0.003024  -0.000022  -0.000550  -0.038967   0.444159   0.034999
    12  H    0.380403  -0.020432   0.002035   0.004499  -0.008804  -0.000425
    13  H    0.390211  -0.037821   0.004312   0.003360   0.005682  -0.009072
    14  H    0.389836  -0.026686   0.006220   0.006578  -0.001091   0.002923
    15  H    0.014962  -0.025127   0.012244   0.361875  -0.052759   0.000386
    16  H   -0.002927  -0.001786  -0.000178   0.004429  -0.038033   0.397764
    17  H    0.000009   0.000022  -0.000000  -0.000101   0.008672  -0.036000
    18  H   -0.000002  -0.000005  -0.000000  -0.000166   0.009033  -0.004030
    19  H   -0.000338   0.000014  -0.000234   0.005996  -0.043167   0.000573
               7          8          9         10         11         12
     1  C   -0.002651   0.000300   0.000001  -0.000087   0.003024   0.380403
     2  C    0.003381  -0.000620  -0.000004   0.001060  -0.000022  -0.020432
     3  O   -0.000108   0.000011   0.000000  -0.000039  -0.000550   0.002035
     4  N    0.011678   0.000048  -0.000037   0.011818  -0.038967   0.004499
     5  C   -0.034001  -0.076550  -0.007912  -0.026598   0.444159  -0.008804
     6  C    0.344206   0.040701   0.027363  -0.123505   0.034999  -0.000425
     7  C    5.206281   0.379675  -0.108930   0.048396  -0.132269   0.002091
     8  C    0.379675   4.937031   0.375532   0.392263   0.030694  -0.000090
     9  Br  -0.108930   0.375532  34.922788  -0.108440   0.026785   0.000000
    10  C    0.048396   0.392263  -0.108440   5.138978   0.392002   0.000074
    11  C   -0.132269   0.030694   0.026785   0.392002   5.115845  -0.000320
    12  H    0.002091  -0.000090   0.000000   0.000074  -0.000320   0.496769
    13  H   -0.005617   0.000682  -0.000000  -0.000401   0.002780  -0.023599
    14  H    0.000097   0.000002  -0.000000  -0.000020  -0.000202  -0.011141
    15  H   -0.000510   0.000047  -0.000003   0.000882   0.000978  -0.000591
    16  H   -0.002280  -0.000135  -0.000212   0.001143  -0.000192  -0.001463
    17  H    0.420142  -0.047859  -0.007480   0.012242  -0.003411   0.000025
    18  H    0.013365  -0.050136  -0.007458   0.422555  -0.037521  -0.000000
    19  H    0.000645   0.001641  -0.000202  -0.006282   0.399745   0.000009
              13         14         15         16         17         18
     1  C    0.390211   0.389836   0.014962  -0.002927   0.000009  -0.000002
     2  C   -0.037821  -0.026686  -0.025127  -0.001786   0.000022  -0.000005
     3  O    0.004312   0.006220   0.012244  -0.000178  -0.000000  -0.000000
     4  N    0.003360   0.006578   0.361875   0.004429  -0.000101  -0.000166
     5  C    0.005682  -0.001091  -0.052759  -0.038033   0.008672   0.009033
     6  C   -0.009072   0.002923   0.000386   0.397764  -0.036000  -0.004030
     7  C   -0.005617   0.000097  -0.000510  -0.002280   0.420142   0.013365
     8  C    0.000682   0.000002   0.000047  -0.000135  -0.047859  -0.050136
     9  Br  -0.000000  -0.000000  -0.000003  -0.000212  -0.007480  -0.007458
    10  C   -0.000401  -0.000020   0.000882   0.001143   0.012242   0.422555
    11  C    0.002780  -0.000202   0.000978  -0.000192  -0.003411  -0.037521
    12  H   -0.023599  -0.011141  -0.000591  -0.001463   0.000025  -0.000000
    13  H    0.495649  -0.013809  -0.001006  -0.002361   0.000002   0.000000
    14  H   -0.013809   0.472019  -0.000385   0.000656  -0.000001   0.000000
    15  H   -0.001006  -0.000385   0.424768  -0.000267   0.000007  -0.000023
    16  H   -0.002361   0.000656  -0.000267   0.453920  -0.002547   0.000055
    17  H    0.000002  -0.000001   0.000007  -0.002547   0.472335   0.000031
    18  H    0.000000   0.000000  -0.000023   0.000055   0.000031   0.474351
    19  H    0.000138   0.000001   0.000312  -0.000262   0.000054  -0.003526
              19
     1  C   -0.000338
     2  C    0.000014
     3  O   -0.000234
     4  N    0.005996
     5  C   -0.043167
     6  C    0.000573
     7  C    0.000645
     8  C    0.001641
     9  Br  -0.000202
    10  C   -0.006282
    11  C    0.399745
    12  H    0.000009
    13  H    0.000138
    14  H    0.000001
    15  H    0.000312
    16  H   -0.000262
    17  H    0.000054
    18  H   -0.003526
    19  H    0.461306
 Mulliken charges:
               1
     1  C   -0.535225
     2  C    0.351726
     3  O   -0.394263
     4  N   -0.377614
     5  C    0.282279
     6  C   -0.251321
     7  C   -0.143590
     8  C    0.016764
     9  Br  -0.111791
    10  C   -0.156041
    11  C   -0.237558
    12  H    0.180959
    13  H    0.190872
    14  H    0.175003
    15  H    0.264211
    16  H    0.194676
    17  H    0.183860
    18  H    0.183476
    19  H    0.183577
 Sum of Mulliken charges =  -0.00000
 Mulliken charges with hydrogens summed into heavy atoms:
               1
     1  C    0.011609
     2  C    0.351726
     3  O   -0.394263
     4  N   -0.113403
     5  C    0.282279
     6  C   -0.056644
     7  C    0.040270
     8  C    0.016764
     9  Br  -0.111791
    10  C    0.027435
    11  C   -0.053981
 Electronic spatial extent (au):  <R**2>=           3678.8344
 Charge=             -0.0000 electrons
 Dipole moment (field-independent basis, Debye):
    X=             -1.5757    Y=             -0.4361    Z=              0.2696  Tot=              1.6570
 Quadrupole moment (field-independent basis, Debye-Ang):
   XX=           -106.3829   YY=            -66.8261   ZZ=            -78.7200
   XY=             -5.0751   XZ=              1.5601   YZ=              1.3717
 Traceless Quadrupole moment (field-independent basis, Debye-Ang):
   XX=            -22.4066   YY=             17.1503   ZZ=              5.2563
   XY=             -5.0751   XZ=              1.5601   YZ=              1.3717
 Octapole moment (field-independent basis, Debye-Ang**2):
  XXX=           -248.3869  YYY=              4.1725  ZZZ=              3.7255  XYY=            -13.9897
  XXY=            -26.6459  XXZ=             12.2687  XZZ=            -22.8652  YZZ=             -3.4794
  YYZ=             -0.8869  XYZ=             -4.9939
 Hexadecapole moment (field-independent basis, Debye-Ang**3):
 XXXX=          -4615.3168 YYYY=           -423.0835 ZZZZ=           -153.2593 XXXY=           -105.7984
 XXXZ=             43.5008 YYYX=             30.2842 YYYZ=             12.3257 ZZZX=             -5.9018
 ZZZY=             -3.1322 XXYY=           -633.8066 XXZZ=           -623.0208 YYZZ=           -101.2950
 XXYZ=            -12.0198 YYXZ=             -9.9578 ZZXY=              3.7684
 N-N= 7.880106288790D+02 E-N=-8.751666000148D+03  KE= 3.008190859009D+03
 Calculating spin-rotation constants.
 Leave Link  601 at Tue Sep 17 10:35:18 2024, MaxMem=  1342177280 cpu:               3.7 elap:               3.7
 (Enter /groups/ReismanLab/Software/Gaussian16_RevC/Linux_Binary_AVX2-enabled-CPU/g16/l9999.exe)
 Unable to Open any file for archive entry.
 1\1\GINC-HPC-34-34\SP\RM062X\def2TZVP\C8H8Br1N1O1\MANTIND\17-Sep-2024\
 0\\#p M062X/def2tzvp geom=check guess=read scf(xqc,tight) integral(gri
 d=ultrafine) scrf(SMD, solvent=1,4-Dioxane) nmr=giao\\spe\\0,1\C,0,-3.
 8206700895,-1.2107322395,-0.8952815373\C,0,-4.0344949187,-0.1388066109
 ,0.1539325651\O,0,-5.1493528285,0.1992144911,0.5207960815\N,0,-2.92317
 72052,0.4865387436,0.6968664979\C,0,-1.547824709,0.3194190435,0.442471
 5015\C,0,-0.9580860092,-0.9444295349,0.3066500082\C,0,0.4085584162,-1.
 0642614464,0.0658009617\C,0,1.1975792245,0.0801960802,-0.0063053677\Br
 ,0,3.0725071866,-0.0847423289,-0.3216006941\C,0,0.6361428562,1.3446338
 303,0.1581619331\C,0,-0.7332903499,1.4590330845,0.3732039562\H,0,-3.69
 71776753,-2.1881130535,-0.4179390462\H,0,-2.9468760558,-1.0249209968,-
 1.5228433622\H,0,-4.7230863285,-1.2482414114,-1.5055123544\H,0,-3.1877
 333857,1.2666830171,1.2855936696\H,0,-1.5591093972,-1.8385669028,0.412
 3586431\H,0,0.8596404431,-2.0434390555,-0.042748869\H,0,1.2597660374,2
 .2290977094,0.1053299592\H,0,-1.1818600058,2.4422620495,0.4783548445\\
 Version=ES64L-G16RevC.02\State=1-A\HF=-3013.8493155\RMSD=2.804e-09\Dip
 ole=0.6116563,-0.11533,-0.1938161\Quadrupole=-16.416387,12.5401152,3.8
 762718,2.7395153,3.5462396,1.8268568\PG=C01 [X(C8H8Br1N1O1)]\\@
 The archive entry for this job was punched.


 FESTINA LENTE!
     - IMPERATOR AUGUSTUS 
 Job cpu time:       0 days  0 hours 12 minutes 14.9 seconds.
 Elapsed time:       0 days  0 hours 12 minutes 18.3 seconds.
 File lengths (MBytes):  RWF=    264 Int=      0 D2E=      0 Chk=     24 Scr=     16
 Normal termination of Gaussian 16 at Tue Sep 17 10:35:18 2024.
