 Entering Gaussian System, Link 0=g16
 Input=smiles_00064_conf_0.gjf
 Output=smiles_00064_conf_0.log
 Initial command:
 /groups/ReismanLab/Software/Gaussian16_RevC/Linux_Binary_AVX2-enabled-CPU/g16/l1.exe "/central/groups/ReismanLab/DM/dft_final/smiles_00064/Gau-846436.inp" -scrdir="/central/groups/ReismanLab/DM/dft_final/smiles_00064/"
 Entering Link 1 = /groups/ReismanLab/Software/Gaussian16_RevC/Linux_Binary_AVX2-enabled-CPU/g16/l1.exe PID=    846439.
  
 Copyright (c) 1988-2021, Gaussian, Inc.  All Rights Reserved.
  
 This is part of the Gaussian(R) 16 program.  It is based on
 the Gaussian(R) 09 system (copyright 2009, Gaussian, Inc.),
 the Gaussian(R) 03 system (copyright 2003, Gaussian, Inc.),
 the Gaussian(R) 98 system (copyright 1998, Gaussian, Inc.),
 the Gaussian(R) 94 system (copyright 1995, Gaussian, Inc.),
 the Gaussian 92(TM) system (copyright 1992, Gaussian, Inc.),
 the Gaussian 90(TM) system (copyright 1990, Gaussian, Inc.),
 the Gaussian 88(TM) system (copyright 1988, Gaussian, Inc.),
 the Gaussian 86(TM) system (copyright 1986, Carnegie Mellon
 University), and the Gaussian 82(TM) system (copyright 1983,
 Carnegie Mellon University). Gaussian is a federally registered
 trademark of Gaussian, Inc.
  
 This software contains proprietary and confidential information,
 including trade secrets, belonging to Gaussian, Inc.
  
 This software is provided under written license and may be
 used, copied, transmitted, or stored only in accord with that
 written license.
  
 The following legend is applicable only to US Government
 contracts under FAR:
  
                    RESTRICTED RIGHTS LEGEND
  
 Use, reproduction and disclosure by the US Government is
 subject to restrictions as set forth in subparagraphs (a)
 and (c) of the Commercial Computer Software - Restricted
 Rights clause in FAR 52.227-19.
  
 Gaussian, Inc.
 340 Quinnipiac St., Bldg. 40, Wallingford CT 06492
  
  
 ---------------------------------------------------------------
 Warning -- This program may not be used in any manner that
 competes with the business of Gaussian, Inc. or will provide
 assistance to any competitor of Gaussian, Inc.  The licensee
 of this program is prohibited from giving any competitor of
 Gaussian, Inc. access to this program.  By using this program,
 the user acknowledges that Gaussian, Inc. is engaged in the
 business of creating and licensing software in the field of
 computational chemistry and represents and warrants to the
 licensee that it is not a competitor of Gaussian, Inc. and that
 it will not use this program in any manner prohibited above.
 ---------------------------------------------------------------
  

 Cite this work as:
 Gaussian 16, Revision C.02,
 M. J. Frisch, G. W. Trucks, H. B. Schlegel, G. E. Scuseria, 
 M. A. Robb, J. R. Cheeseman, G. Scalmani, V. Barone, 
 G. A. Petersson, H. Nakatsuji, X. Li, M. Caricato, A. V. Marenich, 
 J. Bloino, B. G. Janesko, R. Gomperts, B. Mennucci, H. P. Hratchian, 
 J. V. Ortiz, A. F. Izmaylov, J. L. Sonnenberg, D. Williams-Young, 
 F. Ding, F. Lipparini, F. Egidi, J. Goings, B. Peng, A. Petrone, 
 T. Henderson, D. Ranasinghe, V. G. Zakrzewski, J. Gao, N. Rega, 
 G. Zheng, W. Liang, M. Hada, M. Ehara, K. Toyota, R. Fukuda, 
 J. Hasegawa, M. Ishida, T. Nakajima, Y. Honda, O. Kitao, H. Nakai, 
 T. Vreven, K. Throssell, J. A. Montgomery, Jr., J. E. Peralta, 
 F. Ogliaro, M. J. Bearpark, J. J. Heyd, E. N. Brothers, K. N. Kudin, 
 V. N. Staroverov, T. A. Keith, R. Kobayashi, J. Normand, 
 K. Raghavachari, A. P. Rendell, J. C. Burant, S. S. Iyengar, 
 J. Tomasi, M. Cossi, J. M. Millam, M. Klene, C. Adamo, R. Cammi, 
 J. W. Ochterski, R. L. Martin, K. Morokuma, O. Farkas, 
 J. B. Foresman, and D. J. Fox, Gaussian, Inc., Wallingford CT, 2019.
 
 ******************************************
 Gaussian 16:  ES64L-G16RevC.02  7-Dec-2021
                17-Sep-2024 
 ******************************************
 %nprocshared=8
 Will use up to    8 processors via shared memory.
 %Mem=10GB
 %Chk=smiles_00064_conf_0.chk
 ----------------------------------------------------------------------
 #p B3LYP/6-31G(d,p) EmpiricalDispersion=GD3BJ opt freq scf(xqc,tight) 
 integral(grid=ultrafine)
 ----------------------------------------------------------------------
 1/18=20,19=15,26=4,38=1/1,3;
 2/9=110,12=2,17=6,18=5,40=1/2;
 3/5=1,6=6,7=101,11=2,25=1,30=1,71=1,74=-5,75=-5,124=41/1,2,3;
 4//1;
 5/5=2,8=3,13=1,32=2,38=5/2,8;
 6/7=2,8=2,9=2,10=2,28=1/1;
 7//1,2,3,16;
 1/18=20,19=15,26=4/3(2);
 2/9=110/2;
 99//99;
 2/9=110/2;
 3/5=1,6=6,7=101,11=2,25=1,30=1,71=1,74=-5,75=-5,124=41/1,2,3;
 4/5=5,16=3,69=1/1;
 5/5=2,8=3,13=1,32=2,38=5/2,8;
 7//1,2,3,16;
 1/18=20,19=15,26=4/3(-5);
 2/9=110/2;
 6/7=2,8=2,9=2,10=2,19=2,28=1/1;
 99/9=1/99;
 Leave Link    1 at Tue Sep 17 09:55:50 2024, MaxMem=  1342177280 cpu:               0.1 elap:               0.8
 (Enter /groups/ReismanLab/Software/Gaussian16_RevC/Linux_Binary_AVX2-enabled-CPU/g16/l101.exe)
 ----------------------------------
 opt-freq conformers_unique/conf_aa
 ----------------------------------
 Symbolic Z-matrix:
 Charge =  0 Multiplicity = 1
 Br                   -2.51174  -0.16922  -0.00004 
 C                    -0.6442    0.17803   0.00001 
 C                    -0.2063    1.48838   0.00007 
 C                     1.15676   1.7768    0.00012 
 C                     2.02524   0.71248  -0.00001 
 C                     1.56675  -0.60896   0.00008 
 C                     0.22748  -0.9104    0.00013 
 O                     2.63299  -1.45997   0.00009 
 C                     3.78409  -0.64096  -0.00008 
 O                     3.39125   0.71537  -0.00018 
 H                    -0.92286   2.29417   0.00024 
 H                     1.51512   2.7918    0.00029 
 H                    -0.12735  -1.92693   0.00022 
 H                     4.3857   -0.85108   0.89819 
 H                     4.38556  -0.8512   -0.89845 
 
 ITRead=  0  0  0  0  0  0  0  0  0  0  0  0  0  0  0
 MicOpt= -1 -1 -1 -1 -1 -1 -1 -1 -1 -1 -1 -1 -1 -1 -1
 NAtoms=     15 NQM=       15 NQMF=       0 NMMI=      0 NMMIF=      0
                NMic=       0 NMicF=      0.
                    Isotopes and Nuclear Properties:
 (Nuclear quadrupole moments (NQMom) in fm**2, nuclear magnetic moments (NMagM)
  in nuclear magnetons)

  Atom         1           2           3           4           5           6           7           8           9          10
 IAtWgt=          79          12          12          12          12          12          12          16          12          16
 AtmWgt=  78.9183361  12.0000000  12.0000000  12.0000000  12.0000000  12.0000000  12.0000000  15.9949146  12.0000000  15.9949146
 NucSpn=           3           0           0           0           0           0           0           0           0           0
 AtZEff=  -0.0000000  -0.0000000  -0.0000000  -0.0000000  -0.0000000  -0.0000000  -0.0000000  -0.0000000  -0.0000000  -0.0000000
 NQMom=   31.3000000   0.0000000   0.0000000   0.0000000   0.0000000   0.0000000   0.0000000   0.0000000   0.0000000   0.0000000
 NMagM=    2.1063990   0.0000000   0.0000000   0.0000000   0.0000000   0.0000000   0.0000000   0.0000000   0.0000000   0.0000000
 AtZNuc=  35.0000000   6.0000000   6.0000000   6.0000000   6.0000000   6.0000000   6.0000000   8.0000000   6.0000000   8.0000000

  Atom        11          12          13          14          15
 IAtWgt=           1           1           1           1           1
 AtmWgt=   1.0078250   1.0078250   1.0078250   1.0078250   1.0078250
 NucSpn=           1           1           1           1           1
 AtZEff=  -0.0000000  -0.0000000  -0.0000000  -0.0000000  -0.0000000
 NQMom=    0.0000000   0.0000000   0.0000000   0.0000000   0.0000000
 NMagM=    2.7928460   2.7928460   2.7928460   2.7928460   2.7928460
 AtZNuc=   1.0000000   1.0000000   1.0000000   1.0000000   1.0000000
 Leave Link  101 at Tue Sep 17 09:55:51 2024, MaxMem=  1342177280 cpu:               0.2 elap:               0.2
 (Enter /groups/ReismanLab/Software/Gaussian16_RevC/Linux_Binary_AVX2-enabled-CPU/g16/l103.exe)

 GradGradGradGradGradGradGradGradGradGradGradGradGradGradGradGradGradGrad
 Berny optimization.
 Initialization pass.
                           ----------------------------
                           !    Initial Parameters    !
                           ! (Angstroms and Degrees)  !
 --------------------------                            --------------------------
 ! Name  Definition              Value          Derivative Info.                !
 --------------------------------------------------------------------------------
 ! R1    R(1,2)                  1.8995         estimate D2E/DX2                !
 ! R2    R(2,3)                  1.3816         estimate D2E/DX2                !
 ! R3    R(2,7)                  1.3945         estimate D2E/DX2                !
 ! R4    R(3,4)                  1.3932         estimate D2E/DX2                !
 ! R5    R(3,11)                 1.0783         estimate D2E/DX2                !
 ! R6    R(4,5)                  1.3737         estimate D2E/DX2                !
 ! R7    R(4,12)                 1.0764         estimate D2E/DX2                !
 ! R8    R(5,6)                  1.3987         estimate D2E/DX2                !
 ! R9    R(5,10)                 1.366          estimate D2E/DX2                !
 ! R10   R(6,7)                  1.3728         estimate D2E/DX2                !
 ! R11   R(6,8)                  1.3642         estimate D2E/DX2                !
 ! R12   R(7,13)                 1.0767         estimate D2E/DX2                !
 ! R13   R(8,9)                  1.4127         estimate D2E/DX2                !
 ! R14   R(9,10)                 1.4121         estimate D2E/DX2                !
 ! R15   R(9,14)                 1.1013         estimate D2E/DX2                !
 ! R16   R(9,15)                 1.1014         estimate D2E/DX2                !
 ! A1    A(1,2,3)              119.0124         estimate D2E/DX2                !
 ! A2    A(1,2,7)              118.1568         estimate D2E/DX2                !
 ! A3    A(3,2,7)              122.8308         estimate D2E/DX2                !
 ! A4    A(2,3,4)              120.4265         estimate D2E/DX2                !
 ! A5    A(2,3,11)             119.8754         estimate D2E/DX2                !
 ! A6    A(4,3,11)             119.6981         estimate D2E/DX2                !
 ! A7    A(3,4,5)              117.2669         estimate D2E/DX2                !
 ! A8    A(3,4,12)             121.3938         estimate D2E/DX2                !
 ! A9    A(5,4,12)             121.3392         estimate D2E/DX2                !
 ! A10   A(4,5,6)              121.6509         estimate D2E/DX2                !
 ! A11   A(4,5,10)             129.0931         estimate D2E/DX2                !
 ! A12   A(6,5,10)             109.256          estimate D2E/DX2                !
 ! A13   A(5,6,7)              121.8193         estimate D2E/DX2                !
 ! A14   A(5,6,8)              109.46           estimate D2E/DX2                !
 ! A15   A(7,6,8)              128.7207         estimate D2E/DX2                !
 ! A16   A(2,7,6)              116.0056         estimate D2E/DX2                !
 ! A17   A(2,7,13)             122.0681         estimate D2E/DX2                !
 ! A18   A(6,7,13)             121.9263         estimate D2E/DX2                !
 ! A19   A(6,8,9)              105.9735         estimate D2E/DX2                !
 ! A20   A(8,9,10)             109.2791         estimate D2E/DX2                !
 ! A21   A(8,9,14)             109.5355         estimate D2E/DX2                !
 ! A22   A(8,9,15)             109.5362         estimate D2E/DX2                !
 ! A23   A(10,9,14)            109.5892         estimate D2E/DX2                !
 ! A24   A(10,9,15)            109.5857         estimate D2E/DX2                !
 ! A25   A(14,9,15)            109.302          estimate D2E/DX2                !
 ! A26   A(5,10,9)             106.0315         estimate D2E/DX2                !
 ! D1    D(1,2,3,4)            179.9992         estimate D2E/DX2                !
 ! D2    D(1,2,3,11)             0.0095         estimate D2E/DX2                !
 ! D3    D(7,2,3,4)              0.0057         estimate D2E/DX2                !
 ! D4    D(7,2,3,11)          -179.984          estimate D2E/DX2                !
 ! D5    D(1,2,7,6)            179.9964         estimate D2E/DX2                !
 ! D6    D(1,2,7,13)            -0.0021         estimate D2E/DX2                !
 ! D7    D(3,2,7,6)             -0.0102         estimate D2E/DX2                !
 ! D8    D(3,2,7,13)           179.9914         estimate D2E/DX2                !
 ! D9    D(2,3,4,5)              0.0062         estimate D2E/DX2                !
 ! D10   D(2,3,4,12)          -179.9923         estimate D2E/DX2                !
 ! D11   D(11,3,4,5)           179.9959         estimate D2E/DX2                !
 ! D12   D(11,3,4,12)           -0.0026         estimate D2E/DX2                !
 ! D13   D(3,4,5,6)             -0.0133         estimate D2E/DX2                !
 ! D14   D(3,4,5,10)           179.9903         estimate D2E/DX2                !
 ! D15   D(12,4,5,6)           179.9852         estimate D2E/DX2                !
 ! D16   D(12,4,5,10)           -0.0112         estimate D2E/DX2                !
 ! D17   D(4,5,6,7)              0.0089         estimate D2E/DX2                !
 ! D18   D(4,5,6,8)           -179.9921         estimate D2E/DX2                !
 ! D19   D(10,5,6,7)          -179.9941         estimate D2E/DX2                !
 ! D20   D(10,5,6,8)             0.005          estimate D2E/DX2                !
 ! D21   D(4,5,10,9)           179.9922         estimate D2E/DX2                !
 ! D22   D(6,5,10,9)            -0.0046         estimate D2E/DX2                !
 ! D23   D(5,6,7,2)              0.003          estimate D2E/DX2                !
 ! D24   D(5,6,7,13)          -179.9986         estimate D2E/DX2                !
 ! D25   D(8,6,7,2)           -179.9959         estimate D2E/DX2                !
 ! D26   D(8,6,7,13)             0.0026         estimate D2E/DX2                !
 ! D27   D(5,6,8,9)             -0.0031         estimate D2E/DX2                !
 ! D28   D(7,6,8,9)            179.9958         estimate D2E/DX2                !
 ! D29   D(6,8,9,10)             0.0003         estimate D2E/DX2                !
 ! D30   D(6,8,9,14)           120.0663         estimate D2E/DX2                !
 ! D31   D(6,8,9,15)          -120.0619         estimate D2E/DX2                !
 ! D32   D(8,9,10,5)             0.0027         estimate D2E/DX2                !
 ! D33   D(14,9,10,5)         -120.0303         estimate D2E/DX2                !
 ! D34   D(15,9,10,5)          120.0344         estimate D2E/DX2                !
 --------------------------------------------------------------------------------
 Trust Radius=3.00D-01 FncErr=1.00D-07 GrdErr=1.00D-06 EigMax=2.50D+02 EigMin=1.00D-04
 Number of steps in this run=     86 maximum allowed number of steps=    100.
 GradGradGradGradGradGradGradGradGradGradGradGradGradGradGradGradGradGrad

 Leave Link  103 at Tue Sep 17 09:55:51 2024, MaxMem=  1342177280 cpu:               0.0 elap:               0.0
 (Enter /groups/ReismanLab/Software/Gaussian16_RevC/Linux_Binary_AVX2-enabled-CPU/g16/l202.exe)
                          Input orientation:                          
 ---------------------------------------------------------------------
 Center     Atomic      Atomic             Coordinates (Angstroms)
 Number     Number       Type             X           Y           Z
 ---------------------------------------------------------------------
      1         35           0       -2.511742   -0.169223   -0.000036
      2          6           0       -0.644202    0.178027    0.000013
      3          6           0       -0.206297    1.488377    0.000067
      4          6           0        1.156762    1.776796    0.000121
      5          6           0        2.025238    0.712484   -0.000013
      6          6           0        1.566749   -0.608960    0.000079
      7          6           0        0.227481   -0.910396    0.000126
      8          8           0        2.632990   -1.459968    0.000087
      9          6           0        3.784091   -0.640961   -0.000076
     10          8           0        3.391253    0.715374   -0.000176
     11          1           0       -0.922860    2.294173    0.000235
     12          1           0        1.515125    2.791796    0.000287
     13          1           0       -0.127346   -1.926933    0.000220
     14          1           0        4.385702   -0.851077    0.898192
     15          1           0        4.385561   -0.851197   -0.898452
 ---------------------------------------------------------------------
                    Distance matrix (angstroms):
                    1          2          3          4          5
     1  Br   0.000000
     2  C    1.899550   0.000000
     3  C    2.839492   1.381585   0.000000
     4  C    4.152700   2.408222   1.393239   0.000000
     5  C    4.621861   2.722417   2.362574   1.373685   0.000000
     6  C    4.102129   2.346839   2.746363   2.420727   1.398723
     7  C    2.837725   1.394453   2.437678   2.843337   2.421914
     8  O    5.304177   3.663743   4.093200   3.557512   2.255861
     9  C    6.313482   4.503390   4.522972   3.570491   2.219319
    10  O    5.968908   4.071073   3.679660   2.473775   1.366018
    11  H    2.931359   2.134414   1.078318   2.143013   3.345597
    12  H    4.998329   3.390351   2.159212   1.076406   2.140970
    13  H    2.962244   2.167486   3.416222   3.920018   3.405898
    14  H    6.989026   5.212074   5.231265   4.258909   2.970402
    15  H    6.988923   5.212012   5.231263   4.258982   2.970425
                    6          7          8          9         10
     6  C    0.000000
     7  C    1.372772   0.000000
     8  O    1.364216   2.467489   0.000000
     9  C    2.217572   3.566801   1.412730   0.000000
    10  O    2.254478   3.557046   2.303709   1.412079   0.000000
    11  H    3.824439   3.404783   5.170845   5.547107   4.593928
    12  H    3.401148   3.919727   4.396262   4.114855   2.798461
    13  H    2.146395   1.076684   2.799555   4.117410   4.400264
    14  H    2.968455   4.254508   2.061393   1.101349   2.061496
    15  H    2.968458   4.254478   2.061427   1.101384   2.061479
                   11         12         13         14         15
    11  H    0.000000
    12  H    2.488252   0.000000
    13  H    4.295413   4.996410   0.000000
    14  H    6.235363   4.724085   4.725614   0.000000
    15  H    6.235410   4.724250   4.725585   1.796644   0.000000
 Stoichiometry    C7H5BrO2
 Framework group  C1[X(C7H5BrO2)]
 Deg. of freedom    39
 Full point group                 C1      NOp   1
 Largest Abelian subgroup         C1      NOp   1
 Largest concise Abelian subgroup C1      NOp   1
                         Standard orientation:                         
 ---------------------------------------------------------------------
 Center     Atomic      Atomic             Coordinates (Angstroms)
 Number     Number       Type             X           Y           Z
 ---------------------------------------------------------------------
      1         35           0        2.682852   -0.213780    0.000040
      2          6           0        0.819138    0.153452   -0.000008
      3          6           0        0.395293    1.468417   -0.000062
      4          6           0       -0.964599    1.771419   -0.000117
      5          6           0       -1.844424    0.716470    0.000017
      6          6           0       -1.400115   -0.609809   -0.000075
      7          6           0       -0.064153   -0.925573   -0.000122
      8          8           0       -2.475409   -1.449349   -0.000083
      9          6           0       -3.617672   -0.618060    0.000080
     10          8           0       -3.210330    0.733990    0.000180
     11          1           0        1.120445    2.266492   -0.000231
     12          1           0       -1.312070    2.790199   -0.000283
     13          1           0        0.279767   -1.945851   -0.000215
     14          1           0       -4.221500   -0.821721   -0.898188
     15          1           0       -4.221360   -0.821842    0.898457
 ---------------------------------------------------------------------
 Rotational constants (GHZ):           3.2648930           0.4557259           0.4009377
 Leave Link  202 at Tue Sep 17 09:55:51 2024, MaxMem=  1342177280 cpu:               0.0 elap:               0.0
 (Enter /groups/ReismanLab/Software/Gaussian16_RevC/Linux_Binary_AVX2-enabled-CPU/g16/l301.exe)
 Standard basis: 6-31G(d,p) (6D, 7F)
 Ernie: Thresh=  0.10000D-02 Tol=  0.10000D-05 Strict=F.
 There are   190 symmetry adapted cartesian basis functions of A   symmetry.
 There are   190 symmetry adapted basis functions of A   symmetry.
   190 basis functions,   370 primitive gaussians,   190 cartesian basis functions
    49 alpha electrons       49 beta electrons
       nuclear repulsion energy       724.8255574479 Hartrees.
 IExCor=  402 DFT=T Ex+Corr=B3LYP ExCW=0 ScaHFX=  0.200000
 ScaDFX=  0.800000  0.720000  1.000000  0.810000 ScalE2=  1.000000  1.000000
 IRadAn=      5 IRanWt=     -1 IRanGd=            0 ICorTp=0 IEmpDi=141
 NAtoms=   15 NActive=   15 NUniq=   15 SFac= 1.00D+00 NAtFMM=   60 NAOKFM=F Big=F
 Integral buffers will be    131072 words long.
 Raffenetti 2 integral format.
 Two-electron integral symmetry is turned on.
 R6Disp:  Grimme-D3(BJ) Dispersion energy=       -0.0303094522 Hartrees.
 Nuclear repulsion after empirical dispersion term =      724.7952479957 Hartrees.
 Leave Link  301 at Tue Sep 17 09:55:51 2024, MaxMem=  1342177280 cpu:               0.1 elap:               0.0
 (Enter /groups/ReismanLab/Software/Gaussian16_RevC/Linux_Binary_AVX2-enabled-CPU/g16/l302.exe)
 NPDir=0 NMtPBC=     1 NCelOv=     1 NCel=       1 NClECP=     1 NCelD=      1
         NCelK=      1 NCelE2=     1 NClLst=     1 CellRange=     0.0.
 One-electron integrals computed using PRISM.
 One-electron integral symmetry used in STVInt
 NBasis=   190 RedAO= T EigKep=  3.90D-04  NBF=   190
 NBsUse=   190 1.00D-06 EigRej= -1.00D+00 NBFU=   190
 Precomputing XC quadrature grid using
 IXCGrd= 4 IRadAn=           5 IRanWt=          -1 IRanGd=           0 AccXCQ= 0.00D+00.
 Generated NRdTot=       0 NPtTot=           0 NUsed=           0 NTot=          32
 NSgBfM=   189   189   189   189   189 MxSgAt=    15 MxSgA2=    15.
 Leave Link  302 at Tue Sep 17 09:55:51 2024, MaxMem=  1342177280 cpu:               0.8 elap:               0.1
 (Enter /groups/ReismanLab/Software/Gaussian16_RevC/Linux_Binary_AVX2-enabled-CPU/g16/l303.exe)
 DipDrv:  MaxL=1.
 Leave Link  303 at Tue Sep 17 09:55:51 2024, MaxMem=  1342177280 cpu:               0.1 elap:               0.0
 (Enter /groups/ReismanLab/Software/Gaussian16_RevC/Linux_Binary_AVX2-enabled-CPU/g16/l401.exe)
 ExpMin= 1.43D-01 ExpMax= 5.74D+05 ExpMxC= 5.74D+03 IAcc=3 IRadAn=         5 AccDes= 0.00D+00
 Harris functional with IExCor=  402 and IRadAn=       5 diagonalized for initial guess.
 HarFok:  IExCor=  402 AccDes= 0.00D+00 IRadAn=         5 IDoV= 1 UseB2=F ITyADJ=14
 ICtDFT=  3500011 ScaDFX=  1.000000  1.000000  1.000000  1.000000
 FoFCou: FMM=F IPFlag=           0 FMFlag=      100000 FMFlg1=           0
         NFxFlg=           0 DoJE=T BraDBF=F KetDBF=T FulRan=T
         wScrn=  0.000000 ICntrl=       500 IOpCl=  0 I1Cent=   200000004 NGrid=           0
         NMat0=    1 NMatS0=      1 NMatT0=    0 NMatD0=    1 NMtDS0=    0 NMtDT0=    0
 Petite list used in FoFCou.
 Harris En= -2992.00910417762    
 JPrj=0 DoOrth=F DoCkMO=F.
 Leave Link  401 at Tue Sep 17 09:55:52 2024, MaxMem=  1342177280 cpu:               3.7 elap:               0.6
 (Enter /groups/ReismanLab/Software/Gaussian16_RevC/Linux_Binary_AVX2-enabled-CPU/g16/l502.exe)
 Integral symmetry usage will be decided dynamically.
 Closed shell SCF:
 Using DIIS extrapolation, IDIIS=  1040.
 NGot=  1342177280 LenX=  1342101191 LenY=  1342064650
 Requested convergence on RMS density matrix=1.00D-08 within  32 cycles.
 Requested convergence on MAX density matrix=1.00D-06.
 Requested convergence on             energy=1.00D-06.
 No special actions if energy rises.
 Fock matrices will be formed incrementally for  20 cycles.
 Integral accuracy reduced to 1.0D-05 until final iterations.

 Cycle   1  Pass 0  IDiag  1:
 FoFJK:  IHMeth= 1 ICntrl=       0 DoSepK=F KAlg= 0 I1Cent=           0 FoldK=F
 IRaf= 890000000 NMat=       1 IRICut=       1 DoRegI=T DoRafI=F ISym2E= 0 IDoP0=0 IntGTp=1.
 FoFCou: FMM=F IPFlag=           0 FMFlag=      100000 FMFlg1=           0
         NFxFlg=           0 DoJE=F BraDBF=F KetDBF=F FulRan=T
         wScrn=  0.000000 ICntrl=         0 IOpCl=  0 I1Cent=           0 NGrid=           0
         NMat0=    1 NMatS0=      1 NMatT0=    0 NMatD0=    1 NMtDS0=    0 NMtDT0=    0
 Symmetry not used in FoFCou.
 E= -2991.74923947126    
 DIIS: error= 2.08D-01 at cycle   1 NSaved=   1.
 NSaved= 1 IEnMin= 1 EnMin= -2991.74923947126     IErMin= 1 ErrMin= 2.08D-01
 ErrMax= 2.08D-01  0.00D+00 EMaxC= 1.00D-01 BMatC= 5.21D-01 BMatP= 5.21D-01
 IDIUse=3 WtCom= 0.00D+00 WtEn= 1.00D+00
 Coeff-Com:  0.100D+01
 Coeff-En:   0.100D+01
 Coeff:      0.100D+01
 Gap=     0.235 Goal=   None    Shift=    0.000
 GapD=    0.235 DampG=1.000 DampE=0.250 DampFc=0.2500 IDamp=-1.
 Damping current iteration by 2.50D-01
 RMSDP=5.29D-03 MaxDP=1.44D-01              OVMax= 2.15D-01

 Cycle   2  Pass 0  IDiag  1:
 RMSU=  1.27D-03    CP:  9.93D-01
 E= -2991.80809129502     Delta-E=       -0.058851823754 Rises=F Damp=T
 DIIS: error= 1.53D-01 at cycle   2 NSaved=   2.
 NSaved= 2 IEnMin= 2 EnMin= -2991.80809129502     IErMin= 2 ErrMin= 1.53D-01
 ErrMax= 1.53D-01  0.00D+00 EMaxC= 1.00D-01 BMatC= 2.37D-01 BMatP= 5.21D-01
 IDIUse=3 WtCom= 0.00D+00 WtEn= 1.00D+00
 Coeff-Com: -0.151D+01 0.251D+01
 Coeff-En:   0.000D+00 0.100D+01
 Coeff:      0.000D+00 0.100D+01
 Gap=     0.219 Goal=   None    Shift=    0.000
 RMSDP=2.82D-03 MaxDP=1.11D-01 DE=-5.89D-02 OVMax= 9.34D-02

 Cycle   3  Pass 0  IDiag  1:
 RMSU=  1.12D-03    CP:  9.71D-01  2.86D+00
 E= -2991.88392266339     Delta-E=       -0.075831368375 Rises=F Damp=F
 DIIS: error= 1.10D-02 at cycle   3 NSaved=   3.
 NSaved= 3 IEnMin= 3 EnMin= -2991.88392266339     IErMin= 3 ErrMin= 1.10D-02
 ErrMax= 1.10D-02  0.00D+00 EMaxC= 1.00D-01 BMatC= 3.38D-02 BMatP= 2.37D-01
 IDIUse=3 WtCom= 8.90D-01 WtEn= 1.10D-01
 Coeff-Com:  0.124D+01-0.156D+01 0.132D+01
 Coeff-En:   0.913D-01 0.000D+00 0.909D+00
 Coeff:      0.112D+01-0.139D+01 0.127D+01
 Gap=     0.203 Goal=   None    Shift=    0.000
 RMSDP=1.35D-03 MaxDP=2.91D-02 DE=-7.58D-02 OVMax= 4.58D-02

 Cycle   4  Pass 0  IDiag  1:
 RMSU=  8.81D-04    CP:  9.71D-01  2.06D+00  1.11D+00
 E= -2991.90870486044     Delta-E=       -0.024782197045 Rises=F Damp=F
 DIIS: error= 5.60D-03 at cycle   4 NSaved=   4.
 NSaved= 4 IEnMin= 4 EnMin= -2991.90870486044     IErMin= 4 ErrMin= 5.60D-03
 ErrMax= 5.60D-03  0.00D+00 EMaxC= 1.00D-01 BMatC= 8.12D-03 BMatP= 3.38D-02
 IDIUse=3 WtCom= 9.44D-01 WtEn= 5.60D-02
 Coeff-Com:  0.747D+00-0.977D+00 0.752D+00 0.477D+00
 Coeff-En:   0.000D+00 0.000D+00 0.614D-01 0.939D+00
 Coeff:      0.706D+00-0.922D+00 0.714D+00 0.503D+00
 Gap=     0.204 Goal=   None    Shift=    0.000
 RMSDP=6.36D-04 MaxDP=1.61D-02 DE=-2.48D-02 OVMax= 4.11D-02

 Cycle   5  Pass 0  IDiag  1:
 RMSU=  1.67D-04    CP:  9.71D-01  2.13D+00  1.25D+00  3.33D-01
 E= -2991.91653578866     Delta-E=       -0.007830928225 Rises=F Damp=F
 DIIS: error= 1.41D-03 at cycle   5 NSaved=   5.
 NSaved= 5 IEnMin= 5 EnMin= -2991.91653578866     IErMin= 5 ErrMin= 1.41D-03
 ErrMax= 1.41D-03  0.00D+00 EMaxC= 1.00D-01 BMatC= 3.91D-04 BMatP= 8.12D-03
 IDIUse=3 WtCom= 9.86D-01 WtEn= 1.41D-02
 Coeff-Com:  0.186D+00-0.244D+00 0.204D+00 0.241D+00 0.613D+00
 Coeff-En:   0.000D+00 0.000D+00 0.000D+00 0.000D+00 0.100D+01
 Coeff:      0.184D+00-0.241D+00 0.201D+00 0.237D+00 0.618D+00
 Gap=     0.201 Goal=   None    Shift=    0.000
 RMSDP=1.24D-04 MaxDP=4.61D-03 DE=-7.83D-03 OVMax= 8.49D-03

 Cycle   6  Pass 0  IDiag  1:
 RMSU=  5.34D-05    CP:  9.71D-01  2.14D+00  1.24D+00  4.30D-01  6.02D-01
 E= -2991.91690684913     Delta-E=       -0.000371060466 Rises=F Damp=F
 DIIS: error= 3.62D-04 at cycle   6 NSaved=   6.
 NSaved= 6 IEnMin= 6 EnMin= -2991.91690684913     IErMin= 6 ErrMin= 3.62D-04
 ErrMax= 3.62D-04  0.00D+00 EMaxC= 1.00D-01 BMatC= 2.82D-05 BMatP= 3.91D-04
 IDIUse=3 WtCom= 9.96D-01 WtEn= 3.62D-03
 Coeff-Com:  0.577D-01-0.757D-01 0.691D-01 0.109D+00 0.356D+00 0.484D+00
 Coeff-En:   0.000D+00 0.000D+00 0.000D+00 0.000D+00 0.000D+00 0.100D+01
 Coeff:      0.575D-01-0.755D-01 0.689D-01 0.109D+00 0.355D+00 0.486D+00
 Gap=     0.201 Goal=   None    Shift=    0.000
 RMSDP=3.54D-05 MaxDP=7.48D-04 DE=-3.71D-04 OVMax= 2.28D-03

 Cycle   7  Pass 0  IDiag  1:
 RMSU=  1.82D-05    CP:  9.71D-01  2.14D+00  1.23D+00  4.38D-01  6.43D-01
                    CP:  4.64D-01
 E= -2991.91693356118     Delta-E=       -0.000026712055 Rises=F Damp=F
 DIIS: error= 1.02D-04 at cycle   7 NSaved=   7.
 NSaved= 7 IEnMin= 7 EnMin= -2991.91693356118     IErMin= 7 ErrMin= 1.02D-04
 ErrMax= 1.02D-04  0.00D+00 EMaxC= 1.00D-01 BMatC= 2.37D-06 BMatP= 2.82D-05
 IDIUse=3 WtCom= 9.99D-01 WtEn= 1.02D-03
 EnCoef did     3 forward-backward iterations
 Coeff-Com:  0.172D-01-0.226D-01 0.228D-01 0.438D-01 0.156D+00 0.279D+00
 Coeff-Com:  0.504D+00
 Coeff-En:   0.000D+00 0.000D+00 0.000D+00 0.000D+00 0.000D+00 0.642D-02
 Coeff-En:   0.994D+00
 Coeff:      0.171D-01-0.226D-01 0.228D-01 0.438D-01 0.155D+00 0.279D+00
 Coeff:      0.504D+00
 Gap=     0.201 Goal=   None    Shift=    0.000
 RMSDP=1.11D-05 MaxDP=2.46D-04 DE=-2.67D-05 OVMax= 7.53D-04

 Cycle   8  Pass 0  IDiag  1:
 RMSU=  5.43D-06    CP:  9.71D-01  2.14D+00  1.23D+00  4.37D-01  6.44D-01
                    CP:  5.56D-01  5.56D-01
 E= -2991.91693599731     Delta-E=       -0.000002436128 Rises=F Damp=F
 DIIS: error= 3.09D-05 at cycle   8 NSaved=   8.
 NSaved= 8 IEnMin= 8 EnMin= -2991.91693599731     IErMin= 8 ErrMin= 3.09D-05
 ErrMax= 3.09D-05  0.00D+00 EMaxC= 1.00D-01 BMatC= 1.90D-07 BMatP= 2.37D-06
 IDIUse=1 WtCom= 1.00D+00 WtEn= 0.00D+00
 Coeff-Com:  0.274D-02-0.361D-02 0.454D-02 0.113D-01 0.427D-01 0.898D-01
 Coeff-Com:  0.269D+00 0.583D+00
 Coeff:      0.274D-02-0.361D-02 0.454D-02 0.113D-01 0.427D-01 0.898D-01
 Coeff:      0.269D+00 0.583D+00
 Gap=     0.201 Goal=   None    Shift=    0.000
 RMSDP=2.90D-06 MaxDP=5.60D-05 DE=-2.44D-06 OVMax= 1.94D-04

 Initial convergence to 1.0D-05 achieved.  Increase integral accuracy.
 Cycle   9  Pass 1  IDiag  1:
 E= -2991.91693293690     Delta-E=        0.000003060414 Rises=F Damp=F
 DIIS: error= 3.81D-05 at cycle   1 NSaved=   1.
 NSaved= 1 IEnMin= 1 EnMin= -2991.91693293690     IErMin= 1 ErrMin= 3.81D-05
 ErrMax= 3.81D-05  0.00D+00 EMaxC= 1.00D-01 BMatC= 1.12D-07 BMatP= 1.12D-07
 IDIUse=1 WtCom= 1.00D+00 WtEn= 0.00D+00
 Coeff-Com:  0.100D+01
 Coeff:      0.100D+01
 Gap=     0.201 Goal=   None    Shift=    0.000
 RMSDP=2.90D-06 MaxDP=5.60D-05 DE= 3.06D-06 OVMax= 8.81D-05

 Cycle  10  Pass 1  IDiag  1:
 RMSU=  9.33D-06    CP:  1.00D+00
 E= -2991.91693299073     Delta-E=       -0.000000053830 Rises=F Damp=F
 DIIS: error= 7.81D-06 at cycle   2 NSaved=   2.
 NSaved= 2 IEnMin= 2 EnMin= -2991.91693299073     IErMin= 2 ErrMin= 7.81D-06
 ErrMax= 7.81D-06  0.00D+00 EMaxC= 1.00D-01 BMatC= 1.95D-08 BMatP= 1.12D-07
 IDIUse=1 WtCom= 1.00D+00 WtEn= 0.00D+00
 Coeff-Com:  0.199D+00 0.801D+00
 Coeff:      0.199D+00 0.801D+00
 Gap=     0.201 Goal=   None    Shift=    0.000
 RMSDP=1.61D-06 MaxDP=4.73D-05 DE=-5.38D-08 OVMax= 1.06D-04

 Cycle  11  Pass 1  IDiag  1:
 RMSU=  1.60D-06    CP:  1.00D+00  9.89D-01
 E= -2991.91693298466     Delta-E=        0.000000006066 Rises=F Damp=F
 DIIS: error= 8.71D-06 at cycle   3 NSaved=   3.
 NSaved= 3 IEnMin= 2 EnMin= -2991.91693299073     IErMin= 2 ErrMin= 7.81D-06
 ErrMax= 8.71D-06  0.00D+00 EMaxC= 1.00D-01 BMatC= 2.69D-08 BMatP= 1.95D-08
 IDIUse=1 WtCom= 1.00D+00 WtEn= 0.00D+00
 Coeff-Com:  0.140D-02 0.540D+00 0.459D+00
 Coeff:      0.140D-02 0.540D+00 0.459D+00
 Gap=     0.201 Goal=   None    Shift=    0.000
 RMSDP=8.83D-07 MaxDP=2.67D-05 DE= 6.07D-09 OVMax= 6.30D-05

 Cycle  12  Pass 1  IDiag  1:
 RMSU=  2.62D-07    CP:  1.00D+00  1.01D+00  4.83D-01
 E= -2991.91693300805     Delta-E=       -0.000000023391 Rises=F Damp=F
 DIIS: error= 9.78D-07 at cycle   4 NSaved=   4.
 NSaved= 4 IEnMin= 4 EnMin= -2991.91693300805     IErMin= 4 ErrMin= 9.78D-07
 ErrMax= 9.78D-07  0.00D+00 EMaxC= 1.00D-01 BMatC= 4.62D-10 BMatP= 1.95D-08
 IDIUse=1 WtCom= 1.00D+00 WtEn= 0.00D+00
 Coeff-Com: -0.265D-02 0.309D+00 0.273D+00 0.420D+00
 Coeff:     -0.265D-02 0.309D+00 0.273D+00 0.420D+00
 Gap=     0.201 Goal=   None    Shift=    0.000
 RMSDP=1.44D-07 MaxDP=4.45D-06 DE=-2.34D-08 OVMax= 6.82D-06

 Cycle  13  Pass 1  IDiag  1:
 RMSU=  6.43D-08    CP:  1.00D+00  1.01D+00  4.90D-01  5.11D-01
 E= -2991.91693300851     Delta-E=       -0.000000000455 Rises=F Damp=F
 DIIS: error= 2.32D-07 at cycle   5 NSaved=   5.
 NSaved= 5 IEnMin= 5 EnMin= -2991.91693300851     IErMin= 5 ErrMin= 2.32D-07
 ErrMax= 2.32D-07  0.00D+00 EMaxC= 1.00D-01 BMatC= 1.95D-11 BMatP= 4.62D-10
 IDIUse=1 WtCom= 1.00D+00 WtEn= 0.00D+00
 Coeff-Com: -0.158D-02 0.139D+00 0.124D+00 0.234D+00 0.504D+00
 Coeff:     -0.158D-02 0.139D+00 0.124D+00 0.234D+00 0.504D+00
 Gap=     0.201 Goal=   None    Shift=    0.000
 RMSDP=3.09D-08 MaxDP=1.12D-06 DE=-4.55D-10 OVMax= 2.12D-06

 Cycle  14  Pass 1  IDiag  1:
 RMSU=  2.32D-08    CP:  1.00D+00  1.01D+00  4.85D-01  5.18D-01  7.20D-01
 E= -2991.91693300856     Delta-E=       -0.000000000055 Rises=F Damp=F
 DIIS: error= 7.03D-08 at cycle   6 NSaved=   6.
 NSaved= 6 IEnMin= 6 EnMin= -2991.91693300856     IErMin= 6 ErrMin= 7.03D-08
 ErrMax= 7.03D-08  0.00D+00 EMaxC= 1.00D-01 BMatC= 1.19D-12 BMatP= 1.95D-11
 IDIUse=1 WtCom= 1.00D+00 WtEn= 0.00D+00
 Coeff-Com: -0.504D-03 0.382D-01 0.346D-01 0.716D-01 0.242D+00 0.614D+00
 Coeff:     -0.504D-03 0.382D-01 0.346D-01 0.716D-01 0.242D+00 0.614D+00
 Gap=     0.201 Goal=   None    Shift=    0.000
 RMSDP=9.20D-09 MaxDP=2.41D-07 DE=-5.50D-11 OVMax= 7.48D-07

 SCF Done:  E(RB3LYP) =  -2991.91693301     A.U. after   14 cycles
            NFock= 14  Conv=0.92D-08     -V/T= 2.0065
 KE= 2.972640398603D+03 PE=-8.562489024468D+03 EE= 1.873136444861D+03
 Leave Link  502 at Tue Sep 17 09:55:59 2024, MaxMem=  1342177280 cpu:              58.3 elap:               7.7
 (Enter /groups/ReismanLab/Software/Gaussian16_RevC/Linux_Binary_AVX2-enabled-CPU/g16/l508.exe)
 QCSCF skips out because SCF is already converged.
 Leave Link  508 at Tue Sep 17 09:56:00 2024, MaxMem=  1342177280 cpu:               0.0 elap:               0.0
 (Enter /groups/ReismanLab/Software/Gaussian16_RevC/Linux_Binary_AVX2-enabled-CPU/g16/l601.exe)
 Copying SCF densities to generalized density rwf, IOpCl= 0 IROHF=0.

 **********************************************************************

            Population analysis using the SCF Density.

 **********************************************************************

 Orbital symmetries:
       Occupied  (A) (A) (A) (A) (A) (A) (A) (A) (A) (A) (A) (A)
                 (A) (A) (A) (A) (A) (A) (A) (A) (A) (A) (A) (A)
                 (A) (A) (A) (A) (A) (A) (A) (A) (A) (A) (A) (A)
                 (A) (A) (A) (A) (A) (A) (A) (A) (A) (A) (A) (A)
                 (A)
       Virtual   (A) (A) (A) (A) (A) (A) (A) (A) (A) (A) (A) (A)
                 (A) (A) (A) (A) (A) (A) (A) (A) (A) (A) (A) (A)
                 (A) (A) (A) (A) (A) (A) (A) (A) (A) (A) (A) (A)
                 (A) (A) (A) (A) (A) (A) (A) (A) (A) (A) (A) (A)
                 (A) (A) (A) (A) (A) (A) (A) (A) (A) (A) (A) (A)
                 (A) (A) (A) (A) (A) (A) (A) (A) (A) (A) (A) (A)
                 (A) (A) (A) (A) (A) (A) (A) (A) (A) (A) (A) (A)
                 (A) (A) (A) (A) (A) (A) (A) (A) (A) (A) (A) (A)
                 (A) (A) (A) (A) (A) (A) (A) (A) (A) (A) (A) (A)
                 (A) (A) (A) (A) (A) (A) (A) (A) (A) (A) (A) (A)
                 (A) (A) (A) (A) (A) (A) (A) (A) (A) (A) (A) (A)
                 (A) (A) (A) (A) (A) (A) (A) (A) (A)
 The electronic state is 1-A.
 Alpha  occ. eigenvalues -- -482.90815 -61.86985 -56.39121 -56.38712 -56.38696
 Alpha  occ. eigenvalues --  -19.20411 -19.20276 -10.31392 -10.26144 -10.25844
 Alpha  occ. eigenvalues --  -10.24505 -10.20671 -10.20500 -10.20121  -8.58131
 Alpha  occ. eigenvalues --   -6.53529  -6.52247  -6.52230  -2.65102  -2.64732
 Alpha  occ. eigenvalues --   -2.64721  -2.63697  -2.63697  -1.14577  -1.05224
 Alpha  occ. eigenvalues --   -0.88344  -0.80825  -0.77225  -0.74127  -0.67793
 Alpha  occ. eigenvalues --   -0.63637  -0.62527  -0.53473  -0.53210  -0.52949
 Alpha  occ. eigenvalues --   -0.49859  -0.45984  -0.44817  -0.42456  -0.40940
 Alpha  occ. eigenvalues --   -0.38750  -0.38609  -0.38008  -0.36164  -0.34750
 Alpha  occ. eigenvalues --   -0.28815  -0.28474  -0.25427  -0.21055
 Alpha virt. eigenvalues --   -0.00919   0.00032   0.00968   0.09953   0.10479
 Alpha virt. eigenvalues --    0.12557   0.14511   0.15033   0.15254   0.15761
 Alpha virt. eigenvalues --    0.17220   0.19834   0.22827   0.27491   0.29621
 Alpha virt. eigenvalues --    0.31268   0.32724   0.35028   0.43917   0.44577
 Alpha virt. eigenvalues --    0.46599   0.46603   0.46669   0.48107   0.48512
 Alpha virt. eigenvalues --    0.49420   0.50425   0.50787   0.51942   0.53470
 Alpha virt. eigenvalues --    0.56885   0.56969   0.59068   0.60127   0.60789
 Alpha virt. eigenvalues --    0.64837   0.64990   0.66121   0.71140   0.73954
 Alpha virt. eigenvalues --    0.74734   0.76616   0.77811   0.77824   0.78898
 Alpha virt. eigenvalues --    0.81127   0.83305   0.84596   0.86416   0.87943
 Alpha virt. eigenvalues --    0.90102   0.93562   0.95722   0.99262   1.02800
 Alpha virt. eigenvalues --    1.03867   1.04581   1.06103   1.13758   1.15494
 Alpha virt. eigenvalues --    1.18032   1.23160   1.26004   1.29525   1.31927
 Alpha virt. eigenvalues --    1.33778   1.37948   1.38303   1.41148   1.41337
 Alpha virt. eigenvalues --    1.44914   1.48585   1.53951   1.56737   1.57377
 Alpha virt. eigenvalues --    1.73497   1.74569   1.77275   1.80552   1.83357
 Alpha virt. eigenvalues --    1.85690   1.86659   1.87710   1.89430   1.91269
 Alpha virt. eigenvalues --    1.92915   1.94546   1.95107   1.95770   1.98266
 Alpha virt. eigenvalues --    2.03666   2.03973   2.04575   2.05451   2.11528
 Alpha virt. eigenvalues --    2.21023   2.25328   2.29118   2.31210   2.33738
 Alpha virt. eigenvalues --    2.34528   2.38392   2.42313   2.46983   2.47475
 Alpha virt. eigenvalues --    2.50786   2.50838   2.53782   2.59493   2.59816
 Alpha virt. eigenvalues --    2.63461   2.64724   2.68758   2.73039   2.73696
 Alpha virt. eigenvalues --    2.74471   2.79133   2.80180   2.84557   2.89227
 Alpha virt. eigenvalues --    2.97369   3.05661   3.08825   3.21509   3.23442
 Alpha virt. eigenvalues --    3.30414   3.33532   3.38175   3.46570   3.76659
 Alpha virt. eigenvalues --    3.96946   4.10632   4.12977   4.29208   4.33328
 Alpha virt. eigenvalues --    4.38961   4.54828   4.58709   4.93048   8.61025
 Alpha virt. eigenvalues --   72.83179
          Condensed to atoms (all electrons):
               1          2          3          4          5          6
     1  Br  34.990407   0.256088  -0.057894   0.005806   0.000364   0.005754
     2  C    0.256088   4.816016   0.543184  -0.027554  -0.041003  -0.001692
     3  C   -0.057894   0.543184   4.890024   0.481352  -0.011301  -0.045890
     4  C    0.005806  -0.027554   0.481352   4.919675   0.522720  -0.028603
     5  C    0.000364  -0.041003  -0.011301   0.522720   4.696692   0.450980
     6  C    0.005754  -0.001692  -0.045890  -0.028603   0.450980   4.723480
     7  C   -0.058624   0.488781  -0.039859  -0.042686  -0.038720   0.480124
     8  O   -0.000038   0.002701   0.000135   0.006858  -0.047165   0.231221
     9  C    0.000003  -0.000067  -0.000084   0.005416  -0.057094  -0.057669
    10  O    0.000000  -0.000043   0.003249  -0.053172   0.231569  -0.047346
    11  H   -0.003785  -0.040267   0.374152  -0.038855   0.004256   0.000247
    12  H   -0.000136   0.004366  -0.037605   0.363254  -0.035921   0.005429
    13  H   -0.004111  -0.040738   0.005142   0.000024   0.005470  -0.036344
    14  H   -0.000000  -0.000000   0.000002  -0.000040   0.003135   0.003209
    15  H   -0.000000  -0.000000   0.000002  -0.000040   0.003135   0.003210
               7          8          9         10         11         12
     1  Br  -0.058624  -0.000038   0.000003   0.000000  -0.003785  -0.000136
     2  C    0.488781   0.002701  -0.000067  -0.000043  -0.040267   0.004366
     3  C   -0.039859   0.000135  -0.000084   0.003249   0.374152  -0.037605
     4  C   -0.042686   0.006858   0.005416  -0.053172  -0.038855   0.363254
     5  C   -0.038720  -0.047165  -0.057094   0.231569   0.004256  -0.035921
     6  C    0.480124   0.231221  -0.057669  -0.047346   0.000247   0.005429
     7  C    4.994780  -0.049780   0.005226   0.007349   0.005828   0.000392
     8  O   -0.049780   8.247919   0.266894  -0.047391   0.000001  -0.000057
     9  C    0.005226   0.266894   4.525835   0.267731   0.000003  -0.000273
    10  O    0.007349  -0.047391   0.267731   8.250441  -0.000043  -0.001817
    11  H    0.005828   0.000001   0.000003  -0.000043   0.596836  -0.006244
    12  H    0.000392  -0.000057  -0.000273  -0.001817  -0.006244   0.600663
    13  H    0.366010  -0.001791  -0.000257  -0.000047  -0.000138   0.000016
    14  H   -0.000027  -0.040760   0.377023  -0.040817  -0.000000   0.000001
    15  H   -0.000027  -0.040758   0.377024  -0.040822  -0.000000   0.000001
              13         14         15
     1  Br  -0.004111  -0.000000  -0.000000
     2  C   -0.040738  -0.000000  -0.000000
     3  C    0.005142   0.000002   0.000002
     4  C    0.000024  -0.000040  -0.000040
     5  C    0.005470   0.003135   0.003135
     6  C   -0.036344   0.003209   0.003210
     7  C    0.366010  -0.000027  -0.000027
     8  O   -0.001791  -0.040760  -0.040758
     9  C   -0.000257   0.377023   0.377024
    10  O   -0.000047  -0.040817  -0.040822
    11  H   -0.000138  -0.000000  -0.000000
    12  H    0.000016   0.000001   0.000001
    13  H    0.586908   0.000001   0.000001
    14  H    0.000001   0.651298  -0.070583
    15  H    0.000001  -0.070583   0.651306
 Mulliken charges:
               1
     1  Br  -0.133832
     2  C    0.040228
     3  C   -0.104610
     4  C   -0.114156
     5  C    0.312883
     6  C    0.313889
     7  C   -0.118765
     8  O   -0.527988
     9  C    0.290290
    10  O   -0.528843
    11  H    0.108008
    12  H    0.107931
    13  H    0.119855
    14  H    0.117558
    15  H    0.117551
 Sum of Mulliken charges =  -0.00000
 Mulliken charges with hydrogens summed into heavy atoms:
               1
     1  Br  -0.133832
     2  C    0.040228
     3  C    0.003398
     4  C   -0.006224
     5  C    0.312883
     6  C    0.313889
     7  C    0.001090
     8  O   -0.527988
     9  C    0.525399
    10  O   -0.528843
 Electronic spatial extent (au):  <R**2>=           2399.1858
 Charge=             -0.0000 electrons
 Dipole moment (field-independent basis, Debye):
    X=             -2.1349    Y=              0.2258    Z=             -0.0003  Tot=              2.1468
 Quadrupole moment (field-independent basis, Debye-Ang):
   XX=            -63.2052   YY=            -65.8592   ZZ=            -70.0158
   XY=              2.4159   XZ=              0.0001   YZ=             -0.0010
 Traceless Quadrupole moment (field-independent basis, Debye-Ang):
   XX=              3.1549   YY=              0.5009   ZZ=             -3.6557
   XY=              2.4159   XZ=              0.0001   YZ=             -0.0010
 Octapole moment (field-independent basis, Debye-Ang**2):
  XXX=             27.2288  YYY=              2.2228  ZZZ=              0.0024  XYY=             26.7121
  XXY=            -18.6246  XXZ=             -0.0001  XZZ=             17.1475  YZZ=             -5.4634
  YYZ=             -0.0021  XYZ=              0.0019
 Hexadecapole moment (field-independent basis, Debye-Ang**3):
 XXXX=          -1927.0662 YYYY=           -424.8236 ZZZZ=            -77.0316 XXXY=             55.5646
 XXXZ=              0.0087 YYYX=            -28.2146 YYYZ=             -0.0041 ZZZX=              0.0030
 ZZZY=              0.0018 XXYY=           -446.0136 XXZZ=           -363.9891 YYZZ=            -94.1872
 XXYZ=             -0.0063 YYXZ=              0.0014 ZZXY=             -0.4420
 N-N= 7.247952479957D+02 E-N=-8.562489022409D+03  KE= 2.972640398603D+03
 No NMR shielding tensors so no spin-rotation constants.
 Leave Link  601 at Tue Sep 17 09:56:00 2024, MaxMem=  1342177280 cpu:               0.6 elap:               0.1
 (Enter /groups/ReismanLab/Software/Gaussian16_RevC/Linux_Binary_AVX2-enabled-CPU/g16/l701.exe)
 ... and contract with generalized density number  0.
 Compute integral first derivatives.
 R6Disp: Adding Grimme-D3(BJ) dispersion energy 1st derivatives to the gradient.
 Leave Link  701 at Tue Sep 17 09:56:00 2024, MaxMem=  1342177280 cpu:               0.6 elap:               0.1
 (Enter /groups/ReismanLab/Software/Gaussian16_RevC/Linux_Binary_AVX2-enabled-CPU/g16/l702.exe)
 L702 exits ... SP integral derivatives will be done elsewhere.
 Leave Link  702 at Tue Sep 17 09:56:00 2024, MaxMem=  1342177280 cpu:               0.1 elap:               0.0
 (Enter /groups/ReismanLab/Software/Gaussian16_RevC/Linux_Binary_AVX2-enabled-CPU/g16/l703.exe)
 Integral derivatives from FoFJK, PRISM(SPDF).
 Compute integral first derivatives, UseDBF=F ICtDFT=           0.
 Calling FoFJK, ICntrl=      2127 FMM=F ISym2X=0 I1Cent= 0 IOpClX= 0 NMat=1 NMatS=1 NMatT=0.
 FoFJK:  IHMeth= 1 ICntrl=    2127 DoSepK=F KAlg= 0 I1Cent=           0 FoldK=F
 IRaf=         0 NMat=       1 IRICut=       1 DoRegI=T DoRafI=F ISym2E= 0 IDoP0=0 IntGTp=1.
 FoFCou: FMM=F IPFlag=           0 FMFlag=      100000 FMFlg1=         800
         NFxFlg=           0 DoJE=F BraDBF=F KetDBF=F FulRan=T
         wScrn=  0.000000 ICntrl=      2127 IOpCl=  0 I1Cent=           0 NGrid=           0
         NMat0=    1 NMatS0=      1 NMatT0=    0 NMatD0=    1 NMtDS0=    0 NMtDT0=    0
 Symmetry not used in FoFCou.
 Leave Link  703 at Tue Sep 17 09:56:02 2024, MaxMem=  1342177280 cpu:              18.1 elap:               2.3
 (Enter /groups/ReismanLab/Software/Gaussian16_RevC/Linux_Binary_AVX2-enabled-CPU/g16/l716.exe)
 Dipole        =-8.39924025D-01 8.88313975D-02-1.18215741D-04
 ***** Axes restored to original set *****
 -------------------------------------------------------------------
 Center     Atomic                   Forces (Hartrees/Bohr)
 Number     Number              X              Y              Z
 -------------------------------------------------------------------
      1       35          -0.005319173   -0.000993062    0.000000231
      2        6          -0.005834409    0.000321322    0.000008837
      3        6          -0.006756122    0.003828917    0.000010255
      4        6           0.007787431    0.002239512   -0.000004182
      5        6          -0.003446872   -0.006868421    0.000002882
      6        6           0.001365580    0.008997417   -0.000003601
      7        6           0.002331258   -0.006926677   -0.000005944
      8        8          -0.007748385   -0.008292275    0.000000176
      9        6           0.023820418   -0.007815005   -0.000022514
     10        8          -0.000425529    0.011023461    0.000008208
     11        1          -0.002565283    0.002135859   -0.000005995
     12        1           0.001737166    0.004806902   -0.000004936
     13        1          -0.001674858   -0.003488997   -0.000001879
     14        1          -0.001630472    0.000515489   -0.000897807
     15        1          -0.001640748    0.000515558    0.000916269
 -------------------------------------------------------------------
 Cartesian Forces:  Max     0.023820418 RMS     0.005423066
 Leave Link  716 at Tue Sep 17 09:56:02 2024, MaxMem=  1342177280 cpu:               0.1 elap:               0.0
 (Enter /groups/ReismanLab/Software/Gaussian16_RevC/Linux_Binary_AVX2-enabled-CPU/g16/l103.exe)

 GradGradGradGradGradGradGradGradGradGradGradGradGradGradGradGradGradGrad
 Berny optimization.
 FormGI is forming the generalized inverse of G from B-inverse, IUseBI=4.
 Internal  Forces:  Max     0.012801023 RMS     0.003703817
 Search for a local minimum.
 Step number   1 out of a maximum of   86
 All quantities printed in internal units (Hartrees-Bohrs-Radians)
 RMS Force = .37038D-02 SwitMx=.10000D-02 MixMth= 1
 Mixed Optimization -- RFO/linear search
 Second derivative matrix not updated -- first step.
 ITU=  0
     Eigenvalues ---    0.01640   0.02127   0.02210   0.02244   0.02256
     Eigenvalues ---    0.02261   0.02265   0.02306   0.02340   0.02367
     Eigenvalues ---    0.07360   0.09974   0.12035   0.12282   0.16000
     Eigenvalues ---    0.16000   0.16000   0.18273   0.22453   0.23518
     Eigenvalues ---    0.23760   0.24629   0.25000   0.25000   0.33530
     Eigenvalues ---    0.33533   0.36198   0.36398   0.36432   0.38071
     Eigenvalues ---    0.42232   0.43120   0.43581   0.46103   0.47910
     Eigenvalues ---    0.48957   0.49145   0.50038   0.51590
 RFO step:  Lambda=-2.58162491D-03 EMin= 1.63952283D-02
 Linear search not attempted -- first point.
 Iteration  1 RMS(Cart)=  0.01516740 RMS(Int)=  0.00007032
 Iteration  2 RMS(Cart)=  0.00006167 RMS(Int)=  0.00004066
 Iteration  3 RMS(Cart)=  0.00000001 RMS(Int)=  0.00004066
 ITry= 1 IFail=0 DXMaxC= 6.33D-02 DCOld= 1.00D+10 DXMaxT= 3.00D-01 DXLimC= 3.00D+00 Rises=F
 Variable       Old X    -DE/DX   Delta X   Delta X   Delta X     New X
                                 (Linear)    (Quad)   (Total)
    R1        3.58963   0.00541   0.00000   0.02920   0.02920   3.61883
    R2        2.61082   0.00832   0.00000   0.01817   0.01819   2.62901
    R3        2.63513   0.01027   0.00000   0.02257   0.02259   2.65772
    R4        2.63284   0.01280   0.00000   0.02793   0.02794   2.66078
    R5        2.03773   0.00330   0.00000   0.00905   0.00905   2.04678
    R6        2.59589   0.00620   0.00000   0.01169   0.01167   2.60756
    R7        2.03411   0.00511   0.00000   0.01393   0.01393   2.04804
    R8        2.64320  -0.00070   0.00000  -0.00514  -0.00527   2.63794
    R9        2.58140   0.00719   0.00000   0.01314   0.01311   2.59451
   R10        2.59416   0.00767   0.00000   0.01446   0.01445   2.60861
   R11        2.57799   0.00694   0.00000   0.01256   0.01253   2.59052
   R12        2.03464   0.00385   0.00000   0.01049   0.01049   2.04513
   R13        2.66967   0.01267   0.00000   0.03091   0.03099   2.70066
   R14        2.66844   0.01216   0.00000   0.02969   0.02976   2.69821
   R15        2.08125  -0.00172   0.00000  -0.00509  -0.00509   2.07615
   R16        2.08131  -0.00174   0.00000  -0.00516  -0.00516   2.07616
    A1        2.07716   0.00114   0.00000   0.00325   0.00324   2.08040
    A2        2.06223   0.00112   0.00000   0.00320   0.00319   2.06541
    A3        2.14380  -0.00226   0.00000  -0.00645  -0.00642   2.13738
    A4        2.10184  -0.00118   0.00000  -0.00219  -0.00217   2.09967
    A5        2.09222   0.00009   0.00000  -0.00202  -0.00203   2.09019
    A6        2.08913   0.00110   0.00000   0.00421   0.00420   2.09333
    A7        2.04669   0.00027   0.00000   0.00043   0.00040   2.04710
    A8        2.11872  -0.00010   0.00000   0.00002   0.00003   2.11876
    A9        2.11777  -0.00017   0.00000  -0.00045  -0.00044   2.11733
   A10        2.12321   0.00068   0.00000   0.00110   0.00110   2.12430
   A11        2.25310  -0.00215   0.00000  -0.00368  -0.00358   2.24952
   A12        1.90688   0.00147   0.00000   0.00258   0.00249   1.90936
   A13        2.12615   0.00208   0.00000   0.00646   0.00646   2.13261
   A14        1.91044   0.00075   0.00000  -0.00019  -0.00029   1.91015
   A15        2.24660  -0.00283   0.00000  -0.00627  -0.00617   2.24043
   A16        2.02468   0.00042   0.00000   0.00065   0.00063   2.02531
   A17        2.13049  -0.00065   0.00000  -0.00303  -0.00302   2.12747
   A18        2.12802   0.00023   0.00000   0.00238   0.00238   2.13040
   A19        1.84959   0.00261   0.00000   0.01263   0.01268   1.86227
   A20        1.90728  -0.00703   0.00000  -0.02605  -0.02596   1.88132
   A21        1.91176   0.00153   0.00000   0.00299   0.00290   1.91465
   A22        1.91177   0.00152   0.00000   0.00300   0.00290   1.91467
   A23        1.91269   0.00161   0.00000   0.00372   0.00362   1.91631
   A24        1.91263   0.00162   0.00000   0.00377   0.00366   1.91630
   A25        1.90768   0.00076   0.00000   0.01258   0.01253   1.92021
   A26        1.85060   0.00220   0.00000   0.01103   0.01108   1.86168
    D1        3.14158   0.00000   0.00000   0.00006   0.00006  -3.14155
    D2        0.00017  -0.00000   0.00000  -0.00010  -0.00010   0.00007
    D3        0.00010  -0.00000   0.00000  -0.00010  -0.00010   0.00000
    D4       -3.14131  -0.00001   0.00000  -0.00025  -0.00025  -3.14156
    D5        3.14153   0.00000   0.00000   0.00004   0.00004   3.14157
    D6       -0.00004  -0.00000   0.00000  -0.00003  -0.00003  -0.00007
    D7       -0.00018   0.00001   0.00000   0.00020   0.00020   0.00002
    D8        3.14144   0.00000   0.00000   0.00013   0.00013   3.14157
    D9        0.00011  -0.00000   0.00000  -0.00012  -0.00012  -0.00001
   D10       -3.14146  -0.00000   0.00000  -0.00009  -0.00009  -3.14155
   D11        3.14152   0.00000   0.00000   0.00004   0.00004   3.14156
   D12       -0.00004   0.00000   0.00000   0.00006   0.00006   0.00002
   D13       -0.00023   0.00001   0.00000   0.00022   0.00022  -0.00001
   D14        3.14142   0.00000   0.00000   0.00017   0.00017   3.14159
   D15        3.14133   0.00000   0.00000   0.00020   0.00020   3.14153
   D16       -0.00020   0.00000   0.00000   0.00014   0.00014  -0.00005
   D17        0.00016  -0.00000   0.00000  -0.00011  -0.00011   0.00004
   D18       -3.14145  -0.00000   0.00000  -0.00010  -0.00010  -3.14156
   D19       -3.14149  -0.00000   0.00000  -0.00007  -0.00007  -3.14156
   D20        0.00009  -0.00000   0.00000  -0.00006  -0.00006   0.00003
   D21        3.14146   0.00000   0.00000   0.00010   0.00010   3.14155
   D22       -0.00008   0.00000   0.00000   0.00005   0.00005  -0.00003
   D23        0.00005  -0.00000   0.00000  -0.00010  -0.00010  -0.00005
   D24       -3.14157  -0.00000   0.00000  -0.00002  -0.00002  -3.14159
   D25       -3.14152  -0.00000   0.00000  -0.00011  -0.00011   3.14156
   D26        0.00004  -0.00000   0.00000  -0.00003  -0.00003   0.00001
   D27       -0.00005   0.00000   0.00000   0.00004   0.00004  -0.00001
   D28        3.14152   0.00000   0.00000   0.00005   0.00005   3.14157
   D29        0.00000   0.00000   0.00000  -0.00001  -0.00001  -0.00001
   D30        2.09555  -0.00140   0.00000  -0.00959  -0.00956   2.08600
   D31       -2.09547   0.00140   0.00000   0.00950   0.00947  -2.08600
   D32        0.00005  -0.00000   0.00000  -0.00002  -0.00002   0.00002
   D33       -2.09492   0.00146   0.00000   0.01002   0.01000  -2.08493
   D34        2.09500  -0.00146   0.00000  -0.01003  -0.01001   2.08498
         Item               Value     Threshold  Converged?
 Maximum Force            0.012801     0.000450     NO 
 RMS     Force            0.003704     0.000300     NO 
 Maximum Displacement     0.063269     0.001800     NO 
 RMS     Displacement     0.015187     0.001200     NO 
 Predicted change in Energy=-1.298703D-03
 Lowest energy point so far.  Saving SCF results.
 GradGradGradGradGradGradGradGradGradGradGradGradGradGradGradGradGradGrad

 Leave Link  103 at Tue Sep 17 09:56:02 2024, MaxMem=  1342177280 cpu:               0.1 elap:               0.0
 (Enter /groups/ReismanLab/Software/Gaussian16_RevC/Linux_Binary_AVX2-enabled-CPU/g16/l202.exe)
                          Input orientation:                          
 ---------------------------------------------------------------------
 Center     Atomic      Atomic             Coordinates (Angstroms)
 Number     Number       Type             X           Y           Z
 ---------------------------------------------------------------------
      1         35           0       -2.545223   -0.174963    0.000135
      2          6           0       -0.663180    0.178794    0.000122
      3          6           0       -0.220532    1.497708    0.000131
      4          6           0        1.157993    1.784427    0.000066
      5          6           0        2.027109    0.712672    0.000005
      6          6           0        1.566957   -0.605242    0.000025
      7          6           0        0.221608   -0.914425    0.000055
      8          8           0        2.636952   -1.462171   -0.000002
      9          6           0        3.813181   -0.650450   -0.000053
     10          8           0        3.400058    0.716308   -0.000067
     11          1           0       -0.940885    2.306545    0.000211
     12          1           0        1.522374    2.805113    0.000109
     13          1           0       -0.132879   -1.936958    0.000071
     14          1           0        4.407508   -0.859514    0.900007
     15          1           0        4.407462   -0.859533   -0.900142
 ---------------------------------------------------------------------
                    Distance matrix (angstroms):
                    1          2          3          4          5
     1  Br   0.000000
     2  C    1.915002   0.000000
     3  C    2.863916   1.391212   0.000000
     4  C    4.189632   2.427906   1.408027   0.000000
     5  C    4.657694   2.742750   2.380792   1.379863   0.000000
     6  C    4.134630   2.363942   2.759984   2.424411   1.395936
     7  C    2.863941   1.406405   2.452319   2.856679   2.430489
     8  O    5.339648   3.685598   4.114134   3.567593   2.258727
     9  C    6.376158   4.552521   4.570057   3.602589   2.246810
    10  O    6.011716   4.098637   3.703952   2.483492   1.372954
    11  H    2.954959   2.145797   1.083109   2.162844   3.368890
    12  H    5.042440   3.416752   2.178768   1.083777   2.152456
    13  H    2.987312   2.181198   3.435784   3.938916   3.418492
    14  H    7.044065   5.253547   5.271151   4.284818   2.991333
    15  H    7.044073   5.253570   5.271186   4.284850   2.991350
                    6          7          8          9         10
     6  C    0.000000
     7  C    1.380419   0.000000
     8  O    1.370845   2.476673   0.000000
     9  C    2.246679   3.601261   1.429128   0.000000
    10  O    2.259813   3.572371   2.308268   1.427830   0.000000
    11  H    3.842886   3.424330   5.196550   5.598657   4.623055
    12  H    3.410646   3.940425   4.410441   4.145927   2.808701
    13  H    2.159377   1.082236   2.810228   4.150481   4.418310
    14  H    2.990544   4.281903   2.075592   1.098654   2.075645
    15  H    2.990557   4.281908   2.075603   1.098656   2.075637
                   11         12         13         14         15
    11  H    0.000000
    12  H    2.513208   0.000000
    13  H    4.319744   5.022659   0.000000
    14  H    6.280037   4.750084   4.752461   0.000000
    15  H    6.280087   4.750138   4.752464   1.800148   0.000000
 Stoichiometry    C7H5BrO2
 Framework group  C1[X(C7H5BrO2)]
 Deg. of freedom    39
 Full point group                 C1      NOp   1
 RotChk:  IX=0 Diff= 1.09D-03
 Largest Abelian subgroup         C1      NOp   1
 Largest concise Abelian subgroup C1      NOp   1
                         Standard orientation:                         
 ---------------------------------------------------------------------
 Center     Atomic      Atomic             Coordinates (Angstroms)
 Number     Number       Type             X           Y           Z
 ---------------------------------------------------------------------
      1         35           0        2.705410   -0.216016   -0.000068
      2          6           0        0.826977    0.156437   -0.000056
      3          6           0        0.397465    1.479687   -0.000064
      4          6           0       -0.978142    1.780098    0.000001
      5          6           0       -1.857871    0.717038    0.000061
      6          6           0       -1.410845   -0.605386    0.000042
      7          6           0       -0.068637   -0.927930    0.000012
      8          8           0       -2.489307   -1.451634    0.000068
      9          6           0       -3.657408   -0.628258    0.000120
     10          8           0       -3.230716    0.734324    0.000134
     11          1           0        1.125824    2.281321   -0.000144
     12          1           0       -1.332356    2.804356   -0.000042
     13          1           0        0.275665   -1.953938   -0.000005
     14          1           0       -4.253785   -0.831403   -0.899940
     15          1           0       -4.253738   -0.831422    0.900208
 ---------------------------------------------------------------------
 Rotational constants (GHZ):           3.2369756           0.4483454           0.3948057
 Leave Link  202 at Tue Sep 17 09:56:02 2024, MaxMem=  1342177280 cpu:               0.0 elap:               0.0
 (Enter /groups/ReismanLab/Software/Gaussian16_RevC/Linux_Binary_AVX2-enabled-CPU/g16/l301.exe)
 Standard basis: 6-31G(d,p) (6D, 7F)
 Ernie: Thresh=  0.10000D-02 Tol=  0.10000D-05 Strict=F.
 There are   190 symmetry adapted cartesian basis functions of A   symmetry.
 There are   190 symmetry adapted basis functions of A   symmetry.
   190 basis functions,   370 primitive gaussians,   190 cartesian basis functions
    49 alpha electrons       49 beta electrons
       nuclear repulsion energy       719.7939142073 Hartrees.
 IExCor=  402 DFT=T Ex+Corr=B3LYP ExCW=0 ScaHFX=  0.200000
 ScaDFX=  0.800000  0.720000  1.000000  0.810000 ScalE2=  1.000000  1.000000
 IRadAn=      5 IRanWt=     -1 IRanGd=            0 ICorTp=0 IEmpDi=141
 NAtoms=   15 NActive=   15 NUniq=   15 SFac= 1.00D+00 NAtFMM=   60 NAOKFM=F Big=F
 Integral buffers will be    131072 words long.
 Raffenetti 2 integral format.
 Two-electron integral symmetry is turned on.
 R6Disp:  Grimme-D3(BJ) Dispersion energy=       -0.0302424949 Hartrees.
 Nuclear repulsion after empirical dispersion term =      719.7636717124 Hartrees.
 Leave Link  301 at Tue Sep 17 09:56:02 2024, MaxMem=  1342177280 cpu:               0.1 elap:               0.0
 (Enter /groups/ReismanLab/Software/Gaussian16_RevC/Linux_Binary_AVX2-enabled-CPU/g16/l302.exe)
 NPDir=0 NMtPBC=     1 NCelOv=     1 NCel=       1 NClECP=     1 NCelD=      1
         NCelK=      1 NCelE2=     1 NClLst=     1 CellRange=     0.0.
 One-electron integrals computed using PRISM.
 One-electron integral symmetry used in STVInt
 NBasis=   190 RedAO= T EigKep=  4.12D-04  NBF=   190
 NBsUse=   190 1.00D-06 EigRej= -1.00D+00 NBFU=   190
 Precomputing XC quadrature grid using
 IXCGrd= 4 IRadAn=           5 IRanWt=          -1 IRanGd=           0 AccXCQ= 0.00D+00.
 Generated NRdTot=       0 NPtTot=           0 NUsed=           0 NTot=          32
 NSgBfM=   189   189   189   189   189 MxSgAt=    15 MxSgA2=    15.
 Leave Link  302 at Tue Sep 17 09:56:03 2024, MaxMem=  1342177280 cpu:               0.8 elap:               0.1
 (Enter /groups/ReismanLab/Software/Gaussian16_RevC/Linux_Binary_AVX2-enabled-CPU/g16/l303.exe)
 DipDrv:  MaxL=1.
 Leave Link  303 at Tue Sep 17 09:56:03 2024, MaxMem=  1342177280 cpu:               0.1 elap:               0.0
 (Enter /groups/ReismanLab/Software/Gaussian16_RevC/Linux_Binary_AVX2-enabled-CPU/g16/l401.exe)
 Initial guess from the checkpoint file:  "smiles_00064_conf_0.chk"
 B after Tr=    -0.000000    0.000000   -0.000000
         Rot=    1.000000    0.000004   -0.000014   -0.000117 Ang=   0.01 deg.
 Guess basis will be translated and rotated to current coordinates.
 JPrj=2 DoOrth=T DoCkMO=T.
 Generating alternative initial guess.
 ExpMin= 1.43D-01 ExpMax= 5.74D+05 ExpMxC= 5.74D+03 IAcc=3 IRadAn=         5 AccDes= 0.00D+00
 Harris functional with IExCor=  402 and IRadAn=       5 diagonalized for initial guess.
 HarFok:  IExCor=  402 AccDes= 0.00D+00 IRadAn=         5 IDoV= 1 UseB2=F ITyADJ=14
 ICtDFT=  3500011 ScaDFX=  1.000000  1.000000  1.000000  1.000000
 FoFCou: FMM=F IPFlag=           0 FMFlag=      100000 FMFlg1=           0
         NFxFlg=           0 DoJE=T BraDBF=F KetDBF=T FulRan=T
         wScrn=  0.000000 ICntrl=       500 IOpCl=  0 I1Cent=   200000004 NGrid=           0
         NMat0=    1 NMatS0=      1 NMatT0=    0 NMatD0=    1 NMtDS0=    0 NMtDT0=    0
 Petite list used in FoFCou.
 Harris En= -2992.00625070768    
 Leave Link  401 at Tue Sep 17 09:56:03 2024, MaxMem=  1342177280 cpu:               3.6 elap:               0.6
 (Enter /groups/ReismanLab/Software/Gaussian16_RevC/Linux_Binary_AVX2-enabled-CPU/g16/l502.exe)
 Integral symmetry usage will be decided dynamically.
 Closed shell SCF:
 Using DIIS extrapolation, IDIIS=  1040.
 NGot=  1342177280 LenX=  1342101191 LenY=  1342064650
 Requested convergence on RMS density matrix=1.00D-08 within  32 cycles.
 Requested convergence on MAX density matrix=1.00D-06.
 Requested convergence on             energy=1.00D-06.
 No special actions if energy rises.
 Fock matrices will be formed incrementally for  20 cycles.
 Integral accuracy reduced to 1.0D-05 until final iterations.

 Cycle   1  Pass 0  IDiag  1:
 FoFJK:  IHMeth= 1 ICntrl=       0 DoSepK=F KAlg= 0 I1Cent=           0 FoldK=F
 IRaf= 890000000 NMat=       1 IRICut=       1 DoRegI=T DoRafI=F ISym2E= 0 IDoP0=0 IntGTp=1.
 FoFCou: FMM=F IPFlag=           0 FMFlag=      100000 FMFlg1=           0
         NFxFlg=           0 DoJE=F BraDBF=F KetDBF=F FulRan=T
         wScrn=  0.000000 ICntrl=         0 IOpCl=  0 I1Cent=           0 NGrid=           0
         NMat0=    1 NMatS0=      1 NMatT0=    0 NMatD0=    1 NMtDS0=    0 NMtDT0=    0
 Symmetry not used in FoFCou.
 E= -2991.91763543775    
 DIIS: error= 1.65D-03 at cycle   1 NSaved=   1.
 NSaved= 1 IEnMin= 1 EnMin= -2991.91763543775     IErMin= 1 ErrMin= 1.65D-03
 ErrMax= 1.65D-03  0.00D+00 EMaxC= 1.00D-01 BMatC= 1.21D-03 BMatP= 1.21D-03
 IDIUse=3 WtCom= 9.83D-01 WtEn= 1.65D-02
 Coeff-Com:  0.100D+01
 Coeff-En:   0.100D+01
 Coeff:      0.100D+01
 Gap=     1.575 Goal=   None    Shift=    0.000
 GapD=    1.575 DampG=2.000 DampE=1.000 DampFc=2.0000 IDamp=-1.
 RMSDP=2.02D-04 MaxDP=3.17D-03              OVMax= 3.72D-03

 Cycle   2  Pass 0  IDiag  1:
 RMSU=  2.02D-04    CP:  1.00D+00
 E= -2991.91806770590     Delta-E=       -0.000432268150 Rises=F Damp=F
 DIIS: error= 4.73D-04 at cycle   2 NSaved=   2.
 NSaved= 2 IEnMin= 2 EnMin= -2991.91806770590     IErMin= 2 ErrMin= 4.73D-04
 ErrMax= 4.73D-04  0.00D+00 EMaxC= 1.00D-01 BMatC= 7.27D-05 BMatP= 1.21D-03
 IDIUse=3 WtCom= 9.95D-01 WtEn= 4.73D-03
 Coeff-Com:  0.883D-01 0.912D+00
 Coeff-En:   0.000D+00 0.100D+01
 Coeff:      0.879D-01 0.912D+00
 Gap=     0.200 Goal=   None    Shift=    0.000
 RMSDP=1.04D-04 MaxDP=3.03D-03 DE=-4.32D-04 OVMax= 5.45D-03

 Cycle   3  Pass 0  IDiag  1:
 RMSU=  1.02D-04    CP:  1.00D+00  9.08D-01
 E= -2991.91800020875     Delta-E=        0.000067497150 Rises=F Damp=F
 DIIS: error= 6.96D-04 at cycle   3 NSaved=   3.
 NSaved= 3 IEnMin= 2 EnMin= -2991.91806770590     IErMin= 2 ErrMin= 4.73D-04
 ErrMax= 6.96D-04  0.00D+00 EMaxC= 1.00D-01 BMatC= 1.32D-04 BMatP= 7.27D-05
 IDIUse=3 WtCom= 2.75D-01 WtEn= 7.25D-01
 Coeff-Com:  0.364D-02 0.576D+00 0.421D+00
 Coeff-En:   0.000D+00 0.635D+00 0.365D+00
 Coeff:      0.100D-02 0.619D+00 0.380D+00
 Gap=     0.200 Goal=   None    Shift=    0.000
 RMSDP=6.22D-05 MaxDP=2.02D-03 DE= 6.75D-05 OVMax= 4.14D-03

 Cycle   4  Pass 0  IDiag  1:
 RMSU=  2.29D-05    CP:  1.00D+00  9.67D-01  4.47D-01
 E= -2991.91813683275     Delta-E=       -0.000136624007 Rises=F Damp=F
 DIIS: error= 1.41D-04 at cycle   4 NSaved=   4.
 NSaved= 4 IEnMin= 4 EnMin= -2991.91813683275     IErMin= 4 ErrMin= 1.41D-04
 ErrMax= 1.41D-04  0.00D+00 EMaxC= 1.00D-01 BMatC= 4.39D-06 BMatP= 7.27D-05
 IDIUse=3 WtCom= 9.99D-01 WtEn= 1.41D-03
 Coeff-Com: -0.339D-02 0.306D+00 0.208D+00 0.489D+00
 Coeff-En:   0.000D+00 0.000D+00 0.000D+00 0.100D+01
 Coeff:     -0.339D-02 0.305D+00 0.208D+00 0.490D+00
 Gap=     0.200 Goal=   None    Shift=    0.000
 RMSDP=1.42D-05 MaxDP=3.42D-04 DE=-1.37D-04 OVMax= 8.20D-04

 Cycle   5  Pass 0  IDiag  1:
 RMSU=  7.39D-06    CP:  1.00D+00  9.77D-01  4.22D-01  4.88D-01
 E= -2991.91814084696     Delta-E=       -0.000004014208 Rises=F Damp=F
 DIIS: error= 2.57D-05 at cycle   5 NSaved=   5.
 NSaved= 5 IEnMin= 5 EnMin= -2991.91814084696     IErMin= 5 ErrMin= 2.57D-05
 ErrMax= 2.57D-05  0.00D+00 EMaxC= 1.00D-01 BMatC= 2.02D-07 BMatP= 4.39D-06
 IDIUse=1 WtCom= 1.00D+00 WtEn= 0.00D+00
 Coeff-Com: -0.165D-02 0.865D-01 0.600D-01 0.225D+00 0.630D+00
 Coeff:     -0.165D-02 0.865D-01 0.600D-01 0.225D+00 0.630D+00
 Gap=     0.200 Goal=   None    Shift=    0.000
 RMSDP=3.28D-06 MaxDP=8.46D-05 DE=-4.01D-06 OVMax= 1.75D-04

 Initial convergence to 1.0D-05 achieved.  Increase integral accuracy.
 Cycle   6  Pass 1  IDiag  1:
 E= -2991.91814445246     Delta-E=       -0.000003605498 Rises=F Damp=F
 DIIS: error= 3.06D-05 at cycle   1 NSaved=   1.
 NSaved= 1 IEnMin= 1 EnMin= -2991.91814445246     IErMin= 1 ErrMin= 3.06D-05
 ErrMax= 3.06D-05  0.00D+00 EMaxC= 1.00D-01 BMatC= 1.05D-07 BMatP= 1.05D-07
 IDIUse=1 WtCom= 1.00D+00 WtEn= 0.00D+00
 Coeff-Com:  0.100D+01
 Coeff:      0.100D+01
 Gap=     0.200 Goal=   None    Shift=    0.000
 RMSDP=3.28D-06 MaxDP=8.46D-05 DE=-3.61D-06 OVMax= 1.36D-04

 Cycle   7  Pass 1  IDiag  1:
 RMSU=  8.02D-06    CP:  1.00D+00
 E= -2991.91814445336     Delta-E=       -0.000000000904 Rises=F Damp=F
 DIIS: error= 1.56D-05 at cycle   2 NSaved=   2.
 NSaved= 2 IEnMin= 2 EnMin= -2991.91814445336     IErMin= 2 ErrMin= 1.56D-05
 ErrMax= 1.56D-05  0.00D+00 EMaxC= 1.00D-01 BMatC= 8.10D-08 BMatP= 1.05D-07
 IDIUse=1 WtCom= 1.00D+00 WtEn= 0.00D+00
 Coeff-Com:  0.457D+00 0.543D+00
 Coeff:      0.457D+00 0.543D+00
 Gap=     0.200 Goal=   None    Shift=    0.000
 RMSDP=2.13D-06 MaxDP=7.08D-05 DE=-9.04D-10 OVMax= 1.40D-04

 Cycle   8  Pass 1  IDiag  1:
 RMSU=  2.07D-06    CP:  1.00D+00  9.39D-01
 E= -2991.91814450445     Delta-E=       -0.000000051088 Rises=F Damp=F
 DIIS: error= 9.89D-06 at cycle   3 NSaved=   3.
 NSaved= 3 IEnMin= 3 EnMin= -2991.91814450445     IErMin= 3 ErrMin= 9.89D-06
 ErrMax= 9.89D-06  0.00D+00 EMaxC= 1.00D-01 BMatC= 2.35D-08 BMatP= 8.10D-08
 IDIUse=1 WtCom= 1.00D+00 WtEn= 0.00D+00
 Coeff-Com:  0.359D-01 0.346D+00 0.618D+00
 Coeff:      0.359D-01 0.346D+00 0.618D+00
 Gap=     0.200 Goal=   None    Shift=    0.000
 RMSDP=9.56D-07 MaxDP=2.49D-05 DE=-5.11D-08 OVMax= 6.42D-05

 Cycle   9  Pass 1  IDiag  1:
 RMSU=  4.17D-07    CP:  1.00D+00  9.71D-01  6.04D-01
 E= -2991.91814452451     Delta-E=       -0.000000020063 Rises=F Damp=F
 DIIS: error= 3.21D-06 at cycle   4 NSaved=   4.
 NSaved= 4 IEnMin= 4 EnMin= -2991.91814452451     IErMin= 4 ErrMin= 3.21D-06
 ErrMax= 3.21D-06  0.00D+00 EMaxC= 1.00D-01 BMatC= 2.21D-09 BMatP= 2.35D-08
 IDIUse=1 WtCom= 1.00D+00 WtEn= 0.00D+00
 Coeff-Com:  0.941D-04 0.189D+00 0.382D+00 0.429D+00
 Coeff:      0.941D-04 0.189D+00 0.382D+00 0.429D+00
 Gap=     0.200 Goal=   None    Shift=    0.000
 RMSDP=2.69D-07 MaxDP=1.12D-05 DE=-2.01D-08 OVMax= 2.05D-05

 Cycle  10  Pass 1  IDiag  1:
 RMSU=  1.09D-07    CP:  1.00D+00  9.70D-01  6.61D-01  4.83D-01
 E= -2991.91814452666     Delta-E=       -0.000000002148 Rises=F Damp=F
 DIIS: error= 6.35D-07 at cycle   5 NSaved=   5.
 NSaved= 5 IEnMin= 5 EnMin= -2991.91814452666     IErMin= 5 ErrMin= 6.35D-07
 ErrMax= 6.35D-07  0.00D+00 EMaxC= 1.00D-01 BMatC= 9.58D-11 BMatP= 2.21D-09
 IDIUse=1 WtCom= 1.00D+00 WtEn= 0.00D+00
 Coeff-Com: -0.185D-02 0.942D-01 0.194D+00 0.257D+00 0.457D+00
 Coeff:     -0.185D-02 0.942D-01 0.194D+00 0.257D+00 0.457D+00
 Gap=     0.200 Goal=   None    Shift=    0.000
 RMSDP=5.75D-08 MaxDP=1.93D-06 DE=-2.15D-09 OVMax= 3.32D-06

 Cycle  11  Pass 1  IDiag  1:
 RMSU=  2.49D-08    CP:  1.00D+00  9.71D-01  6.55D-01  4.97D-01  5.47D-01
 E= -2991.91814452672     Delta-E=       -0.000000000054 Rises=F Damp=F
 DIIS: error= 9.76D-08 at cycle   6 NSaved=   6.
 NSaved= 6 IEnMin= 6 EnMin= -2991.91814452672     IErMin= 6 ErrMin= 9.76D-08
 ErrMax= 9.76D-08  0.00D+00 EMaxC= 1.00D-01 BMatC= 1.86D-12 BMatP= 9.58D-11
 IDIUse=1 WtCom= 1.00D+00 WtEn= 0.00D+00
 Coeff-Com: -0.921D-03 0.410D-01 0.846D-01 0.114D+00 0.227D+00 0.534D+00
 Coeff:     -0.921D-03 0.410D-01 0.846D-01 0.114D+00 0.227D+00 0.534D+00
 Gap=     0.200 Goal=   None    Shift=    0.000
 RMSDP=1.01D-08 MaxDP=3.17D-07 DE=-5.41D-11 OVMax= 5.61D-07

 Cycle  12  Pass 1  IDiag  1:
 RMSU=  8.73D-09    CP:  1.00D+00  9.71D-01  6.54D-01  4.91D-01  5.52D-01
                    CP:  8.42D-01
 E= -2991.91814452677     Delta-E=       -0.000000000058 Rises=F Damp=F
 DIIS: error= 4.16D-08 at cycle   7 NSaved=   7.
 NSaved= 7 IEnMin= 7 EnMin= -2991.91814452677     IErMin= 7 ErrMin= 4.16D-08
 ErrMax= 4.16D-08  0.00D+00 EMaxC= 1.00D-01 BMatC= 2.36D-13 BMatP= 1.86D-12
 IDIUse=1 WtCom= 1.00D+00 WtEn= 0.00D+00
 Coeff-Com: -0.192D-03 0.683D-02 0.142D-01 0.196D-01 0.466D-01 0.274D+00
 Coeff-Com:  0.639D+00
 Coeff:     -0.192D-03 0.683D-02 0.142D-01 0.196D-01 0.466D-01 0.274D+00
 Coeff:      0.639D+00
 Gap=     0.200 Goal=   None    Shift=    0.000
 RMSDP=3.87D-09 MaxDP=1.38D-07 DE=-5.82D-11 OVMax= 3.59D-07

 SCF Done:  E(RB3LYP) =  -2991.91814453     A.U. after   12 cycles
            NFock= 12  Conv=0.39D-08     -V/T= 2.0066
 KE= 2.972382477346D+03 PE=-8.552282373178D+03 EE= 1.868218079593D+03
 Leave Link  502 at Tue Sep 17 09:56:10 2024, MaxMem=  1342177280 cpu:              53.6 elap:               7.1
 (Enter /groups/ReismanLab/Software/Gaussian16_RevC/Linux_Binary_AVX2-enabled-CPU/g16/l508.exe)
 QCSCF skips out because SCF is already converged.
 Leave Link  508 at Tue Sep 17 09:56:10 2024, MaxMem=  1342177280 cpu:               0.0 elap:               0.0
 (Enter /groups/ReismanLab/Software/Gaussian16_RevC/Linux_Binary_AVX2-enabled-CPU/g16/l701.exe)
 ... and contract with generalized density number  0.
 Compute integral first derivatives.
 R6Disp: Adding Grimme-D3(BJ) dispersion energy 1st derivatives to the gradient.
 Leave Link  701 at Tue Sep 17 09:56:10 2024, MaxMem=  1342177280 cpu:               0.7 elap:               0.1
 (Enter /groups/ReismanLab/Software/Gaussian16_RevC/Linux_Binary_AVX2-enabled-CPU/g16/l702.exe)
 L702 exits ... SP integral derivatives will be done elsewhere.
 Leave Link  702 at Tue Sep 17 09:56:10 2024, MaxMem=  1342177280 cpu:               0.1 elap:               0.0
 (Enter /groups/ReismanLab/Software/Gaussian16_RevC/Linux_Binary_AVX2-enabled-CPU/g16/l703.exe)
 Integral derivatives from FoFJK, PRISM(SPDF).
 Compute integral first derivatives, UseDBF=F ICtDFT=           0.
 Calling FoFJK, ICntrl=      2127 FMM=F ISym2X=0 I1Cent= 0 IOpClX= 0 NMat=1 NMatS=1 NMatT=0.
 FoFJK:  IHMeth= 1 ICntrl=    2127 DoSepK=F KAlg= 0 I1Cent=           0 FoldK=F
 IRaf=         0 NMat=       1 IRICut=       1 DoRegI=T DoRafI=F ISym2E= 0 IDoP0=0 IntGTp=1.
 FoFCou: FMM=F IPFlag=           0 FMFlag=      100000 FMFlg1=         800
         NFxFlg=           0 DoJE=F BraDBF=F KetDBF=F FulRan=T
         wScrn=  0.000000 ICntrl=      2127 IOpCl=  0 I1Cent=           0 NGrid=           0
         NMat0=    1 NMatS0=      1 NMatT0=    0 NMatD0=    1 NMtDS0=    0 NMtDT0=    0
 Symmetry not used in FoFCou.
 Leave Link  703 at Tue Sep 17 09:56:13 2024, MaxMem=  1342177280 cpu:              17.9 elap:               2.3
 (Enter /groups/ReismanLab/Software/Gaussian16_RevC/Linux_Binary_AVX2-enabled-CPU/g16/l716.exe)
 Dipole        =-8.79352096D-01 7.85661355D-02-6.95180916D-06
 ***** Axes restored to original set *****
 -------------------------------------------------------------------
 Center     Atomic                   Forces (Hartrees/Bohr)
 Number     Number              X              Y              Z
 -------------------------------------------------------------------
      1       35           0.001537505    0.000249382    0.000001238
      2        6           0.001090999    0.000460975   -0.000003808
      3        6          -0.000369616   -0.000604445    0.000001314
      4        6           0.000890711    0.000017025    0.000002894
      5        6          -0.001033804   -0.002653238   -0.000000017
      6        6           0.000889803    0.003067893   -0.000001477
      7        6           0.000235390   -0.001088504    0.000003934
      8        8          -0.002751141   -0.004827967   -0.000001604
      9        6           0.002301851   -0.000745448   -0.000001396
     10        8           0.000414159    0.005136392    0.000001587
     11        1           0.000216257   -0.000129245   -0.000001297
     12        1          -0.000321620   -0.000188907   -0.000001826
     13        1          -0.000050224    0.000279129   -0.000000983
     14        1          -0.001524441    0.000513951   -0.000219458
     15        1          -0.001525829    0.000513007    0.000220898
 -------------------------------------------------------------------
 Cartesian Forces:  Max     0.005136392 RMS     0.001441624
 Leave Link  716 at Tue Sep 17 09:56:13 2024, MaxMem=  1342177280 cpu:               0.0 elap:               0.0
 (Enter /groups/ReismanLab/Software/Gaussian16_RevC/Linux_Binary_AVX2-enabled-CPU/g16/l103.exe)

 GradGradGradGradGradGradGradGradGradGradGradGradGradGradGradGradGradGrad
 Berny optimization.
 Using GEDIIS/GDIIS optimizer.
 FormGI is forming the generalized inverse of G from B-inverse, IUseBI=4.
 Internal  Forces:  Max     0.003014197 RMS     0.000935532
 Search for a local minimum.
 Step number   2 out of a maximum of   86
 All quantities printed in internal units (Hartrees-Bohrs-Radians)
 RMS Force = .93553D-03 SwitMx=.10000D-02 MixMth= 2
 Mixed Optimization -- En-DIIS/RFO-DIIS
 Update second derivatives using D2CorX and points    1    2
 DE= -1.21D-03 DEPred=-1.30D-03 R= 9.33D-01
 TightC=F SS=  1.41D+00  RLast= 8.49D-02 DXNew= 5.0454D-01 2.5464D-01
 Trust test= 9.33D-01 RLast= 8.49D-02 DXMaxT set to 3.00D-01
 ITU=  1  0
 Use linear search instead of GDIIS.
     Eigenvalues ---    0.01643   0.02127   0.02210   0.02243   0.02256
     Eigenvalues ---    0.02261   0.02265   0.02307   0.02340   0.02367
     Eigenvalues ---    0.07545   0.09813   0.11843   0.12096   0.15979
     Eigenvalues ---    0.16000   0.16008   0.18551   0.22404   0.23398
     Eigenvalues ---    0.24578   0.24994   0.25000   0.25640   0.32532
     Eigenvalues ---    0.33531   0.35313   0.36231   0.36410   0.36740
     Eigenvalues ---    0.42193   0.42462   0.43595   0.47178   0.47912
     Eigenvalues ---    0.48977   0.49167   0.51050   0.55416
 RFO step:  Lambda=-2.15888175D-04 EMin= 1.64305357D-02
 Quartic linear search produced a step of -0.04923.
 Iteration  1 RMS(Cart)=  0.00445573 RMS(Int)=  0.00001134
 Iteration  2 RMS(Cart)=  0.00001561 RMS(Int)=  0.00000501
 Iteration  3 RMS(Cart)=  0.00000000 RMS(Int)=  0.00000501
 ITry= 1 IFail=0 DXMaxC= 1.75D-02 DCOld= 1.00D+10 DXMaxT= 3.00D-01 DXLimC= 3.00D+00 Rises=F
 Variable       Old X    -DE/DX   Delta X   Delta X   Delta X     New X
                                 (Linear)    (Quad)   (Total)
    R1        3.61883  -0.00156  -0.00144  -0.00428  -0.00571   3.61312
    R2        2.62901  -0.00123  -0.00090   0.00006  -0.00084   2.62817
    R3        2.65772  -0.00110  -0.00111   0.00075  -0.00036   2.65736
    R4        2.66078  -0.00099  -0.00138   0.00171   0.00033   2.66112
    R5        2.04678  -0.00024  -0.00045   0.00056   0.00012   2.04690
    R6        2.60756  -0.00097  -0.00057  -0.00029  -0.00087   2.60669
    R7        2.04804  -0.00029  -0.00069   0.00109   0.00041   2.04845
    R8        2.63794  -0.00046   0.00026  -0.00209  -0.00182   2.63611
[...]
      3 vectors produced by pass  6 Test12= 5.03D-13 3.33D-08 XBig12= 1.48D-11 9.54D-07.
      2 vectors produced by pass  7 Test12= 5.03D-13 3.33D-08 XBig12= 1.65D-13 1.39D-07.
 InvSVY:  IOpt=1 It=  1 EMax= 1.33D-15
 Solved reduced A of dimension    23 with     3 vectors.
 Calculating GIAO nuclear magnetic shielding tensors.
 SCF GIAO Magnetic shielding tensor (ppm):
      1  Br   Isotropic =  2093.3603   Anisotropy =  1312.5542
   XX=  2919.5578   YX=  -255.1404   ZX=    -0.0488
   XY=  -234.8376   YY=  1739.4585   ZY=     0.0084
   XZ=    -0.0431   YZ=     0.0092   ZZ=  1621.0646
   Eigenvalues:  1621.0646  1690.6199  2968.3964
      2  C    Isotropic =    35.6893   Anisotropy =   128.7381
   XX=   -69.3633   YX=    18.0049   ZX=     0.0071
   XY=    23.6457   YY=    54.9164   ZY=     0.0003
   XZ=     0.0060   YZ=     0.0007   ZZ=   121.5147
   Eigenvalues:   -72.7601    58.3132   121.5147
      3  C    Isotropic =    39.9819   Anisotropy =   171.1195
   XX=   -16.6408   YX=   -46.7645   ZX=     0.0069
   XY=   -57.3401   YY=   -17.4750   ZY=     0.0049
   XZ=     0.0072   YZ=     0.0043   ZZ=   154.0616
   Eigenvalues:   -69.1119    34.9961   154.0616
      4  C    Isotropic =    57.3496   Anisotropy =   173.9364
   XX=    19.7977   YX=    34.8327   ZX=     0.0050
   XY=    15.3659   YY=   -21.0561   ZY=     0.0027
   XZ=     0.0054   YZ=     0.0018   ZZ=   173.3072
   Eigenvalues:   -32.9901    31.7317   173.3072
      5  C    Isotropic =    17.1889   Anisotropy =   125.8688
   XX=   -65.8881   YX=     7.1594   ZX=     0.0059
   XY=    25.1456   YY=    16.3534   ZY=     0.0007
   XZ=     0.0063   YZ=     0.0016   ZZ=   101.1014
   Eigenvalues:   -68.9468    19.4120   101.1014
      6  C    Isotropic =    15.7532   Anisotropy =   123.6881
   XX=   -22.2153   YX=   -37.0055   ZX=     0.0053
   XY=   -52.2221   YY=   -28.7369   ZY=     0.0046
   XZ=     0.0056   YZ=     0.0039   ZZ=    98.2120
   Eigenvalues:   -70.2089    19.2567    98.2120
      7  C    Isotropic =    54.2849   Anisotropy =   146.9056
   XX=    36.2390   YX=     4.2549   ZX=     0.0042
   XY=    25.0746   YY=   -25.6061   ZY=     0.0025
   XZ=     0.0039   YZ=     0.0031   ZZ=   152.2220
   Eigenvalues:   -28.9073    39.5401   152.2220
      8  O    Isotropic =   198.7062   Anisotropy =   157.1951
   XX=   184.4407   YX=    94.0577   ZX=    -0.0028
   XY=    62.4866   YY=   252.0464   ZY=    -0.0033
   XZ=    -0.0018   YZ=    -0.0086   ZZ=   159.6315
   Eigenvalues:   132.9841   159.6315   303.5030
      9  C    Isotropic =    76.0578   Anisotropy =    54.5777
   XX=    78.6396   YX=   -11.7611   ZX=    -0.0010
   XY=   -11.8319   YY=   108.3262   ZY=    -0.0008
   XZ=     0.0001   YZ=    -0.0005   ZZ=    41.2075
   Eigenvalues:    41.2075    74.5229   112.4429
     10  O    Isotropic =   201.9494   Anisotropy =   155.5804
   XX=   287.7404   YX=   -67.9537   ZX=    -0.0024
   XY=   -36.4035   YY=   153.8168   ZY=     0.0008
   XZ=    -0.0060   YZ=     0.0046   ZZ=   164.2910
   Eigenvalues:   135.8876   164.2910   305.6696
     11  H    Isotropic =    24.2543   Anisotropy =     9.4029
   XX=    26.0453   YX=    -4.3899   ZX=    -0.0002
   XY=    -3.7247   YY=    26.8464   ZY=     0.0000
   XZ=    -0.0001   YZ=     0.0000   ZZ=    19.8711
   Eigenvalues:    19.8711    22.3688    30.5229
     12  H    Isotropic =    24.4252   Anisotropy =     4.7843
   XX=    27.1228   YX=     1.5301   ZX=    -0.0002
   XY=     0.7581   YY=    24.9538   ZY=    -0.0001
   XZ=    -0.0002   YZ=    -0.0001   ZZ=    21.1989
   Eigenvalues:    21.1989    24.4619    27.6147
     13  H    Isotropic =    24.3366   Anisotropy =     9.1524
   XX=    29.4680   YX=     2.5624   ZX=    -0.0004
   XY=     2.5360   YY=    23.7403   ZY=    -0.0002
   XZ=    -0.0004   YZ=    -0.0002   ZZ=    19.8015
   Eigenvalues:    19.8015    22.7701    30.4382
     14  H    Isotropic =    25.6827   Anisotropy =     6.5385
   XX=    27.7092   YX=     0.5256   ZX=     2.9985
   XY=     0.5024   YY=    26.0711   ZY=     1.0085
   XZ=     4.2920   YZ=     1.4614   ZZ=    23.2678
   Eigenvalues:    21.0802    25.9263    30.0417
     15  H    Isotropic =    25.6827   Anisotropy =     6.5384
   XX=    27.7089   YX=     0.5255   ZX=    -2.9987
   XY=     0.5022   YY=    26.0710   ZY=    -1.0086
   XZ=    -4.2920   YZ=    -1.4615   ZZ=    23.2682
   Eigenvalues:    21.0803    25.9263    30.0416
 End of Minotr F.D. properties file   721 does not exist.
 End of Minotr F.D. properties file   722 does not exist.
 End of Minotr F.D. properties file   788 does not exist.
 Leave Link 1002 at Tue Sep 17 10:26:24 2024, MaxMem=  1342177280 cpu:             420.6 elap:             421.5
 (Enter /groups/ReismanLab/Software/Gaussian16_RevC/Linux_Binary_AVX2-enabled-CPU/g16/l601.exe)
 Copying SCF densities to generalized density rwf, IOpCl= 0 IROHF=0.

 **********************************************************************

            Population analysis using the SCF Density.

 **********************************************************************

 Orbital symmetries:
       Occupied  (A) (A) (A) (A) (A) (A) (A) (A) (A) (A) (A) (A)
                 (A) (A) (A) (A) (A) (A) (A) (A) (A) (A) (A) (A)
                 (A) (A) (A) (A) (A) (A) (A) (A) (A) (A) (A) (A)
                 (A) (A) (A) (A) (A) (A) (A) (A) (A) (A) (A) (A)
                 (A)
       Virtual   (A) (A) (A) (A) (A) (A) (A) (A) (A) (A) (A) (A)
                 (A) (A) (A) (A) (A) (A) (A) (A) (A) (A) (A) (A)
                 (A) (A) (A) (A) (A) (A) (A) (A) (A) (A) (A) (A)
                 (A) (A) (A) (A) (A) (A) (A) (A) (A) (A) (A) (A)
                 (A) (A) (A) (A) (A) (A) (A) (A) (A) (A) (A) (A)
                 (A) (A) (A) (A) (A) (A) (A) (A) (A) (A) (A) (A)
                 (A) (A) (A) (A) (A) (A) (A) (A) (A) (A) (A) (A)
                 (A) (A) (A) (A) (A) (A) (A) (A) (A) (A) (A) (A)
                 (A) (A) (A) (A) (A) (A) (A) (A) (A) (A) (A) (A)
                 (A) (A) (A) (A) (A) (A) (A) (A) (A) (A) (A) (A)
                 (A) (A) (A) (A) (A) (A) (A) (A) (A) (A) (A) (A)
                 (A) (A) (A) (A) (A) (A) (A) (A) (A) (A) (A) (A)
                 (A) (A) (A) (A) (A) (A) (A) (A) (A) (A) (A) (A)
                 (A) (A) (A) (A) (A) (A) (A) (A) (A) (A) (A) (A)
                 (A) (A) (A) (A) (A) (A) (A) (A) (A) (A) (A) (A)
                 (A) (A) (A) (A) (A) (A) (A) (A) (A) (A) (A) (A)
                 (A) (A) (A) (A) (A) (A) (A) (A) (A) (A) (A) (A)
                 (A) (A) (A) (A) (A) (A) (A) (A) (A) (A) (A) (A)
                 (A) (A) (A) (A) (A) (A) (A) (A) (A) (A) (A) (A)
                 (A) (A) (A) (A) (A) (A) (A) (A) (A) (A) (A) (A)
                 (A) (A) (A) (A) (A) (A) (A) (A) (A) (A) (A) (A)
                 (A) (A) (A) (A) (A) (A) (A) (A) (A) (A) (A) (A)
                 (A) (A) (A) (A) (A) (A) (A) (A) (A) (A) (A) (A)
                 (A) (A) (A) (A) (A) (A) (A) (A) (A) (A) (A) (A)
                 (A) (A) (A) (A) (A) (A) (A) (A) (A) (A) (A) (A)
                 (A) (A) (A) (A) (A) (A) (A) (A)
 The electronic state is 1-A.
 Alpha  occ. eigenvalues -- -485.37447 -63.35925 -57.17871 -57.17632 -57.17629
 Alpha  occ. eigenvalues --  -19.67912 -19.67798 -10.66267 -10.61710 -10.61378
 Alpha  occ. eigenvalues --  -10.60485 -10.56253 -10.55980 -10.55717  -9.02569
 Alpha  occ. eigenvalues --   -6.84980  -6.84096  -6.84085  -2.88356  -2.88034
 Alpha  occ. eigenvalues --   -2.88018  -2.87194  -2.87194  -1.25879  -1.16581
 Alpha  occ. eigenvalues --   -0.98496  -0.90409  -0.86508  -0.83212  -0.76637
 Alpha  occ. eigenvalues --   -0.72271  -0.70286  -0.61079  -0.60842  -0.60052
 Alpha  occ. eigenvalues --   -0.56765  -0.52609  -0.50935  -0.49458  -0.48192
 Alpha  occ. eigenvalues --   -0.47023  -0.46488  -0.43884  -0.42173  -0.41796
 Alpha  occ. eigenvalues --   -0.35552  -0.35158  -0.31210  -0.26838
 Alpha virt. eigenvalues --    0.01081   0.02371   0.03483   0.08497   0.10152
 Alpha virt. eigenvalues --    0.11052   0.11785   0.12444   0.13944   0.14256
 Alpha virt. eigenvalues --    0.16245   0.18064   0.18411   0.20024   0.21804
 Alpha virt. eigenvalues --    0.22442   0.23156   0.24435   0.24823   0.26166
 Alpha virt. eigenvalues --    0.26513   0.27552   0.27829   0.28888   0.30889
 Alpha virt. eigenvalues --    0.31176   0.31474   0.32507   0.34733   0.35831
 Alpha virt. eigenvalues --    0.36494   0.37123   0.37262   0.38297   0.39310
 Alpha virt. eigenvalues --    0.39850   0.40728   0.42663   0.44383   0.44863
 Alpha virt. eigenvalues --    0.46119   0.46288   0.46862   0.46958   0.48387
 Alpha virt. eigenvalues --    0.48425   0.50396   0.52419   0.54831   0.55844
 Alpha virt. eigenvalues --    0.57222   0.58232   0.59311   0.60040   0.61105
 Alpha virt. eigenvalues --    0.62039   0.63115   0.66042   0.67356   0.70401
 Alpha virt. eigenvalues --    0.72815   0.73371   0.73545   0.74769   0.75680
 Alpha virt. eigenvalues --    0.76335   0.80755   0.81361   0.83858   0.84633
 Alpha virt. eigenvalues --    0.85872   0.86315   0.89048   0.89317   0.90026
 Alpha virt. eigenvalues --    0.91519   0.92712   0.93343   0.98434   0.99045
 Alpha virt. eigenvalues --    0.99889   1.04076   1.09049   1.09518   1.10396
 Alpha virt. eigenvalues --    1.11474   1.13038   1.16539   1.17179   1.20850
 Alpha virt. eigenvalues --    1.20886   1.23626   1.25115   1.25652   1.25665
 Alpha virt. eigenvalues --    1.27828   1.29877   1.36589   1.38358   1.39128
 Alpha virt. eigenvalues --    1.40477   1.40850   1.43033   1.45713   1.46863
 Alpha virt. eigenvalues --    1.47975   1.48801   1.50473   1.51726   1.52913
 Alpha virt. eigenvalues --    1.54036   1.54109   1.57177   1.57825   1.58759
 Alpha virt. eigenvalues --    1.60150   1.62558   1.64206   1.65472   1.65731
 Alpha virt. eigenvalues --    1.66601   1.68612   1.70360   1.73470   1.74252
 Alpha virt. eigenvalues --    1.74539   1.74640   1.76691   1.81362   1.83389
 Alpha virt. eigenvalues --    1.84256   1.86064   1.86071   1.88916   1.89782
 Alpha virt. eigenvalues --    1.92582   1.93870   1.95553   1.95859   1.96345
 Alpha virt. eigenvalues --    1.98743   1.99744   2.02047   2.04214   2.09225
 Alpha virt. eigenvalues --    2.11718   2.13859   2.14664   2.18057   2.18311
 Alpha virt. eigenvalues --    2.23568   2.24793   2.26218   2.27515   2.28842
 Alpha virt. eigenvalues --    2.29599   2.34591   2.40077   2.41613   2.44779
 Alpha virt. eigenvalues --    2.46329   2.48197   2.51682   2.52945   2.54727
 Alpha virt. eigenvalues --    2.58105   2.60368   2.63281   2.64338   2.65459
 Alpha virt. eigenvalues --    2.68361   2.69307   2.71439   2.72318   2.73995
 Alpha virt. eigenvalues --    2.76004   2.78295   2.79050   2.79864   2.80404
 Alpha virt. eigenvalues --    2.83544   2.84775   2.85582   2.85961   2.87365
 Alpha virt. eigenvalues --    2.90390   2.91291   2.92682   2.93947   2.96533
 Alpha virt. eigenvalues --    3.02467   3.04488   3.05938   3.06417   3.09502
 Alpha virt. eigenvalues --    3.10361   3.12170   3.13654   3.17310   3.18205
 Alpha virt. eigenvalues --    3.18365   3.19131   3.20441   3.22345   3.24411
 Alpha virt. eigenvalues --    3.26116   3.27930   3.28624   3.31084   3.31303
 Alpha virt. eigenvalues --    3.35539   3.35543   3.36436   3.36880   3.37400
 Alpha virt. eigenvalues --    3.39824   3.40116   3.41536   3.43280   3.45711
 Alpha virt. eigenvalues --    3.45822   3.50493   3.51092   3.53602   3.56737
 Alpha virt. eigenvalues --    3.58145   3.61181   3.61344   3.64274   3.67097
 Alpha virt. eigenvalues --    3.68960   3.72575   3.76468   3.78393   3.85495
 Alpha virt. eigenvalues --    3.91353   3.97903   3.98933   3.99923   4.05106
 Alpha virt. eigenvalues --    4.06216   4.06922   4.12908   4.14067   4.14225
 Alpha virt. eigenvalues --    4.15973   4.16700   4.16995   4.17786   4.21029
 Alpha virt. eigenvalues --    4.22422   4.25829   4.28897   4.30361   4.36573
 Alpha virt. eigenvalues --    4.43851   4.48871   4.52297   4.54720   4.55311
 Alpha virt. eigenvalues --    4.59392   4.64117   4.66160   4.71867   4.77643
 Alpha virt. eigenvalues --    4.84653   4.87183   4.96871   4.97837   5.04842
 Alpha virt. eigenvalues --    5.13522   5.22072   5.30966   5.41697   5.42915
 Alpha virt. eigenvalues --    5.45191   5.57025   5.66642   5.70492   5.71407
 Alpha virt. eigenvalues --    5.74400   5.83125   5.89495   5.95627   6.06725
 Alpha virt. eigenvalues --    6.17780   6.25824   6.62759   6.63483   6.67461
 Alpha virt. eigenvalues --    6.73350   6.78821   6.80258   6.86161   7.10347
 Alpha virt. eigenvalues --    7.12516   7.22064   7.41440   7.85677  22.22504
 Alpha virt. eigenvalues --   22.47608  22.69896  22.77459  22.94647  23.01263
 Alpha virt. eigenvalues --   23.48719  44.20744  44.38477
          Condensed to atoms (all electrons):
               1          2          3          4          5          6
     1  Br  34.936717   0.356836  -0.105151   0.024937  -0.005848   0.024150
     2  C    0.356836   4.880776   0.444379   0.022903  -0.074162  -0.004655
     3  C   -0.105151   0.444379   5.116446   0.377613  -0.015365  -0.088089
     4  C    0.024937   0.022903   0.377613   5.137636   0.411779   0.035935
     5  C   -0.005848  -0.074162  -0.015365   0.411779   4.912784   0.382013
     6  C    0.024150  -0.004655  -0.088089   0.035935   0.382013   4.946553
     7  C   -0.096182   0.399302   0.008287  -0.091216   0.028241   0.356707
     8  O   -0.000165   0.001563   0.000707   0.007478  -0.100635   0.330240
     9  C   -0.000000  -0.000898  -0.000451   0.003655  -0.054997  -0.060758
    10  O   -0.000001   0.000107   0.003165  -0.043626   0.332605  -0.102649
    11  H   -0.007280  -0.050646   0.427305  -0.043172   0.009056  -0.003000
    12  H   -0.000181   0.002333  -0.026669   0.397319  -0.022793   0.007857
    13  H   -0.008760  -0.035257   0.011482  -0.004297   0.009530  -0.019252
    14  H    0.000000  -0.000026  -0.000025   0.000562   0.004591   0.004276
    15  H    0.000000  -0.000026  -0.000025   0.000561   0.004590   0.004276
               7          8          9         10         11         12
     1  Br  -0.096182  -0.000165  -0.000000  -0.000001  -0.007280  -0.000181
     2  C    0.399302   0.001563  -0.000898   0.000107  -0.050646   0.002333
     3  C    0.008287   0.000707  -0.000451   0.003165   0.427305  -0.026669
     4  C   -0.091216   0.007478   0.003655  -0.043626  -0.043172   0.397319
     5  C    0.028241  -0.100635  -0.054997   0.332605   0.009056  -0.022793
     6  C    0.356707   0.330240  -0.060758  -0.102649  -0.003000   0.007857
     7  C    5.268675  -0.041828   0.003999   0.008396   0.012734  -0.001326
     8  O   -0.041828   7.935780   0.268469  -0.024265   0.000017  -0.000103
     9  C    0.003999   0.268469   4.641956   0.269003   0.000034  -0.000356
    10  O    0.008396  -0.024265   0.269003   7.936184  -0.000082   0.001860
    11  H    0.012734   0.000017   0.000034  -0.000082   0.477887  -0.003013
    12  H   -0.001326  -0.000103  -0.000356   0.001860  -0.003013   0.467381
    13  H    0.392377   0.002204  -0.000176  -0.000076   0.000069   0.000048
    14  H    0.000520  -0.041736   0.415308  -0.041972  -0.000000  -0.000012
    15  H    0.000520  -0.041735   0.415308  -0.041970  -0.000000  -0.000012
              13         14         15
     1  Br  -0.008760   0.000000   0.000000
     2  C   -0.035257  -0.000026  -0.000026
     3  C    0.011482  -0.000025  -0.000025
     4  C   -0.004297   0.000562   0.000561
     5  C    0.009530   0.004591   0.004590
     6  C   -0.019252   0.004276   0.004276
     7  C    0.392377   0.000520   0.000520
     8  O    0.002204  -0.041736  -0.041735
     9  C   -0.000176   0.415308   0.415308
    10  O   -0.000076  -0.041972  -0.041970
    11  H    0.000069  -0.000000  -0.000000
    12  H    0.000048  -0.000012  -0.000012
    13  H    0.459826  -0.000013  -0.000013
    14  H   -0.000013   0.578679  -0.060240
    15  H   -0.000013  -0.060240   0.578676
 Mulliken charges:
               1
     1  Br  -0.119073
     2  C    0.057470
     3  C   -0.153608
     4  C   -0.238068
     5  C    0.178610
     6  C    0.186396
     7  C   -0.249206
     8  O   -0.295991
     9  C    0.099903
    10  O   -0.296679
    11  H    0.180092
    12  H    0.177666
    13  H    0.192309
    14  H    0.140089
    15  H    0.140090
 Sum of Mulliken charges =  -0.00000
 Mulliken charges with hydrogens summed into heavy atoms:
               1
     1  Br  -0.119073
     2  C    0.057470
     3  C    0.026484
     4  C   -0.060402
     5  C    0.178610
     6  C    0.186396
     7  C   -0.056897
     8  O   -0.295991
     9  C    0.380082
    10  O   -0.296679
 Electronic spatial extent (au):  <R**2>=           2428.1957
 Charge=             -0.0000 electrons
 Dipole moment (field-independent basis, Debye):
    X=             -2.6727    Y=              0.2813    Z=              0.0001  Tot=              2.6874
 Quadrupole moment (field-independent basis, Debye-Ang):
   XX=            -63.1588   YY=            -66.1629   ZZ=            -71.6936
   XY=              2.9789   XZ=             -0.0003   YZ=             -0.0002
 Traceless Quadrupole moment (field-independent basis, Debye-Ang):
   XX=              3.8463   YY=              0.8422   ZZ=             -4.6885
   XY=              2.9789   XZ=             -0.0003   YZ=             -0.0002
 Octapole moment (field-independent basis, Debye-Ang**2):
  XXX=             12.8543  YYY=              4.7504  ZZZ=             -0.0015  XYY=             26.6671
  XXY=            -21.4035  XXZ=              0.0008  XZZ=             15.9357  YZZ=             -6.2977
  YYZ=             -0.0013  XYZ=              0.0003
 Hexadecapole moment (field-independent basis, Debye-Ang**3):
 XXXX=          -1948.3849 YYYY=           -430.3009 ZZZZ=            -85.6832 XXXY=             74.0048
 XXXZ=              0.0297 YYYX=            -30.5802 YYYZ=              0.0036 ZZZX=              0.0382
 ZZZY=              0.0037 XXYY=           -458.9743 XXZZ=           -372.0397 YYZZ=            -99.6803
 XXYZ=             -0.0009 YYXZ=              0.0140 ZZXY=              1.2537
 N-N= 7.203841887766D+02 E-N=-8.574224121207D+03  KE= 2.988901461727D+03
 Calculating spin-rotation constants.
 Leave Link  601 at Tue Sep 17 10:26:26 2024, MaxMem=  1342177280 cpu:               2.1 elap:               2.1
 (Enter /groups/ReismanLab/Software/Gaussian16_RevC/Linux_Binary_AVX2-enabled-CPU/g16/l9999.exe)
 Unable to Open any file for archive entry.
 1\1\GINC-HPC-53-14\SP\RM062X\def2TZVP\C7H5Br1O2\MANTIND\17-Sep-2024\0\
 \#p M062X/def2tzvp geom=check guess=read scf(xqc,tight) integral(grid=
 ultrafine) scrf(SMD, solvent=1,4-Dioxane) nmr=giao\\spe\\0,1\Br,0,-2.5
 363078195,-0.174846118,0.0001840919\C,0,-0.6576865858,0.1783281793,0.0
 001163967\C,0,-0.2178083043,1.4968752447,0.000125152\C,0,1.1600327128,
 1.7837591885,0.0000807354\C,0,2.0270078346,0.7113095714,0.0000292049\C
 ,0,1.5680400539,-0.604688831,0.0000196259\C,0,0.2242354251,-0.91598395
 43,0.0000640172\O,0,2.6324929419,-1.4688260664,-0.0000396031\C,0,3.810
 8868485,-0.6499970688,-0.0000523122\O,0,3.3998721306,0.7233083404,-0.0
 000215782\H,0,-0.938710928,2.3047245372,0.0001634823\H,0,1.5234110661,
 2.8043283526,0.0000834749\H,0,-0.1316108347,-1.9375301434,0.0000572166
 \H,0,4.3973445279,-0.8562386641,0.9027548013\H,0,4.3973037012,-0.85621
 04332,-0.9028909085\\Version=ES64L-G16RevC.02\State=1-A\HF=-2994.37663
 06\RMSD=2.816e-09\Dipole=1.05254,0.1004466,-0.0000305\Quadrupole=2.816
 3376,0.6694299,-3.4857674,-2.2360531,-0.0002186,0.0001302\PG=C01 [X(C7
 H5Br1O2)]\\@
 The archive entry for this job was punched.


 THERE IS MORE TO LIFE THAN INCREASING ITS SPEED.

                                       -- GANDHI
 Job cpu time:       0 days  0 hours  7 minutes 45.9 seconds.
 Elapsed time:       0 days  0 hours  7 minutes 47.9 seconds.
 File lengths (MBytes):  RWF=    224 Int=      0 D2E=      0 Chk=     24 Scr=     16
 Normal termination of Gaussian 16 at Tue Sep 17 10:26:26 2024.
