 Entering Gaussian System, Link 0=g16
 Input=smiles_00069_conf_2.gjf
 Output=smiles_00069_conf_2.log
 Initial command:
 /groups/ReismanLab/Software/Gaussian16_RevC/Linux_Binary_AVX2-enabled-CPU/g16/l1.exe "/central/groups/ReismanLab/DM/dft_final/smiles_00069/Gau-102665.inp" -scrdir="/central/groups/ReismanLab/DM/dft_final/smiles_00069/"
 Entering Link 1 = /groups/ReismanLab/Software/Gaussian16_RevC/Linux_Binary_AVX2-enabled-CPU/g16/l1.exe PID=    102668.
  
 Copyright (c) 1988-2021, Gaussian, Inc.  All Rights Reserved.
  
 This is part of the Gaussian(R) 16 program.  It is based on
 the Gaussian(R) 09 system (copyright 2009, Gaussian, Inc.),
 the Gaussian(R) 03 system (copyright 2003, Gaussian, Inc.),
 the Gaussian(R) 98 system (copyright 1998, Gaussian, Inc.),
 the Gaussian(R) 94 system (copyright 1995, Gaussian, Inc.),
 the Gaussian 92(TM) system (copyright 1992, Gaussian, Inc.),
 the Gaussian 90(TM) system (copyright 1990, Gaussian, Inc.),
 the Gaussian 88(TM) system (copyright 1988, Gaussian, Inc.),
 the Gaussian 86(TM) system (copyright 1986, Carnegie Mellon
 University), and the Gaussian 82(TM) system (copyright 1983,
 Carnegie Mellon University). Gaussian is a federally registered
 trademark of Gaussian, Inc.
  
 This software contains proprietary and confidential information,
 including trade secrets, belonging to Gaussian, Inc.
  
 This software is provided under written license and may be
 used, copied, transmitted, or stored only in accord with that
 written license.
  
 The following legend is applicable only to US Government
 contracts under FAR:
  
                    RESTRICTED RIGHTS LEGEND
  
 Use, reproduction and disclosure by the US Government is
 subject to restrictions as set forth in subparagraphs (a)
 and (c) of the Commercial Computer Software - Restricted
 Rights clause in FAR 52.227-19.
  
 Gaussian, Inc.
 340 Quinnipiac St., Bldg. 40, Wallingford CT 06492
  
  
 ---------------------------------------------------------------
 Warning -- This program may not be used in any manner that
 competes with the business of Gaussian, Inc. or will provide
 assistance to any competitor of Gaussian, Inc.  The licensee
 of this program is prohibited from giving any competitor of
 Gaussian, Inc. access to this program.  By using this program,
 the user acknowledges that Gaussian, Inc. is engaged in the
 business of creating and licensing software in the field of
 computational chemistry and represents and warrants to the
 licensee that it is not a competitor of Gaussian, Inc. and that
 it will not use this program in any manner prohibited above.
 ---------------------------------------------------------------
  

 Cite this work as:
 Gaussian 16, Revision C.02,
 M. J. Frisch, G. W. Trucks, H. B. Schlegel, G. E. Scuseria, 
 M. A. Robb, J. R. Cheeseman, G. Scalmani, V. Barone, 
 G. A. Petersson, H. Nakatsuji, X. Li, M. Caricato, A. V. Marenich, 
 J. Bloino, B. G. Janesko, R. Gomperts, B. Mennucci, H. P. Hratchian, 
 J. V. Ortiz, A. F. Izmaylov, J. L. Sonnenberg, D. Williams-Young, 
 F. Ding, F. Lipparini, F. Egidi, J. Goings, B. Peng, A. Petrone, 
 T. Henderson, D. Ranasinghe, V. G. Zakrzewski, J. Gao, N. Rega, 
 G. Zheng, W. Liang, M. Hada, M. Ehara, K. Toyota, R. Fukuda, 
 J. Hasegawa, M. Ishida, T. Nakajima, Y. Honda, O. Kitao, H. Nakai, 
 T. Vreven, K. Throssell, J. A. Montgomery, Jr., J. E. Peralta, 
 F. Ogliaro, M. J. Bearpark, J. J. Heyd, E. N. Brothers, K. N. Kudin, 
 V. N. Staroverov, T. A. Keith, R. Kobayashi, J. Normand, 
 K. Raghavachari, A. P. Rendell, J. C. Burant, S. S. Iyengar, 
 J. Tomasi, M. Cossi, J. M. Millam, M. Klene, C. Adamo, R. Cammi, 
 J. W. Ochterski, R. L. Martin, K. Morokuma, O. Farkas, 
 J. B. Foresman, and D. J. Fox, Gaussian, Inc., Wallingford CT, 2019.
 
 ******************************************
 Gaussian 16:  ES64L-G16RevC.02  7-Dec-2021
                17-Sep-2024 
 ******************************************
 %nprocshared=8
 Will use up to    8 processors via shared memory.
 %Mem=10GB
 %Chk=smiles_00069_conf_2.chk
 ----------------------------------------------------------------------
 #p B3LYP/6-31G(d,p) EmpiricalDispersion=GD3BJ opt freq scf(xqc,tight) 
 integral(grid=ultrafine)
 ----------------------------------------------------------------------
 1/18=20,19=15,26=4,38=1/1,3;
 2/9=110,12=2,17=6,18=5,40=1/2;
 3/5=1,6=6,7=101,11=2,25=1,30=1,71=1,74=-5,75=-5,124=41/1,2,3;
 4//1;
 5/5=2,8=3,13=1,32=2,38=5/2,8;
 6/7=2,8=2,9=2,10=2,28=1/1;
 7//1,2,3,16;
 1/18=20,19=15,26=4/3(2);
 2/9=110/2;
 99//99;
 2/9=110/2;
 3/5=1,6=6,7=101,11=2,25=1,30=1,71=1,74=-5,75=-5,124=41/1,2,3;
 4/5=5,16=3,69=1/1;
 5/5=2,8=3,13=1,32=2,38=5/2,8;
 7//1,2,3,16;
 1/18=20,19=15,26=4/3(-5);
 2/9=110/2;
 6/7=2,8=2,9=2,10=2,19=2,28=1/1;
 99/9=1/99;
 Leave Link    1 at Tue Sep 17 09:53:17 2024, MaxMem=  1342177280 cpu:               0.1 elap:               0.8
 (Enter /groups/ReismanLab/Software/Gaussian16_RevC/Linux_Binary_AVX2-enabled-CPU/g16/l101.exe)
 ----------------------------------
 opt-freq conformers_unique/conf_ac
 ----------------------------------
 Symbolic Z-matrix:
 Charge =  0 Multiplicity = 1
 C                     4.2879    2.167    -1.97709 
 C                     4.20319   1.51785  -0.60904 
 O                     3.48187   0.28879  -0.73751 
 C                     3.21057  -0.36741   0.38888 
 O                     3.54784  -0.00433   1.483 
 C                     2.37593  -1.60504   0.10167 
 C                     0.93549  -1.16966   0.10721 
 C                     0.16741  -1.2791    1.25964 
 C                    -1.14652  -0.84711   1.27646 
 C                    -1.68862  -0.29477   0.12925 
 Br                   -3.49948   0.30006   0.14074 
 C                    -0.93883  -0.16526  -1.02736 
 C                     0.37271  -0.60235  -1.03039 
 H                     3.29105   2.37857  -2.35442 
 H                     4.79125   1.50375  -2.67534 
 H                     4.84488   3.09642  -1.9056 
 H                     3.68047   2.15903   0.10911 
 H                     5.19912   1.29941  -0.20806 
 H                     2.65412  -2.00243  -0.87352 
 H                     2.56045  -2.34004   0.88385 
 H                     0.59906  -1.70314   2.15347 
 H                    -1.74229  -0.93676   2.17167 
 H                    -1.37542   0.27133  -1.91253 
 H                     0.96741  -0.49968  -1.92575 
 
 ITRead=  0  0  0  0  0  0  0  0  0  0  0  0  0  0  0  0  0  0  0  0
 ITRead=  0  0  0  0
 MicOpt= -1 -1 -1 -1 -1 -1 -1 -1 -1 -1 -1 -1 -1 -1 -1 -1 -1 -1 -1 -1
 MicOpt= -1 -1 -1 -1
 NAtoms=     24 NQM=       24 NQMF=       0 NMMI=      0 NMMIF=      0
                NMic=       0 NMicF=      0.
                    Isotopes and Nuclear Properties:
 (Nuclear quadrupole moments (NQMom) in fm**2, nuclear magnetic moments (NMagM)
  in nuclear magnetons)

  Atom         1           2           3           4           5           6           7           8           9          10
 IAtWgt=          12          12          16          12          16          12          12          12          12          12
 AtmWgt=  12.0000000  12.0000000  15.9949146  12.0000000  15.9949146  12.0000000  12.0000000  12.0000000  12.0000000  12.0000000
 NucSpn=           0           0           0           0           0           0           0           0           0           0
 AtZEff=  -0.0000000  -0.0000000  -0.0000000  -0.0000000  -0.0000000  -0.0000000  -0.0000000  -0.0000000  -0.0000000  -0.0000000
 NQMom=    0.0000000   0.0000000   0.0000000   0.0000000   0.0000000   0.0000000   0.0000000   0.0000000   0.0000000   0.0000000
 NMagM=    0.0000000   0.0000000   0.0000000   0.0000000   0.0000000   0.0000000   0.0000000   0.0000000   0.0000000   0.0000000
 AtZNuc=   6.0000000   6.0000000   8.0000000   6.0000000   8.0000000   6.0000000   6.0000000   6.0000000   6.0000000   6.0000000

  Atom        11          12          13          14          15          16          17          18          19          20
 IAtWgt=          79          12          12           1           1           1           1           1           1           1
 AtmWgt=  78.9183361  12.0000000  12.0000000   1.0078250   1.0078250   1.0078250   1.0078250   1.0078250   1.0078250   1.0078250
 NucSpn=           3           0           0           1           1           1           1           1           1           1
 AtZEff=  -0.0000000  -0.0000000  -0.0000000  -0.0000000  -0.0000000  -0.0000000  -0.0000000  -0.0000000  -0.0000000  -0.0000000
 NQMom=   31.3000000   0.0000000   0.0000000   0.0000000   0.0000000   0.0000000   0.0000000   0.0000000   0.0000000   0.0000000
 NMagM=    2.1063990   0.0000000   0.0000000   2.7928460   2.7928460   2.7928460   2.7928460   2.7928460   2.7928460   2.7928460
 AtZNuc=  35.0000000   6.0000000   6.0000000   1.0000000   1.0000000   1.0000000   1.0000000   1.0000000   1.0000000   1.0000000

  Atom        21          22          23          24
 IAtWgt=           1           1           1           1
 AtmWgt=   1.0078250   1.0078250   1.0078250   1.0078250
 NucSpn=           1           1           1           1
 AtZEff=  -0.0000000  -0.0000000  -0.0000000  -0.0000000
 NQMom=    0.0000000   0.0000000   0.0000000   0.0000000
 NMagM=    2.7928460   2.7928460   2.7928460   2.7928460
 AtZNuc=   1.0000000   1.0000000   1.0000000   1.0000000
 Leave Link  101 at Tue Sep 17 09:53:17 2024, MaxMem=  1342177280 cpu:               0.3 elap:               0.3
 (Enter /groups/ReismanLab/Software/Gaussian16_RevC/Linux_Binary_AVX2-enabled-CPU/g16/l103.exe)

 GradGradGradGradGradGradGradGradGradGradGradGradGradGradGradGradGradGrad
 Berny optimization.
 Initialization pass.
                           ----------------------------
                           !    Initial Parameters    !
                           ! (Angstroms and Degrees)  !
 --------------------------                            --------------------------
 ! Name  Definition              Value          Derivative Info.                !
 --------------------------------------------------------------------------------
 ! R1    R(1,2)                  1.5166         estimate D2E/DX2                !
 ! R2    R(1,14)                 1.0867         estimate D2E/DX2                !
 ! R3    R(1,15)                 1.0867         estimate D2E/DX2                !
 ! R4    R(1,16)                 1.0859         estimate D2E/DX2                !
 ! R5    R(2,3)                  1.4309         estimate D2E/DX2                !
 ! R6    R(2,17)                 1.0955         estimate D2E/DX2                !
 ! R7    R(2,18)                 1.0956         estimate D2E/DX2                !
 ! R8    R(3,4)                  1.3315         estimate D2E/DX2                !
 ! R9    R(4,5)                  1.2011         estimate D2E/DX2                !
 ! R10   R(4,6)                  1.5201         estimate D2E/DX2                !
 ! R11   R(6,7)                  1.5048         estimate D2E/DX2                !
 ! R12   R(6,19)                 1.0892         estimate D2E/DX2                !
 ! R13   R(6,20)                 1.0891         estimate D2E/DX2                !
 ! R14   R(7,8)                  1.3893         estimate D2E/DX2                !
 ! R15   R(7,13)                 1.3902         estimate D2E/DX2                !
 ! R16   R(8,9)                  1.3832         estimate D2E/DX2                !
 ! R17   R(8,21)                 1.0794         estimate D2E/DX2                !
 ! R18   R(9,10)                 1.3838         estimate D2E/DX2                !
 ! R19   R(9,22)                 1.0791         estimate D2E/DX2                !
 ! R20   R(10,11)                1.9061         estimate D2E/DX2                !
 ! R21   R(10,12)                1.3844         estimate D2E/DX2                !
 ! R22   R(12,13)                1.3825         estimate D2E/DX2                !
 ! R23   R(12,23)                1.0792         estimate D2E/DX2                !
 ! R24   R(13,24)                1.0798         estimate D2E/DX2                !
 ! A1    A(2,1,14)             110.201          estimate D2E/DX2                !
 ! A2    A(2,1,15)             110.1358         estimate D2E/DX2                !
 ! A3    A(2,1,16)             109.6095         estimate D2E/DX2                !
 ! A4    A(14,1,15)            108.7017         estimate D2E/DX2                !
 ! A5    A(14,1,16)            109.0717         estimate D2E/DX2                !
 ! A6    A(15,1,16)            109.094          estimate D2E/DX2                !
 ! A7    A(1,2,3)              108.3501         estimate D2E/DX2                !
 ! A8    A(1,2,17)             111.5593         estimate D2E/DX2                !
 ! A9    A(1,2,18)             111.3887         estimate D2E/DX2                !
 ! A10   A(3,2,17)             108.7273         estimate D2E/DX2                !
 ! A11   A(3,2,18)             108.654          estimate D2E/DX2                !
 ! A12   A(17,2,18)            108.0902         estimate D2E/DX2                !
 ! A13   A(2,3,4)              116.7479         estimate D2E/DX2                !
 ! A14   A(3,4,5)              124.3611         estimate D2E/DX2                !
 ! A15   A(3,4,6)              110.6872         estimate D2E/DX2                !
 ! A16   A(5,4,6)              124.9166         estimate D2E/DX2                !
 ! A17   A(4,6,7)              106.8172         estimate D2E/DX2                !
 ! A18   A(4,6,19)             109.0245         estimate D2E/DX2                !
 ! A19   A(4,6,20)             108.7079         estimate D2E/DX2                !
 ! A20   A(7,6,19)             110.6919         estimate D2E/DX2                !
 ! A21   A(7,6,20)             110.7813         estimate D2E/DX2                !
 ! A22   A(19,6,20)            110.7035         estimate D2E/DX2                !
 ! A23   A(6,7,8)              120.6293         estimate D2E/DX2                !
 ! A24   A(6,7,13)             120.1694         estimate D2E/DX2                !
 ! A25   A(8,7,13)             119.1523         estimate D2E/DX2                !
 ! A26   A(7,8,9)              120.7076         estimate D2E/DX2                !
 ! A27   A(7,8,21)             119.7877         estimate D2E/DX2                !
 ! A28   A(9,8,21)             119.5045         estimate D2E/DX2                !
 ! A29   A(8,9,10)             119.1229         estimate D2E/DX2                !
 ! A30   A(8,9,22)             120.5702         estimate D2E/DX2                !
 ! A31   A(10,9,22)            120.3069         estimate D2E/DX2                !
 ! A32   A(9,10,11)            119.4538         estimate D2E/DX2                !
 ! A33   A(9,10,12)            121.1816         estimate D2E/DX2                !
 ! A34   A(11,10,12)           119.3646         estimate D2E/DX2                !
 ! A35   A(10,12,13)           119.0813         estimate D2E/DX2                !
 ! A36   A(10,12,23)           120.2625         estimate D2E/DX2                !
 ! A37   A(13,12,23)           120.6561         estimate D2E/DX2                !
 ! A38   A(7,13,12)            120.7489         estimate D2E/DX2                !
 ! A39   A(7,13,24)            119.6288         estimate D2E/DX2                !
 ! A40   A(12,13,24)           119.6221         estimate D2E/DX2                !
 ! D1    D(14,1,2,3)            60.7613         estimate D2E/DX2                !
 ! D2    D(14,1,2,17)          -58.8929         estimate D2E/DX2                !
 ! D3    D(14,1,2,18)         -179.778          estimate D2E/DX2                !
 ! D4    D(15,1,2,3)           -59.1601         estimate D2E/DX2                !
 ! D5    D(15,1,2,17)         -178.8142         estimate D2E/DX2                !
 ! D6    D(15,1,2,18)           60.3006         estimate D2E/DX2                !
 ! D7    D(16,1,2,3)          -179.1928         estimate D2E/DX2                !
 ! D8    D(16,1,2,17)           61.1531         estimate D2E/DX2                !
 ! D9    D(16,1,2,18)          -59.7321         estimate D2E/DX2                !
 ! D10   D(1,2,3,4)           -174.511          estimate D2E/DX2                !
 ! D11   D(17,2,3,4)           -53.0955         estimate D2E/DX2                !
 ! D12   D(18,2,3,4)            64.3238         estimate D2E/DX2                !
 ! D13   D(2,3,4,5)             -1.1771         estimate D2E/DX2                !
 ! D14   D(2,3,4,6)            176.7547         estimate D2E/DX2                !
 ! D15   D(3,4,6,7)            -87.0143         estimate D2E/DX2                !
 ! D16   D(3,4,6,19)            32.6338         estimate D2E/DX2                !
 ! D17   D(3,4,6,20)           153.4029         estimate D2E/DX2                !
 ! D18   D(5,4,6,7)             90.9036         estimate D2E/DX2                !
 ! D19   D(5,4,6,19)          -149.4483         estimate D2E/DX2                !
 ! D20   D(5,4,6,20)           -28.6792         estimate D2E/DX2                !
 ! D21   D(4,6,7,8)            -94.4254         estimate D2E/DX2                !
 ! D22   D(4,6,7,13)            83.0061         estimate D2E/DX2                !
 ! D23   D(19,6,7,8)           147.0081         estimate D2E/DX2                !
 ! D24   D(19,6,7,13)          -35.5603         estimate D2E/DX2                !
 ! D25   D(20,6,7,8)            23.8096         estimate D2E/DX2                !
 ! D26   D(20,6,7,13)         -158.7588         estimate D2E/DX2                !
 ! D27   D(6,7,8,9)            178.2991         estimate D2E/DX2                !
 ! D28   D(6,7,8,21)            -1.5467         estimate D2E/DX2                !
 ! D29   D(13,7,8,9)             0.8417         estimate D2E/DX2                !
 ! D30   D(13,7,8,21)         -179.0041         estimate D2E/DX2                !
 ! D31   D(6,7,13,12)         -178.2497         estimate D2E/DX2                !
 ! D32   D(6,7,13,24)            1.5976         estimate D2E/DX2                !
 ! D33   D(8,7,13,12)           -0.7803         estimate D2E/DX2                !
 ! D34   D(8,7,13,24)          179.067          estimate D2E/DX2                !
 ! D35   D(7,8,9,10)            -0.3655         estimate D2E/DX2                !
 ! D36   D(7,8,9,22)           179.7558         estimate D2E/DX2                !
 ! D37   D(21,8,9,10)          179.4807         estimate D2E/DX2                !
 ! D38   D(21,8,9,22)           -0.398          estimate D2E/DX2                !
 ! D39   D(8,9,10,11)          179.8645         estimate D2E/DX2                !
 ! D40   D(8,9,10,12)           -0.1858         estimate D2E/DX2                !
 ! D41   D(22,9,10,11)          -0.2565         estimate D2E/DX2                !
 ! D42   D(22,9,10,12)         179.6932         estimate D2E/DX2                !
 ! D43   D(9,10,12,13)           0.246          estimate D2E/DX2                !
 ! D44   D(9,10,12,23)        -179.7561         estimate D2E/DX2                !
 ! D45   D(11,10,12,13)       -179.8042         estimate D2E/DX2                !
 ! D46   D(11,10,12,23)          0.1937         estimate D2E/DX2                !
 ! D47   D(10,12,13,7)           0.2438         estimate D2E/DX2                !
 ! D48   D(10,12,13,24)       -179.6035         estimate D2E/DX2                !
 ! D49   D(23,12,13,7)        -179.754          estimate D2E/DX2                !
 ! D50   D(23,12,13,24)          0.3987         estimate D2E/DX2                !
 --------------------------------------------------------------------------------
 Trust Radius=3.00D-01 FncErr=1.00D-07 GrdErr=1.00D-06 EigMax=2.50D+02 EigMin=1.00D-04
 Number of steps in this run=    124 maximum allowed number of steps=    144.
 GradGradGradGradGradGradGradGradGradGradGradGradGradGradGradGradGradGrad

 Leave Link  103 at Tue Sep 17 09:53:17 2024, MaxMem=  1342177280 cpu:               0.1 elap:               0.0
 (Enter /groups/ReismanLab/Software/Gaussian16_RevC/Linux_Binary_AVX2-enabled-CPU/g16/l202.exe)
                          Input orientation:                          
 ---------------------------------------------------------------------
 Center     Atomic      Atomic             Coordinates (Angstroms)
 Number     Number       Type             X           Y           Z
 ---------------------------------------------------------------------
      1          6           0        4.287898    2.167000   -1.977090
      2          6           0        4.203187    1.517849   -0.609040
      3          8           0        3.481868    0.288786   -0.737513
      4          6           0        3.210569   -0.367408    0.388883
      5          8           0        3.547839   -0.004331    1.483003
      6          6           0        2.375928   -1.605040    0.101673
      7          6           0        0.935488   -1.169664    0.107206
      8          6           0        0.167412   -1.279098    1.259639
      9          6           0       -1.146517   -0.847106    1.276455
     10          6           0       -1.688618   -0.294770    0.129249
     11         35           0       -3.499482    0.300062    0.140742
     12          6           0       -0.938833   -0.165256   -1.027356
     13          6           0        0.372706   -0.602349   -1.030389
     14          1           0        3.291046    2.378575   -2.354418
     15          1           0        4.791249    1.503752   -2.675340
     16          1           0        4.844884    3.096416   -1.905595
     17          1           0        3.680468    2.159030    0.109105
     18          1           0        5.199123    1.299415   -0.208063
     19          1           0        2.654121   -2.002431   -0.873520
     20          1           0        2.560448   -2.340042    0.883848
     21          1           0        0.599055   -1.703141    2.153467
     22          1           0       -1.742289   -0.936763    2.171671
     23          1           0       -1.375419    0.271328   -1.912526
     24          1           0        0.967412   -0.499684   -1.925749
 ---------------------------------------------------------------------
                    Distance matrix (angstroms):
                    1          2          3          4          5
     1  C    0.000000
     2  C    1.516619   0.000000
     3  O    2.390382   1.430875   0.000000
     4  C    3.630660   2.352730   1.331527   0.000000
     5  O    4.151459   2.668925   2.240750   1.201113   0.000000
     6  C    4.712236   3.687333   2.348172   1.520147   2.417377
     7  C    5.168779   4.291106   3.053634   2.428776   3.174144
     8  C    6.271397   5.253794   4.175224   3.293964   3.619697
     9  C    7.014504   6.145522   5.173806   4.472370   4.773877
    10  C    6.798215   6.208384   5.275011   4.906600   5.416409
    11  Br   8.283355   7.834302   7.036385   6.747732   7.180463
    12  C    5.801735   5.426620   4.453398   4.389093   5.143736
    13  C    4.888176   4.398336   3.247581   3.181666   4.093437
    14  H    1.086671   2.149231   2.649153   3.882344   4.524376
    15  H    1.086653   2.148397   2.635487   3.922914   4.594801
    16  H    1.085891   2.141192   3.332419   4.464717   4.772794
    17  H    2.172843   1.095482   2.062527   2.584950   2.566187
    18  H    2.170828   1.095621   2.061711   2.662515   2.699295
    19  H    4.612077   3.855117   2.439946   2.139298   3.216261
    20  H    5.610925   4.450914   3.223130   2.135166   2.605661
    21  H    6.756261   5.567404   4.542703   3.423148   3.468544
    22  H    7.950392   7.007579   6.103863   5.294649   5.415639
    23  H    5.972513   5.862912   4.997419   5.170663   5.986992
    24  H    4.259046   4.034155   2.890689   3.225954   4.303902
                    6          7          8          9         10
     6  C    0.000000
     7  C    1.504809   0.000000
     8  C    2.514889   1.389251   0.000000
     9  C    3.789749   2.409550   1.383224   0.000000
    10  C    4.270609   2.766199   2.385693   1.383847   0.000000
    11  Br   6.176681   4.672278   4.146299   2.853469   1.906092
    12  C    3.786201   2.410217   2.773944   2.411555   1.384445
    13  C    2.509950   1.390213   2.396740   2.772990   2.385041
    14  H    4.768544   4.919171   6.016400   6.578770   6.173526
    15  H    4.817693   5.454962   6.678936   7.510012   7.286225
    16  H    5.677020   6.126515   7.144409   7.846891   7.637237
    17  H    3.983729   4.314524   5.048367   5.805113   5.903272
    18  H    4.062292   4.937036   5.841317   6.861376   7.077865
    19  H    1.089180   2.146864   3.355190   4.516859   4.772948
    20  H    1.089070   2.147894   2.644511   4.015543   4.775680
    21  H    2.716019   2.141254   1.079378   2.132831   3.363691
    22  H    4.657381   3.389211   2.143818   1.079071   2.141618
    23  H    4.652995   3.390585   3.853152   3.387165   2.141822
    24  H    2.704842   2.140747   3.375527   3.852727   3.364446
                   11         12         13         14         15
    11  Br   0.000000
    12  C    2.852700   0.000000
    13  C    4.144845   1.382459   0.000000
    14  H    7.527105   5.111168   4.376719   0.000000
    15  H    8.838293   6.191549   5.163821   1.766045   0.000000
    16  H    9.035239   6.697850   5.869176   1.769506   1.769736
    17  H    7.416768   5.294506   4.457011   2.503756   3.068609
    18  H    8.762768   6.363254   5.252354   3.067928   2.509098
    19  H    6.648085   4.038340   2.681359   4.668184   4.484104
    20  H    6.651699   4.541735   3.386752   5.769357   5.693772
    21  H    4.986171   3.853288   3.376376   6.650432   7.153742
    22  H    2.956711   3.387409   3.852042   7.537335   8.493336
    23  H    2.954383   1.079231   2.144160   5.139227   6.334710
    24  H    4.986293   2.133710   1.079761   3.723897   4.381481
                   16         17         18         19         20
    16  H    0.000000
    17  H    2.508700   0.000000
    18  H    2.497262   1.773653   0.000000
    19  H    5.644720   4.397351   4.221617   0.000000
    20  H    6.523398   4.700672   4.626070   1.791954   0.000000
    21  H    7.585433   5.347044   5.979363   3.670902   2.421701
    22  H    8.733928   6.576048   7.671169   5.453188   4.705446
    23  H    6.831790   5.763021   6.869262   4.742015   5.489080
    24  H    5.288397   4.309300   4.908623   2.492072   3.717326
                   21         22         23         24
    21  H    0.000000
    22  H    2.463648   0.000000
    23  H    4.932482   4.274897   0.000000
    24  H    4.268958   4.931772   2.466473   0.000000
 Stoichiometry    C10H11BrO2
 Framework group  C1[X(C10H11BrO2)]
 Deg. of freedom    66
 Full point group                 C1      NOp   1
 Largest Abelian subgroup         C1      NOp   1
 Largest concise Abelian subgroup C1      NOp   1
                         Standard orientation:                         
 ---------------------------------------------------------------------
 Center     Atomic      Atomic             Coordinates (Angstroms)
 Number     Number       Type             X           Y           Z
 ---------------------------------------------------------------------
      1          6           0       -4.363686    2.401618   -0.092426
      2          6           0       -4.099700    1.023238   -0.667327
      3          8           0       -3.301666    0.290563    0.267410
      4          6           0       -2.874928   -0.909652   -0.120329
      5          8           0       -3.133502   -1.411118   -1.180680
      6          6           0       -1.978858   -1.529313    0.939825
      7          6           0       -0.582104   -1.038430    0.670446
      8          6           0        0.298196   -1.793290   -0.094587
      9          6           0        1.570719   -1.327682   -0.372442
     10          6           0        1.957278   -0.091918    0.115913
     11         35           0        3.710007    0.557163   -0.258015
     12          6           0        1.093193    0.682716    0.870887
     13          6           0       -0.175255    0.204466    1.142011
     14          1           0       -3.426424    2.928917    0.063615
     15          1           0       -4.878752    2.317050    0.860658
     16          1           0       -4.981037    2.971350   -0.780498
     17          1           0       -3.561826    1.080649   -1.619943
     18          1           0       -5.033278    0.475257   -0.836248
     19          1           0       -2.317192   -1.206570    1.923532
     20          1           0       -2.031204   -2.613510    0.851231
     21          1           0       -0.012673   -2.752595   -0.479491
     22          1           0        2.254032   -1.917590   -0.963616
     23          1           0        1.408829    1.646093    1.241047
     24          1           0       -0.858521    0.804180    1.724572
 ---------------------------------------------------------------------
 Rotational constants (GHZ):           1.2828085           0.2210490           0.2024184
 Leave Link  202 at Tue Sep 17 09:53:17 2024, MaxMem=  1342177280 cpu:               0.0 elap:               0.0
 (Enter /groups/ReismanLab/Software/Gaussian16_RevC/Linux_Binary_AVX2-enabled-CPU/g16/l301.exe)
 Standard basis: 6-31G(d,p) (6D, 7F)
 Ernie: Thresh=  0.10000D-02 Tol=  0.10000D-05 Strict=F.
 There are   265 symmetry adapted cartesian basis functions of A   symmetry.
 There are   265 symmetry adapted basis functions of A   symmetry.
   265 basis functions,   496 primitive gaussians,   265 cartesian basis functions
    61 alpha electrons       61 beta electrons
       nuclear repulsion energy      1014.0267874226 Hartrees.
 IExCor=  402 DFT=T Ex+Corr=B3LYP ExCW=0 ScaHFX=  0.200000
 ScaDFX=  0.800000  0.720000  1.000000  0.810000 ScalE2=  1.000000  1.000000
 IRadAn=      5 IRanWt=     -1 IRanGd=            0 ICorTp=0 IEmpDi=141
 NAtoms=   24 NActive=   24 NUniq=   24 SFac= 1.00D+00 NAtFMM=   60 NAOKFM=F Big=F
 Integral buffers will be    131072 words long.
 Raffenetti 2 integral format.
 Two-electron integral symmetry is turned on.
 R6Disp:  Grimme-D3(BJ) Dispersion energy=       -0.0457782888 Hartrees.
 Nuclear repulsion after empirical dispersion term =     1013.9810091338 Hartrees.
 Leave Link  301 at Tue Sep 17 09:53:17 2024, MaxMem=  1342177280 cpu:               0.1 elap:               0.1
 (Enter /groups/ReismanLab/Software/Gaussian16_RevC/Linux_Binary_AVX2-enabled-CPU/g16/l302.exe)
 NPDir=0 NMtPBC=     1 NCelOv=     1 NCel=       1 NClECP=     1 NCelD=      1
         NCelK=      1 NCelE2=     1 NClLst=     1 CellRange=     0.0.
 One-electron integrals computed using PRISM.
 One-electron integral symmetry used in STVInt
 NBasis=   265 RedAO= T EigKep=  4.11D-04  NBF=   265
 NBsUse=   265 1.00D-06 EigRej= -1.00D+00 NBFU=   265
 Precomputing XC quadrature grid using
 IXCGrd= 4 IRadAn=           5 IRanWt=          -1 IRanGd=           0 AccXCQ= 0.00D+00.
 Generated NRdTot=       0 NPtTot=           0 NUsed=           0 NTot=          32
 NSgBfM=   262   262   262   262   262 MxSgAt=    24 MxSgA2=    24.
 Leave Link  302 at Tue Sep 17 09:53:18 2024, MaxMem=  1342177280 cpu:               1.3 elap:               0.2
 (Enter /groups/ReismanLab/Software/Gaussian16_RevC/Linux_Binary_AVX2-enabled-CPU/g16/l303.exe)
 DipDrv:  MaxL=1.
 Leave Link  303 at Tue Sep 17 09:53:18 2024, MaxMem=  1342177280 cpu:               0.1 elap:               0.1
 (Enter /groups/ReismanLab/Software/Gaussian16_RevC/Linux_Binary_AVX2-enabled-CPU/g16/l401.exe)
 ExpMin= 1.43D-01 ExpMax= 5.74D+05 ExpMxC= 5.74D+03 IAcc=3 IRadAn=         5 AccDes= 0.00D+00
 Harris functional with IExCor=  402 and IRadAn=       5 diagonalized for initial guess.
 HarFok:  IExCor=  402 AccDes= 0.00D+00 IRadAn=         5 IDoV= 1 UseB2=F ITyADJ=14
 ICtDFT=  3500011 ScaDFX=  1.000000  1.000000  1.000000  1.000000
 FoFCou: FMM=F IPFlag=           0 FMFlag=      100000 FMFlg1=           0
         NFxFlg=           0 DoJE=T BraDBF=F KetDBF=T FulRan=T
         wScrn=  0.000000 ICntrl=       500 IOpCl=  0 I1Cent=   200000004 NGrid=           0
         NMat0=    1 NMatS0=      1 NMatT0=    0 NMatD0=    1 NMtDS0=    0 NMtDT0=    0
 Petite list used in FoFCou.
 Harris En= -3110.06598609499    
 JPrj=0 DoOrth=F DoCkMO=F.
 Leave Link  401 at Tue Sep 17 09:53:19 2024, MaxMem=  1342177280 cpu:               7.1 elap:               1.0
 (Enter /groups/ReismanLab/Software/Gaussian16_RevC/Linux_Binary_AVX2-enabled-CPU/g16/l502.exe)
 Integral symmetry usage will be decided dynamically.
 Closed shell SCF:
 Using DIIS extrapolation, IDIIS=  1040.
 NGot=  1342177280 LenX=  1342031300 LenY=  1341960634
 Requested convergence on RMS density matrix=1.00D-08 within  32 cycles.
 Requested convergence on MAX density matrix=1.00D-06.
 Requested convergence on             energy=1.00D-06.
 No special actions if energy rises.
 Fock matrices will be formed incrementally for  20 cycles.
 Integral accuracy reduced to 1.0D-05 until final iterations.

 Cycle   1  Pass 0  IDiag  1:
 FoFJK:  IHMeth= 1 ICntrl=       0 DoSepK=F KAlg= 0 I1Cent=           0 FoldK=F
 IRaf= 810000000 NMat=       1 IRICut=       1 DoRegI=T DoRafI=F ISym2E= 0 IDoP0=0 IntGTp=1.
 FoFCou: FMM=F IPFlag=           0 FMFlag=      100000 FMFlg1=           0
         NFxFlg=           0 DoJE=F BraDBF=F KetDBF=F FulRan=T
         wScrn=  0.000000 ICntrl=         0 IOpCl=  0 I1Cent=           0 NGrid=           0
         NMat0=    1 NMatS0=      1 NMatT0=    0 NMatD0=    1 NMtDS0=    0 NMtDT0=    0
 Symmetry not used in FoFCou.
 E= -3109.59529452042    
 DIIS: error= 1.77D-01 at cycle   1 NSaved=   1.
 NSaved= 1 IEnMin= 1 EnMin= -3109.59529452042     IErMin= 1 ErrMin= 1.77D-01
 ErrMax= 1.77D-01  0.00D+00 EMaxC= 1.00D-01 BMatC= 6.87D-01 BMatP= 6.87D-01
 IDIUse=3 WtCom= 0.00D+00 WtEn= 1.00D+00
 Coeff-Com:  0.100D+01
 Coeff-En:   0.100D+01
 Coeff:      0.100D+01
 Gap=     0.290 Goal=   None    Shift=    0.000
 GapD=    0.290 DampG=1.000 DampE=0.250 DampFc=0.2500 IDamp=-1.
 Damping current iteration by 2.50D-01
 RMSDP=4.86D-03 MaxDP=1.87D-01              OVMax= 2.44D-01

 Cycle   2  Pass 0  IDiag  1:
 RMSU=  1.18D-03    CP:  9.92D-01
 E= -3109.71108284029     Delta-E=       -0.115788319867 Rises=F Damp=T
 DIIS: error= 1.31D-01 at cycle   2 NSaved=   2.
 NSaved= 2 IEnMin= 2 EnMin= -3109.71108284029     IErMin= 2 ErrMin= 1.31D-01
 ErrMax= 1.31D-01  0.00D+00 EMaxC= 1.00D-01 BMatC= 2.69D-01 BMatP= 6.87D-01
 IDIUse=3 WtCom= 0.00D+00 WtEn= 1.00D+00
 Coeff-Com: -0.109D+01 0.209D+01
 Coeff-En:   0.000D+00 0.100D+01
 Coeff:      0.000D+00 0.100D+01
 Gap=     0.241 Goal=   None    Shift=    0.000
 RMSDP=2.35D-03 MaxDP=1.11D-01 DE=-1.16D-01 OVMax= 1.21D-01

 Cycle   3  Pass 0  IDiag  1:
 RMSU=  1.02D-03    CP:  9.70D-01  2.66D+00
 E= -3109.85062876921     Delta-E=       -0.139545928918 Rises=F Damp=F
 DIIS: error= 1.48D-02 at cycle   3 NSaved=   3.
 NSaved= 3 IEnMin= 3 EnMin= -3109.85062876921     IErMin= 3 ErrMin= 1.48D-02
 ErrMax= 1.48D-02  0.00D+00 EMaxC= 1.00D-01 BMatC= 7.27D-02 BMatP= 2.69D-01
 IDIUse=3 WtCom= 8.52D-01 WtEn= 1.48D-01
 Coeff-Com:  0.782D+00-0.856D+00 0.107D+01
 Coeff-En:   0.126D+00 0.000D+00 0.874D+00
 Coeff:      0.685D+00-0.730D+00 0.105D+01
 Gap=     0.220 Goal=   None    Shift=    0.000
 RMSDP=1.46D-03 MaxDP=4.68D-02 DE=-1.40D-01 OVMax= 5.65D-02

 Cycle   4  Pass 0  IDiag  1:
 RMSU=  9.95D-04    CP:  9.71D-01  1.77D+00  8.78D-01
 E= -3109.89389454662     Delta-E=       -0.043265777417 Rises=F Damp=F
 DIIS: error= 8.26D-03 at cycle   4 NSaved=   4.
 NSaved= 4 IEnMin= 4 EnMin= -3109.89389454662     IErMin= 4 ErrMin= 8.26D-03
 ErrMax= 8.26D-03  0.00D+00 EMaxC= 1.00D-01 BMatC= 2.88D-02 BMatP= 7.27D-02
 IDIUse=3 WtCom= 9.17D-01 WtEn= 8.26D-02
 Coeff-Com:  0.636D+00-0.822D+00 0.713D+00 0.473D+00
 Coeff-En:   0.000D+00 0.000D+00 0.223D+00 0.777D+00
 Coeff:      0.583D+00-0.754D+00 0.672D+00 0.498D+00
 Gap=     0.223 Goal=   None    Shift=    0.000
 RMSDP=6.95D-04 MaxDP=2.46D-02 DE=-4.33D-02 OVMax= 5.08D-02

 Cycle   5  Pass 0  IDiag  1:
 RMSU=  1.80D-04    CP:  9.71D-01  1.91D+00  1.07D+00  3.78D-01
 E= -3109.91920139546     Delta-E=       -0.025306848835 Rises=F Damp=F
 DIIS: error= 1.81D-03 at cycle   5 NSaved=   5.
 NSaved= 5 IEnMin= 5 EnMin= -3109.91920139546     IErMin= 5 ErrMin= 1.81D-03
 ErrMax= 1.81D-03  0.00D+00 EMaxC= 1.00D-01 BMatC= 1.04D-03 BMatP= 2.88D-02
 IDIUse=3 WtCom= 9.82D-01 WtEn= 1.81D-02
 Coeff-Com:  0.259D+00-0.337D+00 0.300D+00 0.262D+00 0.516D+00
 Coeff-En:   0.000D+00 0.000D+00 0.000D+00 0.000D+00 0.100D+01
 Coeff:      0.254D+00-0.331D+00 0.294D+00 0.257D+00 0.525D+00
 Gap=     0.217 Goal=   None    Shift=    0.000
 RMSDP=1.31D-04 MaxDP=5.65D-03 DE=-2.53D-02 OVMax= 1.01D-02

 Cycle   6  Pass 0  IDiag  1:
 RMSU=  4.95D-05    CP:  9.71D-01  1.92D+00  1.06D+00  4.60D-01  5.12D-01
 E= -3109.92001239336     Delta-E=       -0.000810997901 Rises=F Damp=F
 DIIS: error= 4.62D-04 at cycle   6 NSaved=   6.
 NSaved= 6 IEnMin= 6 EnMin= -3109.92001239336     IErMin= 6 ErrMin= 4.62D-04
 ErrMax= 4.62D-04  0.00D+00 EMaxC= 1.00D-01 BMatC= 7.61D-05 BMatP= 1.04D-03
 IDIUse=3 WtCom= 9.95D-01 WtEn= 4.62D-03
 Coeff-Com:  0.679D-01-0.892D-01 0.760D-01 0.729D-01 0.268D+00 0.604D+00
 Coeff-En:   0.000D+00 0.000D+00 0.000D+00 0.000D+00 0.120D-01 0.988D+00
 Coeff:      0.676D-01-0.888D-01 0.756D-01 0.725D-01 0.267D+00 0.606D+00
 Gap=     0.217 Goal=   None    Shift=    0.000
 RMSDP=3.24D-05 MaxDP=1.52D-03 DE=-8.11D-04 OVMax= 2.11D-03

 Cycle   7  Pass 0  IDiag  1:
 RMSU=  1.96D-05    CP:  9.71D-01  1.92D+00  1.07D+00  4.55D-01  5.58D-01
                    CP:  5.68D-01
 E= -3109.92007172272     Delta-E=       -0.000059329360 Rises=F Damp=F
 DIIS: error= 8.89D-05 at cycle   7 NSaved=   7.
 NSaved= 7 IEnMin= 7 EnMin= -3109.92007172272     IErMin= 7 ErrMin= 8.89D-05
 ErrMax= 8.89D-05  0.00D+00 EMaxC= 1.00D-01 BMatC= 5.55D-06 BMatP= 7.61D-05
 IDIUse=1 WtCom= 1.00D+00 WtEn= 0.00D+00
 Coeff-Com:  0.204D-01-0.271D-01 0.213D-01 0.206D-01 0.105D+00 0.314D+00
 Coeff-Com:  0.546D+00
 Coeff:      0.204D-01-0.271D-01 0.213D-01 0.206D-01 0.105D+00 0.314D+00
 Coeff:      0.546D+00
 Gap=     0.217 Goal=   None    Shift=    0.000
 RMSDP=1.22D-05 MaxDP=3.77D-04 DE=-5.93D-05 OVMax= 8.64D-04

 Cycle   8  Pass 0  IDiag  1:
 RMSU=  6.44D-06    CP:  9.71D-01  1.92D+00  1.06D+00  4.53D-01  5.66D-01
                    CP:  6.37D-01  5.34D-01
 E= -3109.92007634422     Delta-E=       -0.000004621499 Rises=F Damp=F
 DIIS: error= 3.98D-05 at cycle   8 NSaved=   8.
 NSaved= 8 IEnMin= 8 EnMin= -3109.92007634422     IErMin= 8 ErrMin= 3.98D-05
 ErrMax= 3.98D-05  0.00D+00 EMaxC= 1.00D-01 BMatC= 5.50D-07 BMatP= 5.55D-06
 IDIUse=1 WtCom= 1.00D+00 WtEn= 0.00D+00
 Coeff-Com:  0.516D-02-0.690D-02 0.468D-02 0.412D-02 0.307D-01 0.113D+00
 Coeff-Com:  0.297D+00 0.552D+00
 Coeff:      0.516D-02-0.690D-02 0.468D-02 0.412D-02 0.307D-01 0.113D+00
 Coeff:      0.297D+00 0.552D+00
 Gap=     0.217 Goal=   None    Shift=    0.000
 RMSDP=3.80D-06 MaxDP=1.06D-04 DE=-4.62D-06 OVMax= 3.42D-04

 Initial convergence to 1.0D-05 achieved.  Increase integral accuracy.
 Cycle   9  Pass 1  IDiag  1:
 E= -3109.92008943293     Delta-E=       -0.000013088711 Rises=F Damp=F
 DIIS: error= 3.65D-05 at cycle   1 NSaved=   1.
 NSaved= 1 IEnMin= 1 EnMin= -3109.92008943293     IErMin= 1 ErrMin= 3.65D-05
 ErrMax= 3.65D-05  0.00D+00 EMaxC= 1.00D-01 BMatC= 2.10D-07 BMatP= 2.10D-07
 IDIUse=1 WtCom= 1.00D+00 WtEn= 0.00D+00
 Coeff-Com:  0.100D+01
 Coeff:      0.100D+01
 Gap=     0.217 Goal=   None    Shift=    0.000
 RMSDP=3.80D-06 MaxDP=1.06D-04 DE=-1.31D-05 OVMax= 2.59D-04

 Cycle  10  Pass 1  IDiag  1:
 RMSU=  1.79D-05    CP:  1.00D+00
 E= -3109.92008939684     Delta-E=        0.000000036086 Rises=F Damp=F
 DIIS: error= 2.49D-05 at cycle   2 NSaved=   2.
 NSaved= 2 IEnMin= 1 EnMin= -3109.92008943293     IErMin= 2 ErrMin= 2.49D-05
 ErrMax= 2.49D-05  0.00D+00 EMaxC= 1.00D-01 BMatC= 1.89D-07 BMatP= 2.10D-07
 IDIUse=1 WtCom= 1.00D+00 WtEn= 0.00D+00
 Coeff-Com:  0.483D+00 0.517D+00
 Coeff:      0.483D+00 0.517D+00
 Gap=     0.217 Goal=   None    Shift=    0.000
 RMSDP=2.59D-06 MaxDP=8.27D-05 DE= 3.61D-08 OVMax= 2.55D-04

 Cycle  11  Pass 1  IDiag  1:
 RMSU=  2.57D-06    CP:  1.00D+00  9.81D-01
 E= -3109.92008954796     Delta-E=       -0.000000151115 Rises=F Damp=F
 DIIS: error= 1.35D-05 at cycle   3 NSaved=   3.
 NSaved= 3 IEnMin= 3 EnMin= -3109.92008954796     IErMin= 3 ErrMin= 1.35D-05
 ErrMax= 1.35D-05  0.00D+00 EMaxC= 1.00D-01 BMatC= 4.88D-08 BMatP= 1.89D-07
 IDIUse=1 WtCom= 1.00D+00 WtEn= 0.00D+00
 Coeff-Com:  0.218D-01 0.335D+00 0.643D+00
 Coeff:      0.218D-01 0.335D+00 0.643D+00
 Gap=     0.217 Goal=   None    Shift=    0.000
 RMSDP=1.00D-06 MaxDP=3.05D-05 DE=-1.51D-07 OVMax= 9.81D-05

 Cycle  12  Pass 1  IDiag  1:
 RMSU=  3.92D-07    CP:  1.00D+00  9.97D-01  6.60D-01
 E= -3109.92008960006     Delta-E=       -0.000000052105 Rises=F Damp=F
 DIIS: error= 3.66D-06 at cycle   4 NSaved=   4.
 NSaved= 4 IEnMin= 4 EnMin= -3109.92008960006     IErMin= 4 ErrMin= 3.66D-06
 ErrMax= 3.66D-06  0.00D+00 EMaxC= 1.00D-01 BMatC= 2.49D-09 BMatP= 4.88D-08
 IDIUse=1 WtCom= 1.00D+00 WtEn= 0.00D+00
 Coeff-Com: -0.163D-02 0.181D+00 0.379D+00 0.442D+00
 Coeff:     -0.163D-02 0.181D+00 0.379D+00 0.442D+00
 Gap=     0.217 Goal=   None    Shift=    0.000
 RMSDP=2.21D-07 MaxDP=6.65D-06 DE=-5.21D-08 OVMax= 1.86D-05

 Cycle  13  Pass 1  IDiag  1:
 RMSU=  7.73D-08    CP:  1.00D+00  9.97D-01  6.75D-01  4.84D-01
 E= -3109.92008960245     Delta-E=       -0.000000002387 Rises=F Damp=F
 DIIS: error= 9.15D-07 at cycle   5 NSaved=   5.
 NSaved= 5 IEnMin= 5 EnMin= -3109.92008960245     IErMin= 5 ErrMin= 9.15D-07
 ErrMax= 9.15D-07  0.00D+00 EMaxC= 1.00D-01 BMatC= 1.10D-10 BMatP= 2.49D-09
 IDIUse=1 WtCom= 1.00D+00 WtEn= 0.00D+00
 Coeff-Com: -0.181D-02 0.101D+00 0.213D+00 0.272D+00 0.416D+00
 Coeff:     -0.181D-02 0.101D+00 0.213D+00 0.272D+00 0.416D+00
 Gap=     0.217 Goal=   None    Shift=    0.000
 RMSDP=4.51D-08 MaxDP=1.41D-06 DE=-2.39D-09 OVMax= 3.72D-06

 Cycle  14  Pass 1  IDiag  1:
 RMSU=  2.74D-08    CP:  1.00D+00  9.97D-01  6.75D-01  4.95D-01  5.43D-01
 E= -3109.92008960259     Delta-E=       -0.000000000139 Rises=F Damp=F
 DIIS: error= 1.14D-07 at cycle   6 NSaved=   6.
 NSaved= 6 IEnMin= 6 EnMin= -3109.92008960259     IErMin= 6 ErrMin= 1.14D-07
 ErrMax= 1.14D-07  0.00D+00 EMaxC= 1.00D-01 BMatC= 6.12D-12 BMatP= 1.10D-10
 IDIUse=1 WtCom= 1.00D+00 WtEn= 0.00D+00
 Coeff-Com: -0.905D-03 0.436D-01 0.923D-01 0.122D+00 0.246D+00 0.497D+00
 Coeff:     -0.905D-03 0.436D-01 0.923D-01 0.122D+00 0.246D+00 0.497D+00
 Gap=     0.217 Goal=   None    Shift=    0.000
 RMSDP=9.52D-09 MaxDP=4.41D-07 DE=-1.39D-10 OVMax= 6.21D-07

 SCF Done:  E(RB3LYP) =  -3109.92008960     A.U. after   14 cycles
            NFock= 14  Conv=0.95D-08     -V/T= 2.0066
 KE= 3.089525741587D+03 PE=-9.413806824927D+03 EE= 2.200379984603D+03
 Leave Link  502 at Tue Sep 17 09:53:35 2024, MaxMem=  1342177280 cpu:             118.8 elap:              15.7
 (Enter /groups/ReismanLab/Software/Gaussian16_RevC/Linux_Binary_AVX2-enabled-CPU/g16/l508.exe)
 QCSCF skips out because SCF is already converged.
 Leave Link  508 at Tue Sep 17 09:53:35 2024, MaxMem=  1342177280 cpu:               0.0 elap:               0.0
 (Enter /groups/ReismanLab/Software/Gaussian16_RevC/Linux_Binary_AVX2-enabled-CPU/g16/l601.exe)
 Copying SCF densities to generalized density rwf, IOpCl= 0 IROHF=0.

 **********************************************************************

            Population analysis using the SCF Density.

 **********************************************************************

 Orbital symmetries:
       Occupied  (A) (A) (A) (A) (A) (A) (A) (A) (A) (A) (A) (A)
                 (A) (A) (A) (A) (A) (A) (A) (A) (A) (A) (A) (A)
                 (A) (A) (A) (A) (A) (A) (A) (A) (A) (A) (A) (A)
                 (A) (A) (A) (A) (A) (A) (A) (A) (A) (A) (A) (A)
                 (A) (A) (A) (A) (A) (A) (A) (A) (A) (A) (A) (A)
                 (A)
       Virtual   (A) (A) (A) (A) (A) (A) (A) (A) (A) (A) (A) (A)
                 (A) (A) (A) (A) (A) (A) (A) (A) (A) (A) (A) (A)
                 (A) (A) (A) (A) (A) (A) (A) (A) (A) (A) (A) (A)
                 (A) (A) (A) (A) (A) (A) (A) (A) (A) (A) (A) (A)
                 (A) (A) (A) (A) (A) (A) (A) (A) (A) (A) (A) (A)
                 (A) (A) (A) (A) (A) (A) (A) (A) (A) (A) (A) (A)
                 (A) (A) (A) (A) (A) (A) (A) (A) (A) (A) (A) (A)
                 (A) (A) (A) (A) (A) (A) (A) (A) (A) (A) (A) (A)
                 (A) (A) (A) (A) (A) (A) (A) (A) (A) (A) (A) (A)
                 (A) (A) (A) (A) (A) (A) (A) (A) (A) (A) (A) (A)
                 (A) (A) (A) (A) (A) (A) (A) (A) (A) (A) (A) (A)
                 (A) (A) (A) (A) (A) (A) (A) (A) (A) (A) (A) (A)
                 (A) (A) (A) (A) (A) (A) (A) (A) (A) (A) (A) (A)
                 (A) (A) (A) (A) (A) (A) (A) (A) (A) (A) (A) (A)
                 (A) (A) (A) (A) (A) (A) (A) (A) (A) (A) (A) (A)
                 (A) (A) (A) (A) (A) (A) (A) (A) (A) (A) (A) (A)
                 (A) (A) (A) (A) (A) (A) (A) (A) (A) (A) (A) (A)
 The electronic state is 1-A.
 Alpha  occ. eigenvalues -- -482.90905 -61.87081 -56.39213 -56.38805 -56.38794
 Alpha  occ. eigenvalues --  -19.19572 -19.13488 -10.31552 -10.24714 -10.24528
 Alpha  occ. eigenvalues --  -10.20932 -10.20587 -10.20282 -10.20235 -10.19944
 Alpha  occ. eigenvalues --  -10.19938 -10.18862  -8.58227  -6.53617  -6.52352
 Alpha  occ. eigenvalues --   -6.52325  -2.65191  -2.64829  -2.64810  -2.63800
 Alpha  occ. eigenvalues --   -2.63800  -1.11320  -1.02102  -0.88362  -0.82246
 Alpha  occ. eigenvalues --   -0.78829  -0.76343  -0.76014  -0.70068  -0.64740
 Alpha  occ. eigenvalues --   -0.62548  -0.59346  -0.57217  -0.51876  -0.50365
 Alpha  occ. eigenvalues --   -0.49011  -0.48571  -0.46730  -0.46358  -0.43722
 Alpha  occ. eigenvalues --   -0.43540  -0.41275  -0.40663  -0.40052  -0.39452
 Alpha  occ. eigenvalues --   -0.38511  -0.36628  -0.35882  -0.35425  -0.34559
 Alpha  occ. eigenvalues --   -0.31200  -0.30447  -0.28530  -0.27499  -0.26569
 Alpha  occ. eigenvalues --   -0.23685
 Alpha virt. eigenvalues --   -0.02021  -0.01350   0.00933   0.02560   0.09593
 Alpha virt. eigenvalues --    0.11119   0.11992   0.12540   0.13271   0.14449
 Alpha virt. eigenvalues --    0.15073   0.15507   0.16442   0.17390   0.18020
 Alpha virt. eigenvalues --    0.19027   0.19363   0.21051   0.22450   0.23685
 Alpha virt. eigenvalues --    0.26123   0.28328   0.30182   0.32007   0.32968
 Alpha virt. eigenvalues --    0.34434   0.35303   0.42120   0.44842   0.46491
 Alpha virt. eigenvalues --    0.46508   0.46591   0.47570   0.48584   0.49151
 Alpha virt. eigenvalues --    0.50598   0.51570   0.51995   0.52791   0.53217
 Alpha virt. eigenvalues --    0.55046   0.56590   0.57271   0.58224   0.58555
 Alpha virt. eigenvalues --    0.59790   0.60658   0.60964   0.62236   0.63727
 Alpha virt. eigenvalues --    0.66003   0.67114   0.68153   0.70665   0.71490
 Alpha virt. eigenvalues --    0.73019   0.74883   0.75535   0.78459   0.79142
 Alpha virt. eigenvalues --    0.80051   0.81507   0.82456   0.83177   0.83965
 Alpha virt. eigenvalues --    0.84524   0.86240   0.87158   0.87987   0.89970
 Alpha virt. eigenvalues --    0.90050   0.90493   0.92093   0.95634   0.96147
 Alpha virt. eigenvalues --    0.99025   0.99536   1.01275   1.02858   1.07103
 Alpha virt. eigenvalues --    1.09533   1.10064   1.14004   1.15982   1.18100
 Alpha virt. eigenvalues --    1.18986   1.23587   1.24733   1.26546   1.27500
 Alpha virt. eigenvalues --    1.30931   1.31694   1.35401   1.38659   1.39531
 Alpha virt. eigenvalues --    1.40808   1.42124   1.42927   1.46576   1.50248
 Alpha virt. eigenvalues --    1.54096   1.57323   1.59141   1.60463   1.64736
 Alpha virt. eigenvalues --    1.64931   1.69817   1.73580   1.77456   1.78471
 Alpha virt. eigenvalues --    1.80868   1.83316   1.83786   1.84894   1.87160
 Alpha virt. eigenvalues --    1.89231   1.91506   1.91715   1.92655   1.93903
 Alpha virt. eigenvalues --    1.96670   1.97992   1.98654   1.99724   2.00491
 Alpha virt. eigenvalues --    2.03095   2.03356   2.04832   2.06977   2.07681
 Alpha virt. eigenvalues --    2.08172   2.08596   2.10892   2.12920   2.17599
 Alpha virt. eigenvalues --    2.19152   2.19897   2.21892   2.25682   2.28846
 Alpha virt. eigenvalues --    2.30641   2.31674   2.33814   2.38705   2.40688
 Alpha virt. eigenvalues --    2.41198   2.42037   2.43771   2.45179   2.46187
 Alpha virt. eigenvalues --    2.48181   2.49966   2.51421   2.54376   2.57528
 Alpha virt. eigenvalues --    2.59946   2.62111   2.62627   2.65306   2.68468
 Alpha virt. eigenvalues --    2.68790   2.70893   2.71673   2.73767   2.76234
 Alpha virt. eigenvalues --    2.76984   2.78936   2.83148   2.87676   2.88056
 Alpha virt. eigenvalues --    2.89028   2.89497   2.94218   3.00415   3.07630
 Alpha virt. eigenvalues --    3.09914   3.14690   3.20067   3.21355   3.25076
 Alpha virt. eigenvalues --    3.28186   3.30498   3.32362   3.36576   3.37824
 Alpha virt. eigenvalues --    3.46403   3.48966   3.52019   3.52307   3.81624
 Alpha virt. eigenvalues --    4.08632   4.11055   4.14272   4.15746   4.24127
 Alpha virt. eigenvalues --    4.27813   4.36253   4.43326   4.44844   4.58593
 Alpha virt. eigenvalues --    4.65748   4.83274   8.60871  72.81716
          Condensed to atoms (all electrons):
               1          2          3          4          5          6
     1  C    4.947792   0.369265  -0.044165   0.005024   0.000951  -0.000150
     2  C    0.369265   4.709762   0.197822  -0.016513   0.002658   0.006807
     3  O   -0.044165   0.197822   8.272748   0.261053  -0.082140  -0.098273
     4  C    0.005024  -0.016513   0.261053   4.343467   0.570134   0.342158
     5  O    0.000951   0.002658  -0.082140   0.570134   8.031940  -0.068731
     6  C   -0.000150   0.006807  -0.098273   0.342158  -0.068731   5.170479
     7  C   -0.000011  -0.000044  -0.004001  -0.035080  -0.003394   0.362181
     8  C   -0.000001  -0.000021   0.000318  -0.002969   0.001632  -0.057336
     9  C    0.000000  -0.000000   0.000003   0.000042   0.000006   0.006773
    10  C    0.000000   0.000000   0.000001   0.000022   0.000001   0.000463
    11  Br   0.000000  -0.000000   0.000000   0.000000  -0.000000   0.000004
    12  C   -0.000001  -0.000005   0.000041   0.000078   0.000004   0.006574
    13  C   -0.000054  -0.000165   0.002999  -0.006215  -0.000088  -0.063950
    14  H    0.383851  -0.031036   0.000953  -0.000028  -0.000013  -0.000024
    15  H    0.382774  -0.030622   0.000870  -0.000037  -0.000011  -0.000022
    16  H    0.376716  -0.029924   0.002875  -0.000047   0.000017   0.000006
    17  H   -0.039417   0.384977  -0.035464  -0.004266   0.007837   0.000221
    18  H   -0.041685   0.387375  -0.035006  -0.004359   0.004594  -0.000045
    19  H   -0.000077  -0.000154   0.004454  -0.030797   0.002748   0.355516
    20  H    0.000002  -0.000187   0.003053  -0.028488   0.000437   0.365575
    21  H   -0.000000  -0.000001   0.000007   0.000196   0.000552  -0.010414
    22  H   -0.000000   0.000000   0.000000  -0.000001   0.000000  -0.000182
    23  H   -0.000000   0.000000  -0.000001  -0.000002   0.000000  -0.000180
    24  H    0.000020  -0.000094   0.003954  -0.000090   0.000023  -0.009972
               7          8          9         10         11         12
     1  C   -0.000011  -0.000001   0.000000   0.000000   0.000000  -0.000001
     2  C   -0.000044  -0.000021  -0.000000   0.000000  -0.000000  -0.000005
     3  O   -0.004001   0.000318   0.000003   0.000001   0.000000   0.000041
     4  C   -0.035080  -0.002969   0.000042   0.000022   0.000000   0.000078
     5  O   -0.003394   0.001632   0.000006   0.000001  -0.000000   0.000004
     6  C    0.362181  -0.057336   0.006773   0.000463   0.000004   0.006574
     7  C    4.703872   0.555233  -0.028953  -0.032322   0.000339  -0.027995
     8  C    0.555233   4.888669   0.491535  -0.030896   0.005634  -0.049597
     9  C   -0.028953   0.491535   4.893660   0.531883  -0.060635  -0.033586
    10  C   -0.032322  -0.030896   0.531883   4.796906   0.257756   0.529995
    11  Br   0.000339   0.005634  -0.060635   0.257756  34.993637  -0.060732
    12  C   -0.027995  -0.049597  -0.033586   0.529995  -0.060732   4.896464
    13  C    0.541511  -0.034084  -0.050236  -0.030780   0.005664   0.489623
    14  H   -0.000002   0.000000  -0.000000   0.000000  -0.000000   0.000003
    15  H    0.000001   0.000000  -0.000000   0.000000   0.000000   0.000000
    16  H   -0.000000  -0.000000  -0.000000   0.000000  -0.000000   0.000000
    17  H   -0.000012  -0.000010  -0.000000   0.000000   0.000000   0.000001
    18  H   -0.000018  -0.000000  -0.000000   0.000000  -0.000000   0.000000
    19  H   -0.026266   0.003995  -0.000183   0.000016  -0.000000   0.000153
    20  H   -0.024904  -0.006973   0.000217   0.000011  -0.000000  -0.000181
    21  H   -0.040177   0.368487  -0.039718   0.004501  -0.000156   0.000559
    22  H    0.004076  -0.035550   0.369550  -0.043143  -0.003552   0.005265
    23  H    0.004009   0.000592   0.005310  -0.042972  -0.003519   0.369471
    24  H   -0.042535   0.005626   0.000544   0.004581  -0.000156  -0.039420
              13         14         15         16         17         18
     1  C   -0.000054   0.383851   0.382774   0.376716  -0.039417  -0.041685
     2  C   -0.000165  -0.031036  -0.030622  -0.029924   0.384977   0.387375
     3  O    0.002999   0.000953   0.000870   0.002875  -0.035464  -0.035006
     4  C   -0.006215  -0.000028  -0.000037  -0.000047  -0.004266  -0.004359
     5  O   -0.000088  -0.000013  -0.000011   0.000017   0.007837   0.004594
     6  C   -0.063950  -0.000024  -0.000022   0.000006   0.000221  -0.000045
     7  C    0.541511  -0.000002   0.000001  -0.000000  -0.000012  -0.000018
     8  C   -0.034084   0.000000   0.000000  -0.000000  -0.000010  -0.000000
     9  C   -0.050236  -0.000000  -0.000000  -0.000000  -0.000000  -0.000000
    10  C   -0.030780   0.000000   0.000000   0.000000   0.000000   0.000000
    11  Br   0.005664  -0.000000   0.000000  -0.000000   0.000000  -0.000000
    12  C    0.489623   0.000003   0.000000   0.000000   0.000001   0.000000
    13  C    4.912199   0.000037  -0.000001  -0.000000   0.000044   0.000008
    14  H    0.000037   0.583636  -0.031769  -0.027191  -0.006570   0.005464
    15  H   -0.000001  -0.031769   0.585589  -0.027497   0.005391  -0.006357
    16  H   -0.000000  -0.027191  -0.027497   0.589925  -0.000493  -0.000367
    17  H    0.000044  -0.006570   0.005391  -0.000493   0.609088  -0.045075
    18  H    0.000008   0.005464  -0.006357  -0.000367  -0.045075   0.617562
    19  H   -0.006597   0.000006   0.000015   0.000000   0.000017  -0.000022
    20  H    0.004905   0.000000   0.000000  -0.000000  -0.000001   0.000027
    21  H    0.005796   0.000000   0.000000  -0.000000   0.000000  -0.000000
    22  H    0.000612   0.000000  -0.000000   0.000000  -0.000000   0.000000
    23  H   -0.036219  -0.000000  -0.000000   0.000000  -0.000000  -0.000000
    24  H    0.368260   0.000210   0.000008   0.000001   0.000017   0.000011
              19         20         21         22         23         24
     1  C   -0.000077   0.000002  -0.000000  -0.000000  -0.000000   0.000020
     2  C   -0.000154  -0.000187  -0.000001   0.000000   0.000000  -0.000094
     3  O    0.004454   0.003053   0.000007   0.000000  -0.000001   0.003954
     4  C   -0.030797  -0.028488   0.000196  -0.000001  -0.000002  -0.000090
     5  O    0.002748   0.000437   0.000552   0.000000   0.000000   0.000023
     6  C    0.355516   0.365575  -0.010414  -0.000182  -0.000180  -0.009972
     7  C   -0.026266  -0.024904  -0.040177   0.004076   0.004009  -0.042535
     8  C    0.003995  -0.006973   0.368487  -0.035550   0.000592   0.005626
     9  C   -0.000183   0.000217  -0.039718   0.369550   0.005310   0.000544
    10  C    0.000016   0.000011   0.004501  -0.043143  -0.042972   0.004581
    11  Br  -0.000000  -0.000000  -0.000156  -0.003552  -0.003519  -0.000156
    12  C    0.000153  -0.000181   0.000559   0.005265   0.369471  -0.039420
    13  C   -0.006597   0.004905   0.005796   0.000612  -0.036219   0.368260
    14  H    0.000006   0.000000   0.000000   0.000000  -0.000000   0.000210
    15  H    0.000015   0.000000   0.000000  -0.000000  -0.000000   0.000008
    16  H    0.000000  -0.000000  -0.000000   0.000000   0.000000   0.000001
    17  H    0.000017  -0.000001   0.000000  -0.000000  -0.000000   0.000017
    18  H   -0.000022   0.000027  -0.000000   0.000000  -0.000000   0.000011
    19  H    0.591685  -0.028263   0.000085   0.000003  -0.000006   0.003821
    20  H   -0.028263   0.577797   0.005097  -0.000008   0.000003   0.000072
    21  H    0.000085   0.005097   0.611302  -0.006181   0.000018  -0.000201
    22  H    0.000003  -0.000008  -0.006181   0.599696  -0.000174   0.000018
    23  H   -0.000006   0.000003   0.000018  -0.000174   0.602332  -0.006215
    24  H    0.003821   0.000072  -0.000201   0.000018  -0.006215   0.613227
 Mulliken charges:
               1
     1  C   -0.340834
     2  C    0.050100
     3  O   -0.452102
     4  C    0.606718
     5  O   -0.469154
     6  C   -0.307479
     7  C    0.094492
     8  C   -0.104284
     9  C   -0.086210
    10  C    0.053976
    11  Br  -0.134284
    12  C   -0.086712
    13  C   -0.103269
    14  H    0.122472
    15  H    0.121666
    16  H    0.115979
    17  H    0.123715
    18  H    0.117894
    19  H    0.129850
    20  H    0.131810
    21  H    0.100247
    22  H    0.109570
    23  H    0.107552
    24  H    0.098288
 Sum of Mulliken charges =  -0.00000
 Mulliken charges with hydrogens summed into heavy atoms:
               1
     1  C    0.019284
     2  C    0.291709
     3  O   -0.452102
     4  C    0.606718
     5  O   -0.469154
     6  C   -0.045819
     7  C    0.094492
     8  C   -0.004037
     9  C    0.023360
    10  C    0.053976
    11  Br  -0.134284
    12  C    0.020839
    13  C   -0.004982
 Electronic spatial extent (au):  <R**2>=           4928.2015
 Charge=              0.0000 electrons
 Dipole moment (field-independent basis, Debye):
    X=             -1.7794    Y=              0.9481    Z=              1.4877  Tot=              2.5057
 Quadrupole moment (field-independent basis, Debye-Ang):
   XX=            -87.2156   YY=            -83.2301   ZZ=            -89.5412
   XY=             -7.5369   XZ=             -4.5557   YZ=             -2.1064
 Traceless Quadrupole moment (field-independent basis, Debye-Ang):
   XX=             -0.5533   YY=              3.4322   ZZ=             -2.8789
   XY=             -7.5369   XZ=             -4.5557   YZ=             -2.1064
 Octapole moment (field-independent basis, Debye-Ang**2):
  XXX=             45.0974  YYY=             12.4701  ZZZ=             -8.2624  XYY=             28.3068
  XXY=             34.3169  XXZ=             -0.1497  XZZ=             31.2273  YZZ=             11.8805
  YYZ=             -1.2756  XYZ=             19.4319
 Hexadecapole moment (field-independent basis, Debye-Ang**3):
 XXXX=          -4232.8257 YYYY=           -864.1750 ZZZZ=           -332.6576 XXXY=            -36.2022
 XXXZ=            -44.1841 YYYX=             55.5076 YYYZ=              1.5486 ZZZX=            -35.5896
 ZZZY=             -1.5895 XXYY=           -867.3394 XXZZ=           -809.9652 YYZZ=           -205.8364
 XXYZ=            -50.1576 YYXZ=            -22.5293 ZZXY=              6.7884
 N-N= 1.013981009134D+03 E-N=-9.413806806800D+03  KE= 3.089525741587D+03
 No NMR shielding tensors so no spin-rotation constants.
 Leave Link  601 at Tue Sep 17 09:53:35 2024, MaxMem=  1342177280 cpu:               0.7 elap:               0.1
 (Enter /groups/ReismanLab/Software/Gaussian16_RevC/Linux_Binary_AVX2-enabled-CPU/g16/l701.exe)
 ... and contract with generalized density number  0.
 Compute integral first derivatives.
 R6Disp: Adding Grimme-D3(BJ) dispersion energy 1st derivatives to the gradient.
 Leave Link  701 at Tue Sep 17 09:53:35 2024, MaxMem=  1342177280 cpu:               0.7 elap:               0.1
 (Enter /groups/ReismanLab/Software/Gaussian16_RevC/Linux_Binary_AVX2-enabled-CPU/g16/l702.exe)
 L702 exits ... SP integral derivatives will be done elsewhere.
 Leave Link  702 at Tue Sep 17 09:53:35 2024, MaxMem=  1342177280 cpu:               0.1 elap:               0.0
 (Enter /groups/ReismanLab/Software/Gaussian16_RevC/Linux_Binary_AVX2-enabled-CPU/g16/l703.exe)
 Integral derivatives from FoFJK, PRISM(SPDF).
 Compute integral first derivatives, UseDBF=F ICtDFT=           0.
 Calling FoFJK, ICntrl=      2127 FMM=F ISym2X=0 I1Cent= 0 IOpClX= 0 NMat=1 NMatS=1 NMatT=0.
 FoFJK:  IHMeth= 1 ICntrl=    2127 DoSepK=F KAlg= 0 I1Cent=           0 FoldK=F
 IRaf=         0 NMat=       1 IRICut=       1 DoRegI=T DoRafI=F ISym2E= 0 IDoP0=0 IntGTp=1.
 FoFCou: FMM=F IPFlag=           0 FMFlag=      100000 FMFlg1=         800
         NFxFlg=           0 DoJE=F BraDBF=F KetDBF=F FulRan=T
         wScrn=  0.000000 ICntrl=      2127 IOpCl=  0 I1Cent=           0 NGrid=           0
         NMat0=    1 NMatS0=      1 NMatT0=    0 NMatD0=    1 NMtDS0=    0 NMtDT0=    0
 Symmetry not used in FoFCou.
 Leave Link  703 at Tue Sep 17 09:53:40 2024, MaxMem=  1342177280 cpu:              38.2 elap:               4.9
 (Enter /groups/ReismanLab/Software/Gaussian16_RevC/Linux_Binary_AVX2-enabled-CPU/g16/l716.exe)
 Dipole        =-7.00082524D-01 3.73001822D-01 5.85324313D-01
 ***** Axes restored to original set *****
 -------------------------------------------------------------------
 Center     Atomic                   Forces (Hartrees/Bohr)
 Number     Number              X              Y              Z
 -------------------------------------------------------------------
      1        6          -0.002212403   -0.006175277    0.005349183
      2        6           0.004110989    0.008817828    0.003060530
      3        8          -0.001198693    0.000669355   -0.016681547
      4        6          -0.001987385   -0.013890180   -0.001788748
      5        8           0.004917814    0.005690191    0.017000770
      6        6           0.001737486    0.004988719    0.000483126
      7        6           0.002425277   -0.004890629   -0.001229537
      8        6           0.002433310   -0.001604860    0.002325043
      9        6          -0.004912559    0.000294884    0.005133596
     10        6          -0.006186991    0.002127071    0.000283411
     11       35          -0.002341092    0.000734483    0.000053861
     12        6          -0.003619972    0.003090578   -0.005048047
     13        6           0.002199519   -0.000240644   -0.003147247
     14        1          -0.003692501    0.001678928   -0.002537174
     15        1           0.002338091   -0.001617507   -0.004015743
     16        1           0.002430473    0.004320867   -0.000357363
     17        1           0.001492728   -0.000694447    0.000420339
     18        1          -0.000847145    0.000560549    0.001178872
     19        1           0.000675886   -0.002744266   -0.000896214
     20        1           0.001723956   -0.000790404    0.000139159
     21        1           0.001976056   -0.001844380    0.003558370
     22        1          -0.002175522   -0.000167785    0.002550565
     23        1          -0.001658302    0.001255555   -0.002542047
     24        1           0.002370979    0.000431372   -0.003293159
 -------------------------------------------------------------------
 Cartesian Forces:  Max     0.017000770 RMS     0.004386642
 Leave Link  716 at Tue Sep 17 09:53:40 2024, MaxMem=  1342177280 cpu:               0.0 elap:               0.0
 (Enter /groups/ReismanLab/Software/Gaussian16_RevC/Linux_Binary_AVX2-enabled-CPU/g16/l103.exe)

 GradGradGradGradGradGradGradGradGradGradGradGradGradGradGradGradGradGrad
 Berny optimization.
 FormGI is forming the generalized inverse of G from B-inverse, IUseBI=4.
 Internal  Forces:  Max     0.018587409 RMS     0.003721468
 Search for a local minimum.
 Step number   1 out of a maximum of  124
 All quantities printed in internal units (Hartrees-Bohrs-Radians)
 RMS Force = .37215D-02 SwitMx=.10000D-02 MixMth= 1
 Mixed Optimization -- RFO/linear search
 Second derivative matrix not updated -- first step.
 ITU=  0
     Eigenvalues ---    0.00499   0.00546   0.00702   0.01023   0.01283
     Eigenvalues ---    0.01616   0.02235   0.02265   0.02273   0.02293
     Eigenvalues ---    0.02298   0.02303   0.02307   0.02310   0.02598
     Eigenvalues ---    0.05321   0.05704   0.05728   0.05806   0.05850
     Eigenvalues ---    0.06696   0.08965   0.11354   0.12620   0.13670
     Eigenvalues ---    0.16000   0.16000   0.16000   0.16000   0.16000
     Eigenvalues ---    0.16000   0.16000   0.17956   0.21967   0.21999
     Eigenvalues ---    0.22012   0.22979   0.23994   0.24974   0.24989
     Eigenvalues ---    0.25000   0.25000   0.25000   0.30352   0.30695
     Eigenvalues ---    0.31878   0.34171   0.34187   0.34908   0.34920
     Eigenvalues ---    0.35200   0.35202   0.35292   0.36023   0.36070
     Eigenvalues ---    0.36087   0.36107   0.40864   0.43524   0.43594
     Eigenvalues ---    0.47600   0.47902   0.48399   0.48594   0.59147
     Eigenvalues ---    1.04266
 RFO step:  Lambda=-3.69827625D-03 EMin= 4.99437944D-03
 Linear search not attempted -- first point.
 Iteration  1 RMS(Cart)=  0.03475320 RMS(Int)=  0.00035994
 Iteration  2 RMS(Cart)=  0.00090724 RMS(Int)=  0.00012319
 Iteration  3 RMS(Cart)=  0.00000038 RMS(Int)=  0.00012319
 ITry= 1 IFail=0 DXMaxC= 1.12D-01 DCOld= 1.00D+10 DXMaxT= 3.00D-01 DXLimC= 3.00D+00 Rises=F
 Variable       Old X    -DE/DX   Delta X   Delta X   Delta X     New X
                                 (Linear)    (Quad)   (Total)
    R1        2.86599   0.00058   0.00000   0.00185   0.00185   2.86785
    R2        2.05351   0.00459   0.00000   0.01292   0.01292   2.06643
    R3        2.05348   0.00465   0.00000   0.01307   0.01307   2.06655
    R4        2.05204   0.00492   0.00000   0.01380   0.01380   2.06584
    R5        2.70396   0.00802   0.00000   0.01946   0.01946   2.72342
    R6        2.07016  -0.00084   0.00000  -0.00244  -0.00244   2.06772
    R7        2.07042  -0.00045   0.00000  -0.00130  -0.00130   2.06912
    R8        2.51622   0.01571   0.00000   0.02639   0.02639   2.54261
    R9        2.26978   0.01859   0.00000   0.01776   0.01776   2.28754
   R10        2.87266   0.00273   0.00000   0.00887   0.00887   2.88154
   R11        2.84368   0.00884   0.00000   0.02742   0.02742   2.87110
   R12        2.05825   0.00198   0.00000   0.00560   0.00560   2.06385
   R13        2.05804   0.00093   0.00000   0.00262   0.00262   2.06067
   R14        2.62530   0.00908   0.00000   0.01901   0.01902   2.64432
   R15        2.62712   0.00962   0.00000   0.02023   0.02023   2.64735
   R16        2.61392   0.01120   0.00000   0.02290   0.02290   2.63682
   R17        2.03973   0.00446   0.00000   0.01224   0.01224   2.05197
   R18        2.61509   0.00834   0.00000   0.01706   0.01706   2.63215
   R19        2.03915   0.00333   0.00000   0.00913   0.00913   2.04828
   R20        3.60199   0.00245   0.00000   0.01339   0.01339   3.61538
   R21        2.61622   0.00867   0.00000   0.01781   0.01780   2.63402
   R22        2.61247   0.01095   0.00000   0.02234   0.02234   2.63481
   R23        2.03945   0.00326   0.00000   0.00895   0.00895   2.04840
   R24        2.04045   0.00408   0.00000   0.01121   0.01121   2.05166
    A1        1.92337   0.00144   0.00000   0.00955   0.00949   1.93286
    A2        1.92223   0.00190   0.00000   0.01260   0.01255   1.93478
    A3        1.91305   0.00023   0.00000  -0.00033  -0.00032   1.91272
    A4        1.89720  -0.00129   0.00000  -0.00451  -0.00462   1.89258
    A5        1.90366  -0.00109   0.00000  -0.00865  -0.00865   1.89501
    A6        1.90405  -0.00125   0.00000  -0.00907  -0.00907   1.89498
    A7        1.89107  -0.00370   0.00000  -0.01562  -0.01558   1.87548
    A8        1.94708   0.00152   0.00000   0.00890   0.00890   1.95598
    A9        1.94410   0.00159   0.00000   0.00907   0.00906   1.95316
   A10        1.89765   0.00116   0.00000   0.00497   0.00501   1.90266
   A11        1.89637   0.00104   0.00000   0.00367   0.00370   1.90008
   A12        1.88653  -0.00156   0.00000  -0.01092  -0.01096   1.87557
   A13        2.03763  -0.00171   0.00000  -0.00674  -0.00674   2.03089
   A14        2.17051   0.00009   0.00000  -0.00036  -0.00099   2.16952
   A15        1.93186   0.00007   0.00000  -0.00042  -0.00105   1.93080
   A16        2.18021  -0.00019   0.00000  -0.00138  -0.00201   2.17820
   A17        1.86431   0.00713   0.00000   0.03752   0.03732   1.90163
   A18        1.90284  -0.00068   0.00000   0.00684   0.00651   1.90935
   A19        1.89731  -0.00336   0.00000  -0.02086  -0.02093   1.87638
   A20        1.93194  -0.00182   0.00000  -0.00129  -0.00169   1.93025
   A21        1.93350  -0.00071   0.00000   0.00004   0.00019   1.93369
   A22        1.93214  -0.00034   0.00000  -0.02046  -0.02053   1.91161
   A23        2.10538   0.00019   0.00000   0.00071   0.00070   2.10608
   A24        2.09735   0.00174   0.00000   0.00685   0.00684   2.10419
   A25        2.07960  -0.00193   0.00000  -0.00777  -0.00776   2.07184
   A26        2.10675   0.00119   0.00000   0.00515   0.00515   2.11190
   A27        2.09069  -0.00084   0.00000  -0.00410  -0.00410   2.08659
   A28        2.08575  -0.00035   0.00000  -0.00106  -0.00106   2.08468
   A29        2.07909  -0.00001   0.00000  -0.00033  -0.00033   2.07875
   A30        2.10435   0.00042   0.00000   0.00271   0.00271   2.10705
   A31        2.09975  -0.00041   0.00000  -0.00237  -0.00237   2.09738
   A32        2.08486   0.00009   0.00000   0.00048   0.00048   2.08535
   A33        2.11502  -0.00035   0.00000  -0.00162  -0.00163   2.11339
   A34        2.08330   0.00026   0.00000   0.00114   0.00114   2.08445
   A35        2.07836   0.00009   0.00000   0.00022   0.00021   2.07857
   A36        2.09898  -0.00040   0.00000  -0.00228  -0.00228   2.09670
   A37        2.10585   0.00031   0.00000   0.00207   0.00207   2.10791
   A38        2.10747   0.00101   0.00000   0.00441   0.00441   2.11187
   A39        2.08792  -0.00063   0.00000  -0.00296  -0.00296   2.08495
   A40        2.08780  -0.00038   0.00000  -0.00146  -0.00146   2.08634
    D1        1.06048   0.00029   0.00000   0.00272   0.00275   1.06323
    D2       -1.02787   0.00032   0.00000   0.00123   0.00128  -1.02659
    D3       -3.13772   0.00016   0.00000   0.00274   0.00275  -3.13497
    D4       -1.03254  -0.00024   0.00000  -0.00576  -0.00579  -1.03833
    D5       -3.12090  -0.00020   0.00000  -0.00725  -0.00726  -3.12815
    D6        1.05244  -0.00036   0.00000  -0.00574  -0.00579   1.04666
    D7       -3.12750  -0.00002   0.00000  -0.00221  -0.00221  -3.12972
    D8        1.06732   0.00001   0.00000  -0.00370  -0.00368   1.06364
    D9       -1.04252  -0.00014   0.00000  -0.00219  -0.00221  -1.04473
   D10       -3.04579  -0.00008   0.00000  -0.00539  -0.00539  -3.05118
   D11       -0.92669   0.00023   0.00000  -0.00101  -0.00101  -0.92770
   D12        1.12266  -0.00041   0.00000  -0.00924  -0.00924   1.11342
   D13       -0.02054  -0.00043   0.00000   0.00220   0.00221  -0.01834
   D14        3.08495  -0.00132   0.00000  -0.06126  -0.06127   3.02369
   D15       -1.51869   0.00050   0.00000   0.04078   0.04054  -1.47814
   D16        0.56957   0.00202   0.00000   0.06430   0.06438   0.63395
   D17        2.67739  -0.00084   0.00000   0.03095   0.03105   2.70843
   D18        1.58657  -0.00039   0.00000  -0.02309  -0.02328   1.56328
   D19       -2.60837   0.00113   0.00000   0.00044   0.00056  -2.60781
   D20       -0.50055  -0.00172   0.00000  -0.03292  -0.03278  -0.53333
   D21       -1.64803   0.00107   0.00000   0.02503   0.02505  -1.62299
   D22        1.44873   0.00092   0.00000   0.01949   0.01949   1.46822
   D23        2.56578  -0.00135   0.00000  -0.00479  -0.00483   2.56094
   D24       -0.62064  -0.00149   0.00000  -0.01033  -0.01039  -0.63104
   D25        0.41556   0.00086   0.00000   0.02224   0.02230   0.43786
   D26       -2.77086   0.00072   0.00000   0.01670   0.01675  -2.75412
   D27        3.11191  -0.00022   0.00000  -0.01018  -0.01016   3.10174
   D28       -0.02699  -0.00012   0.00000  -0.00651  -0.00649  -0.03349
   D29        0.01469  -0.00016   0.00000  -0.00507  -0.00507   0.00962
   D30       -3.12421  -0.00007   0.00000  -0.00140  -0.00140  -3.12561
   D31       -3.11104   0.00021   0.00000   0.00887   0.00887  -3.10217
   D32        0.02788   0.00009   0.00000   0.00413   0.00413   0.03201
   D33       -0.01362   0.00012   0.00000   0.00362   0.00363  -0.00999
   D34        3.12531  -0.00001   0.00000  -0.00111  -0.00112   3.12419
   D35       -0.00638   0.00009   0.00000   0.00298   0.00300  -0.00338
   D36        3.13733   0.00003   0.00000   0.00098   0.00099   3.13832
   D37        3.13253  -0.00001   0.00000  -0.00069  -0.00068   3.13185
   D38       -0.00695  -0.00007   0.00000  -0.00269  -0.00268  -0.00963
   D39        3.13923  -0.00005   0.00000  -0.00192  -0.00192   3.13731
   D40       -0.00324   0.00001   0.00000   0.00052   0.00052  -0.00272
   D41       -0.00448   0.00000   0.00000   0.00008   0.00009  -0.00439
   D42        3.13624   0.00007   0.00000   0.00252   0.00253   3.13877
   D43        0.00429  -0.00006   0.00000  -0.00194  -0.00194   0.00235
   D44       -3.13734  -0.00007   0.00000  -0.00243  -0.00243  -3.13977
   D45       -3.13818   0.00001   0.00000   0.00049   0.00050  -3.13768
   D46        0.00338   0.00000   0.00000   0.00000   0.00000   0.00338
   D47        0.00425  -0.00000   0.00000  -0.00013  -0.00013   0.00412
   D48       -3.13467   0.00013   0.00000   0.00462   0.00461  -3.13006
   D49       -3.13730   0.00001   0.00000   0.00037   0.00036  -3.13694
   D50        0.00696   0.00014   0.00000   0.00511   0.00511   0.01207
         Item               Value     Threshold  Converged?
 Maximum Force            0.018587     0.000450     NO 
 RMS     Force            0.003721     0.000300     NO 
 Maximum Displacement     0.112242     0.001800     NO 
 RMS     Displacement     0.034924     0.001200     NO 
 Predicted change in Energy=-1.894815D-03
 Lowest energy point so far.  Saving SCF results.
 GradGradGradGradGradGradGradGradGradGradGradGradGradGradGradGradGradGrad

 Leave Link  103 at Tue Sep 17 09:53:40 2024, MaxMem=  1342177280 cpu:               0.1 elap:               0.0
 (Enter /groups/ReismanLab/Software/Gaussian16_RevC/Linux_Binary_AVX2-enabled-CPU/g16/l202.exe)
                          Input orientation:                          
 ---------------------------------------------------------------------
 Center     Atomic      Atomic             Coordinates (Angstroms)
 Number     Number       Type             X           Y           Z
 ---------------------------------------------------------------------
      1          6           0        4.278676    2.182575   -1.964422
      2          6           0        4.218703    1.527988   -0.596567
      3          8           0        3.520659    0.276108   -0.746586
      4          6           0        3.269965   -0.407475    0.384880
      5          8           0        3.607025   -0.045274    1.489663
      6          6           0        2.387875   -1.617547    0.097147
      7          6           0        0.933135   -1.179296    0.098384
      8          6           0        0.163595   -1.262526    1.264130
      9          6           0       -1.158935   -0.818180    1.285532
     10          6           0       -1.712126   -0.281342    0.125410
     11         35           0       -3.526704    0.324727    0.140667
     12          6           0       -0.966012   -0.179934   -1.047574
     13          6           0        0.354270   -0.628108   -1.052128
     14          1           0        3.272233    2.377309   -2.345091
     15          1           0        4.801157    1.541729   -2.680122
     16          1           0        4.813869    3.133104   -1.892761
     17          1           0        3.687511    2.147197    0.132591
     18          1           0        5.217615    1.330361   -0.194085
     19          1           0        2.660160   -2.042844   -0.871234
     20          1           0        2.571672   -2.351623    0.882289
     21          1           0        0.603266   -1.673595    2.167897
     22          1           0       -1.751889   -0.887565    2.190208
     23          1           0       -1.411575    0.242011   -1.941120
     24          1           0        0.945397   -0.542668   -1.958767
 ---------------------------------------------------------------------
                    Distance matrix (angstroms):
                    1          2          3          4          5
     1  C    0.000000
     2  C    1.517600   0.000000
     3  O    2.385861   1.441171   0.000000
     4  C    3.639379   2.368409   1.345492   0.000000
     5  O    4.164749   2.683591   2.260875   1.210514   0.000000
     6  C    4.718700   3.705072   2.362417   1.524843   2.428470
     7  C    5.172040   4.313618   3.086658   2.477613   3.220458
     8  C    6.263079   5.262419   4.204789   3.339720   3.659204
     9  C    7.009590   6.161638   5.217813   4.538172   4.832538
    10  C    6.806468   6.242568   5.334152   4.990438   5.496388
    11  Br   8.294997   7.872908   7.103163   6.840357   7.269579
    12  C    5.824845   5.477378   4.519822   4.477411   5.231479
    13  C    4.912553   4.448609   3.307111   3.258059   4.169029
    14  H    1.093507   2.162056   2.651788   3.899714   4.548223
    15  H    1.093571   2.163480   2.641975   3.941851   4.618619
    16  H    1.093194   2.147264   3.338943   4.484082   4.795764
    17  H    2.179035   1.094191   2.074070   2.600835   2.579739
    18  H    2.177606   1.094931   2.072768   2.673689   2.705805
    19  H    4.654979   3.905809   2.476598   2.150376   3.234297
    20  H    5.619305   4.466666   3.234004   2.124792   2.600020
    21  H    6.742014   5.564510   4.561440   3.448694   3.483388
    22  H    7.940681   7.017761   6.146434   5.358051   5.469750
    23  H    6.012096   5.929721   5.074940   5.267725   6.085980
    24  H    4.305547   4.105817   2.961714   3.303722   4.384442
                    6          7          8          9         10
     6  C    0.000000
     7  C    1.519321   0.000000
     8  C    2.536791   1.399314   0.000000
     9  C    3.825063   2.432381   1.395344   0.000000
    10  C    4.312337   2.793645   2.403691   1.392874   0.000000
    11  Br   6.225477   4.706807   4.171312   2.867627   1.913177
    12  C    3.824353   2.432838   2.791414   2.426512   1.393866
    13  C    2.536803   1.400918   2.409127   2.791159   2.403505
    14  H    4.765027   4.908298   5.994873   6.559559   6.165682
    15  H    4.849554   5.485041   6.702831   7.537790   7.322394
    16  H    5.693318   6.133641   7.135305   7.835087   7.636758
    17  H    3.982914   4.318948   5.032353   5.797480   5.920636
    18  H    4.096633   4.974001   5.864518   6.889548   7.121866
    19  H    1.092144   2.160670   3.376613   4.553782   4.817995
    20  H    1.090457   2.161866   2.670350   4.053576   4.817661
    21  H    2.734223   2.153144   1.085857   2.148408   3.386911
    22  H    4.695894   3.416165   2.160392   1.083904   2.152319
    23  H    4.695563   3.417214   3.875360   3.405747   2.152853
    24  H    2.731829   2.153443   3.393593   3.876802   3.387405
                   11         12         13         14         15
    11  Br   0.000000
    12  C    2.867707   0.000000
    13  C    4.170446   1.394283   0.000000
    14  H    7.524469   5.117203   4.383924   0.000000
    15  H    8.876442   6.236150   5.208969   1.774274   0.000000
    16  H    9.032551   6.715474   5.894184   1.775520   1.775550
    17  H    7.440858   5.335129   4.496261   2.522759   3.085151
    18  H    8.808318   6.422357   5.312622   3.083413   2.529525
    19  H    6.701241   4.080522   2.711334   4.699430   4.550287
[...]
 Alpha  occ. eigenvalues --  -10.55452 -10.53079  -9.02676  -6.85080  -6.84210
 Alpha  occ. eigenvalues --   -6.84191  -2.88456  -2.88141  -2.88118  -2.87308
 Alpha  occ. eigenvalues --   -2.87308  -1.23256  -1.14186  -0.98547  -0.91941
 Alpha  occ. eigenvalues --   -0.88063  -0.85743  -0.85146  -0.79127  -0.72607
 Alpha  occ. eigenvalues --   -0.70732  -0.67346  -0.65432  -0.59493  -0.58344
 Alpha  occ. eigenvalues --   -0.56668  -0.55664  -0.54594  -0.53416  -0.50506
 Alpha  occ. eigenvalues --   -0.50107  -0.47603  -0.47246  -0.46423  -0.45881
 Alpha  occ. eigenvalues --   -0.44824  -0.42663  -0.42341  -0.41468  -0.40650
 Alpha  occ. eigenvalues --   -0.38287  -0.37567  -0.35643  -0.35198  -0.32197
 Alpha  occ. eigenvalues --   -0.29455
 Alpha virt. eigenvalues --    0.00165   0.00698   0.03521   0.05278   0.06820
 Alpha virt. eigenvalues --    0.09169   0.09954   0.10612   0.11475   0.12711
 Alpha virt. eigenvalues --    0.13255   0.13858   0.14508   0.15326   0.15801
 Alpha virt. eigenvalues --    0.16429   0.16915   0.17327   0.17894   0.18660
 Alpha virt. eigenvalues --    0.20416   0.21478   0.22278   0.23207   0.24054
 Alpha virt. eigenvalues --    0.24870   0.25176   0.25345   0.25974   0.26802
 Alpha virt. eigenvalues --    0.27194   0.27658   0.28406   0.29269   0.30831
 Alpha virt. eigenvalues --    0.30981   0.31972   0.32541   0.32829   0.34150
 Alpha virt. eigenvalues --    0.34605   0.34958   0.35215   0.35745   0.37529
 Alpha virt. eigenvalues --    0.38470   0.38645   0.39188   0.40441   0.40816
 Alpha virt. eigenvalues --    0.41301   0.42163   0.42526   0.43452   0.44375
 Alpha virt. eigenvalues --    0.44639   0.45240   0.45644   0.46687   0.46913
 Alpha virt. eigenvalues --    0.47703   0.48258   0.48521   0.49404   0.50359
 Alpha virt. eigenvalues --    0.50871   0.52497   0.53309   0.54240   0.54973
 Alpha virt. eigenvalues --    0.55549   0.56652   0.56976   0.57027   0.58545
 Alpha virt. eigenvalues --    0.59096   0.60314   0.60951   0.62538   0.63541
 Alpha virt. eigenvalues --    0.64281   0.65438   0.67547   0.68353   0.69703
 Alpha virt. eigenvalues --    0.70102   0.71926   0.72869   0.74128   0.75730
 Alpha virt. eigenvalues --    0.76526   0.77500   0.78958   0.80340   0.80909
 Alpha virt. eigenvalues --    0.81828   0.83040   0.84275   0.86156   0.87246
 Alpha virt. eigenvalues --    0.88585   0.89730   0.90179   0.91356   0.91638
 Alpha virt. eigenvalues --    0.92675   0.93211   0.94472   0.96252   0.98129
 Alpha virt. eigenvalues --    0.99569   1.00406   1.02601   1.04245   1.05233
 Alpha virt. eigenvalues --    1.05570   1.07670   1.08287   1.08417   1.11405
 Alpha virt. eigenvalues --    1.11785   1.12817   1.13548   1.14520   1.17645
 Alpha virt. eigenvalues --    1.20198   1.20788   1.21978   1.22683   1.24083
 Alpha virt. eigenvalues --    1.25280   1.26009   1.26534   1.27386   1.29949
 Alpha virt. eigenvalues --    1.31264   1.33089   1.34284   1.37463   1.39513
 Alpha virt. eigenvalues --    1.40404   1.41525   1.42061   1.43397   1.44324
 Alpha virt. eigenvalues --    1.44905   1.47911   1.48737   1.49568   1.50272
 Alpha virt. eigenvalues --    1.51110   1.53235   1.53991   1.54525   1.55677
 Alpha virt. eigenvalues --    1.57700   1.57906   1.58358   1.58795   1.59755
 Alpha virt. eigenvalues --    1.60163   1.60539   1.61177   1.61839   1.63527
 Alpha virt. eigenvalues --    1.64629   1.65267   1.65989   1.66222   1.66771
 Alpha virt. eigenvalues --    1.67443   1.68069   1.70013   1.71726   1.73464
 Alpha virt. eigenvalues --    1.73781   1.75252   1.75681   1.76947   1.77766
 Alpha virt. eigenvalues --    1.80104   1.82129   1.82288   1.83097   1.83960
 Alpha virt. eigenvalues --    1.86089   1.87009   1.87426   1.89403   1.90079
 Alpha virt. eigenvalues --    1.92846   1.93242   1.94737   1.94888   1.95903
 Alpha virt. eigenvalues --    1.99277   2.01393   2.02286   2.04984   2.05967
 Alpha virt. eigenvalues --    2.06747   2.09119   2.09928   2.11870   2.12291
 Alpha virt. eigenvalues --    2.15221   2.17725   2.18738   2.19645   2.21038
 Alpha virt. eigenvalues --    2.21393   2.23366   2.27419   2.29603   2.31867
 Alpha virt. eigenvalues --    2.33071   2.34048   2.35177   2.36144   2.36341
 Alpha virt. eigenvalues --    2.37730   2.39655   2.40466   2.41722   2.43321
 Alpha virt. eigenvalues --    2.44863   2.46583   2.49262   2.51410   2.53641
 Alpha virt. eigenvalues --    2.54287   2.56640   2.57028   2.57773   2.58420
 Alpha virt. eigenvalues --    2.59098   2.60918   2.61882   2.62122   2.63260
 Alpha virt. eigenvalues --    2.64110   2.65760   2.68476   2.69090   2.69750
 Alpha virt. eigenvalues --    2.70112   2.71605   2.72096   2.72826   2.75467
 Alpha virt. eigenvalues --    2.76100   2.76167   2.77548   2.80357   2.81783
 Alpha virt. eigenvalues --    2.82884   2.84192   2.84396   2.84706   2.85577
 Alpha virt. eigenvalues --    2.86890   2.89097   2.90124   2.91176   2.93335
 Alpha virt. eigenvalues --    2.95092   2.96850   2.97822   2.99046   3.00972
 Alpha virt. eigenvalues --    3.03724   3.04997   3.05632   3.07035   3.07491
 Alpha virt. eigenvalues --    3.08573   3.09400   3.10460   3.13122   3.13451
 Alpha virt. eigenvalues --    3.13614   3.14078   3.15298   3.16001   3.17292
 Alpha virt. eigenvalues --    3.19064   3.19882   3.21982   3.22639   3.24648
 Alpha virt. eigenvalues --    3.25629   3.26611   3.27196   3.27567   3.28808
 Alpha virt. eigenvalues --    3.30965   3.32535   3.33761   3.34794   3.35137
 Alpha virt. eigenvalues --    3.36523   3.37413   3.38376   3.39461   3.40181
 Alpha virt. eigenvalues --    3.41954   3.42902   3.43496   3.45262   3.45738
 Alpha virt. eigenvalues --    3.46791   3.47126   3.47965   3.48990   3.50234
 Alpha virt. eigenvalues --    3.50998   3.51520   3.51986   3.54074   3.56877
 Alpha virt. eigenvalues --    3.58393   3.61047   3.62677   3.68153   3.70759
 Alpha virt. eigenvalues --    3.71028   3.72819   3.74370   3.75655   3.77022
 Alpha virt. eigenvalues --    3.77651   3.81782   3.84422   3.85636   3.86901
 Alpha virt. eigenvalues --    3.87761   3.89189   3.95882   3.96219   3.98541
 Alpha virt. eigenvalues --    3.99694   4.01373   4.04224   4.06325   4.06858
 Alpha virt. eigenvalues --    4.08606   4.11932   4.12584   4.15821   4.16184
 Alpha virt. eigenvalues --    4.18130   4.19230   4.20093   4.22098   4.23852
 Alpha virt. eigenvalues --    4.25616   4.27125   4.27836   4.31509   4.33597
 Alpha virt. eigenvalues --    4.36683   4.38353   4.40041   4.42346   4.43030
 Alpha virt. eigenvalues --    4.47212   4.49675   4.51475   4.52695   4.55520
 Alpha virt. eigenvalues --    4.59918   4.62642   4.64973   4.67516   4.72837
 Alpha virt. eigenvalues --    4.73441   4.79719   4.81327   4.83941   4.84737
 Alpha virt. eigenvalues --    4.91178   4.93465   5.10877   5.12880   5.18724
 Alpha virt. eigenvalues --    5.23744   5.29262   5.32269   5.33408   5.41926
 Alpha virt. eigenvalues --    5.44260   5.50140   5.53185   5.62208   5.68154
 Alpha virt. eigenvalues --    5.82446   5.96883   6.04899   6.14228   6.18577
 Alpha virt. eigenvalues --    6.35727   6.37607   6.51151   6.65617   6.67094
 Alpha virt. eigenvalues --    6.76575   6.81942   6.88862   7.00768   7.09879
 Alpha virt. eigenvalues --    7.26448   7.37627   7.85154  22.11818  22.40856
 Alpha virt. eigenvalues --   22.52638  22.62068  22.72947  22.78881  22.81093
 Alpha virt. eigenvalues --   22.88019  23.27244  23.39863  44.04768  44.34831
          Condensed to atoms (all electrons):
               1          2          3          4          5          6
     1  C    5.029432   0.271515  -0.039710   0.004744   0.004774   0.001689
     2  C    0.271515   4.953490   0.192521  -0.046516  -0.006771   0.003992
     3  O   -0.039710   0.192521   8.009960   0.335428  -0.083910  -0.093689
     4  C    0.004744  -0.046516   0.335428   4.506916   0.644728   0.296008
     5  O    0.004774  -0.006771  -0.083910   0.644728   7.858130  -0.072974
     6  C    0.001689   0.003992  -0.093689   0.296008  -0.072974   5.283120
     7  C    0.000041   0.001798  -0.006838  -0.015590  -0.014415   0.235211
     8  C   -0.000156  -0.000210   0.001146  -0.002375   0.010331  -0.063529
     9  C    0.000018   0.000032  -0.000302   0.000133  -0.000389   0.009238
    10  C   -0.000007  -0.000053   0.000356   0.000565   0.000120  -0.003138
    11  Br   0.000000  -0.000000  -0.000000   0.000019  -0.000000  -0.000084
    12  C    0.000014   0.000255  -0.002002   0.000578  -0.000055   0.007702
    13  C   -0.000399  -0.001586   0.013841  -0.008711   0.000419  -0.060658
    14  H    0.408659  -0.033951   0.000156  -0.000681  -0.000106  -0.000125
    15  H    0.408015  -0.035700   0.001041  -0.000022  -0.000084  -0.000112
    16  H    0.413238  -0.041616   0.004456   0.000003   0.000097   0.000021
    17  H   -0.034550   0.421630  -0.039118  -0.003758   0.006616   0.000543
    18  H   -0.035910   0.425029  -0.033188  -0.009508   0.003733   0.000094
    19  H   -0.000448   0.000107   0.002284  -0.039859   0.003776   0.429480
    20  H    0.000005  -0.000541   0.004087  -0.049479   0.002118   0.438353
    21  H   -0.000003  -0.000021   0.000089  -0.002690   0.001545   0.001823
    22  H    0.000000   0.000000  -0.000000  -0.000051  -0.000010   0.000075
    23  H    0.000000   0.000007  -0.000069  -0.000050  -0.000000   0.000109
    24  H   -0.000161  -0.000667   0.006994  -0.003463   0.000166   0.003828
               7          8          9         10         11         12
     1  C    0.000041  -0.000156   0.000018  -0.000007   0.000000   0.000014
     2  C    0.001798  -0.000210   0.000032  -0.000053  -0.000000   0.000255
     3  O   -0.006838   0.001146  -0.000302   0.000356  -0.000000  -0.002002
     4  C   -0.015590  -0.002375   0.000133   0.000565   0.000019   0.000578
     5  O   -0.014415   0.010331  -0.000389   0.000120  -0.000000  -0.000055
     6  C    0.235211  -0.063529   0.009238  -0.003138  -0.000084   0.007702
     7  C    5.100217   0.417475   0.002993  -0.080534  -0.005705   0.002160
     8  C    0.417475   5.086819   0.386089   0.034277   0.022513  -0.098104
     9  C    0.002993   0.386089   5.137819   0.390456  -0.101454   0.031453
    10  C   -0.080534   0.034277   0.390456   4.924209   0.365628   0.388377
    11  Br  -0.005705   0.022513  -0.101454   0.365628  34.929421  -0.100659
    12  C    0.002160  -0.098104   0.031453   0.388377  -0.100659   5.143474
    13  C    0.407878   0.010854  -0.104549   0.034583   0.022315   0.375884
    14  H   -0.000097  -0.000016  -0.000001   0.000003  -0.000000   0.000080
    15  H   -0.000010   0.000009  -0.000001   0.000000   0.000000  -0.000002
    16  H   -0.000027   0.000000  -0.000000   0.000001  -0.000000  -0.000002
    17  H   -0.001081   0.000298  -0.000036   0.000015  -0.000000   0.000001
    18  H   -0.000030  -0.000067  -0.000001   0.000001  -0.000000  -0.000009
    19  H   -0.052095   0.010927  -0.000961   0.000291  -0.000000   0.000285
    20  H   -0.038276  -0.006272  -0.000129   0.000283  -0.000001  -0.000903
    21  H   -0.035291   0.407246  -0.028872   0.003212  -0.000272  -0.000740
    22  H    0.007695  -0.034488   0.419881  -0.047026  -0.007697   0.012109
    23  H    0.007446  -0.003677   0.012303  -0.046755  -0.007573   0.418837
    24  H   -0.041457   0.006515  -0.001208   0.003804  -0.000278  -0.028655
              13         14         15         16         17         18
     1  C   -0.000399   0.408659   0.408015   0.413238  -0.034550  -0.035910
     2  C   -0.001586  -0.033951  -0.035700  -0.041616   0.421630   0.425029
     3  O    0.013841   0.000156   0.001041   0.004456  -0.039118  -0.033188
     4  C   -0.008711  -0.000681  -0.000022   0.000003  -0.003758  -0.009508
     5  O    0.000419  -0.000106  -0.000084   0.000097   0.006616   0.003733
     6  C   -0.060658  -0.000125  -0.000112   0.000021   0.000543   0.000094
     7  C    0.407878  -0.000097  -0.000010  -0.000027  -0.001081  -0.000030
     8  C    0.010854  -0.000016   0.000009   0.000000   0.000298  -0.000067
     9  C   -0.104549  -0.000001  -0.000001  -0.000000  -0.000036  -0.000001
    10  C    0.034583   0.000003   0.000000   0.000001   0.000015   0.000001
    11  Br   0.022315  -0.000000   0.000000  -0.000000  -0.000000  -0.000000
    12  C    0.375884   0.000080  -0.000002  -0.000002   0.000001  -0.000009
    13  C    5.132195   0.000302  -0.000035   0.000022   0.000033   0.000209
    14  H    0.000302   0.527021  -0.030178  -0.021966  -0.008088   0.007248
    15  H   -0.000035  -0.030178   0.529845  -0.022106   0.007628  -0.008546
    16  H    0.000022  -0.021966  -0.022106   0.520641  -0.002077  -0.001793
    17  H    0.000033  -0.008088   0.007628  -0.002077   0.546779  -0.046085
    18  H    0.000209   0.007248  -0.008546  -0.001793  -0.046085   0.549147
    19  H   -0.013859   0.000010   0.000050   0.000000   0.000042  -0.000135
    20  H    0.008362   0.000004   0.000003  -0.000001   0.000015   0.000043
    21  H    0.006728   0.000000   0.000000  -0.000000   0.000007  -0.000001
    22  H   -0.003468   0.000000  -0.000000  -0.000000  -0.000000   0.000000
    23  H   -0.033692  -0.000001  -0.000000  -0.000000   0.000000  -0.000000
    24  H    0.410744   0.000045   0.000076   0.000019   0.000150   0.000022
              19         20         21         22         23         24
     1  C   -0.000448   0.000005  -0.000003   0.000000   0.000000  -0.000161
     2  C    0.000107  -0.000541  -0.000021   0.000000   0.000007  -0.000667
     3  O    0.002284   0.004087   0.000089  -0.000000  -0.000069   0.006994
     4  C   -0.039859  -0.049479  -0.002690  -0.000051  -0.000050  -0.003463
     5  O    0.003776   0.002118   0.001545  -0.000010  -0.000000   0.000166
     6  C    0.429480   0.438353   0.001823   0.000075   0.000109   0.003828
     7  C   -0.052095  -0.038276  -0.035291   0.007695   0.007446  -0.041457
     8  C    0.010927  -0.006272   0.407246  -0.034488  -0.003677   0.006515
     9  C   -0.000961  -0.000129  -0.028872   0.419881   0.012303  -0.001208
    10  C    0.000291   0.000283   0.003212  -0.047026  -0.046755   0.003804
    11  Br  -0.000000  -0.000001  -0.000272  -0.007697  -0.007573  -0.000278
    12  C    0.000285  -0.000903  -0.000740   0.012109   0.418837  -0.028655
    13  C   -0.013859   0.008362   0.006728  -0.003468  -0.033692   0.410744
    14  H    0.000010   0.000004   0.000000   0.000000  -0.000001   0.000045
    15  H    0.000050   0.000003   0.000000  -0.000000  -0.000000   0.000076
    16  H    0.000000  -0.000001  -0.000000  -0.000000  -0.000000   0.000019
    17  H    0.000042   0.000015   0.000007  -0.000000   0.000000   0.000150
    18  H   -0.000135   0.000043  -0.000001   0.000000  -0.000000   0.000022
    19  H    0.472384  -0.010685   0.000410  -0.000002  -0.000036  -0.001094
    20  H   -0.010685   0.465933   0.000632  -0.000042   0.000003   0.000337
    21  H    0.000410   0.000632   0.475494  -0.003020   0.000051  -0.000191
    22  H   -0.000002  -0.000042  -0.003020   0.474225   0.000047   0.000046
    23  H   -0.000036   0.000003   0.000051   0.000047   0.475302  -0.003187
    24  H   -0.001094   0.000337  -0.000191   0.000046  -0.003187   0.472920
 Mulliken charges:
               1
     1  C   -0.430803
     2  C   -0.102744
     3  O   -0.273533
     4  C    0.393632
     5  O   -0.357838
     6  C   -0.416980
     7  C    0.108529
     8  C   -0.185608
     9  C   -0.152509
    10  C    0.031332
    11  Br  -0.116173
    12  C   -0.150076
    13  C   -0.197412
    14  H    0.151682
    15  H    0.150129
    16  H    0.151090
    17  H    0.151037
    18  H    0.149747
    19  H    0.199128
    20  H    0.186147
    21  H    0.173866
    22  H    0.181724
    23  H    0.180935
    24  H    0.174697
 Sum of Mulliken charges =  -0.00000
 Mulliken charges with hydrogens summed into heavy atoms:
               1
     1  C    0.022099
     2  C    0.198040
     3  O   -0.273533
     4  C    0.393632
     5  O   -0.357838
     6  C   -0.031705
     7  C    0.108529
     8  C   -0.011742
     9  C    0.029216
    10  C    0.031332
    11  Br  -0.116173
    12  C    0.030859
    13  C   -0.022714
 Electronic spatial extent (au):  <R**2>=           4980.1236
 Charge=              0.0000 electrons
 Dipole moment (field-independent basis, Debye):
    X=             -1.7591    Y=              1.0765    Z=              1.6516  Tot=              2.6422
 Quadrupole moment (field-independent basis, Debye-Ang):
   XX=            -92.2403   YY=            -84.4562   ZZ=            -90.2263
   XY=             -9.3243   XZ=             -5.7071   YZ=             -1.8334
 Traceless Quadrupole moment (field-independent basis, Debye-Ang):
   XX=             -3.2661   YY=              4.5181   ZZ=             -1.2520
   XY=             -9.3243   XZ=             -5.7071   YZ=             -1.8334
 Octapole moment (field-independent basis, Debye-Ang**2):
  XXX=             51.5267  YYY=             13.5418  ZZZ=             -7.0972  XYY=             28.5243
  XXY=             44.0651  XXZ=              5.1395  XZZ=             29.7849  YZZ=             11.7642
  YYZ=             -1.4615  XYZ=             24.0165
 Hexadecapole moment (field-independent basis, Debye-Ang**3):
 XXXX=          -4419.2407 YYYY=           -915.5574 ZZZZ=           -343.9348 XXXY=            -92.1281
 XXXZ=            -68.1298 YYYX=             43.1752 YYYZ=              2.1028 ZZZX=            -39.4313
 ZZZY=             -0.5693 XXYY=           -900.0254 XXZZ=           -828.6113 YYZZ=           -213.7777
 XXYZ=            -62.2329 YYXZ=            -26.9785 ZZXY=              5.3053
 N-N= 1.007446647771D+03 E-N=-9.421383889004D+03  KE= 3.106168156463D+03
 Calculating spin-rotation constants.
 Leave Link  601 at Tue Sep 17 11:06:49 2024, MaxMem=  1342177280 cpu:               5.7 elap:               5.7
 (Enter /groups/ReismanLab/Software/Gaussian16_RevC/Linux_Binary_AVX2-enabled-CPU/g16/l9999.exe)
 Unable to Open any file for archive entry.
 1\1\GINC-HPC-52-41\SP\RM062X\def2TZVP\C10H11Br1O2\MANTIND\17-Sep-2024\
 0\\#p M062X/def2tzvp geom=check guess=read scf(xqc,tight) integral(gri
 d=ultrafine) scrf(SMD, solvent=1,4-Dioxane) nmr=giao\\spe\\0,1\C,0,4.1
 858133554,2.2187553089,-1.933320628\C,0,4.2216988878,1.5086290695,-0.5
 959095322\O,0,3.452624299,0.2909870628,-0.734963765\C,0,3.3066610186,-
 0.4423727374,0.3880074945\O,0,3.8114002653,-0.1626202767,1.4522135601\
 C,0,2.3883435123,-1.6281094501,0.1380450178\C,0,0.9430734804,-1.173424
 6918,0.1089642759\C,0,0.1616895606,-1.2210976037,1.2673863529\C,0,-1.1
 578946649,-0.7709576542,1.2622390946\C,0,-1.6932992317,-0.2643712382,0
 .0815786419\Br,0,-3.5022549789,0.3514831358,0.059333997\C,0,-0.9347934
 721,-0.1987342188,-1.0851773685\C,0,0.3819457522,-0.652149177,-1.06222
 28871\H,0,3.1576808003,2.461260127,-2.216047704\H,0,4.6222236245,1.595
 0811611,-2.718458393\H,0,4.7567585701,3.1501945224,-1.8755447865\H,0,3
 .7824919063,2.1105882832,0.204885439\H,0,5.2401469299,1.2479561045,-0.
 2923144038\H,0,2.6596716307,-2.0930765928,-0.8138556477\H,0,2.55340874
 11,-2.3445908087,0.9440575764\H,0,0.5881719575,-1.6121699417,2.1862731
 007\H,0,-1.761611204,-0.8128635952,2.1610270181\H,0,-1.3687184617,0.19
 96308335,-1.9947085766\H,0,0.9843107427,-0.5928966268,-1.9631469193\\V
 ersion=ES64L-G16RevC.02\State=1-A\HF=-3112.3374619\RMSD=1.732e-09\Dipo
 le=0.6385351,-0.0745095,-0.8168756\Quadrupole=-3.8194612,3.0762891,0.7
 431721,1.8286915,-7.3901339,-2.5850986\PG=C01 [X(C10H11Br1O2)]\\@
 The archive entry for this job was punched.


 ALMOST ANYTHING IS EASIER TO GET INTO THAN OUT OF.

                         -- AGNES ALLEN'S LAW FROM
                PAUL DICKSON'S "THE OFFICIAL RULES"
 Job cpu time:       0 days  0 hours 17 minutes 33.7 seconds.
 Elapsed time:       0 days  0 hours 17 minutes 37.6 seconds.
 File lengths (MBytes):  RWF=    328 Int=      0 D2E=      0 Chk=     32 Scr=     16
 Normal termination of Gaussian 16 at Tue Sep 17 11:06:49 2024.
