 Entering Gaussian System, Link 0=g16
 Input=smiles_00087_conf_2.gjf
 Output=smiles_00087_conf_2.log
 Initial command:
 /groups/ReismanLab/Software/Gaussian16_RevC/Linux_Binary_AVX2-enabled-CPU/g16/l1.exe "/central/groups/ReismanLab/DM/dft_final/smiles_00087/Gau-3229308.inp" -scrdir="/central/groups/ReismanLab/DM/dft_final/smiles_00087/"
 Entering Link 1 = /groups/ReismanLab/Software/Gaussian16_RevC/Linux_Binary_AVX2-enabled-CPU/g16/l1.exe PID=   3229316.
  
 Copyright (c) 1988-2021, Gaussian, Inc.  All Rights Reserved.
  
 This is part of the Gaussian(R) 16 program.  It is based on
 the Gaussian(R) 09 system (copyright 2009, Gaussian, Inc.),
 the Gaussian(R) 03 system (copyright 2003, Gaussian, Inc.),
 the Gaussian(R) 98 system (copyright 1998, Gaussian, Inc.),
 the Gaussian(R) 94 system (copyright 1995, Gaussian, Inc.),
 the Gaussian 92(TM) system (copyright 1992, Gaussian, Inc.),
 the Gaussian 90(TM) system (copyright 1990, Gaussian, Inc.),
 the Gaussian 88(TM) system (copyright 1988, Gaussian, Inc.),
 the Gaussian 86(TM) system (copyright 1986, Carnegie Mellon
 University), and the Gaussian 82(TM) system (copyright 1983,
 Carnegie Mellon University). Gaussian is a federally registered
 trademark of Gaussian, Inc.
  
 This software contains proprietary and confidential information,
 including trade secrets, belonging to Gaussian, Inc.
  
 This software is provided under written license and may be
 used, copied, transmitted, or stored only in accord with that
 written license.
  
 The following legend is applicable only to US Government
 contracts under FAR:
  
                    RESTRICTED RIGHTS LEGEND
  
 Use, reproduction and disclosure by the US Government is
 subject to restrictions as set forth in subparagraphs (a)
 and (c) of the Commercial Computer Software - Restricted
 Rights clause in FAR 52.227-19.
  
 Gaussian, Inc.
 340 Quinnipiac St., Bldg. 40, Wallingford CT 06492
  
  
 ---------------------------------------------------------------
 Warning -- This program may not be used in any manner that
 competes with the business of Gaussian, Inc. or will provide
 assistance to any competitor of Gaussian, Inc.  The licensee
 of this program is prohibited from giving any competitor of
 Gaussian, Inc. access to this program.  By using this program,
 the user acknowledges that Gaussian, Inc. is engaged in the
 business of creating and licensing software in the field of
 computational chemistry and represents and warrants to the
 licensee that it is not a competitor of Gaussian, Inc. and that
 it will not use this program in any manner prohibited above.
 ---------------------------------------------------------------
  

 Cite this work as:
 Gaussian 16, Revision C.02,
 M. J. Frisch, G. W. Trucks, H. B. Schlegel, G. E. Scuseria, 
 M. A. Robb, J. R. Cheeseman, G. Scalmani, V. Barone, 
 G. A. Petersson, H. Nakatsuji, X. Li, M. Caricato, A. V. Marenich, 
 J. Bloino, B. G. Janesko, R. Gomperts, B. Mennucci, H. P. Hratchian, 
 J. V. Ortiz, A. F. Izmaylov, J. L. Sonnenberg, D. Williams-Young, 
 F. Ding, F. Lipparini, F. Egidi, J. Goings, B. Peng, A. Petrone, 
 T. Henderson, D. Ranasinghe, V. G. Zakrzewski, J. Gao, N. Rega, 
 G. Zheng, W. Liang, M. Hada, M. Ehara, K. Toyota, R. Fukuda, 
 J. Hasegawa, M. Ishida, T. Nakajima, Y. Honda, O. Kitao, H. Nakai, 
 T. Vreven, K. Throssell, J. A. Montgomery, Jr., J. E. Peralta, 
 F. Ogliaro, M. J. Bearpark, J. J. Heyd, E. N. Brothers, K. N. Kudin, 
 V. N. Staroverov, T. A. Keith, R. Kobayashi, J. Normand, 
 K. Raghavachari, A. P. Rendell, J. C. Burant, S. S. Iyengar, 
 J. Tomasi, M. Cossi, J. M. Millam, M. Klene, C. Adamo, R. Cammi, 
 J. W. Ochterski, R. L. Martin, K. Morokuma, O. Farkas, 
 J. B. Foresman, and D. J. Fox, Gaussian, Inc., Wallingford CT, 2019.
 
 ******************************************
 Gaussian 16:  ES64L-G16RevC.02  7-Dec-2021
                17-Sep-2024 
 ******************************************
 %nprocshared=8
 Will use up to    8 processors via shared memory.
 %Mem=10GB
 %Chk=smiles_00087_conf_2.chk
 ----------------------------------------------------------------------
 #p B3LYP/6-31G(d,p) EmpiricalDispersion=GD3BJ opt freq scf(xqc,tight) 
 integral(grid=ultrafine)
 ----------------------------------------------------------------------
 1/18=20,19=15,26=4,38=1/1,3;
 2/9=110,12=2,17=6,18=5,40=1/2;
 3/5=1,6=6,7=101,11=2,25=1,30=1,71=1,74=-5,75=-5,124=41/1,2,3;
 4//1;
 5/5=2,8=3,13=1,32=2,38=5/2,8;
 6/7=2,8=2,9=2,10=2,28=1/1;
 7//1,2,3,16;
 1/18=20,19=15,26=4/3(2);
 2/9=110/2;
 99//99;
 2/9=110/2;
 3/5=1,6=6,7=101,11=2,25=1,30=1,71=1,74=-5,75=-5,124=41/1,2,3;
 4/5=5,16=3,69=1/1;
 5/5=2,8=3,13=1,32=2,38=5/2,8;
 7//1,2,3,16;
 1/18=20,19=15,26=4/3(-5);
 2/9=110/2;
 6/7=2,8=2,9=2,10=2,19=2,28=1/1;
 99/9=1/99;
 Leave Link    1 at Tue Sep 17 09:43:34 2024, MaxMem=  1342177280 cpu:               0.0 elap:               0.7
 (Enter /groups/ReismanLab/Software/Gaussian16_RevC/Linux_Binary_AVX2-enabled-CPU/g16/l101.exe)
 ----------------------------------
 opt-freq conformers_unique/conf_ac
 ----------------------------------
 Symbolic Z-matrix:
 Charge =  0 Multiplicity = 1
 O                    -2.57999  -2.2164    0.06246 
 C                    -2.23388  -1.05375   0.16848 
 C                    -0.78831  -0.66521   0.10875 
 C                    -0.02146  -1.10032  -0.96635 
 C                     1.32866  -0.80941  -1.02971 
 C                     1.91151  -0.09761   0.00505 
 Br                    3.77144   0.31037  -0.07171 
 C                     1.17162   0.32102   1.09819 
 C                    -0.18103   0.03678   1.14456 
 N                    -3.11     -0.05055   0.38221 
 C                    -4.53926  -0.28153   0.39125 
 C                    -5.11059   0.78202  -0.55417 
 C                    -4.0318    1.87942  -0.61871 
 C                    -2.87988   1.36993   0.26535 
 H                    -0.49149  -1.67032  -1.75311 
 H                     1.92363  -1.13686  -1.86831 
 H                     1.64777   0.86052   1.90251 
 H                    -0.76233   0.34874   1.99926 
 H                    -4.73843  -1.30466   0.07312 
 H                    -4.91858  -0.14562   1.4101 
 H                    -5.27946   0.35646  -1.54217 
 H                    -6.05948   1.1656   -0.18537 
 H                    -3.68802   2.01746  -1.64286 
 H                    -4.40334   2.83633  -0.2577 
 H                    -1.90034   1.57804  -0.16439 
 H                    -2.9322    1.83009   1.25966 
 
 ITRead=  0  0  0  0  0  0  0  0  0  0  0  0  0  0  0  0  0  0  0  0
 ITRead=  0  0  0  0  0  0
 MicOpt= -1 -1 -1 -1 -1 -1 -1 -1 -1 -1 -1 -1 -1 -1 -1 -1 -1 -1 -1 -1
 MicOpt= -1 -1 -1 -1 -1 -1
 NAtoms=     26 NQM=       26 NQMF=       0 NMMI=      0 NMMIF=      0
                NMic=       0 NMicF=      0.
                    Isotopes and Nuclear Properties:
 (Nuclear quadrupole moments (NQMom) in fm**2, nuclear magnetic moments (NMagM)
  in nuclear magnetons)

  Atom         1           2           3           4           5           6           7           8           9          10
 IAtWgt=          16          12          12          12          12          12          79          12          12          14
 AtmWgt=  15.9949146  12.0000000  12.0000000  12.0000000  12.0000000  12.0000000  78.9183361  12.0000000  12.0000000  14.0030740
 NucSpn=           0           0           0           0           0           0           3           0           0           2
 AtZEff=  -0.0000000  -0.0000000  -0.0000000  -0.0000000  -0.0000000  -0.0000000  -0.0000000  -0.0000000  -0.0000000  -0.0000000
 NQMom=    0.0000000   0.0000000   0.0000000   0.0000000   0.0000000   0.0000000  31.3000000   0.0000000   0.0000000   2.0440000
 NMagM=    0.0000000   0.0000000   0.0000000   0.0000000   0.0000000   0.0000000   2.1063990   0.0000000   0.0000000   0.4037610
 AtZNuc=   8.0000000   6.0000000   6.0000000   6.0000000   6.0000000   6.0000000  35.0000000   6.0000000   6.0000000   7.0000000

  Atom        11          12          13          14          15          16          17          18          19          20
 IAtWgt=          12          12          12          12           1           1           1           1           1           1
 AtmWgt=  12.0000000  12.0000000  12.0000000  12.0000000   1.0078250   1.0078250   1.0078250   1.0078250   1.0078250   1.0078250
 NucSpn=           0           0           0           0           1           1           1           1           1           1
 AtZEff=  -0.0000000  -0.0000000  -0.0000000  -0.0000000  -0.0000000  -0.0000000  -0.0000000  -0.0000000  -0.0000000  -0.0000000
 NQMom=    0.0000000   0.0000000   0.0000000   0.0000000   0.0000000   0.0000000   0.0000000   0.0000000   0.0000000   0.0000000
 NMagM=    0.0000000   0.0000000   0.0000000   0.0000000   2.7928460   2.7928460   2.7928460   2.7928460   2.7928460   2.7928460
 AtZNuc=   6.0000000   6.0000000   6.0000000   6.0000000   1.0000000   1.0000000   1.0000000   1.0000000   1.0000000   1.0000000

  Atom        21          22          23          24          25          26
 IAtWgt=           1           1           1           1           1           1
 AtmWgt=   1.0078250   1.0078250   1.0078250   1.0078250   1.0078250   1.0078250
 NucSpn=           1           1           1           1           1           1
 AtZEff=  -0.0000000  -0.0000000  -0.0000000  -0.0000000  -0.0000000  -0.0000000
 NQMom=    0.0000000   0.0000000   0.0000000   0.0000000   0.0000000   0.0000000
 NMagM=    2.7928460   2.7928460   2.7928460   2.7928460   2.7928460   2.7928460
 AtZNuc=   1.0000000   1.0000000   1.0000000   1.0000000   1.0000000   1.0000000
 Leave Link  101 at Tue Sep 17 09:43:34 2024, MaxMem=  1342177280 cpu:               0.2 elap:               0.2
 (Enter /groups/ReismanLab/Software/Gaussian16_RevC/Linux_Binary_AVX2-enabled-CPU/g16/l103.exe)

 GradGradGradGradGradGradGradGradGradGradGradGradGradGradGradGradGradGrad
 Berny optimization.
 Initialization pass.
                           ----------------------------
                           !    Initial Parameters    !
                           ! (Angstroms and Degrees)  !
 --------------------------                            --------------------------
 ! Name  Definition              Value          Derivative Info.                !
 --------------------------------------------------------------------------------
 ! R1    R(1,2)                  1.2177         estimate D2E/DX2                !
 ! R2    R(2,3)                  1.4981         estimate D2E/DX2                !
 ! R3    R(2,10)                 1.349          estimate D2E/DX2                !
 ! R4    R(3,4)                  1.3904         estimate D2E/DX2                !
 ! R5    R(3,9)                  1.3909         estimate D2E/DX2                !
 ! R6    R(4,5)                  1.3826         estimate D2E/DX2                !
 ! R7    R(4,15)                 1.0793         estimate D2E/DX2                !
 ! R8    R(5,6)                  1.3846         estimate D2E/DX2                !
 ! R9    R(5,16)                 1.0791         estimate D2E/DX2                !
 ! R10   R(6,7)                  1.9057         estimate D2E/DX2                !
 ! R11   R(6,8)                  1.3848         estimate D2E/DX2                !
 ! R12   R(8,9)                  1.383          estimate D2E/DX2                !
 ! R13   R(8,17)                 1.0792         estimate D2E/DX2                !
 ! R14   R(9,18)                 1.0797         estimate D2E/DX2                !
 ! R15   R(10,11)                1.4478         estimate D2E/DX2                !
 ! R16   R(10,14)                1.4437         estimate D2E/DX2                !
 ! R17   R(11,12)                1.5334         estimate D2E/DX2                !
 ! R18   R(11,19)                1.0898         estimate D2E/DX2                !
 ! R19   R(11,20)                1.0956         estimate D2E/DX2                !
 ! R20   R(12,13)                1.5402         estimate D2E/DX2                !
 ! R21   R(12,21)                1.0889         estimate D2E/DX2                !
 ! R22   R(12,22)                1.0879         estimate D2E/DX2                !
 ! R23   R(13,14)                1.5388         estimate D2E/DX2                !
 ! R24   R(13,23)                1.0891         estimate D2E/DX2                !
 ! R25   R(13,24)                1.0881         estimate D2E/DX2                !
 ! R26   R(14,25)                1.0897         estimate D2E/DX2                !
 ! R27   R(14,26)                1.0969         estimate D2E/DX2                !
 ! A1    A(1,2,3)              121.2274         estimate D2E/DX2                !
 ! A2    A(1,2,10)             122.6331         estimate D2E/DX2                !
 ! A3    A(3,2,10)             116.1139         estimate D2E/DX2                !
 ! A4    A(2,3,4)              118.8078         estimate D2E/DX2                !
 ! A5    A(2,3,9)              121.5027         estimate D2E/DX2                !
 ! A6    A(4,3,9)              119.536          estimate D2E/DX2                !
 ! A7    A(3,4,5)              120.5429         estimate D2E/DX2                !
 ! A8    A(3,4,15)             119.2575         estimate D2E/DX2                !
 ! A9    A(5,4,15)             120.1995         estimate D2E/DX2                !
 ! A10   A(4,5,6)              119.0126         estimate D2E/DX2                !
 ! A11   A(4,5,16)             120.6758         estimate D2E/DX2                !
 ! A12   A(6,5,16)             120.3101         estimate D2E/DX2                !
 ! A13   A(5,6,7)              119.3935         estimate D2E/DX2                !
 ! A14   A(5,6,8)              121.3613         estimate D2E/DX2                !
 ! A15   A(7,6,8)              119.2449         estimate D2E/DX2                !
 ! A16   A(6,8,9)              119.1384         estimate D2E/DX2                !
 ! A17   A(6,8,17)             120.2459         estimate D2E/DX2                !
 ! A18   A(9,8,17)             120.6156         estimate D2E/DX2                !
 ! A19   A(3,9,8)              120.3857         estimate D2E/DX2                !
 ! A20   A(3,9,18)             120.019          estimate D2E/DX2                !
 ! A21   A(8,9,18)             119.5872         estimate D2E/DX2                !
 ! A22   A(2,10,11)            121.5672         estimate D2E/DX2                !
 ! A23   A(2,10,14)            127.9781         estimate D2E/DX2                !
 ! A24   A(11,10,14)           108.3497         estimate D2E/DX2                !
 ! A25   A(10,11,12)           104.6729         estimate D2E/DX2                !
 ! A26   A(10,11,19)           109.1692         estimate D2E/DX2                !
 ! A27   A(10,11,20)           109.1345         estimate D2E/DX2                !
 ! A28   A(12,11,19)           113.7705         estimate D2E/DX2                !
 ! A29   A(12,11,20)           110.9965         estimate D2E/DX2                !
 ! A30   A(19,11,20)           108.9444         estimate D2E/DX2                !
 ! A31   A(11,12,13)           105.0137         estimate D2E/DX2                !
 ! A32   A(11,12,21)           110.2507         estimate D2E/DX2                !
 ! A33   A(11,12,22)           111.1316         estimate D2E/DX2                !
 ! A34   A(13,12,21)           110.4289         estimate D2E/DX2                !
 ! A35   A(13,12,22)           111.9566         estimate D2E/DX2                !
 ! A36   A(21,12,22)           108.0659         estimate D2E/DX2                !
 ! A37   A(12,13,14)           105.3273         estimate D2E/DX2                !
 ! A38   A(12,13,23)           110.5367         estimate D2E/DX2                !
 ! A39   A(12,13,24)           111.9324         estimate D2E/DX2                !
 ! A40   A(14,13,23)           110.2377         estimate D2E/DX2                !
 ! A41   A(14,13,24)           110.864          estimate D2E/DX2                !
 ! A42   A(23,13,24)           107.9568         estimate D2E/DX2                !
 ! A43   A(10,14,13)           104.6514         estimate D2E/DX2                !
 ! A44   A(10,14,25)           111.2903         estimate D2E/DX2                !
 ! A45   A(10,14,26)           109.3771         estimate D2E/DX2                !
 ! A46   A(13,14,25)           112.525          estimate D2E/DX2                !
 ! A47   A(13,14,26)           110.2536         estimate D2E/DX2                !
 ! A48   A(25,14,26)           108.6776         estimate D2E/DX2                !
 ! D1    D(1,2,3,4)             52.2075         estimate D2E/DX2                !
 ! D2    D(1,2,3,9)           -123.2673         estimate D2E/DX2                !
 ! D3    D(10,2,3,4)          -129.5839         estimate D2E/DX2                !
 ! D4    D(10,2,3,9)            54.9413         estimate D2E/DX2                !
 ! D5    D(1,2,10,11)           -5.1191         estimate D2E/DX2                !
 ! D6    D(1,2,10,14)         -166.634          estimate D2E/DX2                !
 ! D7    D(3,2,10,11)          176.6999         estimate D2E/DX2                !
 ! D8    D(3,2,10,14)           15.185          estimate D2E/DX2                !
 ! D9    D(2,3,4,5)           -177.3222         estimate D2E/DX2                !
 ! D10   D(2,3,4,15)             2.6045         estimate D2E/DX2                !
 ! D11   D(9,3,4,5)             -1.7565         estimate D2E/DX2                !
 ! D12   D(9,3,4,15)           178.1701         estimate D2E/DX2                !
 ! D13   D(2,3,9,8)            176.5087         estimate D2E/DX2                !
 ! D14   D(2,3,9,18)            -2.4535         estimate D2E/DX2                !
 ! D15   D(4,3,9,8)              1.0661         estimate D2E/DX2                !
 ! D16   D(4,3,9,18)          -177.896          estimate D2E/DX2                !
 ! D17   D(3,4,5,6)              1.0998         estimate D2E/DX2                !
 ! D18   D(3,4,5,16)          -179.3348         estimate D2E/DX2                !
 ! D19   D(15,4,5,6)          -178.8262         estimate D2E/DX2                !
 ! D20   D(15,4,5,16)            0.7392         estimate D2E/DX2                !
 ! D21   D(4,5,6,7)           -179.9584         estimate D2E/DX2                !
 ! D22   D(4,5,6,8)              0.2539         estimate D2E/DX2                !
 ! D23   D(16,5,6,7)             0.4746         estimate D2E/DX2                !
 ! D24   D(16,5,6,8)          -179.3131         estimate D2E/DX2                !
 ! D25   D(5,6,8,9)             -0.9299         estimate D2E/DX2                !
 ! D26   D(5,6,8,17)           178.9755         estimate D2E/DX2                !
 ! D27   D(7,6,8,9)            179.282          estimate D2E/DX2                !
 ! D28   D(7,6,8,17)            -0.8125         estimate D2E/DX2                !
 ! D29   D(6,8,9,3)              0.2582         estimate D2E/DX2                !
 ! D30   D(6,8,9,18)           179.2249         estimate D2E/DX2                !
 ! D31   D(17,8,9,3)          -179.6469         estimate D2E/DX2                !
 ! D32   D(17,8,9,18)           -0.6803         estimate D2E/DX2                !
 ! D33   D(2,10,11,12)        -129.7908         estimate D2E/DX2                !
 ! D34   D(2,10,11,19)          -7.6402         estimate D2E/DX2                !
 ! D35   D(2,10,11,20)         111.3344         estimate D2E/DX2                !
 ! D36   D(14,10,11,12)         34.9428         estimate D2E/DX2                !
 ! D37   D(14,10,11,19)        157.0934         estimate D2E/DX2                !
 ! D38   D(14,10,11,20)        -83.932          estimate D2E/DX2                !
 ! D39   D(2,10,14,13)         129.5627         estimate D2E/DX2                !
 ! D40   D(2,10,14,25)           7.7701         estimate D2E/DX2                !
 ! D41   D(2,10,14,26)        -112.3221         estimate D2E/DX2                !
 ! D42   D(11,10,14,13)        -33.9016         estimate D2E/DX2                !
 ! D43   D(11,10,14,25)       -155.6942         estimate D2E/DX2                !
 ! D44   D(11,10,14,26)         84.2136         estimate D2E/DX2                !
 ! D45   D(10,11,12,13)        -21.2251         estimate D2E/DX2                !
 ! D46   D(10,11,12,21)         97.731          estimate D2E/DX2                !
 ! D47   D(10,11,12,22)       -142.4696         estimate D2E/DX2                !
 ! D48   D(19,11,12,13)       -140.3174         estimate D2E/DX2                !
 ! D49   D(19,11,12,21)        -21.3613         estimate D2E/DX2                !
 ! D50   D(19,11,12,22)         98.4382         estimate D2E/DX2                !
 ! D51   D(20,11,12,13)         96.3834         estimate D2E/DX2                !
 ! D52   D(20,11,12,21)       -144.6605         estimate D2E/DX2                !
 ! D53   D(20,11,12,22)        -24.861          estimate D2E/DX2                !
 ! D54   D(11,12,13,14)          1.4532         estimate D2E/DX2                !
 ! D55   D(11,12,13,23)        120.5109         estimate D2E/DX2                !
 ! D56   D(11,12,13,24)       -119.1079         estimate D2E/DX2                !
 ! D57   D(21,12,13,14)       -117.3832         estimate D2E/DX2                !
 ! D58   D(21,12,13,23)          1.6744         estimate D2E/DX2                !
 ! D59   D(21,12,13,24)        122.0556         estimate D2E/DX2                !
 ! D60   D(22,12,13,14)        122.155          estimate D2E/DX2                !
 ! D61   D(22,12,13,23)       -118.7873         estimate D2E/DX2                !
 ! D62   D(22,12,13,24)          1.5938         estimate D2E/DX2                !
 ! D63   D(12,13,14,10)         18.8714         estimate D2E/DX2                !
 ! D64   D(12,13,14,25)        139.85           estimate D2E/DX2                !
 ! D65   D(12,13,14,26)        -98.6452         estimate D2E/DX2                !
 ! D66   D(23,13,14,10)       -100.3854         estimate D2E/DX2                !
 ! D67   D(23,13,14,25)         20.5932         estimate D2E/DX2                !
 ! D68   D(23,13,14,26)        142.098          estimate D2E/DX2                !
 ! D69   D(24,13,14,10)        140.1319         estimate D2E/DX2                !
 ! D70   D(24,13,14,25)        -98.8895         estimate D2E/DX2                !
 ! D71   D(24,13,14,26)         22.6153         estimate D2E/DX2                !
 --------------------------------------------------------------------------------
 Trust Radius=3.00D-01 FncErr=1.00D-07 GrdErr=1.00D-06 EigMax=2.50D+02 EigMin=1.00D-04
 Number of steps in this run=    156 maximum allowed number of steps=    156.
 GradGradGradGradGradGradGradGradGradGradGradGradGradGradGradGradGradGrad

 Leave Link  103 at Tue Sep 17 09:43:34 2024, MaxMem=  1342177280 cpu:               0.0 elap:               0.0
 (Enter /groups/ReismanLab/Software/Gaussian16_RevC/Linux_Binary_AVX2-enabled-CPU/g16/l202.exe)
                          Input orientation:                          
 ---------------------------------------------------------------------
 Center     Atomic      Atomic             Coordinates (Angstroms)
 Number     Number       Type             X           Y           Z
 ---------------------------------------------------------------------
      1          8           0       -2.579986   -2.216399    0.062462
      2          6           0       -2.233878   -1.053747    0.168478
      3          6           0       -0.788315   -0.665209    0.108751
      4          6           0       -0.021457   -1.100318   -0.966346
      5          6           0        1.328662   -0.809406   -1.029707
      6          6           0        1.911514   -0.097611    0.005047
      7         35           0        3.771440    0.310370   -0.071710
      8          6           0        1.171622    0.321017    1.098189
      9          6           0       -0.181028    0.036777    1.144560
     10          7           0       -3.110001   -0.050549    0.382208
     11          6           0       -4.539264   -0.281528    0.391254
     12          6           0       -5.110588    0.782019   -0.554168
     13          6           0       -4.031799    1.879416   -0.618712
     14          6           0       -2.879883    1.369930    0.265349
     15          1           0       -0.491492   -1.670319   -1.753111
     16          1           0        1.923630   -1.136863   -1.868309
     17          1           0        1.647766    0.860522    1.902511
     18          1           0       -0.762332    0.348743    1.999264
     19          1           0       -4.738431   -1.304664    0.073117
     20          1           0       -4.918579   -0.145618    1.410101
     21          1           0       -5.279457    0.356462   -1.542174
     22          1           0       -6.059482    1.165603   -0.185367
     23          1           0       -3.688021    2.017457   -1.642864
     24          1           0       -4.403345    2.836331   -0.257703
     25          1           0       -1.900340    1.578039   -0.164394
     26          1           0       -2.932202    1.830088    1.259657
 ---------------------------------------------------------------------
                    Distance matrix (angstroms):
                    1          2          3          4          5
     1  O    0.000000
     2  C    1.217699   0.000000
     3  C    2.370320   1.498059   0.000000
     4  C    2.974921   2.486926   1.390405   0.000000
     5  C    4.295346   3.766569   2.408001   1.382558   0.000000
     6  C    4.966501   4.257368   2.760797   2.384409   1.384588
     7  Br   6.836898   6.162982   4.666442   4.144451   2.852861
     8  C    4.646049   3.788372   2.406861   2.775957   2.414634
     9  C    3.464496   2.521145   1.390856   2.402993   2.778961
    10  N    2.252568   1.348955   2.417191   3.529833   4.719227
    11  C    2.773193   2.441466   3.781090   4.787910   6.060556
    12  C    3.971736   3.488225   4.606080   5.441722   6.650016
    13  C    4.398575   3.529254   4.186228   5.008245   6.011092
    14  C    3.604560   2.510162   2.922494   3.973638   4.913097
    15  H    2.820695   2.666191   2.136558   1.079274   2.139497
    16  H    5.017553   4.630365   3.389081   2.144349   1.079105
    17  H    5.543204   4.662452   3.388203   3.855067   3.389453
    18  H    3.692563   2.735727   2.145417   3.382828   3.858527
    19  H    2.343130   2.518897   4.001698   4.834469   6.186366
    20  H    3.401953   3.094180   4.361487   5.526370   6.739532
    21  H    4.059755   3.767037   4.892823   5.486378   6.729718
    22  H    4.858626   4.436887   5.587806   6.496313   7.694040
    23  H    4.696958   3.850686   4.321243   4.860235   5.790874
    24  H    5.381191   4.474474   5.046138   5.932986   6.836906
    25  H    3.861495   2.673639   2.518604   3.368520   4.107932
    26  H    4.234547   3.161461   3.485304   4.691994   5.510270
                    6          7          8          9         10
     6  C    0.000000
     7  Br   1.905692   0.000000
     8  C    1.384792   2.850935   0.000000
     9  C    2.386479   4.144414   1.382969   0.000000
    10  N    5.035880   6.905833   4.356947   3.027819   0.000000
    11  C    6.464946   8.344608   5.785934   4.434299   1.447835
    12  C    7.099041   8.907616   6.512216   5.267031   2.360575
    13  C    6.294497   7.978199   5.696661   4.618754   2.361423
    14  C    5.017860   6.743617   4.267146   3.135941   1.443735
    15  H    3.367339   4.992276   3.855033   3.377434   3.746977
    16  H    2.142348   2.955782   3.389844   3.858030   5.619817
    17  H    2.141951   2.951306   1.079219   2.144186   5.077176
    18  H    3.365352   4.984526   2.133749   1.079703   2.878516
    19  H    6.758949   8.662979   6.214687   4.870049   2.078492
    20  H    6.973282   8.827237   6.116010   4.748491   2.082440
    21  H    7.369541   9.169684   6.970594   5.771890   2.928385
    22  H    8.072716   9.868706   7.392544   6.131817   3.240463
    23  H    6.208374   7.811928   5.831586   4.898144   2.951553
    24  H    6.968106   8.558164   6.264623   5.256596   3.227429
    25  H    4.167342   5.812457   3.551220   2.654219   2.101036
    26  H    5.362057   7.001492   4.375469   3.286057   2.082864
                   11         12         13         14         15
    11  C    0.000000
    12  C    1.533416   0.000000
    13  C    2.438695   1.540205   0.000000
    14  C    2.344506   2.448119   1.538847   0.000000
    15  H    4.786596   5.365396   5.140161   4.361388   0.000000
    16  H    6.899726   7.408731   6.791654   5.823250   2.476017
    17  H    6.470511   7.191437   6.296997   4.841425   4.934081
    18  H    4.153089   5.061133   4.459392   2.921183   4.269694
    19  H    1.089811   2.210483   3.334115   3.262607   4.637381
    20  H    1.095628   2.180764   3.000537   2.786328   5.650639
    21  H    2.166347   1.088932   2.174585   3.170522   5.203550
    22  H    2.176636   1.087911   2.192901   3.217879   6.442266
    23  H    3.185527   2.176066   1.089094   2.171095   4.881561
    24  H    3.187579   2.192779   1.088145   2.178268   6.152132
    25  H    3.275768   3.330355   2.200080   1.089722   3.880812
    26  H    2.792077   3.022213   2.177112   1.096873   5.223666
                   16         17         18         19         20
    16  H    0.000000
    17  H    4.276065   0.000000
    18  H    4.937564   2.465736   0.000000
    19  H    6.941207   6.987004   4.717326   0.000000
    20  H    7.651559   6.661206   4.226806   1.778587   0.000000
    21  H    7.363480   7.752828   5.739883   2.379330   3.016330
    22  H    8.477247   7.990868   5.787890   2.813221   2.359339
    23  H    6.441365   6.509900   4.960782   3.883869   3.938751
    24  H    7.642704   6.722074   4.953682   4.167681   3.455294
    25  H    4.989665   4.168450   2.736357   4.052302   3.815730
    26  H    6.493541   4.725402   2.729421   3.807495   2.805662
                   21         22         23         24         25
    21  H    0.000000
    22  H    1.761839   0.000000
    23  H    2.302544   2.910976   0.000000
    24  H    2.926976   2.353583   1.760941   0.000000
    25  H    3.848241   4.179594   2.361094   2.803041   0.000000
    26  H    3.940994   3.508492   3.005161   2.340762   1.776567
                   26
    26  H    0.000000
 Stoichiometry    C11H12BrNO
 Framework group  C1[X(C11H12BrNO)]
 Deg. of freedom    72
 Full point group                 C1      NOp   1
 Largest Abelian subgroup         C1      NOp   1
 Largest concise Abelian subgroup C1      NOp   1
                         Standard orientation:                         
 ---------------------------------------------------------------------
 Center     Atomic      Atomic             Coordinates (Angstroms)
 Number     Number       Type             X           Y           Z
 ---------------------------------------------------------------------
      1          8           0        2.281841    2.246795    0.266443
      2          6           0        1.951790    1.074679    0.265259
      3          6           0        0.511555    0.673472    0.170728
      4          6           0       -0.263013    1.195015   -0.859449
      5          6           0       -1.609149    0.892654   -0.948666
      6          6           0       -2.180464    0.080807    0.016522
      7         35           0       -4.034787   -0.343880   -0.096563
      8          6           0       -1.433053   -0.426354    1.066195
      9          6           0       -0.084324   -0.129041    1.137879
     10          7           0        2.841869    0.068201    0.385430
     11          6           0        4.267865    0.316967    0.415015
     12          6           0        4.851997   -0.647212   -0.624463
     13          6           0        3.788152   -1.748731   -0.789144
     14          6           0        2.630926   -1.338542    0.138554
     15          1           0        0.197855    1.841333   -1.590684
     16          1           0       -2.209969    1.287627   -1.753328
     17          1           0       -1.900415   -1.044008    1.817721
     18          1           0        0.502650   -0.510257    1.960007
     19          1           0        4.452524    1.367657    0.192214
     20          1           0        4.650752    0.093181    1.416872
     21          1           0        5.013348   -0.130343   -1.569231
     22          1           0        5.806664   -1.050017   -0.292937
     23          1           0        3.444521   -1.796733   -1.821491
     24          1           0        4.173323   -2.729593   -0.517829
     25          1           0        1.653570   -1.519685   -0.308050
     26          1           0        2.691224   -1.887405    1.086312
 ---------------------------------------------------------------------
 Rotational constants (GHZ):           1.5829874           0.1925575           0.1829409
 Leave Link  202 at Tue Sep 17 09:43:34 2024, MaxMem=  1342177280 cpu:               0.0 elap:               0.0
 (Enter /groups/ReismanLab/Software/Gaussian16_RevC/Linux_Binary_AVX2-enabled-CPU/g16/l301.exe)
 Standard basis: 6-31G(d,p) (6D, 7F)
 Ernie: Thresh=  0.10000D-02 Tol=  0.10000D-05 Strict=F.
 There are   285 symmetry adapted cartesian basis functions of A   symmetry.
 There are   285 symmetry adapted basis functions of A   symmetry.
   285 basis functions,   531 primitive gaussians,   285 cartesian basis functions
    64 alpha electrons       64 beta electrons
       nuclear repulsion energy      1126.2103613692 Hartrees.
 IExCor=  402 DFT=T Ex+Corr=B3LYP ExCW=0 ScaHFX=  0.200000
 ScaDFX=  0.800000  0.720000  1.000000  0.810000 ScalE2=  1.000000  1.000000
 IRadAn=      5 IRanWt=     -1 IRanGd=            0 ICorTp=0 IEmpDi=141
 NAtoms=   26 NActive=   26 NUniq=   26 SFac= 1.00D+00 NAtFMM=   60 NAOKFM=F Big=F
 Integral buffers will be    131072 words long.
 Raffenetti 2 integral format.
 Two-electron integral symmetry is turned on.
 R6Disp:  Grimme-D3(BJ) Dispersion energy=       -0.0549662412 Hartrees.
 Nuclear repulsion after empirical dispersion term =     1126.1553951281 Hartrees.
 Leave Link  301 at Tue Sep 17 09:43:34 2024, MaxMem=  1342177280 cpu:               0.1 elap:               0.0
 (Enter /groups/ReismanLab/Software/Gaussian16_RevC/Linux_Binary_AVX2-enabled-CPU/g16/l302.exe)
 NPDir=0 NMtPBC=     1 NCelOv=     1 NCel=       1 NClECP=     1 NCelD=      1
         NCelK=      1 NCelE2=     1 NClLst=     1 CellRange=     0.0.
 One-electron integrals computed using PRISM.
 One-electron integral symmetry used in STVInt
 NBasis=   285 RedAO= T EigKep=  4.10D-04  NBF=   285
 NBsUse=   285 1.00D-06 EigRej= -1.00D+00 NBFU=   285
 Precomputing XC quadrature grid using
 IXCGrd= 4 IRadAn=           5 IRanWt=          -1 IRanGd=           0 AccXCQ= 0.00D+00.
 Generated NRdTot=       0 NPtTot=           0 NUsed=           0 NTot=          32
 NSgBfM=   282   282   282   282   282 MxSgAt=    26 MxSgA2=    26.
 Leave Link  302 at Tue Sep 17 09:43:35 2024, MaxMem=  1342177280 cpu:               1.1 elap:               0.2
 (Enter /groups/ReismanLab/Software/Gaussian16_RevC/Linux_Binary_AVX2-enabled-CPU/g16/l303.exe)
 DipDrv:  MaxL=1.
 Leave Link  303 at Tue Sep 17 09:43:35 2024, MaxMem=  1342177280 cpu:               0.1 elap:               0.0
 (Enter /groups/ReismanLab/Software/Gaussian16_RevC/Linux_Binary_AVX2-enabled-CPU/g16/l401.exe)
 ExpMin= 1.43D-01 ExpMax= 5.74D+05 ExpMxC= 5.74D+03 IAcc=3 IRadAn=         5 AccDes= 0.00D+00
 Harris functional with IExCor=  402 and IRadAn=       5 diagonalized for initial guess.
 HarFok:  IExCor=  402 AccDes= 0.00D+00 IRadAn=         5 IDoV= 1 UseB2=F ITyADJ=14
 ICtDFT=  3500011 ScaDFX=  1.000000  1.000000  1.000000  1.000000
 FoFCou: FMM=F IPFlag=           0 FMFlag=      100000 FMFlg1=           0
         NFxFlg=           0 DoJE=T BraDBF=F KetDBF=T FulRan=T
         wScrn=  0.000000 ICntrl=       500 IOpCl=  0 I1Cent=   200000004 NGrid=           0
         NMat0=    1 NMatS0=      1 NMatT0=    0 NMatD0=    1 NMtDS0=    0 NMtDT0=    0
 Petite list used in FoFCou.
 Harris En= -3128.28212576262    
 JPrj=0 DoOrth=F DoCkMO=F.
 Leave Link  401 at Tue Sep 17 09:43:36 2024, MaxMem=  1342177280 cpu:               8.0 elap:               1.2
 (Enter /groups/ReismanLab/Software/Gaussian16_RevC/Linux_Binary_AVX2-enabled-CPU/g16/l502.exe)
 Integral symmetry usage will be decided dynamically.
 Closed shell SCF:
 Using DIIS extrapolation, IDIIS=  1040.
 NGot=  1342177280 LenX=  1342008885 LenY=  1341927219
 Requested convergence on RMS density matrix=1.00D-08 within  32 cycles.
 Requested convergence on MAX density matrix=1.00D-06.
 Requested convergence on             energy=1.00D-06.
 No special actions if energy rises.
 Fock matrices will be formed incrementally for  20 cycles.
 Integral accuracy reduced to 1.0D-05 until final iterations.

 Cycle   1  Pass 0  IDiag  1:
 FoFJK:  IHMeth= 1 ICntrl=       0 DoSepK=F KAlg= 0 I1Cent=           0 FoldK=F
 IRaf= 820000000 NMat=       1 IRICut=       1 DoRegI=T DoRafI=F ISym2E= 0 IDoP0=0 IntGTp=1.
 FoFCou: FMM=F IPFlag=           0 FMFlag=      100000 FMFlg1=           0
         NFxFlg=           0 DoJE=F BraDBF=F KetDBF=F FulRan=T
         wScrn=  0.000000 ICntrl=         0 IOpCl=  0 I1Cent=           0 NGrid=           0
         NMat0=    1 NMatS0=      1 NMatT0=    0 NMatD0=    1 NMtDS0=    0 NMtDT0=    0
 Symmetry not used in FoFCou.
 E= -3127.82953621595    
 DIIS: error= 2.00D-01 at cycle   1 NSaved=   1.
 NSaved= 1 IEnMin= 1 EnMin= -3127.82953621595     IErMin= 1 ErrMin= 2.00D-01
 ErrMax= 2.00D-01  0.00D+00 EMaxC= 1.00D-01 BMatC= 6.86D-01 BMatP= 6.86D-01
 IDIUse=3 WtCom= 0.00D+00 WtEn= 1.00D+00
 Coeff-Com:  0.100D+01
 Coeff-En:   0.100D+01
 Coeff:      0.100D+01
 Gap=     0.240 Goal=   None    Shift=    0.000
 GapD=    0.240 DampG=1.000 DampE=0.250 DampFc=0.2500 IDamp=-1.
 Damping current iteration by 2.50D-01
 RMSDP=5.20D-03 MaxDP=2.27D-01              OVMax= 3.12D-01

 Cycle   2  Pass 0  IDiag  1:
 RMSU=  1.28D-03    CP:  9.92D-01
 E= -3127.94461173390     Delta-E=       -0.115075517950 Rises=F Damp=T
 DIIS: error= 1.47D-01 at cycle   2 NSaved=   2.
 NSaved= 2 IEnMin= 2 EnMin= -3127.94461173390     IErMin= 2 ErrMin= 1.47D-01
 ErrMax= 1.47D-01  0.00D+00 EMaxC= 1.00D-01 BMatC= 2.69D-01 BMatP= 6.86D-01
 IDIUse=3 WtCom= 0.00D+00 WtEn= 1.00D+00
 Coeff-Com: -0.103D+01 0.203D+01
 Coeff-En:   0.000D+00 0.100D+01
 Coeff:      0.000D+00 0.100D+01
 Gap=     0.212 Goal=   None    Shift=    0.000
 RMSDP=2.31D-03 MaxDP=1.11D-01 DE=-1.15D-01 OVMax= 1.59D-01

 Cycle   3  Pass 0  IDiag  1:
 RMSU=  1.18D-03    CP:  9.70D-01  2.44D+00
 E= -3128.09344238993     Delta-E=       -0.148830656030 Rises=F Damp=F
 DIIS: error= 1.17D-02 at cycle   3 NSaved=   3.
 NSaved= 3 IEnMin= 3 EnMin= -3128.09344238993     IErMin= 3 ErrMin= 1.17D-02
 ErrMax= 1.17D-02  0.00D+00 EMaxC= 1.00D-01 BMatC= 6.62D-02 BMatP= 2.69D-01
 IDIUse=3 WtCom= 8.83D-01 WtEn= 1.17D-01
 Coeff-Com:  0.585D+00-0.581D+00 0.996D+00
 Coeff-En:   0.102D+00 0.000D+00 0.898D+00
 Coeff:      0.528D+00-0.512D+00 0.984D+00
 Gap=     0.192 Goal=   None    Shift=    0.000
 RMSDP=1.50D-03 MaxDP=4.06D-02 DE=-1.49D-01 OVMax= 6.13D-02

 Cycle   4  Pass 0  IDiag  1:
 RMSU=  1.13D-03    CP:  9.72D-01  1.75D+00  6.21D-01
 E= -3128.12550903887     Delta-E=       -0.032066648937 Rises=F Damp=F
 DIIS: error= 7.72D-03 at cycle   4 NSaved=   4.
 NSaved= 4 IEnMin= 4 EnMin= -3128.12550903887     IErMin= 4 ErrMin= 7.72D-03
 ErrMax= 7.72D-03  0.00D+00 EMaxC= 1.00D-01 BMatC= 3.41D-02 BMatP= 6.62D-02
 IDIUse=3 WtCom= 9.23D-01 WtEn= 7.72D-02
 Coeff-Com:  0.535D+00-0.682D+00 0.677D+00 0.471D+00
 Coeff-En:   0.000D+00 0.000D+00 0.312D+00 0.688D+00
 Coeff:      0.493D+00-0.630D+00 0.649D+00 0.488D+00
 Gap=     0.215 Goal=   None    Shift=    0.000
 RMSDP=7.90D-04 MaxDP=3.22D-02 DE=-3.21D-02 OVMax= 6.05D-02

 Cycle   5  Pass 0  IDiag  1:
 RMSU=  1.71D-04    CP:  9.71D-01  1.79D+00  9.30D-01  3.99D-01
 E= -3128.15820469903     Delta-E=       -0.032695660158 Rises=F Damp=F
 DIIS: error= 9.20D-04 at cycle   5 NSaved=   5.
 NSaved= 5 IEnMin= 5 EnMin= -3128.15820469903     IErMin= 5 ErrMin= 9.20D-04
 ErrMax= 9.20D-04  0.00D+00 EMaxC= 1.00D-01 BMatC= 6.98D-04 BMatP= 3.41D-02
 IDIUse=3 WtCom= 9.91D-01 WtEn= 9.20D-03
 Coeff-Com:  0.179D+00-0.232D+00 0.237D+00 0.219D+00 0.597D+00
 Coeff-En:   0.000D+00 0.000D+00 0.000D+00 0.000D+00 0.100D+01
 Coeff:      0.178D+00-0.230D+00 0.235D+00 0.217D+00 0.601D+00
 Gap=     0.208 Goal=   None    Shift=    0.000
 RMSDP=1.16D-04 MaxDP=5.86D-03 DE=-3.27D-02 OVMax= 1.15D-02

 Cycle   6  Pass 0  IDiag  1:
 RMSU=  5.51D-05    CP:  9.71D-01  1.82D+00  9.09D-01  4.53D-01  5.95D-01
 E= -3128.15873716818     Delta-E=       -0.000532469157 Rises=F Damp=F
 DIIS: error= 3.36D-04 at cycle   6 NSaved=   6.
 NSaved= 6 IEnMin= 6 EnMin= -3128.15873716818     IErMin= 6 ErrMin= 3.36D-04
 ErrMax= 3.36D-04  0.00D+00 EMaxC= 1.00D-01 BMatC= 8.26D-05 BMatP= 6.98D-04
 IDIUse=3 WtCom= 9.97D-01 WtEn= 3.36D-03
 Coeff-Com:  0.651D-01-0.851D-01 0.832D-01 0.821D-01 0.335D+00 0.519D+00
 Coeff-En:   0.000D+00 0.000D+00 0.000D+00 0.000D+00 0.632D-01 0.937D+00
 Coeff:      0.649D-01-0.848D-01 0.829D-01 0.819D-01 0.334D+00 0.521D+00
 Gap=     0.208 Goal=   None    Shift=    0.000
 RMSDP=3.91D-05 MaxDP=2.08D-03 DE=-5.32D-04 OVMax= 3.28D-03

 Cycle   7  Pass 0  IDiag  1:
 RMSU=  2.16D-05    CP:  9.71D-01  1.81D+00  9.17D-01  4.54D-01  6.34D-01
                    CP:  4.76D-01
 E= -3128.15880733684     Delta-E=       -0.000070168659 Rises=F Damp=F
 DIIS: error= 1.89D-04 at cycle   7 NSaved=   7.
 NSaved= 7 IEnMin= 7 EnMin= -3128.15880733684     IErMin= 7 ErrMin= 1.89D-04
 ErrMax= 1.89D-04  0.00D+00 EMaxC= 1.00D-01 BMatC= 7.88D-06 BMatP= 8.26D-05
 IDIUse=3 WtCom= 9.98D-01 WtEn= 1.89D-03
 Coeff-Com:  0.207D-01-0.274D-01 0.242D-01 0.238D-01 0.126D+00 0.293D+00
 Coeff-Com:  0.540D+00
 Coeff-En:   0.000D+00 0.000D+00 0.000D+00 0.000D+00 0.000D+00 0.226D-01
 Coeff-En:   0.977D+00
 Coeff:      0.207D-01-0.274D-01 0.242D-01 0.237D-01 0.126D+00 0.293D+00
 Coeff:      0.541D+00
 Gap=     0.208 Goal=   None    Shift=    0.000
 RMSDP=1.33D-05 MaxDP=4.95D-04 DE=-7.02D-05 OVMax= 1.27D-03

 Cycle   8  Pass 0  IDiag  1:
 RMSU=  6.92D-06    CP:  9.71D-01  1.81D+00  9.17D-01  4.52D-01  6.40D-01
                    CP:  5.80D-01  5.68D-01
 E= -3128.15881455032     Delta-E=       -0.000007213475 Rises=F Damp=F
 DIIS: error= 6.59D-05 at cycle   8 NSaved=   8.
 NSaved= 8 IEnMin= 8 EnMin= -3128.15881455032     IErMin= 8 ErrMin= 6.59D-05
 ErrMax= 6.59D-05  0.00D+00 EMaxC= 1.00D-01 BMatC= 1.07D-06 BMatP= 7.88D-06
 IDIUse=1 WtCom= 1.00D+00 WtEn= 0.00D+00
 Coeff-Com:  0.436D-02-0.587D-02 0.397D-02 0.366D-02 0.332D-01 0.110D+00
 Coeff-Com:  0.322D+00 0.528D+00
 Coeff:      0.436D-02-0.587D-02 0.397D-02 0.366D-02 0.332D-01 0.110D+00
 Coeff:      0.322D+00 0.528D+00
 Gap=     0.208 Goal=   None    Shift=    0.000
 RMSDP=4.10D-06 MaxDP=1.24D-04 DE=-7.21D-06 OVMax= 4.69D-04

 Initial convergence to 1.0D-05 achieved.  Increase integral accuracy.
 Cycle   9  Pass 1  IDiag  1:
 E= -3128.15883309695     Delta-E=       -0.000018546636 Rises=F Damp=F
 DIIS: error= 5.56D-05 at cycle   1 NSaved=   1.
 NSaved= 1 IEnMin= 1 EnMin= -3128.15883309695     IErMin= 1 ErrMin= 5.56D-05
 ErrMax= 5.56D-05  0.00D+00 EMaxC= 1.00D-01 BMatC= 4.47D-07 BMatP= 4.47D-07
 IDIUse=1 WtCom= 1.00D+00 WtEn= 0.00D+00
 Coeff-Com:  0.100D+01
 Coeff:      0.100D+01
 Gap=     0.208 Goal=   None    Shift=    0.000
 RMSDP=4.10D-06 MaxDP=1.24D-04 DE=-1.85D-05 OVMax= 2.58D-04

 Cycle  10  Pass 1  IDiag  1:
 RMSU=  2.99D-05    CP:  1.00D+00
 E= -3128.15883319431     Delta-E=       -0.000000097360 Rises=F Damp=F
 DIIS: error= 3.15D-05 at cycle   2 NSaved=   2.
 NSaved= 2 IEnMin= 2 EnMin= -3128.15883319431     IErMin= 2 ErrMin= 3.15D-05
 ErrMax= 3.15D-05  0.00D+00 EMaxC= 1.00D-01 BMatC= 2.49D-07 BMatP= 4.47D-07
 IDIUse=1 WtCom= 1.00D+00 WtEn= 0.00D+00
 Coeff-Com:  0.397D+00 0.603D+00
 Coeff:      0.397D+00 0.603D+00
 Gap=     0.208 Goal=   None    Shift=    0.000
 RMSDP=3.36D-06 MaxDP=1.20D-04 DE=-9.74D-08 OVMax= 3.09D-04

 Cycle  11  Pass 1  IDiag  1:
 RMSU=  3.36D-06    CP:  1.00D+00  1.00D+00
 E= -3128.15883328121     Delta-E=       -0.000000086892 Rises=F Damp=F
 DIIS: error= 2.90D-05 at cycle   3 NSaved=   3.
 NSaved= 3 IEnMin= 3 EnMin= -3128.15883328121     IErMin= 3 ErrMin= 2.90D-05
 ErrMax= 2.90D-05  0.00D+00 EMaxC= 1.00D-01 BMatC= 1.63D-07 BMatP= 2.49D-07
 IDIUse=1 WtCom= 1.00D+00 WtEn= 0.00D+00
 Coeff-Com:  0.184D-01 0.443D+00 0.539D+00
 Coeff:      0.184D-01 0.443D+00 0.539D+00
 Gap=     0.208 Goal=   None    Shift=    0.000
 RMSDP=1.60D-06 MaxDP=6.71D-05 DE=-8.69D-08 OVMax= 1.53D-04

 Cycle  12  Pass 1  IDiag  1:
 RMSU=  5.60D-07    CP:  1.00D+00  1.01D+00  5.58D-01
 E= -3128.15883345008     Delta-E=       -0.000000168872 Rises=F Damp=F
 DIIS: error= 4.03D-06 at cycle   4 NSaved=   4.
 NSaved= 4 IEnMin= 4 EnMin= -3128.15883345008     IErMin= 4 ErrMin= 4.03D-06
 ErrMax= 4.03D-06  0.00D+00 EMaxC= 1.00D-01 BMatC= 8.68D-09 BMatP= 1.63D-07
 IDIUse=1 WtCom= 1.00D+00 WtEn= 0.00D+00
 Coeff-Com: -0.207D-02 0.264D+00 0.345D+00 0.394D+00
 Coeff:     -0.207D-02 0.264D+00 0.345D+00 0.394D+00
 Gap=     0.208 Goal=   None    Shift=    0.000
 RMSDP=3.42D-07 MaxDP=1.65D-05 DE=-1.69D-07 OVMax= 2.37D-05

 Cycle  13  Pass 1  IDiag  1:
 RMSU=  1.10D-07    CP:  1.00D+00  1.01D+00  5.70D-01  4.27D-01
 E= -3128.15883345762     Delta-E=       -0.000000007545 Rises=F Damp=F
 DIIS: error= 8.28D-07 at cycle   5 NSaved=   5.
 NSaved= 5 IEnMin= 5 EnMin= -3128.15883345762     IErMin= 5 ErrMin= 8.28D-07
 ErrMax= 8.28D-07  0.00D+00 EMaxC= 1.00D-01 BMatC= 1.77D-10 BMatP= 8.68D-09
 IDIUse=1 WtCom= 1.00D+00 WtEn= 0.00D+00
 Coeff-Com: -0.177D-02 0.139D+00 0.184D+00 0.229D+00 0.449D+00
 Coeff:     -0.177D-02 0.139D+00 0.184D+00 0.229D+00 0.449D+00
 Gap=     0.208 Goal=   None    Shift=    0.000
 RMSDP=5.29D-08 MaxDP=2.94D-06 DE=-7.55D-09 OVMax= 3.32D-06

 Cycle  14  Pass 1  IDiag  1:
 RMSU=  3.70D-08    CP:  1.00D+00  1.01D+00  5.69D-01  4.31D-01  6.61D-01
 E= -3128.15883345781     Delta-E=       -0.000000000186 Rises=F Damp=F
 DIIS: error= 1.99D-07 at cycle   6 NSaved=   6.
 NSaved= 6 IEnMin= 6 EnMin= -3128.15883345781     IErMin= 6 ErrMin= 1.99D-07
 ErrMax= 1.99D-07  0.00D+00 EMaxC= 1.00D-01 BMatC= 1.73D-11 BMatP= 1.77D-10
 IDIUse=1 WtCom= 1.00D+00 WtEn= 0.00D+00
 Coeff-Com: -0.977D-03 0.697D-01 0.923D-01 0.117D+00 0.291D+00 0.431D+00
 Coeff:     -0.977D-03 0.697D-01 0.923D-01 0.117D+00 0.291D+00 0.431D+00
 Gap=     0.208 Goal=   None    Shift=    0.000
 RMSDP=1.60D-08 MaxDP=9.80D-07 DE=-1.86D-10 OVMax= 1.70D-06

 Cycle  15  Pass 1  IDiag  1:
 RMSU=  1.18D-08    CP:  1.00D+00  1.01D+00  5.69D-01  4.29D-01  6.82D-01
                    CP:  7.16D-01
 E= -3128.15883345779     Delta-E=        0.000000000022 Rises=F Damp=F
 DIIS: error= 3.33D-08 at cycle   7 NSaved=   7.
 NSaved= 7 IEnMin= 6 EnMin= -3128.15883345781     IErMin= 7 ErrMin= 3.33D-08
 ErrMax= 3.33D-08  0.00D+00 EMaxC= 1.00D-01 BMatC= 7.98D-13 BMatP= 1.73D-11
 IDIUse=1 WtCom= 1.00D+00 WtEn= 0.00D+00
 Coeff-Com: -0.276D-03 0.179D-01 0.239D-01 0.314D-01 0.953D-01 0.217D+00
 Coeff-Com:  0.615D+00
 Coeff:     -0.276D-03 0.179D-01 0.239D-01 0.314D-01 0.953D-01 0.217D+00
 Coeff:      0.615D+00
 Gap=     0.208 Goal=   None    Shift=    0.000
 RMSDP=4.27D-09 MaxDP=2.20D-07 DE= 2.18D-11 OVMax= 4.00D-07

 SCF Done:  E(RB3LYP) =  -3128.15883346     A.U. after   15 cycles
            NFock= 15  Conv=0.43D-08     -V/T= 2.0066
 KE= 3.107583474517D+03 PE=-9.678009327429D+03 EE= 2.316111624326D+03
 Leave Link  502 at Tue Sep 17 09:43:55 2024, MaxMem=  1342177280 cpu:             146.2 elap:              19.2
 (Enter /groups/ReismanLab/Software/Gaussian16_RevC/Linux_Binary_AVX2-enabled-CPU/g16/l508.exe)
 QCSCF skips out because SCF is already converged.
 Leave Link  508 at Tue Sep 17 09:43:55 2024, MaxMem=  1342177280 cpu:               0.0 elap:               0.0
 (Enter /groups/ReismanLab/Software/Gaussian16_RevC/Linux_Binary_AVX2-enabled-CPU/g16/l601.exe)
 Copying SCF densities to generalized density rwf, IOpCl= 0 IROHF=0.

 **********************************************************************

            Population analysis using the SCF Density.

 **********************************************************************

 Orbital symmetries:
       Occupied  (A) (A) (A) (A) (A) (A) (A) (A) (A) (A) (A) (A)
                 (A) (A) (A) (A) (A) (A) (A) (A) (A) (A) (A) (A)
                 (A) (A) (A) (A) (A) (A) (A) (A) (A) (A) (A) (A)
                 (A) (A) (A) (A) (A) (A) (A) (A) (A) (A) (A) (A)
                 (A) (A) (A) (A) (A) (A) (A) (A) (A) (A) (A) (A)
                 (A) (A) (A) (A)
       Virtual   (A) (A) (A) (A) (A) (A) (A) (A) (A) (A) (A) (A)
                 (A) (A) (A) (A) (A) (A) (A) (A) (A) (A) (A) (A)
                 (A) (A) (A) (A) (A) (A) (A) (A) (A) (A) (A) (A)
                 (A) (A) (A) (A) (A) (A) (A) (A) (A) (A) (A) (A)
                 (A) (A) (A) (A) (A) (A) (A) (A) (A) (A) (A) (A)
                 (A) (A) (A) (A) (A) (A) (A) (A) (A) (A) (A) (A)
                 (A) (A) (A) (A) (A) (A) (A) (A) (A) (A) (A) (A)
                 (A) (A) (A) (A) (A) (A) (A) (A) (A) (A) (A) (A)
                 (A) (A) (A) (A) (A) (A) (A) (A) (A) (A) (A) (A)
                 (A) (A) (A) (A) (A) (A) (A) (A) (A) (A) (A) (A)
                 (A) (A) (A) (A) (A) (A) (A) (A) (A) (A) (A) (A)
                 (A) (A) (A) (A) (A) (A) (A) (A) (A) (A) (A) (A)
                 (A) (A) (A) (A) (A) (A) (A) (A) (A) (A) (A) (A)
                 (A) (A) (A) (A) (A) (A) (A) (A) (A) (A) (A) (A)
                 (A) (A) (A) (A) (A) (A) (A) (A) (A) (A) (A) (A)
                 (A) (A) (A) (A) (A) (A) (A) (A) (A) (A) (A) (A)
                 (A) (A) (A) (A) (A) (A) (A) (A) (A) (A) (A) (A)
                 (A) (A) (A) (A) (A) (A) (A) (A) (A) (A) (A) (A)
                 (A) (A) (A) (A) (A)
 The electronic state is 1-A.
 Alpha  occ. eigenvalues -- -482.91273 -61.87448 -56.39581 -56.39171 -56.39162
 Alpha  occ. eigenvalues --  -19.10619 -14.36155 -10.28209 -10.25073 -10.22741
 Alpha  occ. eigenvalues --  -10.21632 -10.20733 -10.20675 -10.20600 -10.20590
 Alpha  occ. eigenvalues --  -10.20373 -10.19501 -10.19236  -8.58595  -6.53987
 Alpha  occ. eigenvalues --   -6.52721  -6.52689  -2.65561  -2.65200  -2.65177
 Alpha  occ. eigenvalues --   -2.64166  -2.64166  -1.03677  -0.95246  -0.88494
 Alpha  occ. eigenvalues --   -0.81450  -0.79321  -0.76759  -0.74942  -0.73318
 Alpha  occ. eigenvalues --   -0.66710  -0.62858  -0.61363  -0.59473  -0.56011
 Alpha  occ. eigenvalues --   -0.53670  -0.50605  -0.48075  -0.47535  -0.45859
 Alpha  occ. eigenvalues --   -0.45415  -0.44311  -0.43853  -0.42116  -0.40163
 Alpha  occ. eigenvalues --   -0.39696  -0.39039  -0.37366  -0.36395  -0.35996
 Alpha  occ. eigenvalues --   -0.35734  -0.35392  -0.33487  -0.31430  -0.28874
 Alpha  occ. eigenvalues --   -0.27082  -0.25601  -0.24159  -0.23673
 Alpha virt. eigenvalues --   -0.02836  -0.01671   0.00610   0.04371   0.07580
 Alpha virt. eigenvalues --    0.09054   0.11409   0.12983   0.13366   0.14175
 Alpha virt. eigenvalues --    0.14704   0.15139   0.15423   0.16261   0.17174
 Alpha virt. eigenvalues --    0.18349   0.19576   0.20401   0.21057   0.22689
 Alpha virt. eigenvalues --    0.24496   0.26913   0.27627   0.28061   0.28635
 Alpha virt. eigenvalues --    0.31349   0.32357   0.33596   0.37231   0.40115
 Alpha virt. eigenvalues --    0.43336   0.44423   0.46137   0.46239   0.46936
 Alpha virt. eigenvalues --    0.47941   0.48648   0.49010   0.50076   0.51980
 Alpha virt. eigenvalues --    0.53092   0.54441   0.54603   0.55115   0.55487
 Alpha virt. eigenvalues --    0.56651   0.57700   0.58906   0.59856   0.60155
 Alpha virt. eigenvalues --    0.60951   0.62724   0.63441   0.64708   0.66055
 Alpha virt. eigenvalues --    0.67252   0.68827   0.70509   0.72458   0.72746
 Alpha virt. eigenvalues --    0.73750   0.74922   0.76480   0.77984   0.78207
 Alpha virt. eigenvalues --    0.80042   0.81044   0.81562   0.82365   0.82597
 Alpha virt. eigenvalues --    0.83357   0.83718   0.84474   0.85726   0.86536
 Alpha virt. eigenvalues --    0.87674   0.89235   0.90442   0.91772   0.92420
 Alpha virt. eigenvalues --    0.93793   0.95732   0.98894   0.99224   1.01181
 Alpha virt. eigenvalues --    1.02003   1.03964   1.08676   1.13171   1.13555
 Alpha virt. eigenvalues --    1.15953   1.17751   1.21666   1.23752   1.25295
 Alpha virt. eigenvalues --    1.26618   1.28597   1.30187   1.32568   1.36740
 Alpha virt. eigenvalues --    1.38552   1.40308   1.40869   1.44379   1.48852
 Alpha virt. eigenvalues --    1.50288   1.53205   1.53726   1.57108   1.58022
 Alpha virt. eigenvalues --    1.60982   1.62682   1.64657   1.67777   1.71529
 Alpha virt. eigenvalues --    1.75290   1.76571   1.77247   1.77676   1.78723
 Alpha virt. eigenvalues --    1.82361   1.83280   1.84409   1.86819   1.87882
 Alpha virt. eigenvalues --    1.88873   1.90248   1.91380   1.92837   1.95224
 Alpha virt. eigenvalues --    1.96560   1.97598   1.99301   1.99376   2.00683
 Alpha virt. eigenvalues --    2.02425   2.04603   2.05749   2.06436   2.07506
 Alpha virt. eigenvalues --    2.08766   2.09678   2.12029   2.16225   2.21702
 Alpha virt. eigenvalues --    2.23232   2.26755   2.27912   2.29028   2.29758
 Alpha virt. eigenvalues --    2.30421   2.33957   2.34553   2.36441   2.38209
 Alpha virt. eigenvalues --    2.40047   2.42026   2.42722   2.43971   2.45050
 Alpha virt. eigenvalues --    2.46206   2.47345   2.48114   2.49075   2.50092
 Alpha virt. eigenvalues --    2.51655   2.53833   2.57338   2.59650   2.59731
 Alpha virt. eigenvalues --    2.61779   2.63080   2.65924   2.66661   2.69033
 Alpha virt. eigenvalues --    2.69934   2.72275   2.73714   2.76880   2.77686
 Alpha virt. eigenvalues --    2.79809   2.81017   2.81947   2.87217   2.89109
 Alpha virt. eigenvalues --    2.91259   2.95283   2.98742   3.06483   3.07745
 Alpha virt. eigenvalues --    3.08480   3.19821   3.20764   3.21388   3.24787
 Alpha virt. eigenvalues --    3.26196   3.29304   3.32489   3.35045   3.36086
 Alpha virt. eigenvalues --    3.39374   3.44929   3.50875   3.52176   3.58004
 Alpha virt. eigenvalues --    3.81174   4.07703   4.10655   4.12904   4.15362
 Alpha virt. eigenvalues --    4.21049   4.31300   4.35937   4.41332   4.44936
 Alpha virt. eigenvalues --    4.57004   4.62723   4.78254   4.81998   8.60517
 Alpha virt. eigenvalues --   72.81486
          Condensed to atoms (all electrons):
               1          2          3          4          5          6
     1  O    8.085199   0.595883  -0.093437   0.005045   0.000350  -0.000004
     2  C    0.595883   4.473884   0.298899  -0.030360   0.005877   0.000415
     3  C   -0.093437   0.298899   4.991394   0.522417  -0.031076  -0.031686
     4  C    0.005045  -0.030360   0.522417   4.867795   0.484103  -0.030342
     5  C    0.000350   0.005877  -0.031076   0.484103   4.914768   0.525591
     6  C   -0.000004   0.000415  -0.031686  -0.030342   0.525591   4.795235
     7  Br  -0.000000   0.000003   0.000248   0.005600  -0.060808   0.260126
     8  C   -0.000070   0.004389  -0.030543  -0.046759  -0.033955   0.530716
     9  C   -0.000559  -0.041571   0.530651  -0.032770  -0.049139  -0.031055
    10  N   -0.105106   0.256516  -0.116085   0.002936  -0.000144  -0.000003
    11  C   -0.005427  -0.023244   0.006330  -0.000104   0.000003   0.000000
    12  C    0.000410   0.002645  -0.000301   0.000015  -0.000000   0.000000
    13  C   -0.000094   0.002373  -0.000470   0.000050  -0.000001  -0.000001
    14  C    0.002984  -0.025220  -0.002948   0.000064  -0.000012   0.000028
    15  H    0.005178  -0.006094  -0.044836   0.371939  -0.039077   0.004376
    16  H    0.000001  -0.000143   0.004195  -0.035873   0.371256  -0.043783
    17  H    0.000001  -0.000143   0.004223   0.000604   0.005206  -0.043002
    18  H    0.000006  -0.006565  -0.045401   0.005565   0.000599   0.004292
    19  H    0.019469  -0.002997   0.000924   0.000009   0.000000   0.000000
    20  H    0.000604   0.001490  -0.000158  -0.000006  -0.000000   0.000000
    21  H    0.000061   0.000537   0.000005  -0.000003  -0.000000   0.000000
    22  H   -0.000010  -0.000099   0.000007  -0.000000  -0.000000   0.000000
    23  H   -0.000007   0.000340   0.000074   0.000005  -0.000001  -0.000000
    24  H    0.000001  -0.000085   0.000008  -0.000001  -0.000000   0.000000
    25  H    0.000123  -0.007698   0.008795   0.000842   0.000015  -0.000054
    26  H   -0.000075   0.000647   0.000259  -0.000062  -0.000002   0.000002
               7          8          9         10         11         12
     1  O   -0.000000  -0.000070  -0.000559  -0.105106  -0.005427   0.000410
     2  C    0.000003   0.004389  -0.041571   0.256516  -0.023244   0.002645
     3  C    0.000248  -0.030543   0.530651  -0.116085   0.006330  -0.000301
     4  C    0.005600  -0.046759  -0.032770   0.002936  -0.000104   0.000015
     5  C   -0.060808  -0.033955  -0.049139  -0.000144   0.000003  -0.000000
     6  C    0.260126   0.530716  -0.031055  -0.000003   0.000000   0.000000
     7  Br  34.985565  -0.060906   0.005799  -0.000000   0.000000  -0.000000
     8  C   -0.060906   4.900616   0.490405   0.000190   0.000009   0.000000
     9  C    0.005799   0.490405   4.887685  -0.002568   0.000013  -0.000019
    10  N   -0.000000   0.000190  -0.002568   7.107639   0.286115  -0.063315
    11  C    0.000000   0.000009   0.000013   0.286115   4.828971   0.370554
    12  C   -0.000000   0.000000  -0.000019  -0.063315   0.370554   4.957067
    13  C    0.000000   0.000009   0.000495  -0.069392  -0.063500   0.368742
    14  C   -0.000000  -0.000403  -0.005128   0.299122  -0.075496  -0.063042
    15  H   -0.000146   0.000605   0.005604   0.000490  -0.000007  -0.000001
    16  H   -0.003570   0.005203   0.000580   0.000001  -0.000000   0.000000
    17  H   -0.003542   0.370320  -0.036891   0.000003  -0.000000  -0.000000
    18  H   -0.000154  -0.037869   0.369569   0.003747  -0.000213   0.000009
    19  H    0.000000   0.000001  -0.000009  -0.039273   0.385490  -0.024113
    20  H   -0.000000  -0.000001  -0.000028  -0.051583   0.392490  -0.048080
    21  H   -0.000000  -0.000000  -0.000000   0.001696  -0.035097   0.389857
    22  H   -0.000000  -0.000000  -0.000000   0.004080  -0.029811   0.378342
    23  H    0.000000  -0.000000   0.000001   0.002784   0.002726  -0.031496
    24  H   -0.000000  -0.000000  -0.000007   0.003583   0.003935  -0.031862
    25  H    0.000001   0.000274   0.002413  -0.033420   0.005929   0.004177
    26  H   -0.000000  -0.000172  -0.000090  -0.054203   0.001029  -0.001718
              13         14         15         16         17         18
     1  O   -0.000094   0.002984   0.005178   0.000001   0.000001   0.000006
     2  C    0.002373  -0.025220  -0.006094  -0.000143  -0.000143  -0.006565
     3  C   -0.000470  -0.002948  -0.044836   0.004195   0.004223  -0.045401
     4  C    0.000050   0.000064   0.371939  -0.035873   0.000604   0.005565
     5  C   -0.000001  -0.000012  -0.039077   0.371256   0.005206   0.000599
     6  C   -0.000001   0.000028   0.004376  -0.043783  -0.043002   0.004292
     7  Br   0.000000  -0.000000  -0.000146  -0.003570  -0.003542  -0.000154
     8  C    0.000009  -0.000403   0.000605   0.005203   0.370320  -0.037869
     9  C    0.000495  -0.005128   0.005604   0.000580  -0.036891   0.369569
    10  N   -0.069392   0.299122   0.000490   0.000001   0.000003   0.003747
    11  C   -0.063500  -0.075496  -0.000007  -0.000000  -0.000000  -0.000213
    12  C    0.368742  -0.063042  -0.000001   0.000000  -0.000000   0.000009
    13  C    4.987024   0.361355   0.000007   0.000000   0.000000   0.000085
    14  C    0.361355   4.832730  -0.000033   0.000000  -0.000002   0.001001
    15  H    0.000007  -0.000033   0.595883  -0.005898   0.000019  -0.000183
    16  H    0.000000   0.000000  -0.005898   0.596218  -0.000167   0.000019
    17  H    0.000000  -0.000002   0.000019  -0.000167   0.599354  -0.005970
    18  H    0.000085   0.001001  -0.000183   0.000019  -0.005970   0.609738
    19  H    0.004114   0.005585  -0.000007  -0.000000  -0.000000  -0.000002
    20  H   -0.001892   0.002229  -0.000000   0.000000   0.000000  -0.000014
    21  H   -0.033266   0.002833  -0.000001  -0.000000   0.000000  -0.000000
    22  H   -0.032518   0.004128  -0.000000  -0.000000   0.000000  -0.000000
    23  H    0.385710  -0.033940  -0.000001  -0.000000  -0.000000   0.000002
    24  H    0.377400  -0.029256  -0.000000  -0.000000   0.000000  -0.000005
    25  H   -0.023475   0.384298   0.000015  -0.000001  -0.000008  -0.000757
    26  H   -0.051101   0.388237  -0.000001   0.000000   0.000002   0.000616
              19         20         21         22         23         24
     1  O    0.019469   0.000604   0.000061  -0.000010  -0.000007   0.000001
     2  C   -0.002997   0.001490   0.000537  -0.000099   0.000340  -0.000085
     3  C    0.000924  -0.000158   0.000005   0.000007   0.000074   0.000008
     4  C    0.000009  -0.000006  -0.000003  -0.000000   0.000005  -0.000001
     5  C    0.000000  -0.000000  -0.000000  -0.000000  -0.000001  -0.000000
     6  C    0.000000   0.000000   0.000000   0.000000  -0.000000   0.000000
     7  Br   0.000000  -0.000000  -0.000000  -0.000000   0.000000  -0.000000
     8  C    0.000001  -0.000001  -0.000000  -0.000000  -0.000000  -0.000000
     9  C   -0.000009  -0.000028  -0.000000  -0.000000   0.000001  -0.000007
    10  N   -0.039273  -0.051583   0.001696   0.004080   0.002784   0.003583
    11  C    0.385490   0.392490  -0.035097  -0.029811   0.002726   0.003935
    12  C   -0.024113  -0.048080   0.389857   0.378342  -0.031496  -0.031862
    13  C    0.004114  -0.001892  -0.033266  -0.032518   0.385710   0.377400
    14  C    0.005585   0.002229   0.002833   0.004128  -0.033940  -0.029256
    15  H   -0.000007  -0.000000  -0.000001  -0.000000  -0.000001  -0.000000
    16  H   -0.000000   0.000000  -0.000000  -0.000000  -0.000000  -0.000000
    17  H   -0.000000   0.000000   0.000000   0.000000  -0.000000   0.000000
    18  H   -0.000002  -0.000014  -0.000000  -0.000000   0.000002  -0.000005
    19  H    0.544017  -0.034586  -0.008066   0.002304  -0.000144  -0.000137
    20  H   -0.034586   0.627684   0.005141  -0.006488  -0.000045   0.000481
    21  H   -0.008066   0.005141   0.601490  -0.034914  -0.011490   0.004348
    22  H    0.002304  -0.006488  -0.034914   0.613589   0.004269  -0.009531
    23  H   -0.000144  -0.000045  -0.011490   0.004269   0.604849  -0.034453
    24  H   -0.000137   0.000481   0.004348  -0.009531  -0.034453   0.612084
    25  H   -0.000233  -0.000255  -0.000139  -0.000143  -0.008886   0.002598
    26  H   -0.000322   0.003844  -0.000056   0.000524   0.005373  -0.006422
              25         26
     1  O    0.000123  -0.000075
     2  C   -0.007698   0.000647
     3  C    0.008795   0.000259
     4  C    0.000842  -0.000062
     5  C    0.000015  -0.000002
     6  C   -0.000054   0.000002
     7  Br   0.000001  -0.000000
     8  C    0.000274  -0.000172
     9  C    0.002413  -0.000090
    10  N   -0.033420  -0.054203
    11  C    0.005929   0.001029
    12  C    0.004177  -0.001718
    13  C   -0.023475  -0.051101
    14  C    0.384298   0.388237
    15  H    0.000015  -0.000001
    16  H   -0.000001   0.000000
    17  H   -0.000008   0.000002
    18  H   -0.000757   0.000616
    19  H   -0.000233  -0.000322
    20  H   -0.000255   0.003844
    21  H   -0.000139  -0.000056
    22  H   -0.000143   0.000524
    23  H   -0.008886   0.005373
    24  H    0.002598  -0.006422
    25  H    0.576442  -0.039735
    26  H   -0.039735   0.646863
 Mulliken charges:
               1
     1  O   -0.510527
     2  C    0.500322
     3  C    0.028511
     4  C   -0.090709
     5  C   -0.093554
     6  C    0.059150
     7  Br  -0.128215
     8  C   -0.092057
     9  C   -0.093380
    10  N   -0.433811
    11  C   -0.050695
    12  C   -0.207872
    13  C   -0.211652
    14  C   -0.049114
    15  H    0.112168
    16  H    0.111962
    17  H    0.109996
    18  H    0.101889
    19  H    0.147978
    20  H    0.109175
    21  H    0.117064
    22  H    0.106271
    23  H    0.114331
    24  H    0.107319
    25  H    0.128882
    26  H    0.106565
 Sum of Mulliken charges =  -0.00000
 Mulliken charges with hydrogens summed into heavy atoms:
               1
     1  O   -0.510527
     2  C    0.500322
     3  C    0.028511
     4  C    0.021459
     5  C    0.018408
     6  C    0.059150
     7  Br  -0.128215
     8  C    0.017939
     9  C    0.008509
    10  N   -0.433811
    11  C    0.206458
    12  C    0.015464
    13  C    0.009998
    14  C    0.186333
 Electronic spatial extent (au):  <R**2>=           5419.0089
 Charge=             -0.0000 electrons
 Dipole moment (field-independent basis, Debye):
    X=              1.9041    Y=             -3.3689    Z=             -0.4315  Tot=              3.8937
 Quadrupole moment (field-independent basis, Debye-Ang):
   XX=            -89.9944   YY=           -100.7846   ZZ=            -89.6497
   XY=             -9.4148   XZ=             -0.3324   YZ=             -4.6215
 Traceless Quadrupole moment (field-independent basis, Debye-Ang):
   XX=              3.4819   YY=             -7.3084   ZZ=              3.8265
   XY=             -9.4148   XZ=             -0.3324   YZ=             -4.6215
 Octapole moment (field-independent basis, Debye-Ang**2):
  XXX=            -54.8815  YYY=            -28.8425  ZZZ=             -1.8013  XYY=            -50.9000
  XXY=            -24.3839  XXZ=             -2.5689  XZZ=            -35.5895  YZZ=             -0.7609
  YYZ=             -5.7627  XYZ=              0.5246
 Hexadecapole moment (field-independent basis, Debye-Ang**3):
 XXXX=          -5000.5194 YYYY=           -726.5512 ZZZZ=           -347.1790 XXXY=             20.3886
 XXXZ=             32.4579 YYYX=              0.4798 YYYZ=            -12.4877 ZZZX=             14.8939
 ZZZY=            -11.0906 XXYY=          -1014.8881 XXZZ=           -924.3658 YYZZ=           -164.5428
 XXYZ=            -18.3319 YYXZ=              2.1500 ZZXY=             18.9521
 N-N= 1.126155395128D+03 E-N=-9.678009326476D+03  KE= 3.107583474517D+03
 No NMR shielding tensors so no spin-rotation constants.
 Leave Link  601 at Tue Sep 17 09:43:55 2024, MaxMem=  1342177280 cpu:               0.5 elap:               0.1
 (Enter /groups/ReismanLab/Software/Gaussian16_RevC/Linux_Binary_AVX2-enabled-CPU/g16/l701.exe)
 ... and contract with generalized density number  0.
 Compute integral first derivatives.
 R6Disp: Adding Grimme-D3(BJ) dispersion energy 1st derivatives to the gradient.
 Leave Link  701 at Tue Sep 17 09:43:55 2024, MaxMem=  1342177280 cpu:               0.5 elap:               0.1
 (Enter /groups/ReismanLab/Software/Gaussian16_RevC/Linux_Binary_AVX2-enabled-CPU/g16/l702.exe)
 L702 exits ... SP integral derivatives will be done elsewhere.
 Leave Link  702 at Tue Sep 17 09:43:55 2024, MaxMem=  1342177280 cpu:               0.0 elap:               0.0
 (Enter /groups/ReismanLab/Software/Gaussian16_RevC/Linux_Binary_AVX2-enabled-CPU/g16/l703.exe)
 Integral derivatives from FoFJK, PRISM(SPDF).
 Compute integral first derivatives, UseDBF=F ICtDFT=           0.
 Calling FoFJK, ICntrl=      2127 FMM=F ISym2X=0 I1Cent= 0 IOpClX= 0 NMat=1 NMatS=1 NMatT=0.
 FoFJK:  IHMeth= 1 ICntrl=    2127 DoSepK=F KAlg= 0 I1Cent=           0 FoldK=F
 IRaf=         0 NMat=       1 IRICut=       1 DoRegI=T DoRafI=F ISym2E= 0 IDoP0=0 IntGTp=1.
 FoFCou: FMM=F IPFlag=           0 FMFlag=      100000 FMFlg1=         800
         NFxFlg=           0 DoJE=F BraDBF=F KetDBF=F FulRan=T
         wScrn=  0.000000 ICntrl=      2127 IOpCl=  0 I1Cent=           0 NGrid=           0
         NMat0=    1 NMatS0=      1 NMatT0=    0 NMatD0=    1 NMtDS0=    0 NMtDT0=    0
 Symmetry not used in FoFCou.
 Leave Link  703 at Tue Sep 17 09:44:02 2024, MaxMem=  1342177280 cpu:              49.7 elap:               6.3
 (Enter /groups/ReismanLab/Software/Gaussian16_RevC/Linux_Binary_AVX2-enabled-CPU/g16/l716.exe)
 Dipole        = 7.49127674D-01-1.32541767D+00-1.69759511D-01
 ***** Axes restored to original set *****
 -------------------------------------------------------------------
 Center     Atomic                   Forces (Hartrees/Bohr)
 Number     Number              X              Y              Z
 -------------------------------------------------------------------
      1        8          -0.003498860   -0.019507854   -0.004769318
      2        6           0.010353671    0.005447637    0.002120183
      3        6          -0.004062553   -0.002978324   -0.000049916
      4        6          -0.003164724   -0.002497649   -0.002001863
      5        6           0.003807815   -0.001737529   -0.005054395
      6        6           0.006534196    0.001765700    0.000348787
      7       35           0.002105471    0.000383290   -0.000109035
      8        6           0.004336907    0.003507033    0.004760110
      9        6          -0.002888162    0.000487022    0.001778954
     10        7          -0.006140171    0.005336752    0.001877232
     11        6          -0.006748394   -0.007560093    0.000917429
     12        6          -0.001865804   -0.000349060    0.000395503
     13        6           0.000507031    0.002787309   -0.000705997
     14        6           0.005121936    0.009603869   -0.000589160
     15        1          -0.001755230   -0.002477748   -0.002558580
     16        1           0.002089944   -0.000681498   -0.002466281
     17        1           0.001838355    0.001490803    0.002268809
     18        1          -0.002449398    0.001604532    0.002825666
     19        1           0.000178524   -0.000432270    0.001865776
     20        1          -0.001744880   -0.000802601    0.001414259
     21        1          -0.001360778   -0.001102185   -0.002154769
     22        1          -0.003579960    0.000357026   -0.000194168
     23        1           0.000802827    0.001398235   -0.002303535
     24        1          -0.000165386    0.003580873   -0.000177398
     25        1           0.000127783    0.000339797    0.001837162
     26        1           0.001619841    0.002036934    0.000724545
 -------------------------------------------------------------------
 Cartesian Forces:  Max     0.019507854 RMS     0.003892236
 Leave Link  716 at Tue Sep 17 09:44:02 2024, MaxMem=  1342177280 cpu:               0.0 elap:               0.0
 (Enter /groups/ReismanLab/Software/Gaussian16_RevC/Linux_Binary_AVX2-enabled-CPU/g16/l103.exe)

 GradGradGradGradGradGradGradGradGradGradGradGradGradGradGradGradGradGrad
 Berny optimization.
 FormGI is forming the generalized inverse of G from B-inverse, IUseBI=4.
 GSVD:  received Info=                   1 from GESDD.
 Internal  Forces:  Max     0.020366163 RMS     0.003672811
 Search for a local minimum.
 Step number   1 out of a maximum of  156
 All quantities printed in internal units (Hartrees-Bohrs-Radians)
 RMS Force = .36728D-02 SwitMx=.10000D-02 MixMth= 1
 Mixed Optimization -- RFO/linear search
 Second derivative matrix not updated -- first step.
 ITU=  0
     Eigenvalues ---    0.00323   0.00792   0.00940   0.01491   0.01594
     Eigenvalues ---    0.01791   0.02225   0.02259   0.02269   0.02289
     Eigenvalues ---    0.02291   0.02299   0.02303   0.02308   0.02367
     Eigenvalues ---    0.02534   0.03190   0.04432   0.04869   0.05037
     Eigenvalues ---    0.05466   0.05829   0.05965   0.06545   0.07045
     Eigenvalues ---    0.07075   0.08529   0.08666   0.09176   0.09966
     Eigenvalues ---    0.11515   0.15998   0.16000   0.16000   0.16000
     Eigenvalues ---    0.17976   0.20505   0.21688   0.21999   0.22976
     Eigenvalues ---    0.23358   0.23985   0.24921   0.24991   0.25000
     Eigenvalues ---    0.25000   0.27259   0.27533   0.28856   0.32582
     Eigenvalues ---    0.34030   0.34170   0.34835   0.34845   0.34918
     Eigenvalues ---    0.34936   0.35028   0.35055   0.36030   0.36082
     Eigenvalues ---    0.36089   0.36103   0.36637   0.37201   0.43397
     Eigenvalues ---    0.43576   0.47479   0.47779   0.48329   0.48602
     Eigenvalues ---    0.55244   0.96410
 RFO step:  Lambda=-4.82851337D-03 EMin= 3.22742406D-03
 Linear search not attempted -- first point.
 Iteration  1 RMS(Cart)=  0.05406821 RMS(Int)=  0.00062108
 Iteration  2 RMS(Cart)=  0.00100092 RMS(Int)=  0.00005726
 Iteration  3 RMS(Cart)=  0.00000052 RMS(Int)=  0.00005726
 ITry= 1 IFail=0 DXMaxC= 1.89D-01 DCOld= 1.00D+10 DXMaxT= 3.00D-01 DXLimC= 3.00D+00 Rises=F
 Variable       Old X    -DE/DX   Delta X   Delta X   Delta X     New X
                                 (Linear)    (Quad)   (Total)
    R1        2.30112   0.02004   0.00000   0.02068   0.02068   2.32180
    R2        2.83092   0.00588   0.00000   0.01779   0.01779   2.84872
    R3        2.54916   0.02037   0.00000   0.03655   0.03655   2.58570
    R4        2.62748   0.00797   0.00000   0.01660   0.01660   2.64408
    R5        2.62834   0.00859   0.00000   0.01795   0.01795   2.64629
    R6        2.61266   0.01034   0.00000   0.02103   0.02103   2.63368
    R7        2.03953   0.00394   0.00000   0.01077   0.01077   2.05030
    R8        2.61649   0.00905   0.00000   0.01863   0.01863   2.63512
    R9        2.03921   0.00328   0.00000   0.00895   0.00895   2.04817
   R10        3.60124   0.00214   0.00000   0.01160   0.01160   3.61284
   R11        2.61688   0.00814   0.00000   0.01680   0.01680   2.63368
   R12        2.61343   0.01090   0.00000   0.02225   0.02225   2.63568
   R13        2.03943   0.00325   0.00000   0.00888   0.00888   2.04831
   R14        2.04034   0.00402   0.00000   0.01101   0.01101   2.05135
   R15        2.73601   0.00952   0.00000   0.02544   0.02543   2.76144
   R16        2.72826   0.01297   0.00000   0.03410   0.03409   2.76236
   R17        2.89774   0.00588   0.00000   0.01952   0.01952   2.91726
   R18        2.05944  -0.00017   0.00000  -0.00049  -0.00049   2.05896
   R19        2.07044   0.00182   0.00000   0.00525   0.00525   2.07569
   R20        2.91056   0.00915   0.00000   0.02961   0.02962   2.94018
   R21        2.05778   0.00260   0.00000   0.00733   0.00733   2.06511
   R22        2.05585   0.00318   0.00000   0.00896   0.00896   2.06481
   R23        2.90800   0.00543   0.00000   0.01801   0.01801   2.92601
   R24        2.05809   0.00260   0.00000   0.00733   0.00733   2.06542
   R25        2.05630   0.00315   0.00000   0.00886   0.00886   2.06516
   R26        2.05928  -0.00054   0.00000  -0.00154  -0.00154   2.05773
   R27        2.07279   0.00143   0.00000   0.00416   0.00416   2.07695
    A1        2.11582  -0.00512   0.00000  -0.01974  -0.02004   2.09578
    A2        2.14035   0.00074   0.00000   0.00332   0.00302   2.14337
    A3        2.02657   0.00441   0.00000   0.01769   0.01739   2.04396
    A4        2.07359  -0.00058   0.00000  -0.00219  -0.00220   2.07139
    A5        2.12062   0.00180   0.00000   0.00718   0.00717   2.12779
    A6        2.08630  -0.00123   0.00000  -0.00540  -0.00540   2.08089
    A7        2.10387   0.00071   0.00000   0.00274   0.00273   2.10660
    A8        2.08144  -0.00052   0.00000  -0.00235  -0.00236   2.07908
    A9        2.09788  -0.00019   0.00000  -0.00039  -0.00039   2.09748
   A10        2.07716   0.00017   0.00000   0.00071   0.00070   2.07786
   A11        2.10619   0.00032   0.00000   0.00208   0.00208   2.10827
   A12        2.09981  -0.00049   0.00000  -0.00280  -0.00280   2.09700
   A13        2.08381   0.00007   0.00000   0.00018   0.00018   2.08399
   A14        2.11815  -0.00035   0.00000  -0.00116  -0.00116   2.11700
   A15        2.08122   0.00027   0.00000   0.00097   0.00097   2.08219
   A16        2.07936  -0.00050   0.00000  -0.00207  -0.00206   2.07729
   A17        2.09869  -0.00019   0.00000  -0.00166  -0.00166   2.09703
   A18        2.10514   0.00069   0.00000   0.00373   0.00372   2.10886
   A19        2.10113   0.00119   0.00000   0.00511   0.00511   2.10624
   A20        2.09473  -0.00080   0.00000  -0.00372  -0.00373   2.09099
   A21        2.08719  -0.00040   0.00000  -0.00128  -0.00129   2.08590
   A22        2.12175  -0.00196   0.00000  -0.00941  -0.00943   2.11232
   A23        2.23364   0.00126   0.00000   0.00432   0.00433   2.23797
   A24        1.89106   0.00075   0.00000   0.00632   0.00632   1.89737
   A25        1.82689  -0.00166   0.00000  -0.00604  -0.00604   1.82085
   A26        1.90536   0.00000   0.00000  -0.00093  -0.00091   1.90445
   A27        1.90476   0.00124   0.00000   0.00903   0.00903   1.91378
   A28        1.98567   0.00181   0.00000   0.01347   0.01347   1.99914
   A29        1.93725  -0.00016   0.00000  -0.00265  -0.00261   1.93464
   A30        1.90144  -0.00119   0.00000  -0.01223  -0.01222   1.88922
   A31        1.83283   0.00183   0.00000   0.00613   0.00611   1.83895
   A32        1.92424  -0.00074   0.00000  -0.00447  -0.00448   1.91976
   A33        1.93961  -0.00034   0.00000   0.00341   0.00333   1.94294
   A34        1.92735  -0.00038   0.00000   0.00028   0.00029   1.92764
   A35        1.95401   0.00003   0.00000   0.00769   0.00764   1.96165
   A36        1.88611  -0.00039   0.00000  -0.01254  -0.01253   1.87357
   A37        1.83831   0.00079   0.00000   0.00065   0.00065   1.83896
   A38        1.92923  -0.00027   0.00000   0.00146   0.00147   1.93070
   A39        1.95359   0.00066   0.00000   0.01060   0.01058   1.96417
   A40        1.92401  -0.00024   0.00000  -0.00213  -0.00213   1.92188
   A41        1.93494  -0.00033   0.00000   0.00193   0.00188   1.93683
   A42        1.88420  -0.00059   0.00000  -0.01210  -0.01210   1.87210
   A43        1.82651  -0.00161   0.00000  -0.00412  -0.00411   1.82240
   A44        1.94238   0.00034   0.00000   0.00015   0.00014   1.94253
   A45        1.90899   0.00127   0.00000   0.01314   0.01315   1.92214
   A46        1.96393   0.00114   0.00000   0.00768   0.00770   1.97163
   A47        1.92429   0.00037   0.00000   0.00073   0.00071   1.92500
   A48        1.89678  -0.00143   0.00000  -0.01643  -0.01642   1.88036
    D1        0.91119  -0.00159   0.00000  -0.10490  -0.10475   0.80644
    D2       -2.15142  -0.00140   0.00000  -0.09851  -0.09835  -2.24977
    D3       -2.26167  -0.00063   0.00000  -0.06076  -0.06093  -2.32259
    D4        0.95891  -0.00044   0.00000  -0.05437  -0.05452   0.90439
    D5       -0.08934   0.00139   0.00000   0.05314   0.05328  -0.03606
    D6       -2.90831   0.00107   0.00000   0.04699   0.04715  -2.86116
    D7        3.08400   0.00052   0.00000   0.00876   0.00860   3.09260
    D8        0.26503   0.00020   0.00000   0.00262   0.00247   0.26750
    D9       -3.09486   0.00000   0.00000   0.00279   0.00277  -3.09209
   D10        0.04546  -0.00015   0.00000  -0.00313  -0.00314   0.04232
   D11       -0.03066  -0.00005   0.00000  -0.00289  -0.00289  -0.03355
   D12        3.10966  -0.00020   0.00000  -0.00881  -0.00879   3.10086
   D13        3.08066  -0.00021   0.00000  -0.00729  -0.00731   3.07335
   D14       -0.04282  -0.00039   0.00000  -0.01400  -0.01400  -0.05682
   D15        0.01861  -0.00005   0.00000  -0.00101  -0.00101   0.01760
   D16       -3.10487  -0.00022   0.00000  -0.00771  -0.00770  -3.11258
   D17        0.01920   0.00013   0.00000   0.00502   0.00502   0.02422
   D18       -3.12998   0.00006   0.00000   0.00190   0.00190  -3.12808
   D19       -3.12111   0.00029   0.00000   0.01099   0.01099  -3.11011
   D20        0.01290   0.00021   0.00000   0.00787   0.00787   0.02078
   D21       -3.14087  -0.00010   0.00000  -0.00401  -0.00400   3.13832
   D22        0.00443  -0.00008   0.00000  -0.00317  -0.00316   0.00127
   D23        0.00828  -0.00003   0.00000  -0.00092  -0.00092   0.00736
   D24       -3.12960  -0.00001   0.00000  -0.00009  -0.00009  -3.12969
   D25       -0.01623  -0.00001   0.00000  -0.00062  -0.00061  -0.01685
   D26        3.12371   0.00002   0.00000   0.00054   0.00054   3.12425
[...]
 Alpha virt. eigenvalues --    0.69629   0.70666   0.71061   0.72416   0.73490
 Alpha virt. eigenvalues --    0.74413   0.74786   0.75384   0.75699   0.77268
 Alpha virt. eigenvalues --    0.79106   0.79422   0.81431   0.83052   0.83851
 Alpha virt. eigenvalues --    0.85339   0.86940   0.88608   0.90025   0.90621
 Alpha virt. eigenvalues --    0.91636   0.92218   0.92986   0.93928   0.94545
 Alpha virt. eigenvalues --    0.94761   0.97287   0.98190   0.99502   1.00188
 Alpha virt. eigenvalues --    1.00959   1.02985   1.03723   1.04225   1.06215
 Alpha virt. eigenvalues --    1.07207   1.07633   1.09589   1.10354   1.11067
 Alpha virt. eigenvalues --    1.12132   1.14084   1.15628   1.16340   1.17480
 Alpha virt. eigenvalues --    1.18305   1.19708   1.21212   1.22346   1.22580
 Alpha virt. eigenvalues --    1.23930   1.24863   1.25664   1.26664   1.27750
 Alpha virt. eigenvalues --    1.28292   1.30842   1.31398   1.32404   1.33514
 Alpha virt. eigenvalues --    1.34198   1.35810   1.38277   1.38835   1.41194
 Alpha virt. eigenvalues --    1.41488   1.41957   1.44762   1.47120   1.47417
 Alpha virt. eigenvalues --    1.49058   1.49933   1.51015   1.51779   1.52313
 Alpha virt. eigenvalues --    1.54612   1.54950   1.55828   1.56669   1.57661
 Alpha virt. eigenvalues --    1.58037   1.59293   1.59839   1.60308   1.61859
 Alpha virt. eigenvalues --    1.62410   1.63739   1.64249   1.64457   1.65199
 Alpha virt. eigenvalues --    1.66002   1.67099   1.67750   1.68547   1.68988
 Alpha virt. eigenvalues --    1.69822   1.70196   1.72677   1.73299   1.74216
 Alpha virt. eigenvalues --    1.75675   1.76220   1.77052   1.78805   1.80077
 Alpha virt. eigenvalues --    1.80648   1.81978   1.82399   1.84216   1.84798
 Alpha virt. eigenvalues --    1.85751   1.87181   1.88045   1.88758   1.90058
 Alpha virt. eigenvalues --    1.92323   1.93363   1.94175   1.94382   1.95742
 Alpha virt. eigenvalues --    1.97976   1.99444   2.00039   2.01606   2.04070
 Alpha virt. eigenvalues --    2.05427   2.06978   2.08508   2.09667   2.11234
 Alpha virt. eigenvalues --    2.11781   2.14424   2.17295   2.17638   2.18916
 Alpha virt. eigenvalues --    2.20694   2.21342   2.24050   2.26165   2.26556
 Alpha virt. eigenvalues --    2.27601   2.30404   2.31323   2.33583   2.35152
 Alpha virt. eigenvalues --    2.35753   2.36415   2.37036   2.41364   2.41573
 Alpha virt. eigenvalues --    2.43023   2.43739   2.46149   2.46566   2.46789
 Alpha virt. eigenvalues --    2.48584   2.50883   2.51735   2.54634   2.56334
 Alpha virt. eigenvalues --    2.57559   2.57884   2.58807   2.59918   2.61532
 Alpha virt. eigenvalues --    2.62105   2.62780   2.63089   2.64600   2.65589
 Alpha virt. eigenvalues --    2.66195   2.66930   2.68593   2.69756   2.70980
 Alpha virt. eigenvalues --    2.71153   2.72274   2.73569   2.73930   2.75127
 Alpha virt. eigenvalues --    2.76189   2.76742   2.77292   2.79271   2.79910
 Alpha virt. eigenvalues --    2.82086   2.83398   2.83928   2.84577   2.85230
 Alpha virt. eigenvalues --    2.86021   2.88644   2.88846   2.89622   2.92279
 Alpha virt. eigenvalues --    2.93960   2.95110   2.96431   2.98756   2.99019
 Alpha virt. eigenvalues --    3.00780   3.01123   3.01644   3.04553   3.05825
 Alpha virt. eigenvalues --    3.07102   3.09173   3.09701   3.10351   3.12026
 Alpha virt. eigenvalues --    3.13302   3.13787   3.14293   3.14413   3.15435
 Alpha virt. eigenvalues --    3.16006   3.16506   3.17450   3.19362   3.20168
 Alpha virt. eigenvalues --    3.21622   3.22422   3.24361   3.24995   3.25814
 Alpha virt. eigenvalues --    3.27460   3.29368   3.30436   3.31643   3.31905
 Alpha virt. eigenvalues --    3.32176   3.34720   3.35491   3.36123   3.37228
 Alpha virt. eigenvalues --    3.37584   3.37635   3.38601   3.40114   3.41227
 Alpha virt. eigenvalues --    3.41734   3.42735   3.43658   3.44518   3.45204
 Alpha virt. eigenvalues --    3.46218   3.47285   3.49045   3.49342   3.50858
 Alpha virt. eigenvalues --    3.51878   3.52787   3.53470   3.54354   3.55914
 Alpha virt. eigenvalues --    3.58375   3.61671   3.61812   3.62781   3.64080
 Alpha virt. eigenvalues --    3.66846   3.68497   3.71324   3.73507   3.74452
 Alpha virt. eigenvalues --    3.75068   3.76726   3.78938   3.81660   3.81901
 Alpha virt. eigenvalues --    3.84689   3.86485   3.89441   3.91244   3.92028
 Alpha virt. eigenvalues --    3.95687   3.97935   3.99493   4.00816   4.00926
 Alpha virt. eigenvalues --    4.02070   4.04619   4.05889   4.06952   4.08815
 Alpha virt. eigenvalues --    4.09526   4.11501   4.13443   4.14359   4.14579
 Alpha virt. eigenvalues --    4.16399   4.16545   4.17908   4.19145   4.20787
 Alpha virt. eigenvalues --    4.22361   4.23927   4.24680   4.26852   4.29625
 Alpha virt. eigenvalues --    4.32028   4.33589   4.35220   4.37782   4.39634
 Alpha virt. eigenvalues --    4.42481   4.43069   4.47647   4.48467   4.50277
 Alpha virt. eigenvalues --    4.50915   4.52215   4.54299   4.59986   4.61973
 Alpha virt. eigenvalues --    4.63227   4.66133   4.75623   4.76550   4.81111
 Alpha virt. eigenvalues --    4.81697   4.82152   4.85808   4.89903   4.90194
 Alpha virt. eigenvalues --    4.94556   4.96655   5.01649   5.06759   5.12797
 Alpha virt. eigenvalues --    5.16946   5.17826   5.21881   5.24189   5.26573
 Alpha virt. eigenvalues --    5.29876   5.31750   5.32980   5.38888   5.42617
 Alpha virt. eigenvalues --    5.49143   5.52593   5.59417   5.69435   5.74366
 Alpha virt. eigenvalues --    5.78051   5.96540   6.14428   6.33250   6.43662
 Alpha virt. eigenvalues --    6.59235   6.71135   6.85013   7.08070   7.10994
 Alpha virt. eigenvalues --    7.85216  22.10284  22.45360  22.57237  22.62248
 Alpha virt. eigenvalues --   22.68896  22.72468  22.73586  22.82710  22.88748
 Alpha virt. eigenvalues --   23.27887  23.54497  33.04937  44.10569
          Condensed to atoms (all electrons):
               1          2          3          4          5          6
     1  O    7.954409   0.682214  -0.138787   0.023774  -0.001162   0.000417
     2  C    0.682214   4.623267   0.238328  -0.048315   0.004404  -0.003581
     3  C   -0.138787   0.238328   5.666209   0.221684   0.034162  -0.103205
     4  C    0.023774  -0.048315   0.221684   5.160621   0.376322   0.042619
     5  C   -0.001162   0.004404   0.034162   0.376322   5.142286   0.388439
     6  C    0.000417  -0.003581  -0.103205   0.042619   0.388439   4.904889
     7  Br  -0.000001  -0.000165  -0.006834   0.023256  -0.102131   0.369559
     8  C   -0.000548   0.005979   0.000257  -0.098552   0.028097   0.400928
     9  C    0.001989  -0.054722   0.276733   0.075819  -0.109246   0.040834
    10  N   -0.124317   0.403525  -0.161200   0.010156  -0.001224   0.000244
    11  C   -0.018778  -0.061078  -0.000395   0.000939   0.000026   0.000008
    12  C    0.003677   0.011080   0.004133  -0.000639   0.000024  -0.000010
    13  C   -0.000587  -0.002080  -0.003716   0.000495  -0.000058  -0.000004
    14  C    0.002677  -0.044844   0.006119   0.000136  -0.000201  -0.000226
    15  H    0.012873  -0.000398  -0.057705   0.418673  -0.032155   0.005622
    16  H   -0.000088   0.000257   0.010368  -0.035903   0.422256  -0.049362
    17  H    0.000005   0.000194   0.009423  -0.003790   0.011656  -0.046133
    18  H   -0.000509   0.000280  -0.051057   0.010960  -0.001268   0.002412
    19  H    0.020541  -0.020602   0.002017   0.000339  -0.000002   0.000004
    20  H    0.000056   0.002976   0.000724  -0.000121   0.000000  -0.000002
    21  H    0.000104   0.000865   0.000345  -0.000014  -0.000001  -0.000000
    22  H   -0.000023  -0.000066   0.000035  -0.000006   0.000000   0.000000
    23  H    0.000019   0.000207   0.000082  -0.000023   0.000002  -0.000000
    24  H    0.000040  -0.000029   0.000131   0.000021  -0.000000   0.000001
    25  H    0.001161  -0.011005  -0.010591   0.007573  -0.000437   0.000660
    26  H   -0.000295  -0.001850   0.008800  -0.003230   0.000303  -0.000446
               7          8          9         10         11         12
     1  O   -0.000001  -0.000548   0.001989  -0.124317  -0.018778   0.003677
     2  C   -0.000165   0.005979  -0.054722   0.403525  -0.061078   0.011080
     3  C   -0.006834   0.000257   0.276733  -0.161200  -0.000395   0.004133
     4  C    0.023256  -0.098552   0.075819   0.010156   0.000939  -0.000639
     5  C   -0.102131   0.028097  -0.109246  -0.001224   0.000026   0.000024
     6  C    0.369559   0.400928   0.040834   0.000244   0.000008  -0.000010
     7  Br  34.918756  -0.102573   0.024329  -0.000003  -0.000000  -0.000000
     8  C   -0.102573   5.113873   0.395150   0.000939  -0.000083   0.000076
     9  C    0.024329   0.395150   5.160100   0.026282   0.000390  -0.000888
    10  N   -0.000003   0.000939   0.026282   6.790777   0.230166  -0.044750
    11  C   -0.000000  -0.000083   0.000390   0.230166   5.123361   0.240802
    12  C   -0.000000   0.000076  -0.000888  -0.044750   0.240802   5.188216
    13  C    0.000000  -0.000060   0.003836  -0.052527  -0.030335   0.217140
    14  C    0.000008   0.001623  -0.008785   0.229514  -0.053263  -0.052312
    15  H   -0.000211  -0.002040   0.012805   0.000209   0.000153  -0.000053
    16  H   -0.007760   0.012481  -0.004305   0.000006  -0.000000   0.000000
    17  H   -0.007378   0.418799  -0.034879  -0.000035  -0.000001   0.000001
    18  H   -0.000229  -0.015712   0.401920   0.014043   0.000607  -0.000385
    19  H    0.000000   0.000002   0.000176  -0.038021   0.434636  -0.038894
    20  H   -0.000000  -0.000002  -0.000296  -0.042830   0.422746  -0.041364
    21  H   -0.000000   0.000001  -0.000008   0.003585  -0.049478   0.434734
    22  H   -0.000000  -0.000000  -0.000005   0.005920  -0.041739   0.432892
    23  H    0.000000   0.000002  -0.000060   0.004809   0.007701  -0.032552
    24  H   -0.000000  -0.000000  -0.000113   0.003067   0.001914  -0.049009
    25  H    0.000000  -0.001832   0.002753  -0.050504   0.009471  -0.010437
    26  H   -0.000001   0.002448  -0.004375  -0.049729  -0.002092   0.014525
              13         14         15         16         17         18
     1  O   -0.000587   0.002677   0.012873  -0.000088   0.000005  -0.000509
     2  C   -0.002080  -0.044844  -0.000398   0.000257   0.000194   0.000280
     3  C   -0.003716   0.006119  -0.057705   0.010368   0.009423  -0.051057
     4  C    0.000495   0.000136   0.418673  -0.035903  -0.003790   0.010960
     5  C   -0.000058  -0.000201  -0.032155   0.422256   0.011656  -0.001268
     6  C   -0.000004  -0.000226   0.005622  -0.049362  -0.046133   0.002412
     7  Br   0.000000   0.000008  -0.000211  -0.007760  -0.007378  -0.000229
     8  C   -0.000060   0.001623  -0.002040   0.012481   0.418799  -0.015712
     9  C    0.003836  -0.008785   0.012805  -0.004305  -0.034879   0.401920
    10  N   -0.052527   0.229514   0.000209   0.000006  -0.000035   0.014043
    11  C   -0.030335  -0.053263   0.000153  -0.000000  -0.000001   0.000607
    12  C    0.217140  -0.052312  -0.000053   0.000000   0.000001  -0.000385
    13  C    5.182418   0.259037   0.000042  -0.000000  -0.000004   0.000866
    14  C    0.259037   5.107543  -0.000073   0.000006   0.000089  -0.009051
    15  H    0.000042  -0.000073   0.464934  -0.003802   0.000021   0.000076
    16  H   -0.000000   0.000006  -0.003802   0.472150   0.000050   0.000028
    17  H   -0.000004   0.000089   0.000021   0.000050   0.472909  -0.003211
    18  H    0.000866  -0.009051   0.000076   0.000028  -0.003211   0.459567
    19  H    0.010912   0.002987   0.000141  -0.000000  -0.000000   0.000110
    20  H   -0.006146   0.002583  -0.000014   0.000000   0.000000  -0.000204
    21  H   -0.049424   0.001844  -0.000002   0.000000   0.000000   0.000005
    22  H   -0.042216   0.009601  -0.000001  -0.000000   0.000000  -0.000006
    23  H    0.425680  -0.040220  -0.000002   0.000000   0.000000  -0.000030
    24  H    0.439665  -0.052521   0.000001   0.000000  -0.000001   0.000231
    25  H   -0.018647   0.423773   0.000508  -0.000009  -0.000079   0.003375
    26  H   -0.039002   0.430815  -0.000116   0.000002   0.000256  -0.013722
              19         20         21         22         23         24
     1  O    0.020541   0.000056   0.000104  -0.000023   0.000019   0.000040
     2  C   -0.020602   0.002976   0.000865  -0.000066   0.000207  -0.000029
     3  C    0.002017   0.000724   0.000345   0.000035   0.000082   0.000131
     4  C    0.000339  -0.000121  -0.000014  -0.000006  -0.000023   0.000021
     5  C   -0.000002   0.000000  -0.000001   0.000000   0.000002  -0.000000
     6  C    0.000004  -0.000002  -0.000000   0.000000  -0.000000   0.000001
     7  Br   0.000000  -0.000000  -0.000000  -0.000000   0.000000  -0.000000
     8  C    0.000002  -0.000002   0.000001  -0.000000   0.000002  -0.000000
     9  C    0.000176  -0.000296  -0.000008  -0.000005  -0.000060  -0.000113
    10  N   -0.038021  -0.042830   0.003585   0.005920   0.004809   0.003067
    11  C    0.434636   0.422746  -0.049478  -0.041739   0.007701   0.001914
    12  C   -0.038894  -0.041364   0.434734   0.432892  -0.032552  -0.049009
    13  C    0.010912  -0.006146  -0.049424  -0.042216   0.425680   0.439665
    14  C    0.002987   0.002583   0.001844   0.009601  -0.040220  -0.052521
    15  H    0.000141  -0.000014  -0.000002  -0.000001  -0.000002   0.000001
    16  H   -0.000000   0.000000   0.000000  -0.000000   0.000000   0.000000
    17  H   -0.000000   0.000000   0.000000   0.000000   0.000000  -0.000001
    18  H    0.000110  -0.000204   0.000005  -0.000006  -0.000030   0.000231
    19  H    0.484515  -0.029042  -0.005458  -0.000642  -0.000173   0.000077
    20  H   -0.029042   0.534312   0.005441  -0.002416  -0.000070  -0.000256
    21  H   -0.005458   0.005441   0.517407  -0.016825  -0.004476   0.005306
    22  H   -0.000642  -0.002416  -0.016825   0.509457  -0.000623  -0.005057
    23  H   -0.000173  -0.000070  -0.004476  -0.000623   0.507476  -0.019151
    24  H    0.000077  -0.000256   0.005306  -0.005057  -0.019151   0.523097
    25  H    0.000905  -0.000925   0.000416  -0.000367  -0.006083   0.005776
    26  H   -0.000743   0.001706  -0.000047  -0.000029   0.001517  -0.010563
              25         26
     1  O    0.001161  -0.000295
     2  C   -0.011005  -0.001850
     3  C   -0.010591   0.008800
     4  C    0.007573  -0.003230
     5  C   -0.000437   0.000303
     6  C    0.000660  -0.000446
     7  Br   0.000000  -0.000001
     8  C   -0.001832   0.002448
     9  C    0.002753  -0.004375
    10  N   -0.050504  -0.049729
    11  C    0.009471  -0.002092
    12  C   -0.010437   0.014525
    13  C   -0.018647  -0.039002
    14  C    0.423773   0.430815
    15  H    0.000508  -0.000116
    16  H   -0.000009   0.000002
    17  H   -0.000079   0.000256
    18  H    0.003375  -0.013722
    19  H    0.000905  -0.000743
    20  H   -0.000925   0.001706
    21  H    0.000416  -0.000047
    22  H   -0.000367  -0.000029
    23  H   -0.006083   0.001517
    24  H    0.005776  -0.010563
    25  H    0.520107  -0.045322
    26  H   -0.045322   0.567037
 Mulliken charges:
               1
     1  O   -0.418859
     2  C    0.275160
     3  C    0.053940
     4  C   -0.182794
     5  C   -0.160095
     6  C    0.046333
     7  Br  -0.108623
     8  C   -0.159252
     9  C   -0.205436
    10  N   -0.158100
    11  C   -0.215678
    12  C   -0.276006
    13  C   -0.295286
    14  C   -0.216858
    15  H    0.180515
    16  H    0.183626
    17  H    0.182106
    18  H    0.200903
    19  H    0.176215
    20  H    0.153143
    21  H    0.155680
    22  H    0.152115
    23  H    0.155967
    24  H    0.157373
    25  H    0.179759
    26  H    0.144151
 Sum of Mulliken charges =  -0.00000
 Mulliken charges with hydrogens summed into heavy atoms:
               1
     1  O   -0.418859
     2  C    0.275160
     3  C    0.053940
     4  C   -0.002279
     5  C    0.023532
     6  C    0.046333
     7  Br  -0.108623
     8  C    0.022853
     9  C   -0.004532
    10  N   -0.158100
    11  C    0.113679
    12  C    0.031788
    13  C    0.018054
    14  C    0.107052
 Electronic spatial extent (au):  <R**2>=           5576.8823
 Charge=              0.0000 electrons
 Dipole moment (field-independent basis, Debye):
    X=              2.4465    Y=             -3.9921    Z=             -0.8679  Tot=              4.7619
 Quadrupole moment (field-independent basis, Debye-Ang):
   XX=            -89.4810   YY=           -100.8036   ZZ=            -93.3362
   XY=            -11.6926   XZ=             -1.7013   YZ=             -6.1874
 Traceless Quadrupole moment (field-independent basis, Debye-Ang):
   XX=              5.0593   YY=             -6.2633   ZZ=              1.2040
   XY=            -11.6926   XZ=             -1.7013   YZ=             -6.1874
 Octapole moment (field-independent basis, Debye-Ang**2):
  XXX=            -30.6855  YYY=            -32.4981  ZZZ=             -2.8817  XYY=            -54.5127
  XXY=            -28.4287  XXZ=             -7.5351  XZZ=            -33.8352  YZZ=             -4.9271
  YYZ=             -9.3519  XYZ=              2.3277
 Hexadecapole moment (field-independent basis, Debye-Ang**3):
 XXXX=          -5207.5154 YYYY=           -813.0485 ZZZZ=           -293.0476 XXXY=             -8.3987
 XXXZ=             24.9217 YYYX=            -12.5886 YYYZ=            -25.7426 ZZZX=             15.5517
 ZZZY=             -6.5056 XXYY=          -1074.9078 XXZZ=           -964.1824 YYZZ=           -163.1162
 XXYZ=            -16.4631 YYXZ=             -5.2091 ZZXY=             10.8097
 N-N= 1.117112802187D+03 E-N=-9.680585959733D+03  KE= 3.124223397889D+03
 Calculating spin-rotation constants.
 Leave Link  601 at Tue Sep 17 11:45:45 2024, MaxMem=  1342177280 cpu:               9.0 elap:               9.2
 (Enter /groups/ReismanLab/Software/Gaussian16_RevC/Linux_Binary_AVX2-enabled-CPU/g16/l9999.exe)
 Unable to Open any file for archive entry.
 1\1\GINC-HPC-21-32\SP\RM062X\def2TZVP\C11H12Br1N1O1\MANTIND\17-Sep-202
 4\0\\#p M062X/def2tzvp geom=check guess=read scf(xqc,tight) integral(g
 rid=ultrafine) scrf(SMD, solvent=1,4-Dioxane) nmr=giao\\spe\\0,1\O,0,-
 2.5559087704,-2.2045360296,0.0406342672\C,0,-2.2142739718,-1.02801123,
 0.1509878876\C,0,-0.7571137357,-0.6632517395,0.1241569292\C,0,0.061250
 4715,-1.3228649163,-0.8004724481\C,0,1.4283216102,-1.0688112294,-0.849
 497167\C,0,1.9807437478,-0.1685269636,0.0603843935\Br,0,3.8568851518,0
 .1827047489,0.0073563891\C,0,1.1945335065,0.472257048,1.0145414163\C,0
 ,-0.1765538815,0.2238013931,1.0370644816\N,0,-3.1193733391,-0.01070503
 69,0.3072376503\C,0,-4.5564586341,-0.3244757236,0.2256583273\C,0,-5.13
 03852425,0.8235688628,-0.6073775246\C,0,-4.2634186381,2.0155143192,-0.
 1796995518\C,0,-2.8596463928,1.4088825392,-0.0168397517\H,0,-0.3884015
 784,-2.0437047083,-1.4743004579\H,0,2.0610904469,-1.5666018405,-1.5746
 375898\H,0,1.6483460528,1.1484874859,1.729229298\H,0,-0.7898151627,0.7
 028381675,1.7923287912\H,0,-4.679345533,-1.3132814008,-0.2165692437\H,
 0,-4.9940620623,-0.343844158,1.2321625498\H,0,-4.9894482662,0.61489986
 98,-1.6738191323\H,0,-6.1971244547,0.9826161116,-0.4314609138\H,0,-4.2
 705778319,2.8427351658,-0.89373577\H,0,-4.6137368855,2.4033637461,0.78
 3085472\H,0,-2.2754963298,1.4848268602,-0.9410105209\H,0,-2.2952761725
 ,1.9126630225,0.7709729723\\Version=ES64L-G16RevC.02\State=1-A\HF=-313
 0.5637221\RMSD=4.446e-09\Dipole=-0.8957738,1.6420236,-0.1061294\Quadru
 pole=3.0335046,-5.1913062,2.1578016,-9.1823983,0.0722263,3.4530122\PG=
 C01 [X(C11H12Br1N1O1)]\\@
 The archive entry for this job was punched.


 ONLY A FOOL KNOWS EVERYTHING.

               -- THE CHEMIST ANALYST, SEPTEMBER 1946
 Job cpu time:       0 days  0 hours 28 minutes 52.9 seconds.
 Elapsed time:       0 days  0 hours 28 minutes 59.8 seconds.
 File lengths (MBytes):  RWF=    352 Int=      0 D2E=      0 Chk=     40 Scr=     16
 Normal termination of Gaussian 16 at Tue Sep 17 11:45:46 2024.
