 Entering Gaussian System, Link 0=g16
 Input=smiles_00010_conf_0.gjf
 Output=smiles_00010_conf_0.log
 Initial command:
 /groups/ReismanLab/Software/Gaussian16_RevC/Linux_Binary_AVX2-enabled-CPU/g16/l1.exe "/central/groups/ReismanLab/DM/dft_final/smiles_00010/Gau-4000276.inp" -scrdir="/central/groups/ReismanLab/DM/dft_final/smiles_00010/"
 Entering Link 1 = /groups/ReismanLab/Software/Gaussian16_RevC/Linux_Binary_AVX2-enabled-CPU/g16/l1.exe PID=   4000277.
  
 Copyright (c) 1988-2021, Gaussian, Inc.  All Rights Reserved.
  
 This is part of the Gaussian(R) 16 program.  It is based on
 the Gaussian(R) 09 system (copyright 2009, Gaussian, Inc.),
 the Gaussian(R) 03 system (copyright 2003, Gaussian, Inc.),
 the Gaussian(R) 98 system (copyright 1998, Gaussian, Inc.),
 the Gaussian(R) 94 system (copyright 1995, Gaussian, Inc.),
 the Gaussian 92(TM) system (copyright 1992, Gaussian, Inc.),
 the Gaussian 90(TM) system (copyright 1990, Gaussian, Inc.),
 the Gaussian 88(TM) system (copyright 1988, Gaussian, Inc.),
 the Gaussian 86(TM) system (copyright 1986, Carnegie Mellon
 University), and the Gaussian 82(TM) system (copyright 1983,
 Carnegie Mellon University). Gaussian is a federally registered
 trademark of Gaussian, Inc.
  
 This software contains proprietary and confidential information,
 including trade secrets, belonging to Gaussian, Inc.
  
 This software is provided under written license and may be
 used, copied, transmitted, or stored only in accord with that
 written license.
  
 The following legend is applicable only to US Government
 contracts under FAR:
  
                    RESTRICTED RIGHTS LEGEND
  
 Use, reproduction and disclosure by the US Government is
 subject to restrictions as set forth in subparagraphs (a)
 and (c) of the Commercial Computer Software - Restricted
 Rights clause in FAR 52.227-19.
  
 Gaussian, Inc.
 340 Quinnipiac St., Bldg. 40, Wallingford CT 06492
  
  
 ---------------------------------------------------------------
 Warning -- This program may not be used in any manner that
 competes with the business of Gaussian, Inc. or will provide
 assistance to any competitor of Gaussian, Inc.  The licensee
 of this program is prohibited from giving any competitor of
 Gaussian, Inc. access to this program.  By using this program,
 the user acknowledges that Gaussian, Inc. is engaged in the
 business of creating and licensing software in the field of
 computational chemistry and represents and warrants to the
 licensee that it is not a competitor of Gaussian, Inc. and that
 it will not use this program in any manner prohibited above.
 ---------------------------------------------------------------
  

 Cite this work as:
 Gaussian 16, Revision C.02,
 M. J. Frisch, G. W. Trucks, H. B. Schlegel, G. E. Scuseria, 
 M. A. Robb, J. R. Cheeseman, G. Scalmani, V. Barone, 
 G. A. Petersson, H. Nakatsuji, X. Li, M. Caricato, A. V. Marenich, 
 J. Bloino, B. G. Janesko, R. Gomperts, B. Mennucci, H. P. Hratchian, 
 J. V. Ortiz, A. F. Izmaylov, J. L. Sonnenberg, D. Williams-Young, 
 F. Ding, F. Lipparini, F. Egidi, J. Goings, B. Peng, A. Petrone, 
 T. Henderson, D. Ranasinghe, V. G. Zakrzewski, J. Gao, N. Rega, 
 G. Zheng, W. Liang, M. Hada, M. Ehara, K. Toyota, R. Fukuda, 
 J. Hasegawa, M. Ishida, T. Nakajima, Y. Honda, O. Kitao, H. Nakai, 
 T. Vreven, K. Throssell, J. A. Montgomery, Jr., J. E. Peralta, 
 F. Ogliaro, M. J. Bearpark, J. J. Heyd, E. N. Brothers, K. N. Kudin, 
 V. N. Staroverov, T. A. Keith, R. Kobayashi, J. Normand, 
 K. Raghavachari, A. P. Rendell, J. C. Burant, S. S. Iyengar, 
 J. Tomasi, M. Cossi, J. M. Millam, M. Klene, C. Adamo, R. Cammi, 
 J. W. Ochterski, R. L. Martin, K. Morokuma, O. Farkas, 
 J. B. Foresman, and D. J. Fox, Gaussian, Inc., Wallingford CT, 2019.
 
 ******************************************
 Gaussian 16:  ES64L-G16RevC.02  7-Dec-2021
                17-Sep-2024 
 ******************************************
 %nprocshared=8
 Will use up to    8 processors via shared memory.
 %Mem=10GB
 %Chk=smiles_00010_conf_0.chk
 ----------------------------------------------------------------------
 #p B3LYP/6-31G(d,p) EmpiricalDispersion=GD3BJ opt freq scf(xqc,tight) 
 integral(grid=ultrafine)
 ----------------------------------------------------------------------
 1/18=20,19=15,26=4,38=1/1,3;
 2/9=110,12=2,17=6,18=5,40=1/2;
 3/5=1,6=6,7=101,11=2,25=1,30=1,71=1,74=-5,75=-5,124=41/1,2,3;
 4//1;
 5/5=2,8=3,13=1,32=2,38=5/2,8;
 6/7=2,8=2,9=2,10=2,28=1/1;
 7//1,2,3,16;
 1/18=20,19=15,26=4/3(2);
 2/9=110/2;
 99//99;
 2/9=110/2;
 3/5=1,6=6,7=101,11=2,25=1,30=1,71=1,74=-5,75=-5,124=41/1,2,3;
 4/5=5,16=3,69=1/1;
 5/5=2,8=3,13=1,32=2,38=5/2,8;
 7//1,2,3,16;
 1/18=20,19=15,26=4/3(-5);
 2/9=110/2;
 6/7=2,8=2,9=2,10=2,19=2,28=1/1;
 99/9=1/99;
 Leave Link    1 at Tue Sep 17 09:50:59 2024, MaxMem=  1342177280 cpu:               0.1 elap:               0.6
 (Enter /groups/ReismanLab/Software/Gaussian16_RevC/Linux_Binary_AVX2-enabled-CPU/g16/l101.exe)
 ----------------------------------
 opt-freq conformers_unique/conf_aa
 ----------------------------------
 Symbolic Z-matrix:
 Charge =  0 Multiplicity = 1
 Br                    2.13574  -0.43469  -0.00009 
 C                     0.49489   0.51661   0.00016 
 N                     0.61026   1.80702   0.00014 
 N                    -0.46185   2.57804   0.00012 
 C                    -1.64904   2.04899   0.00006 
 C                    -1.88664   0.64969  -0.00011 
 C                    -3.165     0.0646   -0.00043 
 C                    -3.28982  -1.29928  -0.00024 
 C                    -2.15384  -2.12234   0.0003 
 C                    -0.89468  -1.58215   0.00031 
 C                    -0.73999  -0.18697   0.00013 
 H                    -2.47484   2.74662   0.00042 
 H                    -4.03302   0.70676  -0.00023 
 H                    -4.26952  -1.75315   0.00002 
 H                    -2.27877  -3.19456   0.00066 
 H                    -0.01761  -2.21162   0.00051 
 
 ITRead=  0  0  0  0  0  0  0  0  0  0  0  0  0  0  0  0
 MicOpt= -1 -1 -1 -1 -1 -1 -1 -1 -1 -1 -1 -1 -1 -1 -1 -1
 NAtoms=     16 NQM=       16 NQMF=       0 NMMI=      0 NMMIF=      0
                NMic=       0 NMicF=      0.
                    Isotopes and Nuclear Properties:
 (Nuclear quadrupole moments (NQMom) in fm**2, nuclear magnetic moments (NMagM)
  in nuclear magnetons)

  Atom         1           2           3           4           5           6           7           8           9          10
 IAtWgt=          79          12          14          14          12          12          12          12          12          12
 AtmWgt=  78.9183361  12.0000000  14.0030740  14.0030740  12.0000000  12.0000000  12.0000000  12.0000000  12.0000000  12.0000000
 NucSpn=           3           0           2           2           0           0           0           0           0           0
 AtZEff=  -0.0000000  -0.0000000  -0.0000000  -0.0000000  -0.0000000  -0.0000000  -0.0000000  -0.0000000  -0.0000000  -0.0000000
 NQMom=   31.3000000   0.0000000   2.0440000   2.0440000   0.0000000   0.0000000   0.0000000   0.0000000   0.0000000   0.0000000
 NMagM=    2.1063990   0.0000000   0.4037610   0.4037610   0.0000000   0.0000000   0.0000000   0.0000000   0.0000000   0.0000000
 AtZNuc=  35.0000000   6.0000000   7.0000000   7.0000000   6.0000000   6.0000000   6.0000000   6.0000000   6.0000000   6.0000000

  Atom        11          12          13          14          15          16
 IAtWgt=          12           1           1           1           1           1
 AtmWgt=  12.0000000   1.0078250   1.0078250   1.0078250   1.0078250   1.0078250
 NucSpn=           0           1           1           1           1           1
 AtZEff=  -0.0000000  -0.0000000  -0.0000000  -0.0000000  -0.0000000  -0.0000000
 NQMom=    0.0000000   0.0000000   0.0000000   0.0000000   0.0000000   0.0000000
 NMagM=    0.0000000   2.7928460   2.7928460   2.7928460   2.7928460   2.7928460
 AtZNuc=   6.0000000   1.0000000   1.0000000   1.0000000   1.0000000   1.0000000
 Leave Link  101 at Tue Sep 17 09:50:59 2024, MaxMem=  1342177280 cpu:               0.4 elap:               0.4
 (Enter /groups/ReismanLab/Software/Gaussian16_RevC/Linux_Binary_AVX2-enabled-CPU/g16/l103.exe)

 GradGradGradGradGradGradGradGradGradGradGradGradGradGradGradGradGradGrad
 Berny optimization.
 Initialization pass.
                           ----------------------------
                           !    Initial Parameters    !
                           ! (Angstroms and Degrees)  !
 --------------------------                            --------------------------
 ! Name  Definition              Value          Derivative Info.                !
 --------------------------------------------------------------------------------
 ! R1    R(1,2)                  1.8967         estimate D2E/DX2                !
 ! R2    R(2,3)                  1.2956         estimate D2E/DX2                !
 ! R3    R(2,11)                 1.4213         estimate D2E/DX2                !
 ! R4    R(3,4)                  1.3206         estimate D2E/DX2                !
 ! R5    R(4,5)                  1.2997         estimate D2E/DX2                !
 ! R6    R(5,6)                  1.4193         estimate D2E/DX2                !
 ! R7    R(5,12)                 1.081          estimate D2E/DX2                !
 ! R8    R(6,7)                  1.4059         estimate D2E/DX2                !
 ! R9    R(6,11)                 1.4194         estimate D2E/DX2                !
 ! R10   R(7,8)                  1.3696         estimate D2E/DX2                !
 ! R11   R(7,13)                 1.0797         estimate D2E/DX2                !
 ! R12   R(8,9)                  1.4028         estimate D2E/DX2                !
 ! R13   R(8,14)                 1.0797         estimate D2E/DX2                !
 ! R14   R(9,10)                 1.3701         estimate D2E/DX2                !
 ! R15   R(9,15)                 1.0795         estimate D2E/DX2                !
 ! R16   R(10,11)                1.4037         estimate D2E/DX2                !
 ! R17   R(10,16)                1.0796         estimate D2E/DX2                !
 ! A1    A(1,2,3)              114.9947         estimate D2E/DX2                !
 ! A2    A(1,2,11)             120.224          estimate D2E/DX2                !
 ! A3    A(3,2,11)             124.7812         estimate D2E/DX2                !
 ! A4    A(2,3,4)              120.6135         estimate D2E/DX2                !
 ! A5    A(3,4,5)              120.2585         estimate D2E/DX2                !
 ! A6    A(4,5,6)              123.6558         estimate D2E/DX2                !
 ! A7    A(4,5,12)             115.7897         estimate D2E/DX2                !
 ! A8    A(6,5,12)             120.5546         estimate D2E/DX2                !
 ! A9    A(5,6,7)              124.2296         estimate D2E/DX2                !
 ! A10   A(5,6,11)             116.4805         estimate D2E/DX2                !
 ! A11   A(7,6,11)             119.2899         estimate D2E/DX2                !
 ! A12   A(6,7,8)              119.8222         estimate D2E/DX2                !
 ! A13   A(6,7,13)             118.9129         estimate D2E/DX2                !
 ! A14   A(8,7,13)             121.2649         estimate D2E/DX2                !
 ! A15   A(7,8,9)              120.6957         estimate D2E/DX2                !
 ! A16   A(7,8,14)             120.0866         estimate D2E/DX2                !
 ! A17   A(9,8,14)             119.2177         estimate D2E/DX2                !
 ! A18   A(8,9,10)             120.8556         estimate D2E/DX2                !
 ! A19   A(8,9,15)             119.279          estimate D2E/DX2                !
 ! A20   A(10,9,15)            119.8654         estimate D2E/DX2                !
 ! A21   A(9,10,11)            119.5461         estimate D2E/DX2                !
 ! A22   A(9,10,16)            121.1132         estimate D2E/DX2                !
 ! A23   A(11,10,16)           119.3406         estimate D2E/DX2                !
 ! A24   A(2,11,6)             114.2106         estimate D2E/DX2                !
 ! A25   A(2,11,10)            125.9989         estimate D2E/DX2                !
 ! A26   A(6,11,10)            119.7905         estimate D2E/DX2                !
 ! D1    D(1,2,3,4)            179.9904         estimate D2E/DX2                !
 ! D2    D(11,2,3,4)             0.0016         estimate D2E/DX2                !
 ! D3    D(1,2,11,6)          -179.9801         estimate D2E/DX2                !
 ! D4    D(1,2,11,10)            0.0192         estimate D2E/DX2                !
 ! D5    D(3,2,11,6)             0.0082         estimate D2E/DX2                !
 ! D6    D(3,2,11,10)         -179.9925         estimate D2E/DX2                !
 ! D7    D(2,3,4,5)             -0.0025         estimate D2E/DX2                !
 ! D8    D(3,4,5,6)             -0.0071         estimate D2E/DX2                !
 ! D9    D(3,4,5,12)           179.9777         estimate D2E/DX2                !
 ! D10   D(4,5,6,7)           -179.987          estimate D2E/DX2                !
 ! D11   D(4,5,6,11)             0.0167         estimate D2E/DX2                !
 ! D12   D(12,5,6,7)             0.029          estimate D2E/DX2                !
 ! D13   D(12,5,6,11)         -179.9673         estimate D2E/DX2                !
 ! D14   D(5,6,7,8)           -179.9835         estimate D2E/DX2                !
 ! D15   D(5,6,7,13)            -0.0198         estimate D2E/DX2                !
 ! D16   D(11,6,7,8)             0.0127         estimate D2E/DX2                !
 ! D17   D(11,6,7,13)          179.9764         estimate D2E/DX2                !
 ! D18   D(5,6,11,2)            -0.016          estimate D2E/DX2                !
 ! D19   D(5,6,11,10)          179.9846         estimate D2E/DX2                !
 ! D20   D(7,6,11,2)           179.9875         estimate D2E/DX2                !
 ! D21   D(7,6,11,10)           -0.0119         estimate D2E/DX2                !
 ! D22   D(6,7,8,9)              0.0011         estimate D2E/DX2                !
 ! D23   D(6,7,8,14)           179.9691         estimate D2E/DX2                !
 ! D24   D(13,7,8,9)          -179.9616         estimate D2E/DX2                !
 ! D25   D(13,7,8,14)            0.0063         estimate D2E/DX2                !
 ! D26   D(7,8,9,10)            -0.0164         estimate D2E/DX2                !
 ! D27   D(7,8,9,15)           179.9865         estimate D2E/DX2                !
 ! D28   D(14,8,9,10)         -179.9847         estimate D2E/DX2                !
 ! D29   D(14,8,9,15)            0.0183         estimate D2E/DX2                !
 ! D30   D(8,9,10,11)            0.0171         estimate D2E/DX2                !
 ! D31   D(8,9,10,16)         -179.9869         estimate D2E/DX2                !
 ! D32   D(15,9,10,11)        -179.9859         estimate D2E/DX2                !
 ! D33   D(15,9,10,16)           0.0101         estimate D2E/DX2                !
 ! D34   D(9,10,11,2)          179.9977         estimate D2E/DX2                !
 ! D35   D(9,10,11,6)           -0.003          estimate D2E/DX2                !
 ! D36   D(16,10,11,2)           0.0016         estimate D2E/DX2                !
 ! D37   D(16,10,11,6)        -179.9991         estimate D2E/DX2                !
 --------------------------------------------------------------------------------
 Trust Radius=3.00D-01 FncErr=1.00D-07 GrdErr=1.00D-06 EigMax=2.50D+02 EigMin=1.00D-04
 Number of steps in this run=     90 maximum allowed number of steps=    100.
 GradGradGradGradGradGradGradGradGradGradGradGradGradGradGradGradGradGrad

 Leave Link  103 at Tue Sep 17 09:50:59 2024, MaxMem=  1342177280 cpu:               0.1 elap:               0.0
 (Enter /groups/ReismanLab/Software/Gaussian16_RevC/Linux_Binary_AVX2-enabled-CPU/g16/l202.exe)
                          Input orientation:                          
 ---------------------------------------------------------------------
 Center     Atomic      Atomic             Coordinates (Angstroms)
 Number     Number       Type             X           Y           Z
 ---------------------------------------------------------------------
      1         35           0        2.135737   -0.434694   -0.000088
      2          6           0        0.494895    0.516607    0.000164
      3          7           0        0.610261    1.807018    0.000141
      4          7           0       -0.461851    2.578042    0.000115
      5          6           0       -1.649044    2.048992    0.000063
      6          6           0       -1.886635    0.649693   -0.000114
      7          6           0       -3.165004    0.064597   -0.000435
      8          6           0       -3.289824   -1.299277   -0.000242
      9          6           0       -2.153843   -2.122339    0.000296
     10          6           0       -0.894677   -1.582149    0.000305
     11          6           0       -0.739995   -0.186973    0.000132
     12          1           0       -2.474839    2.746624    0.000425
     13          1           0       -4.033020    0.706755   -0.000231
     14          1           0       -4.269517   -1.753152    0.000017
     15          1           0       -2.278771   -3.194558    0.000659
     16          1           0       -0.017610   -2.211624    0.000507
 ---------------------------------------------------------------------
                    Distance matrix (angstroms):
                    1          2          3          4          5
     1  Br   0.000000
     2  C    1.896665   0.000000
     3  N    2.711522   1.295558   0.000000
     4  N    3.977944   2.272637   1.320569   0.000000
     5  C    4.526949   2.635276   2.272226   1.299739   0.000000
     6  C    4.165978   2.385246   2.752071   2.397611   1.419326
     7  C    5.324204   3.687705   4.157963   3.691130   2.497190
     8  C    5.494017   4.197801   4.985954   4.799066   3.728682
     9  C    4.609625   3.738963   4.804177   4.995640   4.201764
    10  C    3.240381   2.517079   3.708274   4.182646   3.708673
    11  C    2.886382   1.421259   2.408151   2.778970   2.413692
    12  H    5.601624   3.713798   3.225012   2.020035   1.081031
    13  H    6.273474   4.531906   4.771860   4.031745   2.735863
    14  H    6.539543   5.277445   6.040451   5.766937   4.617703
    15  H    5.206221   4.633138   5.776009   6.051786   5.281229
    16  H    2.791843   2.775951   4.067396   4.810224   4.562283
                    6          7          8          9         10
     6  C    0.000000
     7  C    1.405903   0.000000
     8  C    2.401546   1.369574   0.000000
     9  C    2.784881   2.409384   1.402813   0.000000
    10  C    2.442356   2.804667   2.411793   1.370147   0.000000
    11  C    1.419435   2.438023   2.781879   2.396791   1.403725
    12  H    2.177866   2.769404   4.127168   4.879532   4.608165
    13  H    2.147143   1.079732   2.139277   3.396333   3.884364
    14  H    3.384050   2.127008   1.079722   2.147644   3.379169
    15  H    3.864200   3.377499   2.148097   1.079473   2.124989
    16  H    3.417659   3.884233   3.397023   2.138098   1.079577
                   11         12         13         14         15
    11  C    0.000000
    12  H    3.408178   0.000000
    13  H    3.412150   2.566903   0.000000
    14  H    3.861405   4.844466   2.471250   0.000000
    15  H    3.378373   5.944416   4.277574   2.457788   0.000000
    16  H    2.149663   5.533733   4.963916   4.276554   2.465565
                   16
    16  H    0.000000
 Stoichiometry    C8H5BrN2
 Framework group  C1[X(C8H5BrN2)]
 Deg. of freedom    42
 Full point group                 C1      NOp   1
 Largest Abelian subgroup         C1      NOp   1
 Largest concise Abelian subgroup C1      NOp   1
                         Standard orientation:                         
 ---------------------------------------------------------------------
 Center     Atomic      Atomic             Coordinates (Angstroms)
 Number     Number       Type             X           Y           Z
 ---------------------------------------------------------------------
      1         35           0        2.287037   -0.511501   -0.000099
      2          6           0        0.677616    0.492043    0.000153
      3          7           0        0.834396    1.778080    0.000130
      4          7           0       -0.212383    2.583162    0.000104
      5          6           0       -1.415966    2.092541    0.000053
      6          6           0       -1.698407    0.701601   -0.000125
      7          6           0       -2.994919    0.157892   -0.000445
      8          6           0       -3.163509   -1.201266   -0.000253
      9          6           0       -2.054567   -2.060411    0.000285
     10          6           0       -0.778690   -1.560969    0.000294
     11          6           0       -0.579248   -0.171485    0.000121
     12          1           0       -2.218913    2.816352    0.000414
     13          1           0       -3.841849    0.827616   -0.000241
     14          1           0       -4.157282   -1.623420    0.000006
     15          1           0       -2.213890   -3.128062    0.000648
     16          1           0        0.077693   -2.218307    0.000496
 ---------------------------------------------------------------------
 Rotational constants (GHZ):           1.4708909           0.6204451           0.4363751
 Leave Link  202 at Tue Sep 17 09:50:59 2024, MaxMem=  1342177280 cpu:               0.0 elap:               0.0
 (Enter /groups/ReismanLab/Software/Gaussian16_RevC/Linux_Binary_AVX2-enabled-CPU/g16/l301.exe)
 Standard basis: 6-31G(d,p) (6D, 7F)
 Ernie: Thresh=  0.10000D-02 Tol=  0.10000D-05 Strict=F.
 There are   205 symmetry adapted cartesian basis functions of A   symmetry.
 There are   205 symmetry adapted basis functions of A   symmetry.
   205 basis functions,   398 primitive gaussians,   205 cartesian basis functions
    51 alpha electrons       51 beta electrons
       nuclear repulsion energy       801.2697865993 Hartrees.
 IExCor=  402 DFT=T Ex+Corr=B3LYP ExCW=0 ScaHFX=  0.200000
 ScaDFX=  0.800000  0.720000  1.000000  0.810000 ScalE2=  1.000000  1.000000
 IRadAn=      5 IRanWt=     -1 IRanGd=            0 ICorTp=0 IEmpDi=141
 NAtoms=   16 NActive=   16 NUniq=   16 SFac= 1.00D+00 NAtFMM=   60 NAOKFM=F Big=F
 Integral buffers will be    131072 words long.
 Raffenetti 2 integral format.
 Two-electron integral symmetry is turned on.
 R6Disp:  Grimme-D3(BJ) Dispersion energy=       -0.0383087496 Hartrees.
 Nuclear repulsion after empirical dispersion term =      801.2314778497 Hartrees.
 Leave Link  301 at Tue Sep 17 09:50:59 2024, MaxMem=  1342177280 cpu:               0.1 elap:               0.1
 (Enter /groups/ReismanLab/Software/Gaussian16_RevC/Linux_Binary_AVX2-enabled-CPU/g16/l302.exe)
 NPDir=0 NMtPBC=     1 NCelOv=     1 NCel=       1 NClECP=     1 NCelD=      1
         NCelK=      1 NCelE2=     1 NClLst=     1 CellRange=     0.0.
 One-electron integrals computed using PRISM.
 One-electron integral symmetry used in STVInt
 NBasis=   205 RedAO= T EigKep=  3.30D-04  NBF=   205
 NBsUse=   205 1.00D-06 EigRej= -1.00D+00 NBFU=   205
 Precomputing XC quadrature grid using
 IXCGrd= 4 IRadAn=           5 IRanWt=          -1 IRanGd=           0 AccXCQ= 0.00D+00.
 Generated NRdTot=       0 NPtTot=           0 NUsed=           0 NTot=          32
 NSgBfM=   204   204   204   204   204 MxSgAt=    16 MxSgA2=    16.
 Leave Link  302 at Tue Sep 17 09:51:00 2024, MaxMem=  1342177280 cpu:               0.9 elap:               0.2
 (Enter /groups/ReismanLab/Software/Gaussian16_RevC/Linux_Binary_AVX2-enabled-CPU/g16/l303.exe)
 DipDrv:  MaxL=1.
 Leave Link  303 at Tue Sep 17 09:51:00 2024, MaxMem=  1342177280 cpu:               0.1 elap:               0.1
 (Enter /groups/ReismanLab/Software/Gaussian16_RevC/Linux_Binary_AVX2-enabled-CPU/g16/l401.exe)
 ExpMin= 1.43D-01 ExpMax= 5.74D+05 ExpMxC= 5.74D+03 IAcc=3 IRadAn=         5 AccDes= 0.00D+00
 Harris functional with IExCor=  402 and IRadAn=       5 diagonalized for initial guess.
 HarFok:  IExCor=  402 AccDes= 0.00D+00 IRadAn=         5 IDoV= 1 UseB2=F ITyADJ=14
 ICtDFT=  3500011 ScaDFX=  1.000000  1.000000  1.000000  1.000000
 FoFCou: FMM=F IPFlag=           0 FMFlag=      100000 FMFlg1=           0
         NFxFlg=           0 DoJE=T BraDBF=F KetDBF=T FulRan=T
         wScrn=  0.000000 ICntrl=       500 IOpCl=  0 I1Cent=   200000004 NGrid=           0
         NMat0=    1 NMatS0=      1 NMatT0=    0 NMatD0=    1 NMtDS0=    0 NMtDT0=    0
 Petite list used in FoFCou.
 Harris En= -2989.15771478861    
 JPrj=0 DoOrth=F DoCkMO=F.
 Leave Link  401 at Tue Sep 17 09:51:00 2024, MaxMem=  1342177280 cpu:               4.4 elap:               0.6
 (Enter /groups/ReismanLab/Software/Gaussian16_RevC/Linux_Binary_AVX2-enabled-CPU/g16/l502.exe)
 Integral symmetry usage will be decided dynamically.
 Closed shell SCF:
 Using DIIS extrapolation, IDIIS=  1040.
 NGot=  1342177280 LenX=  1342089090 LenY=  1342046624
 Requested convergence on RMS density matrix=1.00D-08 within  32 cycles.
 Requested convergence on MAX density matrix=1.00D-06.
 Requested convergence on             energy=1.00D-06.
 No special actions if energy rises.
 Fock matrices will be formed incrementally for  20 cycles.
 Integral accuracy reduced to 1.0D-05 until final iterations.

 Cycle   1  Pass 0  IDiag  1:
 FoFJK:  IHMeth= 1 ICntrl=       0 DoSepK=F KAlg= 0 I1Cent=           0 FoldK=F
 IRaf= 900000000 NMat=       1 IRICut=       1 DoRegI=T DoRafI=F ISym2E= 0 IDoP0=0 IntGTp=1.
 FoFCou: FMM=F IPFlag=           0 FMFlag=      100000 FMFlg1=           0
         NFxFlg=           0 DoJE=F BraDBF=F KetDBF=F FulRan=T
         wScrn=  0.000000 ICntrl=         0 IOpCl=  0 I1Cent=           0 NGrid=           0
         NMat0=    1 NMatS0=      1 NMatT0=    0 NMatD0=    1 NMtDS0=    0 NMtDT0=    0
 Symmetry not used in FoFCou.
 E= -2988.92241898918    
 DIIS: error= 1.77D-01 at cycle   1 NSaved=   1.
 NSaved= 1 IEnMin= 1 EnMin= -2988.92241898918     IErMin= 1 ErrMin= 1.77D-01
 ErrMax= 1.77D-01  0.00D+00 EMaxC= 1.00D-01 BMatC= 5.04D-01 BMatP= 5.04D-01
 IDIUse=3 WtCom= 0.00D+00 WtEn= 1.00D+00
 Coeff-Com:  0.100D+01
 Coeff-En:   0.100D+01
 Coeff:      0.100D+01
 Gap=     0.201 Goal=   None    Shift=    0.000
 GapD=    0.201 DampG=1.000 DampE=0.250 DampFc=0.2500 IDamp=-1.
 Damping current iteration by 2.50D-01
 RMSDP=5.29D-03 MaxDP=1.42D-01              OVMax= 1.62D-01

 Cycle   2  Pass 0  IDiag  1:
 RMSU=  1.25D-03    CP:  9.91D-01
 E= -2988.97670116365     Delta-E=       -0.054282174469 Rises=F Damp=T
 DIIS: error= 1.31D-01 at cycle   2 NSaved=   2.
 NSaved= 2 IEnMin= 2 EnMin= -2988.97670116365     IErMin= 2 ErrMin= 1.31D-01
 ErrMax= 1.31D-01  0.00D+00 EMaxC= 1.00D-01 BMatC= 2.41D-01 BMatP= 5.04D-01
 IDIUse=3 WtCom= 0.00D+00 WtEn= 1.00D+00
 Coeff-Com: -0.181D+01 0.281D+01
 Coeff-En:   0.000D+00 0.100D+01
 Coeff:      0.000D+00 0.100D+01
 Gap=     0.186 Goal=   None    Shift=    0.000
 RMSDP=3.31D-03 MaxDP=1.10D-01 DE=-5.43D-02 OVMax= 8.17D-02

 Cycle   3  Pass 0  IDiag  1:
 RMSU=  1.16D-03    CP:  9.63D-01  3.00D+00
 E= -2989.05559610651     Delta-E=       -0.078894942861 Rises=F Damp=F
 DIIS: error= 1.17D-02 at cycle   3 NSaved=   3.
 NSaved= 3 IEnMin= 3 EnMin= -2989.05559610651     IErMin= 3 ErrMin= 1.17D-02
 ErrMax= 1.17D-02  0.00D+00 EMaxC= 1.00D-01 BMatC= 2.53D-02 BMatP= 2.41D-01
 IDIUse=3 WtCom= 8.83D-01 WtEn= 1.17D-01
 Coeff-Com:  0.157D+01-0.201D+01 0.144D+01
 Coeff-En:   0.000D+00 0.000D+00 0.100D+01
 Coeff:      0.138D+01-0.177D+01 0.139D+01
 Gap=     0.178 Goal=   None    Shift=    0.000
 RMSDP=1.38D-03 MaxDP=3.55D-02 DE=-7.89D-02 OVMax= 4.63D-02

 Cycle   4  Pass 0  IDiag  1:
 RMSU=  1.04D-03    CP:  9.65D-01  2.51D+00  1.12D+00
 E= -2989.07302832670     Delta-E=       -0.017432220189 Rises=F Damp=F
 DIIS: error= 7.80D-03 at cycle   4 NSaved=   4.
 NSaved= 4 IEnMin= 4 EnMin= -2989.07302832670     IErMin= 4 ErrMin= 7.80D-03
 ErrMax= 7.80D-03  0.00D+00 EMaxC= 1.00D-01 BMatC= 8.13D-03 BMatP= 2.53D-02
 IDIUse=3 WtCom= 9.22D-01 WtEn= 7.80D-02
 Coeff-Com:  0.103D+01-0.135D+01 0.888D+00 0.433D+00
 Coeff-En:   0.000D+00 0.000D+00 0.134D+00 0.866D+00
 Coeff:      0.948D+00-0.124D+01 0.830D+00 0.467D+00
 Gap=     0.159 Goal=   None    Shift=    0.000
 RMSDP=7.36D-04 MaxDP=2.46D-02 DE=-1.74D-02 OVMax= 4.10D-02

 Cycle   5  Pass 0  IDiag  1:
 RMSU=  3.53D-04    CP:  9.64D-01  2.66D+00  1.21D+00  4.15D-01
 E= -2989.08152736187     Delta-E=       -0.008499035171 Rises=F Damp=F
 DIIS: error= 2.09D-03 at cycle   5 NSaved=   5.
 NSaved= 5 IEnMin= 5 EnMin= -2989.08152736187     IErMin= 5 ErrMin= 2.09D-03
 ErrMax= 2.09D-03  0.00D+00 EMaxC= 1.00D-01 BMatC= 6.10D-04 BMatP= 8.13D-03
 IDIUse=3 WtCom= 9.79D-01 WtEn= 2.09D-02
 Coeff-Com:  0.356D+00-0.470D+00 0.310D+00 0.264D+00 0.540D+00
 Coeff-En:   0.000D+00 0.000D+00 0.000D+00 0.223D-01 0.978D+00
 Coeff:      0.349D+00-0.460D+00 0.303D+00 0.259D+00 0.549D+00
 Gap=     0.163 Goal=   None    Shift=    0.000
 RMSDP=1.62D-04 MaxDP=5.46D-03 DE=-8.50D-03 OVMax= 9.18D-03

 Cycle   6  Pass 0  IDiag  1:
 RMSU=  8.23D-05    CP:  9.64D-01  2.65D+00  1.20D+00  5.17D-01  7.50D-01
 E= -2989.08208949716     Delta-E=       -0.000562135299 Rises=F Damp=F
 DIIS: error= 6.51D-04 at cycle   6 NSaved=   6.
 NSaved= 6 IEnMin= 6 EnMin= -2989.08208949716     IErMin= 6 ErrMin= 6.51D-04
 ErrMax= 6.51D-04  0.00D+00 EMaxC= 1.00D-01 BMatC= 5.58D-05 BMatP= 6.10D-04
 IDIUse=3 WtCom= 9.93D-01 WtEn= 6.51D-03
 Coeff-Com:  0.130D+00-0.171D+00 0.110D+00 0.120D+00 0.336D+00 0.476D+00
 Coeff-En:   0.000D+00 0.000D+00 0.000D+00 0.000D+00 0.000D+00 0.100D+01
 Coeff:      0.129D+00-0.170D+00 0.109D+00 0.119D+00 0.334D+00 0.479D+00
 Gap=     0.162 Goal=   None    Shift=    0.000
 RMSDP=4.54D-05 MaxDP=1.36D-03 DE=-5.62D-04 OVMax= 2.30D-03

 Cycle   7  Pass 0  IDiag  1:
 RMSU=  2.84D-05    CP:  9.64D-01  2.65D+00  1.21D+00  5.22D-01  7.69D-01
                    CP:  6.11D-01
 E= -2989.08214022850     Delta-E=       -0.000050731339 Rises=F Damp=F
 DIIS: error= 1.68D-04 at cycle   7 NSaved=   7.
 NSaved= 7 IEnMin= 7 EnMin= -2989.08214022850     IErMin= 7 ErrMin= 1.68D-04
 ErrMax= 1.68D-04  0.00D+00 EMaxC= 1.00D-01 BMatC= 3.65D-06 BMatP= 5.58D-05
 IDIUse=3 WtCom= 9.98D-01 WtEn= 1.68D-03
 Coeff-Com:  0.457D-01-0.607D-01 0.368D-01 0.444D-01 0.134D+00 0.265D+00
 Coeff-Com:  0.535D+00
 Coeff-En:   0.000D+00 0.000D+00 0.000D+00 0.000D+00 0.000D+00 0.000D+00
 Coeff-En:   0.100D+01
 Coeff:      0.456D-01-0.606D-01 0.367D-01 0.443D-01 0.134D+00 0.264D+00
 Coeff:      0.535D+00
 Gap=     0.162 Goal=   None    Shift=    0.000
 RMSDP=1.33D-05 MaxDP=2.84D-04 DE=-5.07D-05 OVMax= 7.02D-04

 Cycle   8  Pass 0  IDiag  1:
 RMSU=  7.52D-06    CP:  9.64D-01  2.65D+00  1.21D+00  5.21D-01  7.69D-01
                    CP:  6.57D-01  6.69D-01
 E= -2989.08214330536     Delta-E=       -0.000003076854 Rises=F Damp=F
 DIIS: error= 7.16D-05 at cycle   8 NSaved=   8.
 NSaved= 8 IEnMin= 8 EnMin= -2989.08214330536     IErMin= 8 ErrMin= 7.16D-05
 ErrMax= 7.16D-05  0.00D+00 EMaxC= 1.00D-01 BMatC= 5.39D-07 BMatP= 3.65D-06
 IDIUse=1 WtCom= 1.00D+00 WtEn= 0.00D+00
 Coeff-Com:  0.105D-01-0.140D-01 0.743D-02 0.106D-01 0.360D-01 0.978D-01
 Coeff-Com:  0.330D+00 0.522D+00
 Coeff:      0.105D-01-0.140D-01 0.743D-02 0.106D-01 0.360D-01 0.978D-01
 Coeff:      0.330D+00 0.522D+00
 Gap=     0.162 Goal=   None    Shift=    0.000
 RMSDP=4.74D-06 MaxDP=1.43D-04 DE=-3.08D-06 OVMax= 2.52D-04

 Initial convergence to 1.0D-05 achieved.  Increase integral accuracy.
 Cycle   9  Pass 1  IDiag  1:
 E= -2989.08215112713     Delta-E=       -0.000007821775 Rises=F Damp=F
 DIIS: error= 4.89D-05 at cycle   1 NSaved=   1.
 NSaved= 1 IEnMin= 1 EnMin= -2989.08215112713     IErMin= 1 ErrMin= 4.89D-05
 ErrMax= 4.89D-05  0.00D+00 EMaxC= 1.00D-01 BMatC= 1.54D-07 BMatP= 1.54D-07
 IDIUse=1 WtCom= 1.00D+00 WtEn= 0.00D+00
 Coeff-Com:  0.100D+01
 Coeff:      0.100D+01
 Gap=     0.162 Goal=   None    Shift=    0.000
 RMSDP=4.74D-06 MaxDP=1.43D-04 DE=-7.82D-06 OVMax= 1.91D-04

 Cycle  10  Pass 1  IDiag  1:
 RMSU=  1.45D-05    CP:  1.00D+00
 E= -2989.08215113035     Delta-E=       -0.000000003214 Rises=F Damp=F
 DIIS: error= 3.40D-05 at cycle   2 NSaved=   2.
 NSaved= 2 IEnMin= 2 EnMin= -2989.08215113035     IErMin= 2 ErrMin= 3.40D-05
 ErrMax= 3.40D-05  0.00D+00 EMaxC= 1.00D-01 BMatC= 8.07D-08 BMatP= 1.54D-07
 IDIUse=1 WtCom= 1.00D+00 WtEn= 0.00D+00
 Coeff-Com:  0.382D+00 0.618D+00
 Coeff:      0.382D+00 0.618D+00
 Gap=     0.162 Goal=   None    Shift=    0.000
 RMSDP=3.16D-06 MaxDP=8.36D-05 DE=-3.21D-09 OVMax= 2.32D-04

 Cycle  11  Pass 1  IDiag  1:
 RMSU=  3.13D-06    CP:  1.00D+00  9.68D-01
 E= -2989.08215114043     Delta-E=       -0.000000010081 Rises=F Damp=F
 DIIS: error= 3.06D-05 at cycle   3 NSaved=   3.
 NSaved= 3 IEnMin= 3 EnMin= -2989.08215114043     IErMin= 3 ErrMin= 3.06D-05
 ErrMax= 3.06D-05  0.00D+00 EMaxC= 1.00D-01 BMatC= 7.34D-08 BMatP= 8.07D-08
 IDIUse=1 WtCom= 1.00D+00 WtEn= 0.00D+00
 Coeff-Com:  0.154D-01 0.484D+00 0.500D+00
 Coeff:      0.154D-01 0.484D+00 0.500D+00
 Gap=     0.162 Goal=   None    Shift=    0.000
 RMSDP=1.54D-06 MaxDP=4.53D-05 DE=-1.01D-08 OVMax= 1.13D-04

 Cycle  12  Pass 1  IDiag  1:
 RMSU=  4.93D-07    CP:  1.00D+00  9.88D-01  5.42D-01
 E= -2989.08215122030     Delta-E=       -0.000000079868 Rises=F Damp=F
 DIIS: error= 1.76D-06 at cycle   4 NSaved=   4.
 NSaved= 4 IEnMin= 4 EnMin= -2989.08215122030     IErMin= 4 ErrMin= 1.76D-06
 ErrMax= 1.76D-06  0.00D+00 EMaxC= 1.00D-01 BMatC= 1.53D-09 BMatP= 7.34D-08
 IDIUse=1 WtCom= 1.00D+00 WtEn= 0.00D+00
 Coeff-Com: -0.168D-02 0.263D+00 0.286D+00 0.452D+00
 Coeff:     -0.168D-02 0.263D+00 0.286D+00 0.452D+00
 Gap=     0.162 Goal=   None    Shift=    0.000
 RMSDP=2.52D-07 MaxDP=8.49D-06 DE=-7.99D-08 OVMax= 1.01D-05

 Cycle  13  Pass 1  IDiag  1:
 RMSU=  9.71D-08    CP:  1.00D+00  9.90D-01  5.39D-01  5.33D-01
 E= -2989.08215122180     Delta-E=       -0.000000001498 Rises=F Damp=F
 DIIS: error= 4.59D-07 at cycle   5 NSaved=   5.
 NSaved= 5 IEnMin= 5 EnMin= -2989.08215122180     IErMin= 5 ErrMin= 4.59D-07
 ErrMax= 4.59D-07  0.00D+00 EMaxC= 1.00D-01 BMatC= 6.94D-11 BMatP= 1.53D-09
 IDIUse=1 WtCom= 1.00D+00 WtEn= 0.00D+00
 Coeff-Com: -0.166D-02 0.129D+00 0.141D+00 0.260D+00 0.471D+00
 Coeff:     -0.166D-02 0.129D+00 0.141D+00 0.260D+00 0.471D+00
 Gap=     0.162 Goal=   None    Shift=    0.000
 RMSDP=5.16D-08 MaxDP=2.10D-06 DE=-1.50D-09 OVMax= 2.26D-06

 Cycle  14  Pass 1  IDiag  1:
 RMSU=  3.53D-08    CP:  1.00D+00  9.90D-01  5.37D-01  5.17D-01  6.33D-01
 E= -2989.08215122182     Delta-E=       -0.000000000028 Rises=F Damp=F
 DIIS: error= 1.18D-07 at cycle   6 NSaved=   6.
 NSaved= 6 IEnMin= 6 EnMin= -2989.08215122182     IErMin= 6 ErrMin= 1.18D-07
 ErrMax= 1.18D-07  0.00D+00 EMaxC= 1.00D-01 BMatC= 3.38D-12 BMatP= 6.94D-11
 IDIUse=1 WtCom= 1.00D+00 WtEn= 0.00D+00
 Coeff-Com: -0.779D-03 0.523D-01 0.572D-01 0.110D+00 0.250D+00 0.531D+00
 Coeff:     -0.779D-03 0.523D-01 0.572D-01 0.110D+00 0.250D+00 0.531D+00
 Gap=     0.162 Goal=   None    Shift=    0.000
 RMSDP=1.50D-08 MaxDP=5.45D-07 DE=-2.82D-11 OVMax= 8.05D-07

 Cycle  15  Pass 1  IDiag  1:
 RMSU=  1.25D-08    CP:  1.00D+00  9.91D-01  5.37D-01  5.21D-01  6.73D-01
                    CP:  8.04D-01
 E= -2989.08215122189     Delta-E=       -0.000000000063 Rises=F Damp=F
 DIIS: error= 6.95D-08 at cycle   7 NSaved=   7.
 NSaved= 7 IEnMin= 7 EnMin= -2989.08215122189     IErMin= 7 ErrMin= 6.95D-08
 ErrMax= 6.95D-08  0.00D+00 EMaxC= 1.00D-01 BMatC= 5.78D-13 BMatP= 3.38D-12
 IDIUse=1 WtCom= 1.00D+00 WtEn= 0.00D+00
 Coeff-Com: -0.154D-03 0.743D-02 0.811D-02 0.186D-01 0.633D-01 0.316D+00
 Coeff-Com:  0.587D+00
 Coeff:     -0.154D-03 0.743D-02 0.811D-02 0.186D-01 0.633D-01 0.316D+00
 Coeff:      0.587D+00
 Gap=     0.162 Goal=   None    Shift=    0.000
 RMSDP=6.13D-09 MaxDP=1.93D-07 DE=-6.28D-11 OVMax= 3.61D-07

 SCF Done:  E(RB3LYP) =  -2989.08215122     A.U. after   15 cycles
            NFock= 15  Conv=0.61D-08     -V/T= 2.0065
 KE= 2.969773024009D+03 PE=-8.704019788772D+03 EE= 1.943933135691D+03
 Leave Link  502 at Tue Sep 17 09:51:12 2024, MaxMem=  1342177280 cpu:              81.1 elap:              11.3
 (Enter /groups/ReismanLab/Software/Gaussian16_RevC/Linux_Binary_AVX2-enabled-CPU/g16/l508.exe)
 QCSCF skips out because SCF is already converged.
 Leave Link  508 at Tue Sep 17 09:51:12 2024, MaxMem=  1342177280 cpu:               0.0 elap:               0.0
 (Enter /groups/ReismanLab/Software/Gaussian16_RevC/Linux_Binary_AVX2-enabled-CPU/g16/l601.exe)
 Copying SCF densities to generalized density rwf, IOpCl= 0 IROHF=0.

 **********************************************************************

            Population analysis using the SCF Density.

 **********************************************************************

 Orbital symmetries:
       Occupied  (A) (A) (A) (A) (A) (A) (A) (A) (A) (A) (A) (A)
                 (A) (A) (A) (A) (A) (A) (A) (A) (A) (A) (A) (A)
                 (A) (A) (A) (A) (A) (A) (A) (A) (A) (A) (A) (A)
                 (A) (A) (A) (A) (A) (A) (A) (A) (A) (A) (A) (A)
                 (A) (A) (A)
       Virtual   (A) (A) (A) (A) (A) (A) (A) (A) (A) (A) (A) (A)
                 (A) (A) (A) (A) (A) (A) (A) (A) (A) (A) (A) (A)
                 (A) (A) (A) (A) (A) (A) (A) (A) (A) (A) (A) (A)
                 (A) (A) (A) (A) (A) (A) (A) (A) (A) (A) (A) (A)
                 (A) (A) (A) (A) (A) (A) (A) (A) (A) (A) (A) (A)
                 (A) (A) (A) (A) (A) (A) (A) (A) (A) (A) (A) (A)
                 (A) (A) (A) (A) (A) (A) (A) (A) (A) (A) (A) (A)
                 (A) (A) (A) (A) (A) (A) (A) (A) (A) (A) (A) (A)
                 (A) (A) (A) (A) (A) (A) (A) (A) (A) (A) (A) (A)
                 (A) (A) (A) (A) (A) (A) (A) (A) (A) (A) (A) (A)
                 (A) (A) (A) (A) (A) (A) (A) (A) (A) (A) (A) (A)
                 (A) (A) (A) (A) (A) (A) (A) (A) (A) (A) (A) (A)
                 (A) (A) (A) (A) (A) (A) (A) (A) (A) (A)
 The electronic state is 1-A.
 Alpha  occ. eigenvalues -- -482.91841 -61.88015 -56.40129 -56.39717 -56.39714
 Alpha  occ. eigenvalues --  -14.36727 -14.36697 -10.28593 -10.23935 -10.23490
 Alpha  occ. eigenvalues --  -10.23115 -10.22170 -10.22107 -10.22044 -10.21848
 Alpha  occ. eigenvalues --   -8.59151  -6.54541  -6.53288  -6.53215  -2.66118
 Alpha  occ. eigenvalues --   -2.65768  -2.65711  -2.64711  -2.64710  -1.03789
 Alpha  occ. eigenvalues --   -0.89574  -0.86739  -0.80884  -0.78229  -0.77083
 Alpha  occ. eigenvalues --   -0.67814  -0.66501  -0.62636  -0.56600  -0.53979
 Alpha  occ. eigenvalues --   -0.51841  -0.47648  -0.46791  -0.45410  -0.44974
 Alpha  occ. eigenvalues --   -0.43451  -0.39760  -0.38788  -0.37554  -0.34889
 Alpha  occ. eigenvalues --   -0.31920  -0.29545  -0.29056  -0.28719  -0.25414
 Alpha  occ. eigenvalues --   -0.23587
 Alpha virt. eigenvalues --   -0.07416  -0.05149   0.00639   0.00865   0.06422
 Alpha virt. eigenvalues --    0.08193   0.11400   0.14232   0.15476   0.16724
 Alpha virt. eigenvalues --    0.17278   0.20555   0.23475   0.25427   0.26430
 Alpha virt. eigenvalues --    0.29386   0.30326   0.31239   0.32410   0.41355
 Alpha virt. eigenvalues --    0.44231   0.45060   0.45243   0.45664   0.47212
 Alpha virt. eigenvalues --    0.48049   0.48838   0.50143   0.50316   0.50699
 Alpha virt. eigenvalues --    0.53115   0.53185   0.53944   0.55224   0.58063
 Alpha virt. eigenvalues --    0.58119   0.58524   0.59207   0.60881   0.62390
 Alpha virt. eigenvalues --    0.62730   0.67771   0.68412   0.68689   0.72170
 Alpha virt. eigenvalues --    0.73141   0.77539   0.78792   0.78907   0.79680
 Alpha virt. eigenvalues --    0.80294   0.81429   0.81620   0.83338   0.86104
 Alpha virt. eigenvalues --    0.86886   0.92325   0.92489   0.92940   0.95396
 Alpha virt. eigenvalues --    0.97804   1.01457   1.05662   1.09043   1.11592
 Alpha virt. eigenvalues --    1.14252   1.19250   1.21204   1.21937   1.22832
 Alpha virt. eigenvalues --    1.29125   1.31159   1.33367   1.35677   1.37768
 Alpha virt. eigenvalues --    1.38395   1.39542   1.40973   1.44191   1.44558
 Alpha virt. eigenvalues --    1.49285   1.53636   1.55124   1.57900   1.68996
 Alpha virt. eigenvalues --    1.74155   1.75157   1.78079   1.79137   1.81346
 Alpha virt. eigenvalues --    1.83875   1.86140   1.87706   1.87863   1.91532
 Alpha virt. eigenvalues --    1.92500   1.96517   1.97102   2.00326   2.05898
 Alpha virt. eigenvalues --    2.06904   2.10921   2.18797   2.22168   2.23667
 Alpha virt. eigenvalues --    2.24691   2.27318   2.29958   2.31994   2.32373
 Alpha virt. eigenvalues --    2.34308   2.36291   2.36734   2.41830   2.43200
 Alpha virt. eigenvalues --    2.43746   2.49398   2.51951   2.52199   2.57763
 Alpha virt. eigenvalues --    2.58397   2.59587   2.61681   2.65191   2.67076
 Alpha virt. eigenvalues --    2.68297   2.74419   2.76891   2.77068   2.81633
 Alpha virt. eigenvalues --    2.93402   2.98421   3.04636   3.12656   3.18842
 Alpha virt. eigenvalues --    3.23000   3.25593   3.31651   3.35978   3.47659
 Alpha virt. eigenvalues --    3.58245   3.78293   3.86660   4.07407   4.11032
 Alpha virt. eigenvalues --    4.11564   4.20660   4.25579   4.28800   4.43745
 Alpha virt. eigenvalues --    4.50713   4.86004   8.61451  73.08512
          Condensed to atoms (all electrons):
               1          2          3          4          5          6
     1  Br  34.931304   0.291964  -0.079599   0.005552  -0.000309   0.005306
     2  C    0.291964   5.035681   0.360848  -0.040841  -0.062164  -0.022625
     3  N   -0.079599   0.360848   6.877117   0.230307  -0.060029  -0.050137
     4  N    0.005552  -0.040841   0.230307   6.740034   0.413780   0.014679
     5  C   -0.000309  -0.062164  -0.060029   0.413780   4.988078   0.351173
     6  C    0.005306  -0.022625  -0.050137   0.014679   0.351173   4.888380
     7  C   -0.000120   0.015925  -0.000217   0.007789  -0.071080   0.440506
     8  C   -0.000004  -0.000774   0.000032  -0.000299   0.007047  -0.009038
     9  C    0.000643   0.008008  -0.000221   0.000055  -0.000695  -0.037529
    10  C   -0.011561  -0.085877   0.008878  -0.001211   0.014767  -0.060609
    11  C   -0.080426   0.309956  -0.001106  -0.054915  -0.030718   0.474847
    12  H    0.000023   0.000108   0.005481  -0.048030   0.385494  -0.060338
    13  H    0.000002  -0.000196   0.000013   0.000133  -0.006607  -0.042138
    14  H    0.000000   0.000013  -0.000000   0.000001  -0.000179   0.003023
    15  H   -0.000005  -0.000200   0.000001  -0.000000   0.000011   0.001133
    16  H    0.017065  -0.010946   0.000168  -0.000008  -0.000166   0.004918
               7          8          9         10         11         12
     1  Br  -0.000120  -0.000004   0.000643  -0.011561  -0.080426   0.000023
     2  C    0.015925  -0.000774   0.008008  -0.085877   0.309956   0.000108
     3  N   -0.000217   0.000032  -0.000221   0.008878  -0.001106   0.005481
     4  N    0.007789  -0.000299   0.000055  -0.001211  -0.054915  -0.048030
     5  C   -0.071080   0.007047  -0.000695   0.014767  -0.030718   0.385494
     6  C    0.440506  -0.009038  -0.037529  -0.060609   0.474847  -0.060338
     7  C    5.015773   0.515439  -0.022475  -0.071216  -0.043627  -0.002580
     8  C    0.515439   4.832962   0.501120  -0.022423  -0.039360   0.000002
     9  C   -0.022475   0.501120   4.834985   0.510270  -0.006671   0.000011
    10  C   -0.071216  -0.022423   0.510270   5.043137   0.452161  -0.000146
    11  C   -0.043627  -0.039360  -0.006671   0.452161   4.926484   0.003952
    12  H   -0.002580   0.000002   0.000011  -0.000146   0.003952   0.594309
    13  H    0.369715  -0.041073   0.004477   0.000581   0.004832   0.005478
    14  H   -0.034983   0.370307  -0.039005   0.004354   0.001025  -0.000006
    15  H    0.004327  -0.039321   0.370454  -0.033916   0.002748   0.000000
    16  H    0.000512   0.004194  -0.038947   0.366399  -0.033595   0.000002
              13         14         15         16
     1  Br   0.000002   0.000000  -0.000005   0.017065
     2  C   -0.000196   0.000013  -0.000200  -0.010946
     3  N    0.000013  -0.000000   0.000001   0.000168
     4  N    0.000133   0.000001  -0.000000  -0.000008
     5  C   -0.006607  -0.000179   0.000011  -0.000166
     6  C   -0.042138   0.003023   0.001133   0.004918
     7  C    0.369715  -0.034983   0.004327   0.000512
     8  C   -0.041073   0.370307  -0.039321   0.004194
     9  C    0.004477  -0.039005   0.370454  -0.038947
    10  C    0.000581   0.004354  -0.033916   0.366399
    11  C    0.004832   0.001025   0.002748  -0.033595
    12  H    0.005478  -0.000006   0.000000   0.000002
    13  H    0.605374  -0.005636  -0.000187   0.000018
    14  H   -0.005636   0.603132  -0.005807  -0.000177
    15  H   -0.000187  -0.005807   0.600832  -0.005366
    16  H    0.000018  -0.000177  -0.005366   0.573221
 Mulliken charges:
               1
     1  Br  -0.079835
     2  C    0.201121
     3  N   -0.291537
     4  N   -0.267028
     5  C    0.071596
     6  C    0.098450
     7  C   -0.123687
     8  C   -0.078814
     9  C   -0.084479
    10  C   -0.113589
    11  C    0.114412
    12  H    0.116238
    13  H    0.105212
    14  H    0.103936
    15  H    0.105295
    16  H    0.122707
 Sum of Mulliken charges =  -0.00000
 Mulliken charges with hydrogens summed into heavy atoms:
               1
     1  Br  -0.079835
     2  C    0.201121
     3  N   -0.291537
     4  N   -0.267028
     5  C    0.187835
     6  C    0.098450
     7  C   -0.018475
     8  C    0.025123
     9  C    0.020816
    10  C    0.009118
    11  C    0.114412
 Electronic spatial extent (au):  <R**2>=           2271.1148
 Charge=             -0.0000 electrons
 Dipole moment (field-independent basis, Debye):
    X=             -4.3155    Y=             -3.3623    Z=              0.0006  Tot=              5.4707
 Quadrupole moment (field-independent basis, Debye-Ang):
   XX=            -64.7877   YY=            -76.4791   ZZ=            -75.8414
   XY=             -3.6756   XZ=             -0.0021   YZ=             -0.0013
 Traceless Quadrupole moment (field-independent basis, Debye-Ang):
   XX=              7.5817   YY=             -4.1097   ZZ=             -3.4720
   XY=             -3.6756   XZ=             -0.0021   YZ=             -0.0013
 Octapole moment (field-independent basis, Debye-Ang**2):
  XXX=             36.9475  YYY=            -53.7991  ZZZ=             -0.0021  XYY=              2.8574
  XXY=            -11.1228  XXZ=              0.0028  XZZ=             29.5707  YZZ=             -1.8252
  YYZ=              0.0043  XYZ=              0.0013
 Hexadecapole moment (field-independent basis, Debye-Ang**3):
 XXXX=          -1552.1466 YYYY=           -983.7350 ZZZZ=            -77.2080 XXXY=            -48.3836
 XXXZ=             -0.0337 YYYX=            -47.3135 YYYZ=             -0.0096 ZZZX=             -0.0120
 ZZZY=              0.0064 XXYY=           -396.7653 XXZZ=           -319.8169 YYZZ=           -175.7049
 XXYZ=             -0.0000 YYXZ=             -0.0196 ZZXY=            -15.4884
 N-N= 8.012314778497D+02 E-N=-8.704019794430D+03  KE= 2.969773024009D+03
 No NMR shielding tensors so no spin-rotation constants.
 Leave Link  601 at Tue Sep 17 09:51:12 2024, MaxMem=  1342177280 cpu:               0.7 elap:               0.1
 (Enter /groups/ReismanLab/Software/Gaussian16_RevC/Linux_Binary_AVX2-enabled-CPU/g16/l701.exe)
 ... and contract with generalized density number  0.
 Compute integral first derivatives.
 R6Disp: Adding Grimme-D3(BJ) dispersion energy 1st derivatives to the gradient.
 Leave Link  701 at Tue Sep 17 09:51:12 2024, MaxMem=  1342177280 cpu:               0.7 elap:               0.1
 (Enter /groups/ReismanLab/Software/Gaussian16_RevC/Linux_Binary_AVX2-enabled-CPU/g16/l702.exe)
 L702 exits ... SP integral derivatives will be done elsewhere.
 Leave Link  702 at Tue Sep 17 09:51:12 2024, MaxMem=  1342177280 cpu:               0.1 elap:               0.0
 (Enter /groups/ReismanLab/Software/Gaussian16_RevC/Linux_Binary_AVX2-enabled-CPU/g16/l703.exe)
 Integral derivatives from FoFJK, PRISM(SPDF).
 Compute integral first derivatives, UseDBF=F ICtDFT=           0.
 Calling FoFJK, ICntrl=      2127 FMM=F ISym2X=0 I1Cent= 0 IOpClX= 0 NMat=1 NMatS=1 NMatT=0.
 FoFJK:  IHMeth= 1 ICntrl=    2127 DoSepK=F KAlg= 0 I1Cent=           0 FoldK=F
 IRaf=         0 NMat=       1 IRICut=       1 DoRegI=T DoRafI=F ISym2E= 0 IDoP0=0 IntGTp=1.
 FoFCou: FMM=F IPFlag=           0 FMFlag=      100000 FMFlg1=         800
         NFxFlg=           0 DoJE=F BraDBF=F KetDBF=F FulRan=T
         wScrn=  0.000000 ICntrl=      2127 IOpCl=  0 I1Cent=           0 NGrid=           0
         NMat0=    1 NMatS0=      1 NMatT0=    0 NMatD0=    1 NMtDS0=    0 NMtDT0=    0
 Symmetry not used in FoFCou.
 Leave Link  703 at Tue Sep 17 09:51:15 2024, MaxMem=  1342177280 cpu:              24.0 elap:               3.1
 (Enter /groups/ReismanLab/Software/Gaussian16_RevC/Linux_Binary_AVX2-enabled-CPU/g16/l716.exe)
 Dipole        =-1.69786521D+00-1.32283414D+00 2.50057334D-04
 ***** Axes restored to original set *****
 -------------------------------------------------------------------
 Center     Atomic                   Forces (Hartrees/Bohr)
 Number     Number              X              Y              Z
 -------------------------------------------------------------------
      1       35           0.005163105   -0.004856170    0.000007314
      2        6          -0.002581849   -0.004720041   -0.000007862
      3        7           0.030259384   -0.008201312   -0.000016445
      4        7          -0.012772457    0.030766887    0.000024388
      5        6          -0.010897822   -0.009454269    0.000007497
      6        6           0.002828941    0.001254671   -0.000003747
      7        6          -0.002103174    0.004657288    0.000037552
      8        6          -0.006330229   -0.001707894    0.000034954
      9        6           0.000108265   -0.005190167   -0.000019400
     10        6           0.004650554   -0.003118943    0.000003244
     11        6           0.001439249    0.002814703   -0.000013792
     12        1          -0.004343782    0.002355002   -0.000019045
     13        1          -0.003858129    0.002057173   -0.000020548
     14        1          -0.003899179   -0.001337758   -0.000015838
     15        1          -0.000189194   -0.004145683   -0.000003184
     16        1           0.002526317   -0.001173488    0.000004912
 -------------------------------------------------------------------
 Cartesian Forces:  Max     0.030766887 RMS     0.007377400
 Leave Link  716 at Tue Sep 17 09:51:15 2024, MaxMem=  1342177280 cpu:               0.0 elap:               0.0
 (Enter /groups/ReismanLab/Software/Gaussian16_RevC/Linux_Binary_AVX2-enabled-CPU/g16/l103.exe)

 GradGradGradGradGradGradGradGradGradGradGradGradGradGradGradGradGradGrad
 Berny optimization.
 FormGI is forming the generalized inverse of G from B-inverse, IUseBI=4.
 Internal  Forces:  Max     0.034213366 RMS     0.005459734
 Search for a local minimum.
 Step number   1 out of a maximum of   90
 All quantities printed in internal units (Hartrees-Bohrs-Radians)
 RMS Force = .54597D-02 SwitMx=.10000D-02 MixMth= 1
 Mixed Optimization -- RFO/linear search
 Second derivative matrix not updated -- first step.
 ITU=  0
     Eigenvalues ---    0.01879   0.01903   0.01919   0.02148   0.02165
     Eigenvalues ---    0.02173   0.02201   0.02261   0.02270   0.02307
     Eigenvalues ---    0.02340   0.02386   0.02740   0.16000   0.16000
     Eigenvalues ---    0.16000   0.16000   0.16000   0.18415   0.22000
     Eigenvalues ---    0.22542   0.23390   0.24512   0.25000   0.25000
     Eigenvalues ---    0.25000   0.35870   0.36027   0.36028   0.36046
     Eigenvalues ---    0.36058   0.38479   0.40314   0.42104   0.42179
     Eigenvalues ---    0.43790   0.44958   0.49292   0.50421   0.59641
     Eigenvalues ---    0.64180   0.67121
 RFO step:  Lambda=-4.47758836D-03 EMin= 1.87895360D-02
 Linear search not attempted -- first point.
 Iteration  1 RMS(Cart)=  0.01571774 RMS(Int)=  0.00006934
 Iteration  2 RMS(Cart)=  0.00008807 RMS(Int)=  0.00001681
 Iteration  3 RMS(Cart)=  0.00000001 RMS(Int)=  0.00001681
 ITry= 1 IFail=0 DXMaxC= 5.90D-02 DCOld= 1.00D+10 DXMaxT= 3.00D-01 DXLimC= 3.00D+00 Rises=F
 Variable       Old X    -DE/DX   Delta X   Delta X   Delta X     New X
                                 (Linear)    (Quad)   (Total)
    R1        3.58418   0.00690   0.00000   0.03659   0.03659   3.62077
    R2        2.44825   0.01248   0.00000   0.01924   0.01925   2.46750
    R3        2.68579   0.00605   0.00000   0.01247   0.01245   2.69824
    R4        2.49551   0.03421   0.00000   0.05756   0.05760   2.55311
    R5        2.45615   0.01756   0.00000   0.02721   0.02723   2.48338
    R6        2.68214   0.00305   0.00000   0.00555   0.00554   2.68767
    R7        2.04285   0.00484   0.00000   0.01332   0.01332   2.05617
    R8        2.65677   0.00793   0.00000   0.01691   0.01691   2.67368
    R9        2.68234   0.00636   0.00000   0.00967   0.00962   2.69197
   R10        2.58812   0.00843   0.00000   0.01694   0.01695   2.60507
   R11        2.04040   0.00433   0.00000   0.01186   0.01186   2.05226
   R12        2.65093   0.00970   0.00000   0.02257   0.02258   2.67351
   R13        2.04038   0.00410   0.00000   0.01124   0.01124   2.05162
   R14        2.58920   0.00921   0.00000   0.01854   0.01854   2.60775
   R15        2.03991   0.00414   0.00000   0.01134   0.01134   2.05125
   R16        2.65266   0.00846   0.00000   0.01800   0.01799   2.67064
   R17        2.04010   0.00274   0.00000   0.00750   0.00750   2.04760
    A1        2.00704   0.00204   0.00000   0.00909   0.00909   2.01613
    A2        2.09831  -0.00374   0.00000  -0.01362  -0.01361   2.08470
    A3        2.17784   0.00170   0.00000   0.00453   0.00452   2.18236
    A4        2.10510  -0.00460   0.00000  -0.00767  -0.00761   2.09749
    A5        2.09891  -0.00613   0.00000  -0.01318  -0.01311   2.08579
    A6        2.15820   0.00222   0.00000   0.00821   0.00821   2.16641
    A7        2.02091  -0.00009   0.00000   0.00213   0.00213   2.02304
    A8        2.10407  -0.00214   0.00000  -0.01034  -0.01034   2.09374
    A9        2.16822  -0.00428   0.00000  -0.00812  -0.00808   2.16014
   A10        2.03297   0.00309   0.00000   0.00308   0.00303   2.03600
   A11        2.08200   0.00119   0.00000   0.00504   0.00505   2.08705
   A12        2.09129   0.00071   0.00000   0.00086   0.00085   2.09214
   A13        2.07542   0.00030   0.00000   0.00354   0.00355   2.07897
   A14        2.11647  -0.00101   0.00000  -0.00440  -0.00440   2.11207
   A15        2.10654  -0.00135   0.00000  -0.00438  -0.00437   2.10217
   A16        2.09591   0.00024   0.00000  -0.00045  -0.00046   2.09545
   A17        2.08074   0.00111   0.00000   0.00483   0.00482   2.08557
   A18        2.10933  -0.00045   0.00000  -0.00025  -0.00025   2.10908
   A19        2.08181   0.00052   0.00000   0.00193   0.00193   2.08374
   A20        2.09205  -0.00007   0.00000  -0.00168  -0.00168   2.09036
   A21        2.08647   0.00098   0.00000   0.00225   0.00224   2.08871
   A22        2.11382   0.00004   0.00000   0.00209   0.00210   2.11593
   A23        2.08289  -0.00102   0.00000  -0.00435  -0.00434   2.07855
   A24        1.99335   0.00371   0.00000   0.00502   0.00497   1.99832
   A25        2.19910  -0.00264   0.00000  -0.00150  -0.00145   2.19765
   A26        2.09074  -0.00107   0.00000  -0.00352  -0.00352   2.08722
    D1        3.14143   0.00001   0.00000   0.00028   0.00028  -3.14148
    D2        0.00003   0.00000   0.00000  -0.00001  -0.00001   0.00001
    D3       -3.14125  -0.00001   0.00000  -0.00036  -0.00036   3.14158
    D4        0.00034  -0.00001   0.00000  -0.00036  -0.00036  -0.00002
    D5        0.00014  -0.00000   0.00000  -0.00005  -0.00005   0.00010
    D6       -3.14146  -0.00000   0.00000  -0.00005  -0.00005  -3.14151
    D7       -0.00004  -0.00000   0.00000  -0.00005  -0.00005  -0.00009
    D8       -0.00012   0.00001   0.00000   0.00018   0.00018   0.00006
    D9        3.14120   0.00001   0.00000   0.00044   0.00044  -3.14154
   D10       -3.14137  -0.00000   0.00000  -0.00019  -0.00019  -3.14155
   D11        0.00029  -0.00001   0.00000  -0.00024  -0.00024   0.00005
   D12        0.00051  -0.00001   0.00000  -0.00045  -0.00045   0.00005
   D13       -3.14102  -0.00001   0.00000  -0.00050  -0.00050  -3.14153
   D14       -3.14130  -0.00001   0.00000  -0.00022  -0.00022  -3.14152
   D15       -0.00035   0.00001   0.00000   0.00035   0.00035   0.00000
   D16        0.00022  -0.00000   0.00000  -0.00016  -0.00016   0.00006
   D17        3.14118   0.00001   0.00000   0.00040   0.00040   3.14158
   D18       -0.00028   0.00000   0.00000   0.00016   0.00016  -0.00012
   D19        3.14132   0.00000   0.00000   0.00016   0.00016   3.14148
   D20        3.14137   0.00000   0.00000   0.00011   0.00011   3.14148
   D21       -0.00021   0.00000   0.00000   0.00011   0.00011  -0.00010
   D22        0.00002  -0.00000   0.00000  -0.00002  -0.00002  -0.00000
   D23        3.14105   0.00001   0.00000   0.00053   0.00053   3.14158
   D24       -3.14092  -0.00002   0.00000  -0.00060  -0.00060  -3.14153
   D25        0.00011  -0.00000   0.00000  -0.00005  -0.00005   0.00006
   D26       -0.00029   0.00001   0.00000   0.00027   0.00027  -0.00002
   D27        3.14136   0.00001   0.00000   0.00022   0.00022   3.14157
   D28       -3.14132  -0.00001   0.00000  -0.00028  -0.00028   3.14158
   D29        0.00032  -0.00001   0.00000  -0.00033  -0.00033  -0.00001
   D30        0.00030  -0.00001   0.00000  -0.00032  -0.00032  -0.00002
   D31       -3.14136  -0.00000   0.00000  -0.00017  -0.00017  -3.14154
   D32       -3.14135  -0.00001   0.00000  -0.00026  -0.00026   3.14158
   D33        0.00018  -0.00000   0.00000  -0.00012  -0.00012   0.00006
   D34        3.14155   0.00000   0.00000   0.00013   0.00013  -3.14150
   D35       -0.00005   0.00000   0.00000   0.00013   0.00013   0.00008
   D36        0.00003   0.00000   0.00000  -0.00001  -0.00001   0.00002
   D37       -3.14158  -0.00000   0.00000  -0.00002  -0.00002   3.14159
         Item               Value     Threshold  Converged?
 Maximum Force            0.034213     0.000450     NO 
 RMS     Force            0.005460     0.000300     NO 
 Maximum Displacement     0.058965     0.001800     NO 
 RMS     Displacement     0.015719     0.001200     NO 
 Predicted change in Energy=-2.258737D-03
 Lowest energy point so far.  Saving SCF results.
 GradGradGradGradGradGradGradGradGradGradGradGradGradGradGradGradGradGrad

 Leave Link  103 at Tue Sep 17 09:51:15 2024, MaxMem=  1342177280 cpu:               0.1 elap:               0.0
 (Enter /groups/ReismanLab/Software/Gaussian16_RevC/Linux_Binary_AVX2-enabled-CPU/g16/l202.exe)
                          Input orientation:                          
 ---------------------------------------------------------------------
 Center     Atomic      Atomic             Coordinates (Angstroms)
 Number     Number       Type             X           Y           Z
 ---------------------------------------------------------------------
      1         35           0        2.152540   -0.465225    0.000242
      2          6           0        0.510263    0.521737    0.000091
      3          7           0        0.635162    1.821497    0.000053
      4          7           0       -0.462464    2.609245    0.000082
      5          6           0       -1.655163    2.057471    0.000042
      6          6           0       -1.884989    0.653907    0.000038
      7          6           0       -3.172783    0.067912   -0.000053
      8          6           0       -3.302600   -1.304503    0.000037
      9          6           0       -2.155845   -2.133059    0.000215
     10          6           0       -0.888518   -1.587010    0.000283
     11          6           0       -0.731846   -0.182477    0.000149
     12          1           0       -2.497624    2.746076    0.000022
     13          1           0       -4.046717    0.712621   -0.000128
     14          1           0       -4.289282   -1.757427   -0.000024
     15          1           0       -2.277959   -3.211643    0.000301
     16          1           0       -0.005913   -2.215562    0.000367
 ---------------------------------------------------------------------
                    Distance matrix (angstroms):
                    1          2          3          4          5
     1  Br   0.000000
     2  C    1.916029   0.000000
     3  N    2.744364   1.305747   0.000000
     4  N    4.036163   2.303017   1.351048   0.000000
     5  C    4.567559   2.654722   2.302449   1.314148   0.000000
     6  C    4.189761   2.398896   2.777486   2.418041   1.422256
     7  C    5.351944   3.710901   4.192315   3.715400   2.502302
     8  C    5.519324   4.227656   5.027708   4.835679   3.743918
     9  C    4.619941   3.762456   4.840272   5.035572   4.220335
    10  C    3.241363   2.530494   3.733566   4.217829   3.724243
    11  C    2.898212   1.427849   2.425825   2.804689   2.422784
    12  H    5.651237   3.740998   3.266373   2.039754   1.088080
    13  H    6.310160   4.560976   4.811404   4.055127   2.743748
    14  H    6.570149   5.313212   6.087598   5.806235   4.635950
    15  H    5.212689   4.659646   5.815390   6.097438   5.305792
    16  H    2.778956   2.785542   4.087642   4.846360   4.580266
                    6          7          8          9         10
     6  C    0.000000
     7  C    1.414851   0.000000
     8  C    2.417642   1.378541   0.000000
     9  C    2.800097   2.424549   1.414762   0.000000
    10  C    2.452481   2.820751   2.430556   1.379960   0.000000
    11  C    1.424527   2.453745   2.804945   2.415066   1.413244
    12  H    2.180022   2.761957   4.129792   4.891092   4.622214
    13  H    2.162526   1.086007   2.150000   3.416620   3.906728
    14  H    3.405166   2.139727   1.085671   2.166253   3.405031
    15  H    3.885473   3.399440   2.164964   1.085474   2.137750
    16  H    3.429983   3.904270   3.420260   2.151515   1.083545
                   11         12         13         14         15
    11  C    0.000000
    12  H    3.419707   0.000000
    13  H    3.433594   2.556293   0.000000
    14  H    3.890477   4.846812   2.481930   0.000000
    15  H    3.400927   5.961767   4.304457   2.481968   0.000000
    16  H    2.158799   5.552160   4.990226   4.307800   2.480800
                   16
    16  H    0.000000
 Stoichiometry    C8H5BrN2
 Framework group  C1[X(C8H5BrN2)]
 Deg. of freedom    42
 Full point group                 C1      NOp   1
 RotChk:  IX=2 Diff= 1.49D-02
 Largest Abelian subgroup         C1      NOp   1
 Largest concise Abelian subgroup C1      NOp   1
                         Standard orientation:                         
 ---------------------------------------------------------------------
 Center     Atomic      Atomic             Coordinates (Angstroms)
 Number     Number       Type             X           Y           Z
 ---------------------------------------------------------------------
      1         35           0        2.301443   -0.510833    0.000097
      2          6           0        0.680863    0.511366   -0.000054
      3          7           0        0.833803    1.808125   -0.000092
      4          7           0       -0.246556    2.619394   -0.000062
      5          6           0       -1.450892    2.093506   -0.000102
      6          6           0       -1.710976    0.695233   -0.000107
      7          6           0       -3.011125    0.137185   -0.000198
      8          6           0       -3.170550   -1.232106   -0.000108
      9          6           0       -2.041956   -2.085235    0.000070
     10          6           0       -0.763132   -1.566682    0.000138
     11          6           0       -0.576165   -0.165860    0.000004
     12          1           0       -2.278285    2.800144   -0.000122
     13          1           0       -3.870932    0.800617   -0.000273
     14          1           0       -4.166783   -1.663617   -0.000169
     15          1           0       -2.187334   -3.160929    0.000157
     16          1           0        0.105693   -2.214148    0.000222
 ---------------------------------------------------------------------
 Rotational constants (GHZ):           1.4427390           0.6141430           0.4307724
 Leave Link  202 at Tue Sep 17 09:51:15 2024, MaxMem=  1342177280 cpu:               0.0 elap:               0.0
 (Enter /groups/ReismanLab/Software/Gaussian16_RevC/Linux_Binary_AVX2-enabled-CPU/g16/l301.exe)
 Standard basis: 6-31G(d,p) (6D, 7F)
 Ernie: Thresh=  0.10000D-02 Tol=  0.10000D-05 Strict=F.
 There are   205 symmetry adapted cartesian basis functions of A   symmetry.
 There are   205 symmetry adapted basis functions of A   symmetry.
   205 basis functions,   398 primitive gaussians,   205 cartesian basis functions
    51 alpha electrons       51 beta electrons
       nuclear repulsion energy       795.4485169760 Hartrees.
 IExCor=  402 DFT=T Ex+Corr=B3LYP ExCW=0 ScaHFX=  0.200000
 ScaDFX=  0.800000  0.720000  1.000000  0.810000 ScalE2=  1.000000  1.000000
 IRadAn=      5 IRanWt=     -1 IRanGd=            0 ICorTp=0 IEmpDi=141
 NAtoms=   16 NActive=   16 NUniq=   16 SFac= 1.00D+00 NAtFMM=   60 NAOKFM=F Big=F
 Integral buffers will be    131072 words long.
 Raffenetti 2 integral format.
 Two-electron integral symmetry is turned on.
 R6Disp:  Grimme-D3(BJ) Dispersion energy=       -0.0381766764 Hartrees.
 Nuclear repulsion after empirical dispersion term =      795.4103402996 Hartrees.
 Leave Link  301 at Tue Sep 17 09:51:15 2024, MaxMem=  1342177280 cpu:               0.1 elap:               0.0
 (Enter /groups/ReismanLab/Software/Gaussian16_RevC/Linux_Binary_AVX2-enabled-CPU/g16/l302.exe)
 NPDir=0 NMtPBC=     1 NCelOv=     1 NCel=       1 NClECP=     1 NCelD=      1
         NCelK=      1 NCelE2=     1 NClLst=     1 CellRange=     0.0.
 One-electron integrals computed using PRISM.
 One-electron integral symmetry used in STVInt
 NBasis=   205 RedAO= T EigKep=  3.55D-04  NBF=   205
 NBsUse=   205 1.00D-06 EigRej= -1.00D+00 NBFU=   205
 Precomputing XC quadrature grid using
 IXCGrd= 4 IRadAn=           5 IRanWt=          -1 IRanGd=           0 AccXCQ= 0.00D+00.
 Generated NRdTot=       0 NPtTot=           0 NUsed=           0 NTot=          32
 NSgBfM=   204   204   204   204   204 MxSgAt=    16 MxSgA2=    16.
 Leave Link  302 at Tue Sep 17 09:51:15 2024, MaxMem=  1342177280 cpu:               0.9 elap:               0.1
 (Enter /groups/ReismanLab/Software/Gaussian16_RevC/Linux_Binary_AVX2-enabled-CPU/g16/l303.exe)
 DipDrv:  MaxL=1.
 Leave Link  303 at Tue Sep 17 09:51:15 2024, MaxMem=  1342177280 cpu:               0.1 elap:               0.0
 (Enter /groups/ReismanLab/Software/Gaussian16_RevC/Linux_Binary_AVX2-enabled-CPU/g16/l401.exe)
 Initial guess from the checkpoint file:  "smiles_00010_conf_0.chk"
 B after Tr=    -0.000000   -0.000000    0.000000
         Rot=    0.999995    0.000020    0.000018   -0.003294 Ang=   0.38 deg.
 Guess basis will be translated and rotated to current coordinates.
 JPrj=2 DoOrth=T DoCkMO=T.
 Generating alternative initial guess.
 ExpMin= 1.43D-01 ExpMax= 5.74D+05 ExpMxC= 5.74D+03 IAcc=3 IRadAn=         5 AccDes= 0.00D+00
 Harris functional with IExCor=  402 and IRadAn=       5 diagonalized for initial guess.
 HarFok:  IExCor=  402 AccDes= 0.00D+00 IRadAn=         5 IDoV= 1 UseB2=F ITyADJ=14
 ICtDFT=  3500011 ScaDFX=  1.000000  1.000000  1.000000  1.000000
 FoFCou: FMM=F IPFlag=           0 FMFlag=      100000 FMFlg1=           0
         NFxFlg=           0 DoJE=T BraDBF=F KetDBF=T FulRan=T
         wScrn=  0.000000 ICntrl=       500 IOpCl=  0 I1Cent=   200000004 NGrid=           0
         NMat0=    1 NMatS0=      1 NMatT0=    0 NMatD0=    1 NMtDS0=    0 NMtDT0=    0
 Petite list used in FoFCou.
 Harris En= -2989.15428505343    
 Leave Link  401 at Tue Sep 17 09:51:16 2024, MaxMem=  1342177280 cpu:               4.1 elap:               0.6
 (Enter /groups/ReismanLab/Software/Gaussian16_RevC/Linux_Binary_AVX2-enabled-CPU/g16/l502.exe)
 Integral symmetry usage will be decided dynamically.
 Closed shell SCF:
 Using DIIS extrapolation, IDIIS=  1040.
 NGot=  1342177280 LenX=  1342089090 LenY=  1342046624
 Requested convergence on RMS density matrix=1.00D-08 within  32 cycles.
 Requested convergence on MAX density matrix=1.00D-06.
 Requested convergence on             energy=1.00D-06.
 No special actions if energy rises.
 Fock matrices will be formed incrementally for  20 cycles.
 Integral accuracy reduced to 1.0D-05 until final iterations.

 Cycle   1  Pass 0  IDiag  1:
 FoFJK:  IHMeth= 1 ICntrl=       0 DoSepK=F KAlg= 0 I1Cent=           0 FoldK=F
 IRaf= 900000000 NMat=       1 IRICut=       1 DoRegI=T DoRafI=F ISym2E= 0 IDoP0=0 IntGTp=1.
 FoFCou: FMM=F IPFlag=           0 FMFlag=      100000 FMFlg1=           0
         NFxFlg=           0 DoJE=F BraDBF=F KetDBF=F FulRan=T
         wScrn=  0.000000 ICntrl=         0 IOpCl=  0 I1Cent=           0 NGrid=           0
         NMat0=    1 NMatS0=      1 NMatT0=    0 NMatD0=    1 NMtDS0=    0 NMtDT0=    0
 Symmetry not used in FoFCou.
 E= -2989.08344427751    
 DIIS: error= 2.33D-03 at cycle   1 NSaved=   1.
 NSaved= 1 IEnMin= 1 EnMin= -2989.08344427751     IErMin= 1 ErrMin= 2.33D-03
 ErrMax= 2.33D-03  0.00D+00 EMaxC= 1.00D-01 BMatC= 2.13D-03 BMatP= 2.13D-03
 IDIUse=3 WtCom= 9.77D-01 WtEn= 2.33D-02
 Coeff-Com:  0.100D+01
 Coeff-En:   0.100D+01
 Coeff:      0.100D+01
 Gap=     1.883 Goal=   None    Shift=    0.000
 GapD=    1.883 DampG=2.000 DampE=1.000 DampFc=2.0000 IDamp=-1.
 RMSDP=3.78D-04 MaxDP=1.18D-02              OVMax= 9.64D-03

 Cycle   2  Pass 0  IDiag  1:
 RMSU=  3.77D-04    CP:  9.99D-01
 E= -2989.08443193931     Delta-E=       -0.000987661802 Rises=F Damp=F
 DIIS: error= 6.80D-04 at cycle   2 NSaved=   2.
 NSaved= 2 IEnMin= 2 EnMin= -2989.08443193931     IErMin= 2 ErrMin= 6.80D-04
 ErrMax= 6.80D-04  0.00D+00 EMaxC= 1.00D-01 BMatC= 1.03D-04 BMatP= 2.13D-03
 IDIUse=3 WtCom= 9.93D-01 WtEn= 6.80D-03
 Coeff-Com:  0.726D-01 0.927D+00
 Coeff-En:   0.000D+00 0.100D+01
 Coeff:      0.721D-01 0.928D+00
 Gap=     0.170 Goal=   None    Shift=    0.000
 RMSDP=1.48D-04 MaxDP=5.18D-03 DE=-9.88D-04 OVMax= 6.00D-03

 Cycle   3  Pass 0  IDiag  1:
 RMSU=  1.46D-04    CP:  1.00D+00  1.06D+00
 E= -2989.08435867719     Delta-E=        0.000073262115 Rises=F Damp=F
 DIIS: error= 8.12D-04 at cycle   3 NSaved=   3.
 NSaved= 3 IEnMin= 2 EnMin= -2989.08443193931     IErMin= 2 ErrMin= 6.80D-04
 ErrMax= 8.12D-04  0.00D+00 EMaxC= 1.00D-01 BMatC= 1.77D-04 BMatP= 1.03D-04
 IDIUse=3 WtCom= 2.60D-01 WtEn= 7.40D-01
 Coeff-Com: -0.361D-03 0.572D+00 0.429D+00
 Coeff-En:   0.000D+00 0.617D+00 0.383D+00
 Coeff:     -0.938D-04 0.605D+00 0.395D+00
 Gap=     0.167 Goal=   None    Shift=    0.000
 RMSDP=8.12D-05 MaxDP=2.93D-03 DE= 7.33D-05 OVMax= 4.54D-03

 Cycle   4  Pass 0  IDiag  1:
 RMSU=  3.63D-05    CP:  1.00D+00  1.05D+00  5.02D-01
 E= -2989.08452791482     Delta-E=       -0.000169237631 Rises=F Damp=F
 DIIS: error= 2.20D-04 at cycle   4 NSaved=   4.
 NSaved= 4 IEnMin= 4 EnMin= -2989.08452791482     IErMin= 4 ErrMin= 2.20D-04
 ErrMax= 2.20D-04  0.00D+00 EMaxC= 1.00D-01 BMatC= 9.07D-06 BMatP= 1.03D-04
 IDIUse=3 WtCom= 9.98D-01 WtEn= 2.20D-03
 Coeff-Com: -0.462D-02 0.293D+00 0.243D+00 0.468D+00
 Coeff-En:   0.000D+00 0.000D+00 0.000D+00 0.100D+01
 Coeff:     -0.461D-02 0.293D+00 0.242D+00 0.470D+00
 Gap=     0.168 Goal=   None    Shift=    0.000
 RMSDP=2.05D-05 MaxDP=4.45D-04 DE=-1.69D-04 OVMax= 1.28D-03

 Cycle   5  Pass 0  IDiag  1:
 RMSU=  1.40D-05    CP:  1.00D+00  1.05D+00  5.00D-01  5.89D-01
 E= -2989.08453719286     Delta-E=       -0.000009278033 Rises=F Damp=F
 DIIS: error= 4.56D-05 at cycle   5 NSaved=   5.
 NSaved= 5 IEnMin= 5 EnMin= -2989.08453719286     IErMin= 5 ErrMin= 4.56D-05
 ErrMax= 4.56D-05  0.00D+00 EMaxC= 1.00D-01 BMatC= 4.83D-07 BMatP= 9.07D-06
 IDIUse=1 WtCom= 1.00D+00 WtEn= 0.00D+00
 Coeff-Com: -0.215D-02 0.780D-01 0.746D-01 0.221D+00 0.629D+00
 Coeff:     -0.215D-02 0.780D-01 0.746D-01 0.221D+00 0.629D+00
 Gap=     0.168 Goal=   None    Shift=    0.000
 RMSDP=5.36D-06 MaxDP=1.70D-04 DE=-9.28D-06 OVMax= 2.14D-04

 Initial convergence to 1.0D-05 achieved.  Increase integral accuracy.
 Cycle   6  Pass 1  IDiag  1:
 E= -2989.08455180883     Delta-E=       -0.000014615970 Rises=F Damp=F
 DIIS: error= 5.80D-05 at cycle   1 NSaved=   1.
 NSaved= 1 IEnMin= 1 EnMin= -2989.08455180883     IErMin= 1 ErrMin= 5.80D-05
 ErrMax= 5.80D-05  0.00D+00 EMaxC= 1.00D-01 BMatC= 2.33D-07 BMatP= 2.33D-07
 IDIUse=1 WtCom= 1.00D+00 WtEn= 0.00D+00
 Coeff-Com:  0.100D+01
 Coeff:      0.100D+01
 Gap=     0.168 Goal=   None    Shift=    0.000
 RMSDP=5.36D-06 MaxDP=1.70D-04 DE=-1.46D-05 OVMax= 2.70D-04

 Cycle   7  Pass 1  IDiag  1:
 RMSU=  1.31D-05    CP:  1.00D+00
 E= -2989.08455168960     Delta-E=        0.000000119227 Rises=F Damp=F
 DIIS: error= 3.13D-05 at cycle   2 NSaved=   2.
 NSaved= 2 IEnMin= 1 EnMin= -2989.08455180883     IErMin= 2 ErrMin= 3.13D-05
 ErrMax= 3.13D-05  0.00D+00 EMaxC= 1.00D-01 BMatC= 2.94D-07 BMatP= 2.33D-07
 IDIUse=1 WtCom= 1.00D+00 WtEn= 0.00D+00
 Coeff-Com:  0.537D+00 0.463D+00
 Coeff:      0.537D+00 0.463D+00
 Gap=     0.168 Goal=   None    Shift=    0.000
 RMSDP=3.48D-06 MaxDP=1.52D-04 DE= 1.19D-07 OVMax= 2.55D-04

 Cycle   8  Pass 1  IDiag  1:
 RMSU=  3.36D-06    CP:  1.00D+00  9.30D-01
 E= -2989.08455192797     Delta-E=       -0.000000238369 Rises=F Damp=F
 DIIS: error= 1.46D-05 at cycle   3 NSaved=   3.
 NSaved= 3 IEnMin= 3 EnMin= -2989.08455192797     IErMin= 3 ErrMin= 1.46D-05
 ErrMax= 1.46D-05  0.00D+00 EMaxC= 1.00D-01 BMatC= 4.59D-08 BMatP= 2.33D-07
 IDIUse=1 WtCom= 1.00D+00 WtEn= 0.00D+00
 Coeff-Com:  0.476D-01 0.281D+00 0.671D+00
 Coeff:      0.476D-01 0.281D+00 0.671D+00
 Gap=     0.168 Goal=   None    Shift=    0.000
 RMSDP=1.42D-06 MaxDP=5.14D-05 DE=-2.38D-07 OVMax= 1.08D-04

 Cycle   9  Pass 1  IDiag  1:
 RMSU=  8.17D-07    CP:  1.00D+00  9.63D-01  6.81D-01
 E= -2989.08455196470     Delta-E=       -0.000000036734 Rises=F Damp=F
 DIIS: error= 6.37D-06 at cycle   4 NSaved=   4.
 NSaved= 4 IEnMin= 4 EnMin= -2989.08455196470     IErMin= 4 ErrMin= 6.37D-06
 ErrMax= 6.37D-06  0.00D+00 EMaxC= 1.00D-01 BMatC= 8.59D-09 BMatP= 4.59D-08
 IDIUse=1 WtCom= 1.00D+00 WtEn= 0.00D+00
 Coeff-Com:  0.124D-02 0.162D+00 0.453D+00 0.384D+00
 Coeff:      0.124D-02 0.162D+00 0.453D+00 0.384D+00
 Gap=     0.168 Goal=   None    Shift=    0.000
 RMSDP=5.16D-07 MaxDP=1.79D-05 DE=-3.67D-08 OVMax= 3.57D-05

 Cycle  10  Pass 1  IDiag  1:
 RMSU=  1.87D-07    CP:  1.00D+00  9.60D-01  7.27D-01  4.44D-01
 E= -2989.08455197346     Delta-E=       -0.000000008755 Rises=F Damp=F
 DIIS: error= 7.87D-07 at cycle   5 NSaved=   5.
 NSaved= 5 IEnMin= 5 EnMin= -2989.08455197346     IErMin= 5 ErrMin= 7.87D-07
 ErrMax= 7.87D-07  0.00D+00 EMaxC= 1.00D-01 BMatC= 1.73D-10 BMatP= 8.59D-09
 IDIUse=1 WtCom= 1.00D+00 WtEn= 0.00D+00
 Coeff-Com: -0.185D-02 0.730D-01 0.211D+00 0.206D+00 0.512D+00
 Coeff:     -0.185D-02 0.730D-01 0.211D+00 0.206D+00 0.512D+00
 Gap=     0.168 Goal=   None    Shift=    0.000
 RMSDP=8.44D-08 MaxDP=2.50D-06 DE=-8.75D-09 OVMax= 3.80D-06

 Cycle  11  Pass 1  IDiag  1:
 RMSU=  4.64D-08    CP:  1.00D+00  9.60D-01  7.26D-01  4.55D-01  6.33D-01
 E= -2989.08455197358     Delta-E=       -0.000000000118 Rises=F Damp=F
 DIIS: error= 2.31D-07 at cycle   6 NSaved=   6.
 NSaved= 6 IEnMin= 6 EnMin= -2989.08455197358     IErMin= 6 ErrMin= 2.31D-07
 ErrMax= 2.31D-07  0.00D+00 EMaxC= 1.00D-01 BMatC= 7.93D-12 BMatP= 1.73D-10
 IDIUse=1 WtCom= 1.00D+00 WtEn= 0.00D+00
 Coeff-Com: -0.108D-02 0.348D-01 0.101D+00 0.992D-01 0.280D+00 0.486D+00
 Coeff:     -0.108D-02 0.348D-01 0.101D+00 0.992D-01 0.280D+00 0.486D+00
 Gap=     0.168 Goal=   None    Shift=    0.000
 RMSDP=2.04D-08 MaxDP=6.88D-07 DE=-1.18D-10 OVMax= 1.26D-06

 Cycle  12  Pass 1  IDiag  1:
 RMSU=  1.85D-08    CP:  1.00D+00  9.60D-01  7.26D-01  4.53D-01  6.40D-01
                    CP:  8.23D-01
 E= -2989.08455197362     Delta-E=       -0.000000000041 Rises=F Damp=F
 DIIS: error= 8.98D-08 at cycle   7 NSaved=   7.
 NSaved= 7 IEnMin= 7 EnMin= -2989.08455197362     IErMin= 7 ErrMin= 8.98D-08
 ErrMax= 8.98D-08  0.00D+00 EMaxC= 1.00D-01 BMatC= 1.20D-12 BMatP= 7.93D-12
 IDIUse=1 WtCom= 1.00D+00 WtEn= 0.00D+00
 Coeff-Com: -0.120D-03 0.860D-03 0.212D-02 0.178D-02 0.245D-01 0.277D+00
 Coeff-Com:  0.694D+00
 Coeff:     -0.120D-03 0.860D-03 0.212D-02 0.178D-02 0.245D-01 0.277D+00
 Coeff:      0.694D+00
 Gap=     0.168 Goal=   None    Shift=    0.000
 RMSDP=8.98D-09 MaxDP=2.81D-07 DE=-4.14D-11 OVMax= 8.34D-07

 SCF Done:  E(RB3LYP) =  -2989.08455197     A.U. after   12 cycles
            NFock= 12  Conv=0.90D-08     -V/T= 2.0066
 KE= 2.969405634312D+03 PE=-8.692080019321D+03 EE= 1.938179492736D+03
 Leave Link  502 at Tue Sep 17 09:51:25 2024, MaxMem=  1342177280 cpu:              69.4 elap:               9.3
 (Enter /groups/ReismanLab/Software/Gaussian16_RevC/Linux_Binary_AVX2-enabled-CPU/g16/l508.exe)
 QCSCF skips out because SCF is already converged.
 Leave Link  508 at Tue Sep 17 09:51:25 2024, MaxMem=  1342177280 cpu:               0.0 elap:               0.0
 (Enter /groups/ReismanLab/Software/Gaussian16_RevC/Linux_Binary_AVX2-enabled-CPU/g16/l701.exe)
 ... and contract with generalized density number  0.
 Compute integral first derivatives.
 R6Disp: Adding Grimme-D3(BJ) dispersion energy 1st derivatives to the gradient.
 Leave Link  701 at Tue Sep 17 09:51:26 2024, MaxMem=  1342177280 cpu:               0.7 elap:               0.1
 (Enter /groups/ReismanLab/Software/Gaussian16_RevC/Linux_Binary_AVX2-enabled-CPU/g16/l702.exe)
 L702 exits ... SP integral derivatives will be done elsewhere.
 Leave Link  702 at Tue Sep 17 09:51:26 2024, MaxMem=  1342177280 cpu:               0.1 elap:               0.0
 (Enter /groups/ReismanLab/Software/Gaussian16_RevC/Linux_Binary_AVX2-enabled-CPU/g16/l703.exe)
 Integral derivatives from FoFJK, PRISM(SPDF).
 Compute integral first derivatives, UseDBF=F ICtDFT=           0.
 Calling FoFJK, ICntrl=      2127 FMM=F ISym2X=0 I1Cent= 0 IOpClX= 0 NMat=1 NMatS=1 NMatT=0.
 FoFJK:  IHMeth= 1 ICntrl=    2127 DoSepK=F KAlg= 0 I1Cent=           0 FoldK=F
 IRaf=         0 NMat=       1 IRICut=       1 DoRegI=T DoRafI=F ISym2E= 0 IDoP0=0 IntGTp=1.
 FoFCou: FMM=F IPFlag=           0 FMFlag=      100000 FMFlg1=         800
         NFxFlg=           0 DoJE=F BraDBF=F KetDBF=F FulRan=T
         wScrn=  0.000000 ICntrl=      2127 IOpCl=  0 I1Cent=           0 NGrid=           0
         NMat0=    1 NMatS0=      1 NMatT0=    0 NMatD0=    1 NMtDS0=    0 NMtDT0=    0
 Symmetry not used in FoFCou.
 Leave Link  703 at Tue Sep 17 09:51:29 2024, MaxMem=  1342177280 cpu:              24.0 elap:               3.2
 (Enter /groups/ReismanLab/Software/Gaussian16_RevC/Linux_Binary_AVX2-enabled-CPU/g16/l716.exe)
 Dipole        =-1.71819938D+00-1.36078399D+00 1.18555033D-06
 ***** Axes restored to original set *****
 -------------------------------------------------------------------
 Center     Atomic                   Forces (Hartrees/Bohr)
 Number     Number              X              Y              Z
 -------------------------------------------------------------------
      1       35          -0.000459795    0.000396278   -0.000003140
      2        6          -0.003075296    0.003926551    0.000010719
      3        7           0.009947016   -0.008901534    0.000001476
      4        7          -0.009176314    0.007124677   -0.000004686
      5        6           0.001000951   -0.002689047   -0.000001378
      6        6           0.001420237   -0.001126456   -0.000002098
      7        6           0.000469221    0.000166392    0.000006566
      8        6           0.000240660    0.000305633   -0.000000687
      9        6           0.000484182    0.000820822    0.000001456
     10        6          -0.000836303   -0.000249174   -0.000007209
[...]
   Eigenvalues:  -628.7305  -241.1205   196.7348
      5  C    Isotropic =     7.5925   Anisotropy =   193.2641
   XX=   -68.5128   YX=   108.8461   ZX=    -0.0199
   XY=    44.9363   YY=   -45.1448   ZY=     0.0164
   XZ=    -0.0206   YZ=     0.0229   ZZ=   136.4352
   Eigenvalues:  -134.6026    20.9450   136.4352
      6  C    Isotropic =    35.4595   Anisotropy =   237.2233
   XX=   -28.4935   YX=    -8.2879   ZX=    -0.0123
   XY=   -20.4882   YY=   -58.7364   ZY=     0.0134
   XZ=    -0.0152   YZ=     0.0117   ZZ=   193.6083
   Eigenvalues:   -64.4877   -22.7422   193.6083
      7  C    Isotropic =    36.7063   Anisotropy =   205.6713
   XX=   -61.7442   YX=    33.6595   ZX=    -0.0137
   XY=    40.9932   YY=    -1.9573   ZY=     0.0111
   XZ=    -0.0141   YZ=     0.0070   ZZ=   173.8205
   Eigenvalues:   -79.6721    15.9705   173.8205
      8  C    Isotropic =    28.2337   Anisotropy =   226.9298
   XX=   -94.7793   YX=   -30.8289   ZX=    -0.0116
   XY=   -21.8947   YY=    -0.0399   ZY=     0.0072
   XZ=    -0.0119   YZ=     0.0074   ZZ=   179.5202
   Eigenvalues:  -101.6206     6.8014   179.5202
      9  C    Isotropic =    29.0021   Anisotropy =   229.1418
   XX=     6.6332   YX=     4.4027   ZX=    -0.0088
   XY=    -2.0419   YY=  -101.3901   ZY=     0.0117
   XZ=    -0.0098   YZ=     0.0158   ZZ=   181.7633
   Eigenvalues:  -101.4030     6.6461   181.7633
     10  C    Isotropic =    37.0413   Anisotropy =   205.4166
   XX=   -20.4214   YX=    50.8379   ZX=    -0.0134
   XY=    39.3697   YY=   -42.4403   ZY=     0.0102
   XZ=    -0.0163   YZ=     0.0113   ZZ=   173.9857
   Eigenvalues:   -77.8589    14.9972   173.9857
     11  C    Isotropic =    35.7747   Anisotropy =   225.9302
   XX=   -43.4575   YX=   -29.8005   ZX=    -0.0154
   XY=   -18.1406   YY=   -35.6132   ZY=     0.0078
   XZ=    -0.0105   YZ=     0.0010   ZZ=   186.3948
   Eigenvalues:   -63.8247   -15.2460   186.3948
     12  H    Isotropic =    21.2208   Anisotropy =     9.8699
   XX=    20.2554   YX=     3.9932   ZX=    -0.0001
   XY=     3.9802   YY=    25.6943   ZY=    -0.0003
   XZ=    -0.0003   YZ=    -0.0003   ZZ=    17.7127
   Eigenvalues:    17.7127    18.1490    27.8008
     13  H    Isotropic =    22.9571   Anisotropy =     7.1430
   XX=    23.8963   YX=     2.4206   ZX=     0.0001
   XY=     2.5690   YY=    26.0909   ZY=    -0.0003
   XZ=     0.0003   YZ=    -0.0004   ZZ=    18.8841
   Eigenvalues:    18.8841    22.2681    27.7191
     14  H    Isotropic =    22.9003   Anisotropy =     6.9590
   XX=    22.3979   YX=    -2.0069   ZX=     0.0003
   XY=    -1.3121   YY=    27.0041   ZY=    -0.0005
   XZ=     0.0001   YZ=    -0.0005   ZZ=    19.2990
   Eigenvalues:    19.2990    21.8623    27.5397
     15  H    Isotropic =    22.9355   Anisotropy =     7.7044
   XX=    28.0680   YX=     0.5155   ZX=     0.0005
   XY=    -0.1989   YY=    21.4983   ZY=    -0.0002
   XZ=     0.0005   YZ=     0.0001   ZZ=    19.2403
   Eigenvalues:    19.2403    21.4945    28.0718
     16  H    Isotropic =    22.5205   Anisotropy =    13.7344
   XX=    26.7266   YX=     6.4682   ZX=     0.0002
   XY=     5.4579   YY=    24.4936   ZY=    -0.0002
   XZ=     0.0002   YZ=     0.0001   ZZ=    16.3412
   Eigenvalues:    16.3412    19.5434    31.6768
 End of Minotr F.D. properties file   721 does not exist.
 End of Minotr F.D. properties file   722 does not exist.
 End of Minotr F.D. properties file   788 does not exist.
 Leave Link 1002 at Tue Sep 17 10:37:46 2024, MaxMem=  1342177280 cpu:             794.1 elap:             797.8
 (Enter /groups/ReismanLab/Software/Gaussian16_RevC/Linux_Binary_AVX2-enabled-CPU/g16/l601.exe)
 Copying SCF densities to generalized density rwf, IOpCl= 0 IROHF=0.

 **********************************************************************

            Population analysis using the SCF Density.

 **********************************************************************

 Orbital symmetries:
       Occupied  (A) (A) (A) (A) (A) (A) (A) (A) (A) (A) (A) (A)
                 (A) (A) (A) (A) (A) (A) (A) (A) (A) (A) (A) (A)
                 (A) (A) (A) (A) (A) (A) (A) (A) (A) (A) (A) (A)
                 (A) (A) (A) (A) (A) (A) (A) (A) (A) (A) (A) (A)
                 (A) (A) (A)
       Virtual   (A) (A) (A) (A) (A) (A) (A) (A) (A) (A) (A) (A)
                 (A) (A) (A) (A) (A) (A) (A) (A) (A) (A) (A) (A)
                 (A) (A) (A) (A) (A) (A) (A) (A) (A) (A) (A) (A)
                 (A) (A) (A) (A) (A) (A) (A) (A) (A) (A) (A) (A)
                 (A) (A) (A) (A) (A) (A) (A) (A) (A) (A) (A) (A)
                 (A) (A) (A) (A) (A) (A) (A) (A) (A) (A) (A) (A)
                 (A) (A) (A) (A) (A) (A) (A) (A) (A) (A) (A) (A)
                 (A) (A) (A) (A) (A) (A) (A) (A) (A) (A) (A) (A)
                 (A) (A) (A) (A) (A) (A) (A) (A) (A) (A) (A) (A)
                 (A) (A) (A) (A) (A) (A) (A) (A) (A) (A) (A) (A)
                 (A) (A) (A) (A) (A) (A) (A) (A) (A) (A) (A) (A)
                 (A) (A) (A) (A) (A) (A) (A) (A) (A) (A) (A) (A)
                 (A) (A) (A) (A) (A) (A) (A) (A) (A) (A) (A) (A)
                 (A) (A) (A) (A) (A) (A) (A) (A) (A) (A) (A) (A)
                 (A) (A) (A) (A) (A) (A) (A) (A) (A) (A) (A) (A)
                 (A) (A) (A) (A) (A) (A) (A) (A) (A) (A) (A) (A)
                 (A) (A) (A) (A) (A) (A) (A) (A) (A) (A) (A) (A)
                 (A) (A) (A) (A) (A) (A) (A) (A) (A) (A) (A) (A)
                 (A) (A) (A) (A) (A) (A) (A) (A) (A) (A) (A) (A)
                 (A) (A) (A) (A) (A) (A) (A) (A) (A) (A) (A) (A)
                 (A) (A) (A) (A) (A) (A) (A) (A) (A) (A) (A) (A)
                 (A) (A) (A) (A) (A) (A) (A) (A) (A) (A) (A) (A)
                 (A) (A) (A) (A) (A) (A) (A) (A) (A) (A) (A) (A)
                 (A) (A) (A) (A) (A) (A) (A) (A) (A) (A) (A) (A)
                 (A) (A) (A) (A) (A) (A) (A) (A) (A) (A) (A) (A)
                 (A) (A) (A) (A) (A) (A) (A) (A) (A) (A) (A) (A)
                 (A) (A) (A) (A) (A) (A) (A) (A) (A) (A) (A) (A)
                 (A) (A) (A) (A) (A) (A) (A) (A) (A) (A) (A) (A)
                 (A)
 The electronic state is 1-A.
 Alpha  occ. eigenvalues -- -485.38351 -63.36839 -57.18784 -57.18549 -57.18533
 Alpha  occ. eigenvalues --  -14.79631 -14.79578 -10.64901 -10.59728 -10.59065
 Alpha  occ. eigenvalues --  -10.58540 -10.57233 -10.57143 -10.57079 -10.57032
 Alpha  occ. eigenvalues --   -9.03484  -6.85897  -6.85025  -6.84974  -2.89273
 Alpha  occ. eigenvalues --   -2.88966  -2.88912  -2.88102  -2.88101  -1.13754
 Alpha  occ. eigenvalues --   -0.99469  -0.96949  -0.90165  -0.87455  -0.86391
 Alpha  occ. eigenvalues --   -0.75839  -0.74801  -0.70384  -0.63648  -0.61251
 Alpha  occ. eigenvalues --   -0.58803  -0.54017  -0.53202  -0.52858  -0.51200
 Alpha  occ. eigenvalues --   -0.49694  -0.45565  -0.45366  -0.43383  -0.41480
 Alpha  occ. eigenvalues --   -0.38391  -0.35765  -0.35153  -0.34148  -0.32882
 Alpha  occ. eigenvalues --   -0.30913
 Alpha virt. eigenvalues --   -0.04671  -0.03146   0.03100   0.03102   0.08007
 Alpha virt. eigenvalues --    0.09587   0.09832   0.10913   0.12136   0.13275
 Alpha virt. eigenvalues --    0.14749   0.17157   0.17876   0.18574   0.18647
 Alpha virt. eigenvalues --    0.21317   0.21522   0.23235   0.23895   0.25226
 Alpha virt. eigenvalues --    0.25706   0.25995   0.26455   0.26682   0.28534
 Alpha virt. eigenvalues --    0.29801   0.30117   0.30560   0.31007   0.31642
 Alpha virt. eigenvalues --    0.31828   0.33604   0.34050   0.35156   0.35615
 Alpha virt. eigenvalues --    0.35820   0.36449   0.39164   0.40948   0.41578
 Alpha virt. eigenvalues --    0.42137   0.42957   0.43239   0.43469   0.44188
 Alpha virt. eigenvalues --    0.46598   0.46848   0.47246   0.47596   0.48447
 Alpha virt. eigenvalues --    0.49555   0.50527   0.52466   0.54471   0.54731
 Alpha virt. eigenvalues --    0.55289   0.56813   0.57988   0.59122   0.59471
 Alpha virt. eigenvalues --    0.62189   0.62713   0.64927   0.65946   0.66453
 Alpha virt. eigenvalues --    0.68009   0.68940   0.69979   0.71872   0.72508
 Alpha virt. eigenvalues --    0.74013   0.74672   0.75345   0.76309   0.76808
 Alpha virt. eigenvalues --    0.78469   0.78803   0.81927   0.83905   0.84275
 Alpha virt. eigenvalues --    0.85991   0.88368   0.90679   0.91186   0.92503
 Alpha virt. eigenvalues --    0.93407   0.95433   0.98876   1.00598   1.01091
 Alpha virt. eigenvalues --    1.01833   1.02503   1.07773   1.09584   1.09726
 Alpha virt. eigenvalues --    1.14444   1.14633   1.18981   1.19357   1.21504
 Alpha virt. eigenvalues --    1.22216   1.23986   1.24484   1.25577   1.26863
 Alpha virt. eigenvalues --    1.27465   1.28167   1.30252   1.32299   1.36119
 Alpha virt. eigenvalues --    1.38466   1.39593   1.39862   1.41320   1.41388
 Alpha virt. eigenvalues --    1.42011   1.42040   1.44812   1.45277   1.49744
 Alpha virt. eigenvalues --    1.50220   1.51461   1.52256   1.52875   1.54483
 Alpha virt. eigenvalues --    1.56182   1.57415   1.57557   1.58459   1.59326
 Alpha virt. eigenvalues --    1.60649   1.61470   1.61572   1.63171   1.64859
 Alpha virt. eigenvalues --    1.65578   1.66183   1.68259   1.69059   1.69315
 Alpha virt. eigenvalues --    1.72286   1.72632   1.73215   1.74029   1.75651
 Alpha virt. eigenvalues --    1.77372   1.80834   1.81890   1.84778   1.87313
 Alpha virt. eigenvalues --    1.87483   1.89804   1.91323   1.92225   1.95955
 Alpha virt. eigenvalues --    1.98727   2.02804   2.02828   2.04764   2.05277
 Alpha virt. eigenvalues --    2.05853   2.08477   2.10439   2.14293   2.14384
 Alpha virt. eigenvalues --    2.16923   2.19410   2.20955   2.20987   2.23846
 Alpha virt. eigenvalues --    2.25174   2.30181   2.31906   2.33726   2.34621
 Alpha virt. eigenvalues --    2.42107   2.42243   2.45458   2.46807   2.48702
 Alpha virt. eigenvalues --    2.49085   2.49943   2.54106   2.56832   2.59935
 Alpha virt. eigenvalues --    2.60574   2.64004   2.64370   2.65535   2.66784
 Alpha virt. eigenvalues --    2.69084   2.69732   2.70417   2.71756   2.75039
 Alpha virt. eigenvalues --    2.76003   2.76899   2.80326   2.81456   2.81681
 Alpha virt. eigenvalues --    2.82475   2.83589   2.85786   2.88086   2.88335
 Alpha virt. eigenvalues --    2.89888   2.91161   2.91695   2.95333   2.95637
 Alpha virt. eigenvalues --    2.98478   3.00638   3.01799   3.04173   3.05343
 Alpha virt. eigenvalues --    3.06271   3.06690   3.08517   3.11504   3.13089
 Alpha virt. eigenvalues --    3.15398   3.16057   3.17542   3.17638   3.18422
 Alpha virt. eigenvalues --    3.19034   3.20735   3.21336   3.23390   3.26085
 Alpha virt. eigenvalues --    3.28874   3.29856   3.30444   3.31114   3.32701
 Alpha virt. eigenvalues --    3.32767   3.34748   3.37240   3.39007   3.39713
 Alpha virt. eigenvalues --    3.42100   3.42672   3.44457   3.46913   3.50766
 Alpha virt. eigenvalues --    3.51690   3.52966   3.54453   3.56809   3.58790
 Alpha virt. eigenvalues --    3.61177   3.63256   3.64906   3.66472   3.67105
 Alpha virt. eigenvalues --    3.67236   3.74217   3.75080   3.77145   3.83912
 Alpha virt. eigenvalues --    3.84128   3.88038   3.89131   3.90869   3.93585
 Alpha virt. eigenvalues --    3.96235   3.97496   4.00166   4.02401   4.02773
 Alpha virt. eigenvalues --    4.07354   4.07450   4.09794   4.11175   4.13507
 Alpha virt. eigenvalues --    4.15037   4.17153   4.17311   4.18284   4.21493
 Alpha virt. eigenvalues --    4.22377   4.26759   4.27729   4.29774   4.33030
 Alpha virt. eigenvalues --    4.38542   4.42119   4.43802   4.46764   4.50378
 Alpha virt. eigenvalues --    4.51528   4.55505   4.56988   4.61792   4.64324
 Alpha virt. eigenvalues --    4.67908   4.68622   4.70543   4.77331   4.80979
 Alpha virt. eigenvalues --    4.82698   4.86883   4.89503   4.90148   4.93874
 Alpha virt. eigenvalues --    4.97158   5.00782   5.04614   5.04828   5.06687
 Alpha virt. eigenvalues --    5.16476   5.21663   5.27725   5.28414   5.30590
 Alpha virt. eigenvalues --    5.34721   5.41670   5.44045   5.56029   5.58591
 Alpha virt. eigenvalues --    5.58828   5.62334   5.75554   5.90048   6.30407
 Alpha virt. eigenvalues --    6.93281   7.82480  22.29738  22.70730  22.71044
 Alpha virt. eigenvalues --   22.77367  22.95281  23.00662  23.15306  23.58399
 Alpha virt. eigenvalues --   32.26756  32.52139
          Condensed to atoms (all electrons):
               1          2          3          4          5          6
     1  Br  34.893473   0.359508  -0.080893   0.011220  -0.005018   0.022134
     2  C    0.359508   4.807903   0.607040  -0.041433  -0.061487  -0.100345
     3  N   -0.080893   0.607040   6.577901   0.152641  -0.079878  -0.049939
     4  N    0.011220  -0.041433   0.152641   6.599641   0.538814  -0.005933
     5  C   -0.005018  -0.061487  -0.079878   0.538814   4.936770   0.431972
     6  C    0.022134  -0.100345  -0.049939  -0.005933   0.431972   5.110963
     7  C   -0.000649   0.008706   0.001389   0.015442  -0.080326   0.470024
     8  C    0.000092  -0.001931   0.000018  -0.001837   0.005975  -0.057127
     9  C    0.002493  -0.003909  -0.000557   0.000552  -0.000944  -0.013339
    10  C   -0.011196  -0.074519   0.011742  -0.004362   0.018632  -0.099675
    11  C   -0.127186   0.403301  -0.030459  -0.090281  -0.030168   0.279752
    12  H    0.000054   0.000286   0.005548  -0.026941   0.424406  -0.064852
    13  H    0.000012   0.000117   0.000144  -0.000064  -0.003328  -0.037340
    14  H   -0.000002   0.000045  -0.000002   0.000006  -0.000105   0.004717
    15  H   -0.000019   0.000127   0.000006   0.000003   0.000000   0.000002
    16  H    0.014600  -0.007873  -0.000124   0.000024   0.000035   0.010024
               7          8          9         10         11         12
     1  Br  -0.000649   0.000092   0.002493  -0.011196  -0.127186   0.000054
     2  C    0.008706  -0.001931  -0.003909  -0.074519   0.403301   0.000286
     3  N    0.001389   0.000018  -0.000557   0.011742  -0.030459   0.005548
     4  N    0.015442  -0.001837   0.000552  -0.004362  -0.090281  -0.026941
     5  C   -0.080326   0.005975  -0.000944   0.018632  -0.030168   0.424406
     6  C    0.470024  -0.057127  -0.013339  -0.099675   0.279752  -0.064852
     7  C    5.111128   0.497798  -0.032378  -0.077454  -0.109238  -0.001083
     8  C    0.497798   4.917866   0.471408  -0.026098  -0.020991  -0.000328
     9  C   -0.032378   0.471408   4.895038   0.531386  -0.079721   0.000088
    10  C   -0.077454  -0.026098   0.531386   5.109220   0.448930  -0.000312
    11  C   -0.109238  -0.020991  -0.079721   0.448930   5.328086   0.012406
    12  H   -0.001083  -0.000328   0.000088  -0.000312   0.012406   0.483783
    13  H    0.407918  -0.030032   0.003720  -0.001316   0.013176   0.003953
    14  H   -0.032325   0.415173  -0.034315   0.004974  -0.000511  -0.000015
    15  H    0.004266  -0.033473   0.411603  -0.029367   0.004935  -0.000001
    16  H    0.000939   0.000761  -0.008437   0.389655  -0.029304   0.000002
              13         14         15         16
     1  Br   0.000012  -0.000002  -0.000019   0.014600
     2  C    0.000117   0.000045   0.000127  -0.007873
     3  N    0.000144  -0.000002   0.000006  -0.000124
     4  N   -0.000064   0.000006   0.000003   0.000024
     5  C   -0.003328  -0.000105   0.000000   0.000035
     6  C   -0.037340   0.004717   0.000002   0.010024
     7  C    0.407918  -0.032325   0.004266   0.000939
     8  C   -0.030032   0.415173  -0.033473   0.000761
     9  C    0.003720  -0.034315   0.411603  -0.008437
    10  C   -0.001316   0.004974  -0.029367   0.389655
    11  C    0.013176  -0.000511   0.004935  -0.029304
    12  H    0.003953  -0.000015  -0.000001   0.000002
    13  H    0.475789  -0.003528  -0.000187   0.000030
    14  H   -0.003528   0.475121  -0.003045  -0.000169
    15  H   -0.000187  -0.003045   0.473104  -0.002872
    16  H    0.000030  -0.000169  -0.002872   0.455840
 Mulliken charges:
               1
     1  Br  -0.078623
     2  C    0.104461
     3  N   -0.114578
     4  N   -0.147492
     5  C   -0.095350
     6  C    0.098962
     7  C   -0.184158
     8  C   -0.137275
     9  C   -0.142689
    10  C   -0.190240
    11  C    0.027273
    12  H    0.163009
    13  H    0.170934
    14  H    0.173980
    15  H    0.174917
    16  H    0.176868
 Sum of Mulliken charges =  -0.00000
 Mulliken charges with hydrogens summed into heavy atoms:
               1
     1  Br  -0.078623
     2  C    0.104461
     3  N   -0.114578
     4  N   -0.147492
     5  C    0.067659
     6  C    0.098962
     7  C   -0.013224
     8  C    0.036705
     9  C    0.032228
    10  C   -0.013372
    11  C    0.027273
 Electronic spatial extent (au):  <R**2>=           2297.5047
 Charge=              0.0000 electrons
 Dipole moment (field-independent basis, Debye):
    X=             -5.4503    Y=             -4.0604    Z=             -0.0000  Tot=              6.7965
 Quadrupole moment (field-independent basis, Debye-Ang):
   XX=            -63.5194   YY=            -77.9519   ZZ=            -78.2321
   XY=             -3.9051   XZ=              0.0008   YZ=             -0.0001
 Traceless Quadrupole moment (field-independent basis, Debye-Ang):
   XX=              9.7150   YY=             -4.7174   ZZ=             -4.9976
   XY=             -3.9051   XZ=              0.0008   YZ=             -0.0001
 Octapole moment (field-independent basis, Debye-Ang**2):
  XXX=             21.3186  YYY=            -64.2094  ZZZ=              0.0037  XYY=             -2.6983
  XXY=            -11.9778  XXZ=             -0.0024  XZZ=             30.9484  YZZ=             -2.0582
  YYZ=              0.0026  XYZ=              0.0015
 Hexadecapole moment (field-independent basis, Debye-Ang**3):
 XXXX=          -1548.5701 YYYY=          -1031.1146 ZZZZ=            -88.1807 XXXY=            -47.4367
 XXXZ=             -0.0219 YYYX=            -45.9788 YYYZ=              0.0222 ZZZX=             -0.0370
 ZZZY=              0.0213 XXYY=           -396.0543 XXZZ=           -333.8728 YYZZ=           -187.9953
 XXYZ=              0.0028 YYXZ=             -0.0080 ZZXY=            -17.1338
 N-N= 7.956446303729D+02 E-N=-8.713191614059D+03  KE= 2.985949948034D+03
 Calculating spin-rotation constants.
 Leave Link  601 at Tue Sep 17 10:37:50 2024, MaxMem=  1342177280 cpu:               3.5 elap:               3.5
 (Enter /groups/ReismanLab/Software/Gaussian16_RevC/Linux_Binary_AVX2-enabled-CPU/g16/l9999.exe)
 Unable to Open any file for archive entry.
 1\1\GINC-HPC-52-28\SP\RM062X\def2TZVP\C8H5Br1N2\MANTIND\17-Sep-2024\0\
 \#p M062X/def2tzvp geom=check guess=read scf(xqc,tight) integral(grid=
 ultrafine) scrf(SMD, solvent=1,4-Dioxane) nmr=giao\\spe\\0,1\Br,0,2.14
 76047645,-0.468054776,0.0002693498\C,0,0.5064406303,0.5260922127,0.000
 2381961\N,0,0.6434915762,1.819056404,0.000135186\N,0,-0.4700233701,2.6
 178273374,-0.0000035586\C,0,-1.6541690875,2.053990057,-0.0000195983\C,
 0,-1.8824269081,0.649969107,0.0000588989\C,0,-3.1705822479,0.068386427
 1,0.0000227208\C,0,-3.3017485284,-1.3035511322,0.0000805184\C,0,-2.155
 8995301,-2.1317202607,0.0001710216\C,0,-0.8887238025,-1.5873256302,0.0
 002142403\C,0,-0.7331806976,-0.1838237888,0.0001741382\H,0,-2.49880695
 69,2.7401875449,-0.0001212003\H,0,-4.0434675751,0.7139138581,-0.000059
 6395\H,0,-4.2882134122,-1.7558120679,0.0000539443\H,0,-2.2776429916,-3
 .2100405368,0.0002082891\H,0,-0.0063893257,-2.2155350218,0.0002939554\
 \Version=ES64L-G16RevC.02\State=1-A\HF=-2991.5149481\RMSD=2.038e-09\Di
 pole=-2.110271,-1.6421598,-0.000009\Quadrupole=7.3400851,-3.6244807,-3
 .7156044,-2.6754943,0.0006258,-0.0000347\PG=C01 [X(C8H5Br1N2)]\\@
 The archive entry for this job was punched.


 One man practicing sportsmanship is far better than 50 preaching it.
 -- Knute K. Rockne
 Job cpu time:       0 days  0 hours 14 minutes 14.3 seconds.
 Elapsed time:       0 days  0 hours 14 minutes 18.8 seconds.
 File lengths (MBytes):  RWF=    248 Int=      0 D2E=      0 Chk=     24 Scr=     16
 Normal termination of Gaussian 16 at Tue Sep 17 10:37:50 2024.
