 Entering Gaussian System, Link 0=g16
 Input=smiles_00034_conf_3.gjf
 Output=smiles_00034_conf_3.log
 Initial command:
 /groups/ReismanLab/Software/Gaussian16_RevC/Linux_Binary_AVX2-enabled-CPU/g16/l1.exe "/central/groups/ReismanLab/DM/dft_final/smiles_00034/Gau-558751.inp" -scrdir="/central/groups/ReismanLab/DM/dft_final/smiles_00034/"
 Entering Link 1 = /groups/ReismanLab/Software/Gaussian16_RevC/Linux_Binary_AVX2-enabled-CPU/g16/l1.exe PID=    558752.
  
 Copyright (c) 1988-2021, Gaussian, Inc.  All Rights Reserved.
  
 This is part of the Gaussian(R) 16 program.  It is based on
 the Gaussian(R) 09 system (copyright 2009, Gaussian, Inc.),
 the Gaussian(R) 03 system (copyright 2003, Gaussian, Inc.),
 the Gaussian(R) 98 system (copyright 1998, Gaussian, Inc.),
 the Gaussian(R) 94 system (copyright 1995, Gaussian, Inc.),
 the Gaussian 92(TM) system (copyright 1992, Gaussian, Inc.),
 the Gaussian 90(TM) system (copyright 1990, Gaussian, Inc.),
 the Gaussian 88(TM) system (copyright 1988, Gaussian, Inc.),
 the Gaussian 86(TM) system (copyright 1986, Carnegie Mellon
 University), and the Gaussian 82(TM) system (copyright 1983,
 Carnegie Mellon University). Gaussian is a federally registered
 trademark of Gaussian, Inc.
  
 This software contains proprietary and confidential information,
 including trade secrets, belonging to Gaussian, Inc.
  
 This software is provided under written license and may be
 used, copied, transmitted, or stored only in accord with that
 written license.
  
 The following legend is applicable only to US Government
 contracts under FAR:
  
                    RESTRICTED RIGHTS LEGEND
  
 Use, reproduction and disclosure by the US Government is
 subject to restrictions as set forth in subparagraphs (a)
 and (c) of the Commercial Computer Software - Restricted
 Rights clause in FAR 52.227-19.
  
 Gaussian, Inc.
 340 Quinnipiac St., Bldg. 40, Wallingford CT 06492
  
  
 ---------------------------------------------------------------
 Warning -- This program may not be used in any manner that
 competes with the business of Gaussian, Inc. or will provide
 assistance to any competitor of Gaussian, Inc.  The licensee
 of this program is prohibited from giving any competitor of
 Gaussian, Inc. access to this program.  By using this program,
 the user acknowledges that Gaussian, Inc. is engaged in the
 business of creating and licensing software in the field of
 computational chemistry and represents and warrants to the
 licensee that it is not a competitor of Gaussian, Inc. and that
 it will not use this program in any manner prohibited above.
 ---------------------------------------------------------------
  

 Cite this work as:
 Gaussian 16, Revision C.02,
 M. J. Frisch, G. W. Trucks, H. B. Schlegel, G. E. Scuseria, 
 M. A. Robb, J. R. Cheeseman, G. Scalmani, V. Barone, 
 G. A. Petersson, H. Nakatsuji, X. Li, M. Caricato, A. V. Marenich, 
 J. Bloino, B. G. Janesko, R. Gomperts, B. Mennucci, H. P. Hratchian, 
 J. V. Ortiz, A. F. Izmaylov, J. L. Sonnenberg, D. Williams-Young, 
 F. Ding, F. Lipparini, F. Egidi, J. Goings, B. Peng, A. Petrone, 
 T. Henderson, D. Ranasinghe, V. G. Zakrzewski, J. Gao, N. Rega, 
 G. Zheng, W. Liang, M. Hada, M. Ehara, K. Toyota, R. Fukuda, 
 J. Hasegawa, M. Ishida, T. Nakajima, Y. Honda, O. Kitao, H. Nakai, 
 T. Vreven, K. Throssell, J. A. Montgomery, Jr., J. E. Peralta, 
 F. Ogliaro, M. J. Bearpark, J. J. Heyd, E. N. Brothers, K. N. Kudin, 
 V. N. Staroverov, T. A. Keith, R. Kobayashi, J. Normand, 
 K. Raghavachari, A. P. Rendell, J. C. Burant, S. S. Iyengar, 
 J. Tomasi, M. Cossi, J. M. Millam, M. Klene, C. Adamo, R. Cammi, 
 J. W. Ochterski, R. L. Martin, K. Morokuma, O. Farkas, 
 J. B. Foresman, and D. J. Fox, Gaussian, Inc., Wallingford CT, 2019.
 
 ******************************************
 Gaussian 16:  ES64L-G16RevC.02  7-Dec-2021
                17-Sep-2024 
 ******************************************
 %nprocshared=8
 Will use up to    8 processors via shared memory.
 %Mem=10GB
 %Chk=smiles_00034_conf_3.chk
 ----------------------------------------------------------------------
 #p B3LYP/6-31G(d,p) EmpiricalDispersion=GD3BJ opt freq scf(xqc,tight) 
 integral(grid=ultrafine)
 ----------------------------------------------------------------------
 1/18=20,19=15,26=4,38=1/1,3;
 2/9=110,12=2,17=6,18=5,40=1/2;
 3/5=1,6=6,7=101,11=2,25=1,30=1,71=1,74=-5,75=-5,124=41/1,2,3;
 4//1;
 5/5=2,8=3,13=1,32=2,38=5/2,8;
 6/7=2,8=2,9=2,10=2,28=1/1;
 7//1,2,3,16;
 1/18=20,19=15,26=4/3(2);
 2/9=110/2;
 99//99;
 2/9=110/2;
 3/5=1,6=6,7=101,11=2,25=1,30=1,71=1,74=-5,75=-5,124=41/1,2,3;
 4/5=5,16=3,69=1/1;
 5/5=2,8=3,13=1,32=2,38=5/2,8;
 7//1,2,3,16;
 1/18=20,19=15,26=4/3(-5);
 2/9=110/2;
 6/7=2,8=2,9=2,10=2,19=2,28=1/1;
 99/9=1/99;
 Leave Link    1 at Tue Sep 17 09:49:17 2024, MaxMem=  1342177280 cpu:               0.1 elap:               0.9
 (Enter /groups/ReismanLab/Software/Gaussian16_RevC/Linux_Binary_AVX2-enabled-CPU/g16/l101.exe)
 ----------------------------------
 opt-freq conformers_unique/conf_ad
 ----------------------------------
 Symbolic Z-matrix:
 Charge =  0 Multiplicity = 1
 C                     2.18586   1.72383   1.92454 
 C                     2.8247    1.33045   0.59667 
 O                     3.07192  -0.06705   0.49318 
 C                     2.11694  -0.80893  -0.23033 
 O                     1.99546  -0.36512  -1.54954 
 C                     3.14827  -0.56219  -2.35635 
 C                     3.22248  -1.96692  -2.94576 
 C                     0.75186  -0.78808   0.42565 
 C                     0.57783  -1.43334   1.64462 
 C                    -0.64734  -1.39346   2.2853 
 C                    -1.71285  -0.71433   1.71797 
 C                    -1.52657  -0.07995   0.5028 
 Br                   -2.98199   0.86     -0.28962 
 C                    -0.30776  -0.10543  -0.15159 
 H                     1.1765    1.32957   2.0078 
 H                     2.77959   1.33459   2.74753 
 H                     2.14675   2.80754   1.99785 
 H                     2.20274   1.65638  -0.24397 
 H                     3.80728   1.8055    0.50897 
 H                     2.51696  -1.8364   -0.19049 
 H                     3.05743   0.17529  -3.15817 
 H                     4.04852  -0.34158  -1.77059 
 H                     3.34538  -2.71287  -2.16414 
 H                     2.31105  -2.18675  -3.49591 
 H                     4.07031  -2.03111  -3.622 
 H                     1.41146  -1.95455   2.0901 
 H                    -0.77922  -1.89348   3.23272 
 H                    -2.67215  -0.67851   2.21084 
 H                    -0.17379   0.38871  -1.10021 
 
 ITRead=  0  0  0  0  0  0  0  0  0  0  0  0  0  0  0  0  0  0  0  0
 ITRead=  0  0  0  0  0  0  0  0  0
 MicOpt= -1 -1 -1 -1 -1 -1 -1 -1 -1 -1 -1 -1 -1 -1 -1 -1 -1 -1 -1 -1
 MicOpt= -1 -1 -1 -1 -1 -1 -1 -1 -1
 NAtoms=     29 NQM=       29 NQMF=       0 NMMI=      0 NMMIF=      0
                NMic=       0 NMicF=      0.
                    Isotopes and Nuclear Properties:
 (Nuclear quadrupole moments (NQMom) in fm**2, nuclear magnetic moments (NMagM)
  in nuclear magnetons)

  Atom         1           2           3           4           5           6           7           8           9          10
 IAtWgt=          12          12          16          12          16          12          12          12          12          12
 AtmWgt=  12.0000000  12.0000000  15.9949146  12.0000000  15.9949146  12.0000000  12.0000000  12.0000000  12.0000000  12.0000000
 NucSpn=           0           0           0           0           0           0           0           0           0           0
 AtZEff=  -0.0000000  -0.0000000  -0.0000000  -0.0000000  -0.0000000  -0.0000000  -0.0000000  -0.0000000  -0.0000000  -0.0000000
 NQMom=    0.0000000   0.0000000   0.0000000   0.0000000   0.0000000   0.0000000   0.0000000   0.0000000   0.0000000   0.0000000
 NMagM=    0.0000000   0.0000000   0.0000000   0.0000000   0.0000000   0.0000000   0.0000000   0.0000000   0.0000000   0.0000000
 AtZNuc=   6.0000000   6.0000000   8.0000000   6.0000000   8.0000000   6.0000000   6.0000000   6.0000000   6.0000000   6.0000000

  Atom        11          12          13          14          15          16          17          18          19          20
 IAtWgt=          12          12          79          12           1           1           1           1           1           1
 AtmWgt=  12.0000000  12.0000000  78.9183361  12.0000000   1.0078250   1.0078250   1.0078250   1.0078250   1.0078250   1.0078250
 NucSpn=           0           0           3           0           1           1           1           1           1           1
 AtZEff=  -0.0000000  -0.0000000  -0.0000000  -0.0000000  -0.0000000  -0.0000000  -0.0000000  -0.0000000  -0.0000000  -0.0000000
 NQMom=    0.0000000   0.0000000  31.3000000   0.0000000   0.0000000   0.0000000   0.0000000   0.0000000   0.0000000   0.0000000
 NMagM=    0.0000000   0.0000000   2.1063990   0.0000000   2.7928460   2.7928460   2.7928460   2.7928460   2.7928460   2.7928460
 AtZNuc=   6.0000000   6.0000000  35.0000000   6.0000000   1.0000000   1.0000000   1.0000000   1.0000000   1.0000000   1.0000000

  Atom        21          22          23          24          25          26          27          28          29
 IAtWgt=           1           1           1           1           1           1           1           1           1
 AtmWgt=   1.0078250   1.0078250   1.0078250   1.0078250   1.0078250   1.0078250   1.0078250   1.0078250   1.0078250
 NucSpn=           1           1           1           1           1           1           1           1           1
 AtZEff=  -0.0000000  -0.0000000  -0.0000000  -0.0000000  -0.0000000  -0.0000000  -0.0000000  -0.0000000  -0.0000000
 NQMom=    0.0000000   0.0000000   0.0000000   0.0000000   0.0000000   0.0000000   0.0000000   0.0000000   0.0000000
 NMagM=    2.7928460   2.7928460   2.7928460   2.7928460   2.7928460   2.7928460   2.7928460   2.7928460   2.7928460
 AtZNuc=   1.0000000   1.0000000   1.0000000   1.0000000   1.0000000   1.0000000   1.0000000   1.0000000   1.0000000
 Leave Link  101 at Tue Sep 17 09:49:17 2024, MaxMem=  1342177280 cpu:               0.2 elap:               0.2
 (Enter /groups/ReismanLab/Software/Gaussian16_RevC/Linux_Binary_AVX2-enabled-CPU/g16/l103.exe)

 GradGradGradGradGradGradGradGradGradGradGradGradGradGradGradGradGradGrad
 Berny optimization.
 Initialization pass.
                           ----------------------------
                           !    Initial Parameters    !
                           ! (Angstroms and Degrees)  !
 --------------------------                            --------------------------
 ! Name  Definition              Value          Derivative Info.                !
 --------------------------------------------------------------------------------
 ! R1    R(1,2)                  1.5252         estimate D2E/DX2                !
 ! R2    R(1,15)                 1.0868         estimate D2E/DX2                !
 ! R3    R(1,16)                 1.0869         estimate D2E/DX2                !
 ! R4    R(1,17)                 1.0869         estimate D2E/DX2                !
 ! R5    R(2,3)                  1.423          estimate D2E/DX2                !
 ! R6    R(2,18)                 1.0953         estimate D2E/DX2                !
 ! R7    R(2,19)                 1.0949         estimate D2E/DX2                !
 ! R8    R(3,4)                  1.4092         estimate D2E/DX2                !
 ! R9    R(4,5)                  1.3972         estimate D2E/DX2                !
 ! R10   R(4,8)                  1.5147         estimate D2E/DX2                !
 ! R11   R(4,20)                 1.1033         estimate D2E/DX2                !
 ! R12   R(5,6)                  1.4208         estimate D2E/DX2                !
 ! R13   R(6,7)                  1.5252         estimate D2E/DX2                !
 ! R14   R(6,21)                 1.0932         estimate D2E/DX2                !
 ! R15   R(6,22)                 1.0965         estimate D2E/DX2                !
 ! R16   R(7,23)                 1.0874         estimate D2E/DX2                !
 ! R17   R(7,24)                 1.0871         estimate D2E/DX2                !
 ! R18   R(7,25)                 1.0864         estimate D2E/DX2                !
 ! R19   R(8,9)                  1.3902         estimate D2E/DX2                !
 ! R20   R(8,14)                 1.3864         estimate D2E/DX2                !
 ! R21   R(9,10)                 1.3831         estimate D2E/DX2                !
 ! R22   R(9,26)                 1.0794         estimate D2E/DX2                !
 ! R23   R(10,11)                1.3851         estimate D2E/DX2                !
 ! R24   R(10,27)                1.0794         estimate D2E/DX2                !
 ! R25   R(11,12)                1.3834         estimate D2E/DX2                !
 ! R26   R(11,28)                1.0791         estimate D2E/DX2                !
 ! R27   R(12,13)                1.9052         estimate D2E/DX2                !
 ! R28   R(12,14)                1.3836         estimate D2E/DX2                !
 ! R29   R(14,29)                1.078          estimate D2E/DX2                !
 ! A1    A(2,1,15)             111.2323         estimate D2E/DX2                !
 ! A2    A(2,1,16)             109.7589         estimate D2E/DX2                !
 ! A3    A(2,1,17)             109.3282         estimate D2E/DX2                !
 ! A4    A(15,1,16)            108.6268         estimate D2E/DX2                !
 ! A5    A(15,1,17)            108.8516         estimate D2E/DX2                !
 ! A6    A(16,1,17)            109.005          estimate D2E/DX2                !
 ! A7    A(1,2,3)              112.9176         estimate D2E/DX2                !
 ! A8    A(1,2,18)             110.7074         estimate D2E/DX2                !
 ! A9    A(1,2,19)             109.4953         estimate D2E/DX2                !
 ! A10   A(3,2,18)             109.5769         estimate D2E/DX2                !
 ! A11   A(3,2,19)             105.3297         estimate D2E/DX2                !
 ! A12   A(18,2,19)            108.6023         estimate D2E/DX2                !
 ! A13   A(2,3,4)              115.8893         estimate D2E/DX2                !
 ! A14   A(3,4,5)              112.1157         estimate D2E/DX2                !
 ! A15   A(3,4,8)              112.4048         estimate D2E/DX2                !
 ! A16   A(3,4,20)             103.0631         estimate D2E/DX2                !
 ! A17   A(5,4,8)              109.0377         estimate D2E/DX2                !
 ! A18   A(5,4,20)             111.1886         estimate D2E/DX2                !
 ! A19   A(8,4,20)             108.9012         estimate D2E/DX2                !
 ! A20   A(4,5,6)              114.933          estimate D2E/DX2                !
 ! A21   A(5,6,7)              112.7476         estimate D2E/DX2                !
 ! A22   A(5,6,21)             104.8037         estimate D2E/DX2                !
 ! A23   A(5,6,22)             109.5664         estimate D2E/DX2                !
 ! A24   A(7,6,21)             109.9951         estimate D2E/DX2                !
 ! A25   A(7,6,22)             110.5983         estimate D2E/DX2                !
 ! A26   A(21,6,22)            108.9249         estimate D2E/DX2                !
 ! A27   A(6,7,23)             111.0713         estimate D2E/DX2                !
 ! A28   A(6,7,24)             109.9397         estimate D2E/DX2                !
 ! A29   A(6,7,25)             109.4475         estimate D2E/DX2                !
 ! A30   A(23,7,24)            108.6521         estimate D2E/DX2                !
 ! A31   A(23,7,25)            108.5835         estimate D2E/DX2                !
 ! A32   A(24,7,25)            109.1081         estimate D2E/DX2                !
 ! A33   A(4,8,9)              119.0905         estimate D2E/DX2                !
 ! A34   A(4,8,14)             121.017          estimate D2E/DX2                !
 ! A35   A(9,8,14)             119.8657         estimate D2E/DX2                !
 ! A36   A(8,9,10)             120.2427         estimate D2E/DX2                !
 ! A37   A(8,9,26)             119.2978         estimate D2E/DX2                !
 ! A38   A(10,9,26)            120.4553         estimate D2E/DX2                !
 ! A39   A(9,10,11)            120.3868         estimate D2E/DX2                !
 ! A40   A(9,10,27)            120.0964         estimate D2E/DX2                !
 ! A41   A(11,10,27)           119.5168         estimate D2E/DX2                !
 ! A42   A(10,11,12)           118.7541         estimate D2E/DX2                !
 ! A43   A(10,11,28)           120.8691         estimate D2E/DX2                !
 ! A44   A(12,11,28)           120.3767         estimate D2E/DX2                !
 ! A45   A(11,12,13)           119.2571         estimate D2E/DX2                !
 ! A46   A(11,12,14)           121.7099         estimate D2E/DX2                !
 ! A47   A(13,12,14)           119.0326         estimate D2E/DX2                !
 ! A48   A(8,14,12)            119.0402         estimate D2E/DX2                !
 ! A49   A(8,14,29)            119.8105         estimate D2E/DX2                !
 ! A50   A(12,14,29)           121.1479         estimate D2E/DX2                !
 ! D1    D(15,1,2,3)           -67.3681         estimate D2E/DX2                !
 ! D2    D(15,1,2,18)           55.9117         estimate D2E/DX2                !
 ! D3    D(15,1,2,19)          175.6209         estimate D2E/DX2                !
 ! D4    D(16,1,2,3)            52.8745         estimate D2E/DX2                !
 ! D5    D(16,1,2,18)          176.1544         estimate D2E/DX2                !
 ! D6    D(16,1,2,19)          -64.1365         estimate D2E/DX2                !
 ! D7    D(17,1,2,3)           172.3916         estimate D2E/DX2                !
 ! D8    D(17,1,2,18)          -64.3285         estimate D2E/DX2                !
 ! D9    D(17,1,2,19)           55.3806         estimate D2E/DX2                !
 ! D10   D(1,2,3,4)             98.9498         estimate D2E/DX2                !
 ! D11   D(18,2,3,4)           -24.9543         estimate D2E/DX2                !
 ! D12   D(19,2,3,4)          -141.6049         estimate D2E/DX2                !
 ! D13   D(2,3,4,5)             59.5176         estimate D2E/DX2                !
 ! D14   D(2,3,4,8)            -63.7383         estimate D2E/DX2                !
 ! D15   D(2,3,4,20)           179.1741         estimate D2E/DX2                !
 ! D16   D(3,4,5,6)             65.829          estimate D2E/DX2                !
 ! D17   D(8,4,5,6)           -169.04           estimate D2E/DX2                !
 ! D18   D(20,4,5,6)           -48.9547         estimate D2E/DX2                !
 ! D19   D(3,4,8,9)            -67.7188         estimate D2E/DX2                !
 ! D20   D(3,4,8,14)           110.3942         estimate D2E/DX2                !
 ! D21   D(5,4,8,9)            167.3189         estimate D2E/DX2                !
 ! D22   D(5,4,8,14)           -14.5681         estimate D2E/DX2                !
 ! D23   D(20,4,8,9)            45.8327         estimate D2E/DX2                !
 ! D24   D(20,4,8,14)         -136.0543         estimate D2E/DX2                !
 ! D25   D(4,5,6,7)             83.4831         estimate D2E/DX2                !
 ! D26   D(4,5,6,21)          -156.892          estimate D2E/DX2                !
 ! D27   D(4,5,6,22)           -40.1512         estimate D2E/DX2                !
 ! D28   D(5,6,7,23)           -65.2461         estimate D2E/DX2                !
 ! D29   D(5,6,7,24)            55.0435         estimate D2E/DX2                !
 ! D30   D(5,6,7,25)           174.871          estimate D2E/DX2                !
 ! D31   D(21,6,7,23)          178.177          estimate D2E/DX2                !
 ! D32   D(21,6,7,24)          -61.5333         estimate D2E/DX2                !
 ! D33   D(21,6,7,25)           58.2942         estimate D2E/DX2                !
 ! D34   D(22,6,7,23)           57.8149         estimate D2E/DX2                !
 ! D35   D(22,6,7,24)          178.1046         estimate D2E/DX2                !
 ! D36   D(22,6,7,25)          -62.0679         estimate D2E/DX2                !
 ! D37   D(4,8,9,10)           177.9475         estimate D2E/DX2                !
 ! D38   D(4,8,9,26)            -1.3144         estimate D2E/DX2                !
 ! D39   D(14,8,9,10)           -0.1877         estimate D2E/DX2                !
 ! D40   D(14,8,9,26)         -179.4495         estimate D2E/DX2                !
 ! D41   D(4,8,14,12)         -178.0867         estimate D2E/DX2                !
 ! D42   D(4,8,14,29)            2.3349         estimate D2E/DX2                !
 ! D43   D(9,8,14,12)            0.0118         estimate D2E/DX2                !
 ! D44   D(9,8,14,29)         -179.5666         estimate D2E/DX2                !
 ! D45   D(8,9,10,11)            0.1796         estimate D2E/DX2                !
 ! D46   D(8,9,10,27)         -179.8664         estimate D2E/DX2                !
 ! D47   D(26,9,10,11)         179.4328         estimate D2E/DX2                !
 ! D48   D(26,9,10,27)          -0.6131         estimate D2E/DX2                !
 ! D49   D(9,10,11,12)           0.0048         estimate D2E/DX2                !
 ! D50   D(9,10,11,28)         179.9772         estimate D2E/DX2                !
 ! D51   D(27,10,11,12)       -179.9495         estimate D2E/DX2                !
 ! D52   D(27,10,11,28)          0.023          estimate D2E/DX2                !
 ! D53   D(10,11,12,13)       -179.9342         estimate D2E/DX2                !
 ! D54   D(10,11,12,14)         -0.1848         estimate D2E/DX2                !
 ! D55   D(28,11,12,13)          0.0932         estimate D2E/DX2                !
 ! D56   D(28,11,12,14)        179.8426         estimate D2E/DX2                !
 ! D57   D(11,12,14,8)           0.1764         estimate D2E/DX2                !
 ! D58   D(11,12,14,29)        179.749          estimate D2E/DX2                !
 ! D59   D(13,12,14,8)         179.9264         estimate D2E/DX2                !
 ! D60   D(13,12,14,29)         -0.5011         estimate D2E/DX2                !
 --------------------------------------------------------------------------------
 Trust Radius=3.00D-01 FncErr=1.00D-07 GrdErr=1.00D-06 EigMax=2.50D+02 EigMin=1.00D-04
 Number of steps in this run=    149 maximum allowed number of steps=    174.
 GradGradGradGradGradGradGradGradGradGradGradGradGradGradGradGradGradGrad

 Leave Link  103 at Tue Sep 17 09:49:17 2024, MaxMem=  1342177280 cpu:               0.0 elap:               0.0
 (Enter /groups/ReismanLab/Software/Gaussian16_RevC/Linux_Binary_AVX2-enabled-CPU/g16/l202.exe)
                          Input orientation:                          
 ---------------------------------------------------------------------
 Center     Atomic      Atomic             Coordinates (Angstroms)
 Number     Number       Type             X           Y           Z
 ---------------------------------------------------------------------
      1          6           0        2.185860    1.723835    1.924537
      2          6           0        2.824704    1.330451    0.596673
      3          8           0        3.071924   -0.067053    0.493184
      4          6           0        2.116943   -0.808927   -0.230333
      5          8           0        1.995458   -0.365117   -1.549542
      6          6           0        3.148267   -0.562192   -2.356354
      7          6           0        3.222478   -1.966925   -2.945759
      8          6           0        0.751860   -0.788076    0.425649
      9          6           0        0.577832   -1.433342    1.644620
     10          6           0       -0.647335   -1.393456    2.285297
     11          6           0       -1.712852   -0.714328    1.717970
     12          6           0       -1.526572   -0.079950    0.502804
     13         35           0       -2.981991    0.860003   -0.289616
     14          6           0       -0.307762   -0.105431   -0.151587
     15          1           0        1.176502    1.329571    2.007802
     16          1           0        2.779594    1.334595    2.747535
     17          1           0        2.146750    2.807537    1.997855
     18          1           0        2.202736    1.656378   -0.243965
     19          1           0        3.807283    1.805505    0.508967
     20          1           0        2.516962   -1.836400   -0.190492
     21          1           0        3.057433    0.175294   -3.158172
     22          1           0        4.048519   -0.341582   -1.770587
     23          1           0        3.345380   -2.712869   -2.164139
     24          1           0        2.311047   -2.186746   -3.495915
     25          1           0        4.070308   -2.031115   -3.621997
     26          1           0        1.411460   -1.954552    2.090098
     27          1           0       -0.779225   -1.893483    3.232715
     28          1           0       -2.672155   -0.678508    2.210841
     29          1           0       -0.173788    0.388714   -1.100213
 ---------------------------------------------------------------------
                    Distance matrix (angstroms):
                    1          2          3          4          5
     1  C    0.000000
     2  C    1.525155   0.000000
     3  O    2.457877   1.422970   0.000000
     4  C    3.326124   2.400376   1.409199   0.000000
     5  O    4.058227   2.858118   2.328165   1.397154   0.000000
     6  C    4.947543   3.522380   2.893243   2.375810   1.420828
     7  C    6.198070   4.855897   3.931731   3.152253   2.453729
     8  C    3.257717   2.968853   2.430459   1.514661   2.372090
     9  C    3.554135   3.712840   3.068069   2.504837   3.654236
    10  C    4.227841   4.725058   4.336347   3.783028   4.769468
    11  C    4.602962   5.101749   4.981279   4.297925   4.954810
    12  C    4.365445   4.575111   4.598524   3.787360   4.086335
    13  Br   5.688177   5.892753   6.174309   5.365442   5.278572
    14  C    3.724870   3.526187   3.440855   2.525926   2.706758
    15  H    1.086822   2.169760   2.799509   3.235252   4.024594
    16  H    1.086900   2.151339   2.670613   3.728470   4.687084
    17  H    1.086884   2.145861   3.373908   4.247885   4.761581
    18  H    2.169617   1.095329   2.066178   2.466836   2.415355
    19  H    2.153955   1.094911   2.011834   3.199855   3.497395
    20  H    4.154305   3.277694   1.976356   1.103314   2.069699
    21  H    5.384381   3.935405   3.659418   3.228847   2.001881
    22  H    4.624866   3.146003   2.480677   2.514315   2.065060
    23  H    6.143785   4.923577   3.759851   2.978868   2.777041
    24  H    6.685029   5.420681   4.580932   3.549659   2.684454
    25  H    6.958077   5.536138   4.667871   4.100337   3.372776
    26  H    3.762663   3.875412   2.978242   2.682268   4.014267
    27  H    4.856753   5.507338   5.066777   4.642925   5.736266
    28  H    5.427110   6.070989   6.026497   5.376969   6.002108
    29  H    4.061970   3.571728   3.644349   2.727358   2.340039
                    6          7          8          9         10
     6  C    0.000000
     7  C    1.525182   0.000000
     8  C    3.678768   4.342813   0.000000
     9  C    4.834649   5.324513   1.390160   0.000000
    10  C    6.053306   6.532095   2.404687   1.383146   0.000000
    11  C    6.344583   6.904842   2.783943   2.401998   1.385063
    12  C    5.501041   6.164960   2.387184   2.750260   2.382359
    13  Br   6.623753   7.317243   4.143599   4.655431   4.142327
    14  C    4.124774   4.871873   1.386364   2.402912   2.777179
    15  H    5.149027   6.292111   2.677304   2.850263   3.289112
    16  H    5.457417   6.596193   3.742805   3.704814   4.404516
    17  H    5.596182   6.956436   4.164851   4.535564   5.053502
    18  H    3.205974   4.633345   2.920408   3.969060   4.880733
    19  H    3.774964   5.148626   4.008643   4.712663   5.764748
    20  H    2.590967   2.847154   2.143408   2.700058   4.042092
    21  H    1.093183   2.159041   4.368927   5.639410   6.768873
    22  H    1.096470   2.169127   3.986323   4.990115   6.293463
    23  H    2.168227   1.087413   4.139827   4.878847   6.122099
    24  H    2.153766   1.087059   4.445897   5.476929   6.542457
    25  H    2.147032   1.086386   5.379655   6.347596   7.586757
    26  H    4.972535   5.351616   2.136850   1.079372   2.142794
    27  H    6.959542   7.361559   3.383159   2.139014   1.079363
    28  H    7.399331   7.937079   3.863003   3.384198   2.148625
    29  H    3.676705   4.526554   2.137736   3.379191   3.855133
                   11         12         13         14         15
    11  C    0.000000
    12  C    1.383388   0.000000
    13  Br   2.849497   1.905174   0.000000
    14  C    2.416667   1.383609   2.846509   0.000000
    15  H    3.551040   3.399760   4.774063   2.987513   0.000000
    16  H    5.043823   5.057945   6.530342   4.473293   1.765541
    17  H    5.232437   4.905716   5.943853   4.373799   1.768012
    18  H    4.980087   4.180937   5.245730   3.068405   2.496080
    19  H    6.187337   5.657295   6.901155   4.584932   3.064968
    20  H    4.774159   4.462727   6.125267   3.313130   4.080772
    21  H    6.879230   5.872052   6.721018   4.521382   5.617610
    22  H    6.745544   6.026474   7.284582   4.653398   5.031645
    23  H    6.682113   6.146605   7.504323   4.918794   6.200842
    24  H    6.748657   5.929221   6.897774   4.730175   6.628919
    25  H    7.980859   7.221225   8.318548   5.909272   7.166796
    26  H    3.382005   3.829577   5.734733   3.376407   3.293545
    27  H    2.134600   3.361524   4.984043   3.856541   3.964008
    28  H    1.079105   2.141966   2.952168   3.391140   4.345775
    29  H    3.395229   2.149264   2.960606   1.077970   3.516852
                   16         17         18         19         20
    16  H    0.000000
    17  H    1.769766   0.000000
    18  H    3.063557   2.520726   0.000000
    19  H    2.507805   2.445041   1.778684   0.000000
    20  H    4.330841   5.147045   3.507292   3.926530   0.000000
    21  H    6.024828   5.860262   3.378864   4.082618   3.625761
    22  H    4.983288   5.266387   3.119187   3.140787   2.660234
    23  H    6.389570   7.016679   4.907445   5.270156   2.312953
    24  H    7.183316   7.426396   5.035524   5.849433   3.330309
    25  H    7.318803   7.661290   5.338214   5.643908   3.771740
    26  H    3.622498   4.819404   4.371817   4.730536   2.537161
    27  H    4.829190   5.673253   5.794904   6.491330   4.752521
    28  H    5.836281   5.951447   5.936525   7.144915   5.833870
    29  H    4.941894   4.564387   2.826304   4.521690   3.608165
                   21         22         23         24         25
    21  H    0.000000
    22  H    1.781798   0.000000
    23  H    3.067979   2.504454   0.000000
    24  H    2.500079   3.065973   1.766430   0.000000
    25  H    2.471697   2.506535   1.765124   1.770626   0.000000
    26  H    5.898289   4.945770   4.734303   5.662747   6.301061
    27  H    7.735840   7.123801   6.841768   7.410145   8.397856
    28  H    7.898320   7.818743   7.712962   7.724904   9.017336
    29  H    3.836865   4.337119   4.810020   4.306598   5.497937
                   26         27         28         29
    26  H    0.000000
    27  H    2.471518   0.000000
    28  H    4.280044   2.470542   0.000000
    29  H    4.264034   4.934496   4.282975   0.000000
 Stoichiometry    C11H15BrO2
 Framework group  C1[X(C11H15BrO2)]
 Deg. of freedom    81
 Full point group                 C1      NOp   1
 Largest Abelian subgroup         C1      NOp   1
 Largest concise Abelian subgroup C1      NOp   1
                         Standard orientation:                         
 ---------------------------------------------------------------------
 Center     Atomic      Atomic             Coordinates (Angstroms)
 Number     Number       Type             X           Y           Z
 ---------------------------------------------------------------------
      1          6           0        1.183636    2.571292   -1.631301
      2          6           0        2.145094    1.388496   -1.579455
      3          8           0        2.644794    1.137540   -0.270958
      4          6           0        2.005101    0.105722    0.444575
      5          8           0        2.089164   -1.122676   -0.215736
      6          6           0        3.402092   -1.654272   -0.326987
      7          6           0        3.838625   -2.413673    0.921583
      8          6           0        0.549825    0.415858    0.727747
      9          6           0        0.237003    1.447890    1.605013
     10          6           0       -1.083662    1.779272    1.848169
     11          6           0       -2.106611    1.084845    1.223872
     12          6           0       -1.780925    0.057726    0.356279
     13         35           0       -3.176639   -0.905753   -0.511695
     14          6           0       -0.465972   -0.286159    0.097405
     15          1           0        0.262375    2.353344   -1.097487
     16          1           0        1.648997    3.443192   -1.178993
     17          1           0        0.944469    2.795316   -2.667606
     18          1           0        1.667139    0.483470   -1.969626
     19          1           0        3.027639    1.607993   -2.189180
     20          1           0        2.558197    0.084098    1.398996
     21          1           0        3.356498   -2.334609   -1.181453
     22          1           0        4.107580   -0.845976   -0.553239
     23          1           0        3.920781   -1.746416    1.776268
     24          1           0        3.114760   -3.190308    1.155154
     25          1           0        4.807761   -2.872050    0.745794
     26          1           0        1.035248    1.994264    2.083891
     27          1           0       -1.323809    2.582417    2.528103
     28          1           0       -3.139632    1.336579    1.408167
     29          1           0       -0.222554   -1.090855   -0.577305
 ---------------------------------------------------------------------
 Rotational constants (GHZ):           0.7280870           0.2709087           0.2419281
 Leave Link  202 at Tue Sep 17 09:49:17 2024, MaxMem=  1342177280 cpu:               0.0 elap:               0.0
 (Enter /groups/ReismanLab/Software/Gaussian16_RevC/Linux_Binary_AVX2-enabled-CPU/g16/l301.exe)
 Standard basis: 6-31G(d,p) (6D, 7F)
 Ernie: Thresh=  0.10000D-02 Tol=  0.10000D-05 Strict=F.
 There are   300 symmetry adapted cartesian basis functions of A   symmetry.
 There are   300 symmetry adapted basis functions of A   symmetry.
   300 basis functions,   552 primitive gaussians,   300 cartesian basis functions
    66 alpha electrons       66 beta electrons
       nuclear repulsion energy      1219.5516090961 Hartrees.
 IExCor=  402 DFT=T Ex+Corr=B3LYP ExCW=0 ScaHFX=  0.200000
 ScaDFX=  0.800000  0.720000  1.000000  0.810000 ScalE2=  1.000000  1.000000
 IRadAn=      5 IRanWt=     -1 IRanGd=            0 ICorTp=0 IEmpDi=141
 NAtoms=   29 NActive=   29 NUniq=   29 SFac= 1.00D+00 NAtFMM=   60 NAOKFM=F Big=F
 Integral buffers will be    131072 words long.
 Raffenetti 2 integral format.
 Two-electron integral symmetry is turned on.
 R6Disp:  Grimme-D3(BJ) Dispersion energy=       -0.0561972403 Hartrees.
 Nuclear repulsion after empirical dispersion term =     1219.4954118557 Hartrees.
 Leave Link  301 at Tue Sep 17 09:49:17 2024, MaxMem=  1342177280 cpu:               0.1 elap:               0.0
 (Enter /groups/ReismanLab/Software/Gaussian16_RevC/Linux_Binary_AVX2-enabled-CPU/g16/l302.exe)
 NPDir=0 NMtPBC=     1 NCelOv=     1 NCel=       1 NClECP=     1 NCelD=      1
         NCelK=      1 NCelE2=     1 NClLst=     1 CellRange=     0.0.
 One-electron integrals computed using PRISM.
 One-electron integral symmetry used in STVInt
 NBasis=   300 RedAO= T EigKep=  4.11D-04  NBF=   300
 NBsUse=   300 1.00D-06 EigRej= -1.00D+00 NBFU=   300
 Precomputing XC quadrature grid using
 IXCGrd= 4 IRadAn=           5 IRanWt=          -1 IRanGd=           0 AccXCQ= 0.00D+00.
 Generated NRdTot=       0 NPtTot=           0 NUsed=           0 NTot=          32
 NSgBfM=   300   300   300   300   300 MxSgAt=    29 MxSgA2=    29.
 Leave Link  302 at Tue Sep 17 09:49:18 2024, MaxMem=  1342177280 cpu:               1.2 elap:               0.2
 (Enter /groups/ReismanLab/Software/Gaussian16_RevC/Linux_Binary_AVX2-enabled-CPU/g16/l303.exe)
 DipDrv:  MaxL=1.
 Leave Link  303 at Tue Sep 17 09:49:18 2024, MaxMem=  1342177280 cpu:               0.1 elap:               0.0
 (Enter /groups/ReismanLab/Software/Gaussian16_RevC/Linux_Binary_AVX2-enabled-CPU/g16/l401.exe)
 ExpMin= 1.43D-01 ExpMax= 5.74D+05 ExpMxC= 5.74D+03 IAcc=3 IRadAn=         5 AccDes= 0.00D+00
 Harris functional with IExCor=  402 and IRadAn=       5 diagonalized for initial guess.
 HarFok:  IExCor=  402 AccDes= 0.00D+00 IRadAn=         5 IDoV= 1 UseB2=F ITyADJ=14
 ICtDFT=  3500011 ScaDFX=  1.000000  1.000000  1.000000  1.000000
 FoFCou: FMM=F IPFlag=           0 FMFlag=      100000 FMFlg1=           0
         NFxFlg=           0 DoJE=T BraDBF=F KetDBF=T FulRan=T
         wScrn=  0.000000 ICntrl=       500 IOpCl=  0 I1Cent=   200000004 NGrid=           0
         NMat0=    1 NMatS0=      1 NMatT0=    0 NMatD0=    1 NMtDS0=    0 NMtDT0=    0
 Petite list used in FoFCou.
 Harris En= -3150.56989371220    
 JPrj=0 DoOrth=F DoCkMO=F.
 Leave Link  401 at Tue Sep 17 09:49:19 2024, MaxMem=  1342177280 cpu:               8.5 elap:               1.1
 (Enter /groups/ReismanLab/Software/Gaussian16_RevC/Linux_Binary_AVX2-enabled-CPU/g16/l502.exe)
 Integral symmetry usage will be decided dynamically.
 Closed shell SCF:
 Using DIIS extrapolation, IDIIS=  1040.
 NGot=  1342177280 LenX=  1341990939 LenY=  1341900498
 Requested convergence on RMS density matrix=1.00D-08 within  32 cycles.
 Requested convergence on MAX density matrix=1.00D-06.
 Requested convergence on             energy=1.00D-06.
 No special actions if energy rises.
 Fock matrices will be formed incrementally for  20 cycles.
 Integral accuracy reduced to 1.0D-05 until final iterations.

 Cycle   1  Pass 0  IDiag  1:
 FoFJK:  IHMeth= 1 ICntrl=       0 DoSepK=F KAlg= 0 I1Cent=           0 FoldK=F
 IRaf= 830000000 NMat=       1 IRICut=       1 DoRegI=T DoRafI=F ISym2E= 0 IDoP0=0 IntGTp=1.
 FoFCou: FMM=F IPFlag=           0 FMFlag=      100000 FMFlg1=           0
         NFxFlg=           0 DoJE=F BraDBF=F KetDBF=F FulRan=T
         wScrn=  0.000000 ICntrl=         0 IOpCl=  0 I1Cent=           0 NGrid=           0
         NMat0=    1 NMatS0=      1 NMatT0=    0 NMatD0=    1 NMtDS0=    0 NMtDT0=    0
 Symmetry not used in FoFCou.
 E= -3150.07469884991    
 DIIS: error= 2.04D-01 at cycle   1 NSaved=   1.
 NSaved= 1 IEnMin= 1 EnMin= -3150.07469884991     IErMin= 1 ErrMin= 2.04D-01
 ErrMax= 2.04D-01  0.00D+00 EMaxC= 1.00D-01 BMatC= 6.85D-01 BMatP= 6.85D-01
 IDIUse=3 WtCom= 0.00D+00 WtEn= 1.00D+00
 Coeff-Com:  0.100D+01
 Coeff-En:   0.100D+01
 Coeff:      0.100D+01
 Gap=     0.290 Goal=   None    Shift=    0.000
 GapD=    0.290 DampG=1.000 DampE=0.250 DampFc=0.2500 IDamp=-1.
 Damping current iteration by 2.50D-01
 RMSDP=4.34D-03 MaxDP=1.41D-01              OVMax= 1.48D-01

 Cycle   2  Pass 0  IDiag  1:
 RMSU=  1.06D-03    CP:  9.92D-01
 E= -3150.19906763883     Delta-E=       -0.124368788917 Rises=F Damp=T
 DIIS: error= 1.50D-01 at cycle   2 NSaved=   2.
 NSaved= 2 IEnMin= 2 EnMin= -3150.19906763883     IErMin= 2 ErrMin= 1.50D-01
 ErrMax= 1.50D-01  0.00D+00 EMaxC= 1.00D-01 BMatC= 2.79D-01 BMatP= 6.85D-01
 IDIUse=3 WtCom= 0.00D+00 WtEn= 1.00D+00
 Coeff-Com: -0.132D+01 0.232D+01
 Coeff-En:   0.000D+00 0.100D+01
 Coeff:      0.000D+00 0.100D+01
 Gap=     0.234 Goal=   None    Shift=    0.000
 RMSDP=2.23D-03 MaxDP=1.11D-01 DE=-1.24D-01 OVMax= 5.55D-02

 Cycle   3  Pass 0  IDiag  1:
 RMSU=  6.78D-04    CP:  9.69D-01  2.90D+00
 E= -3150.34165559966     Delta-E=       -0.142587960827 Rises=F Damp=F
 DIIS: error= 1.01D-02 at cycle   3 NSaved=   3.
 NSaved= 3 IEnMin= 3 EnMin= -3150.34165559966     IErMin= 3 ErrMin= 1.01D-02
 ErrMax= 1.01D-02  0.00D+00 EMaxC= 1.00D-01 BMatC= 7.77D-02 BMatP= 2.79D-01
 IDIUse=3 WtCom= 8.99D-01 WtEn= 1.01D-01
 EnCoef did   100 forward-backward iterations
 Coeff-Com:  0.202D+01-0.263D+01 0.161D+01
 Coeff-En:   0.127D+00 0.150D-02 0.872D+00
 Coeff:      0.183D+01-0.236D+01 0.154D+01
 Gap=     0.230 Goal=   None    Shift=    0.000
 RMSDP=1.04D-03 MaxDP=3.81D-02 DE=-1.43D-01 OVMax= 4.08D-02

 Cycle   4  Pass 0  IDiag  1:
 RMSU=  2.80D-04    CP:  9.71D-01  1.99D+00  1.42D+00
 E= -3150.41737134059     Delta-E=       -0.075715740926 Rises=F Damp=F
 DIIS: error= 2.11D-03 at cycle   4 NSaved=   4.
 NSaved= 4 IEnMin= 4 EnMin= -3150.41737134059     IErMin= 4 ErrMin= 2.11D-03
 ErrMax= 2.11D-03  0.00D+00 EMaxC= 1.00D-01 BMatC= 2.34D-03 BMatP= 7.77D-02
 IDIUse=3 WtCom= 9.79D-01 WtEn= 2.11D-02
 Coeff-Com:  0.814D+00-0.107D+01 0.678D+00 0.577D+00
 Coeff-En:   0.000D+00 0.000D+00 0.000D+00 0.100D+01
 Coeff:      0.797D+00-0.105D+01 0.664D+00 0.586D+00
 Gap=     0.225 Goal=   None    Shift=    0.000
 RMSDP=2.00D-04 MaxDP=7.71D-03 DE=-7.57D-02 OVMax= 1.14D-02

 Cycle   5  Pass 0  IDiag  1:
 RMSU=  1.12D-04    CP:  9.71D-01  2.05D+00  1.44D+00  4.71D-01
 E= -3150.41928447598     Delta-E=       -0.001913135397 Rises=F Damp=F
 DIIS: error= 1.08D-03 at cycle   5 NSaved=   5.
 NSaved= 5 IEnMin= 5 EnMin= -3150.41928447598     IErMin= 5 ErrMin= 1.08D-03
 ErrMax= 1.08D-03  0.00D+00 EMaxC= 1.00D-01 BMatC= 4.11D-04 BMatP= 2.34D-03
 IDIUse=3 WtCom= 9.89D-01 WtEn= 1.08D-02
 Coeff-Com:  0.166D+00-0.219D+00 0.153D+00 0.321D+00 0.579D+00
 Coeff-En:   0.000D+00 0.000D+00 0.000D+00 0.110D+00 0.890D+00
 Coeff:      0.164D+00-0.216D+00 0.151D+00 0.319D+00 0.582D+00
 Gap=     0.223 Goal=   None    Shift=    0.000
 RMSDP=8.60D-05 MaxDP=3.28D-03 DE=-1.91D-03 OVMax= 8.38D-03

 Cycle   6  Pass 0  IDiag  1:
 RMSU=  4.45D-05    CP:  9.71D-01  2.06D+00  1.45D+00  5.94D-01  4.21D-01
 E= -3150.41961430205     Delta-E=       -0.000329826064 Rises=F Damp=F
 DIIS: error= 5.04D-04 at cycle   6 NSaved=   6.
 NSaved= 6 IEnMin= 6 EnMin= -3150.41961430205     IErMin= 6 ErrMin= 5.04D-04
 ErrMax= 5.04D-04  0.00D+00 EMaxC= 1.00D-01 BMatC= 6.21D-05 BMatP= 4.11D-04
 IDIUse=3 WtCom= 9.95D-01 WtEn= 5.04D-03
 Coeff-Com:  0.561D-01-0.739D-01 0.554D-01 0.162D+00 0.367D+00 0.434D+00
 Coeff-En:   0.000D+00 0.000D+00 0.000D+00 0.000D+00 0.122D+00 0.878D+00
 Coeff:      0.558D-01-0.736D-01 0.551D-01 0.162D+00 0.365D+00 0.436D+00
 Gap=     0.224 Goal=   None    Shift=    0.000
 RMSDP=3.16D-05 MaxDP=9.80D-04 DE=-3.30D-04 OVMax= 3.36D-03

 Cycle   7  Pass 0  IDiag  1:
 RMSU=  1.21D-05    CP:  9.71D-01  2.06D+00  1.44D+00  5.85D-01  5.70D-01
                    CP:  4.84D-01
 E= -3150.41968066253     Delta-E=       -0.000066360481 Rises=F Damp=F
 DIIS: error= 9.00D-05 at cycle   7 NSaved=   7.
 NSaved= 7 IEnMin= 7 EnMin= -3150.41968066253     IErMin= 7 ErrMin= 9.00D-05
 ErrMax= 9.00D-05  0.00D+00 EMaxC= 1.00D-01 BMatC= 2.17D-06 BMatP= 6.21D-05
 IDIUse=1 WtCom= 1.00D+00 WtEn= 0.00D+00
 Coeff-Com:  0.113D-01-0.149D-01 0.125D-01 0.504D-01 0.129D+00 0.218D+00
 Coeff-Com:  0.594D+00
 Coeff:      0.113D-01-0.149D-01 0.125D-01 0.504D-01 0.129D+00 0.218D+00
 Coeff:      0.594D+00
 Gap=     0.224 Goal=   None    Shift=    0.000
 RMSDP=6.12D-06 MaxDP=1.94D-04 DE=-6.64D-05 OVMax= 4.78D-04

 Initial convergence to 1.0D-05 achieved.  Increase integral accuracy.
 Cycle   8  Pass 1  IDiag  1:
 E= -3150.41970014298     Delta-E=       -0.000019480454 Rises=F Damp=F
 DIIS: error= 6.14D-05 at cycle   1 NSaved=   1.
 NSaved= 1 IEnMin= 1 EnMin= -3150.41970014298     IErMin= 1 ErrMin= 6.14D-05
 ErrMax= 6.14D-05  0.00D+00 EMaxC= 1.00D-01 BMatC= 4.89D-07 BMatP= 4.89D-07
 IDIUse=1 WtCom= 1.00D+00 WtEn= 0.00D+00
 Coeff-Com:  0.100D+01
 Coeff:      0.100D+01
 Gap=     0.224 Goal=   None    Shift=    0.000
 RMSDP=6.12D-06 MaxDP=1.94D-04 DE=-1.95D-05 OVMax= 3.03D-04

 Cycle   9  Pass 1  IDiag  1:
 RMSU=  1.25D-05    CP:  1.00D+00
 E= -3150.41969993438     Delta-E=        0.000000208598 Rises=F Damp=F
 DIIS: error= 4.20D-05 at cycle   2 NSaved=   2.
 NSaved= 2 IEnMin= 1 EnMin= -3150.41970014298     IErMin= 2 ErrMin= 4.20D-05
 ErrMax= 4.20D-05  0.00D+00 EMaxC= 1.00D-01 BMatC= 6.20D-07 BMatP= 4.89D-07
 IDIUse=1 WtCom= 1.00D+00 WtEn= 0.00D+00
 Coeff-Com:  0.535D+00 0.465D+00
 Coeff:      0.535D+00 0.465D+00
 Gap=     0.224 Goal=   None    Shift=    0.000
 RMSDP=3.52D-06 MaxDP=1.22D-04 DE= 2.09D-07 OVMax= 2.69D-04

 Cycle  10  Pass 1  IDiag  1:
 RMSU=  3.38D-06    CP:  1.00D+00  9.21D-01
 E= -3150.41970045291     Delta-E=       -0.000000518526 Rises=F Damp=F
 DIIS: error= 1.78D-05 at cycle   3 NSaved=   3.
 NSaved= 3 IEnMin= 3 EnMin= -3150.41970045291     IErMin= 3 ErrMin= 1.78D-05
 ErrMax= 1.78D-05  0.00D+00 EMaxC= 1.00D-01 BMatC= 6.11D-08 BMatP= 4.89D-07
 IDIUse=1 WtCom= 1.00D+00 WtEn= 0.00D+00
 Coeff-Com:  0.682D-01 0.241D+00 0.690D+00
 Coeff:      0.682D-01 0.241D+00 0.690D+00
 Gap=     0.224 Goal=   None    Shift=    0.000
 RMSDP=1.16D-06 MaxDP=4.92D-05 DE=-5.19D-07 OVMax= 1.13D-04

 Cycle  11  Pass 1  IDiag  1:
 RMSU=  7.81D-07    CP:  1.00D+00  9.44D-01  7.61D-01
 E= -3150.41970049757     Delta-E=       -0.000000044659 Rises=F Damp=F
 DIIS: error= 8.11D-06 at cycle   4 NSaved=   4.
 NSaved= 4 IEnMin= 4 EnMin= -3150.41970049757     IErMin= 4 ErrMin= 8.11D-06
 ErrMax= 8.11D-06  0.00D+00 EMaxC= 1.00D-01 BMatC= 1.77D-08 BMatP= 6.11D-08
 IDIUse=1 WtCom= 1.00D+00 WtEn= 0.00D+00
 Coeff-Com: -0.696D-03 0.122D+00 0.461D+00 0.418D+00
 Coeff:     -0.696D-03 0.122D+00 0.461D+00 0.418D+00
 Gap=     0.224 Goal=   None    Shift=    0.000
 RMSDP=4.68D-07 MaxDP=2.03D-05 DE=-4.47D-08 OVMax= 4.90D-05

 Cycle  12  Pass 1  IDiag  1:
 RMSU=  8.38D-08    CP:  1.00D+00  9.45D-01  7.91D-01  4.25D-01
 E= -3150.41970051551     Delta-E=       -0.000000017944 Rises=F Damp=F
 DIIS: error= 5.41D-07 at cycle   5 NSaved=   5.
 NSaved= 5 IEnMin= 5 EnMin= -3150.41970051551     IErMin= 5 ErrMin= 5.41D-07
 ErrMax= 5.41D-07  0.00D+00 EMaxC= 1.00D-01 BMatC= 1.88D-10 BMatP= 1.77D-08
 IDIUse=1 WtCom= 1.00D+00 WtEn= 0.00D+00
 Coeff-Com: -0.155D-02 0.641D-01 0.246D+00 0.235D+00 0.456D+00
 Coeff:     -0.155D-02 0.641D-01 0.246D+00 0.235D+00 0.456D+00
 Gap=     0.224 Goal=   None    Shift=    0.000
 RMSDP=4.30D-08 MaxDP=1.89D-06 DE=-1.79D-08 OVMax= 2.23D-06

 Cycle  13  Pass 1  IDiag  1:
 RMSU=  2.62D-08    CP:  1.00D+00  9.45D-01  7.88D-01  4.33D-01  6.22D-01
 E= -3150.41970051570     Delta-E=       -0.000000000187 Rises=F Damp=F
 DIIS: error= 7.11D-08 at cycle   6 NSaved=   6.
 NSaved= 6 IEnMin= 6 EnMin= -3150.41970051570     IErMin= 6 ErrMin= 7.11D-08
 ErrMax= 7.11D-08  0.00D+00 EMaxC= 1.00D-01 BMatC= 4.44D-12 BMatP= 1.88D-10
 IDIUse=1 WtCom= 1.00D+00 WtEn= 0.00D+00
 Coeff-Com: -0.648D-03 0.215D-01 0.830D-01 0.810D-01 0.202D+00 0.613D+00
 Coeff:     -0.648D-03 0.215D-01 0.830D-01 0.810D-01 0.202D+00 0.613D+00
 Gap=     0.224 Goal=   None    Shift=    0.000
 RMSDP=9.39D-09 MaxDP=3.13D-07 DE=-1.87D-10 OVMax= 5.88D-07

 SCF Done:  E(RB3LYP) =  -3150.41970052     A.U. after   13 cycles
            NFock= 13  Conv=0.94D-08     -V/T= 2.0067
 KE= 3.129607074042D+03 PE=-9.918530519327D+03 EE= 2.419008332913D+03
 Leave Link  502 at Tue Sep 17 09:49:37 2024, MaxMem=  1342177280 cpu:             139.1 elap:              18.3
 (Enter /groups/ReismanLab/Software/Gaussian16_RevC/Linux_Binary_AVX2-enabled-CPU/g16/l508.exe)
 QCSCF skips out because SCF is already converged.
 Leave Link  508 at Tue Sep 17 09:49:37 2024, MaxMem=  1342177280 cpu:               0.0 elap:               0.0
 (Enter /groups/ReismanLab/Software/Gaussian16_RevC/Linux_Binary_AVX2-enabled-CPU/g16/l601.exe)
 Copying SCF densities to generalized density rwf, IOpCl= 0 IROHF=0.

 **********************************************************************

            Population analysis using the SCF Density.

 **********************************************************************

 Orbital symmetries:
       Occupied  (A) (A) (A) (A) (A) (A) (A) (A) (A) (A) (A) (A)
                 (A) (A) (A) (A) (A) (A) (A) (A) (A) (A) (A) (A)
                 (A) (A) (A) (A) (A) (A) (A) (A) (A) (A) (A) (A)
                 (A) (A) (A) (A) (A) (A) (A) (A) (A) (A) (A) (A)
                 (A) (A) (A) (A) (A) (A) (A) (A) (A) (A) (A) (A)
                 (A) (A) (A) (A) (A) (A)
       Virtual   (A) (A) (A) (A) (A) (A) (A) (A) (A) (A) (A) (A)
                 (A) (A) (A) (A) (A) (A) (A) (A) (A) (A) (A) (A)
                 (A) (A) (A) (A) (A) (A) (A) (A) (A) (A) (A) (A)
                 (A) (A) (A) (A) (A) (A) (A) (A) (A) (A) (A) (A)
                 (A) (A) (A) (A) (A) (A) (A) (A) (A) (A) (A) (A)
                 (A) (A) (A) (A) (A) (A) (A) (A) (A) (A) (A) (A)
                 (A) (A) (A) (A) (A) (A) (A) (A) (A) (A) (A) (A)
                 (A) (A) (A) (A) (A) (A) (A) (A) (A) (A) (A) (A)
                 (A) (A) (A) (A) (A) (A) (A) (A) (A) (A) (A) (A)
                 (A) (A) (A) (A) (A) (A) (A) (A) (A) (A) (A) (A)
                 (A) (A) (A) (A) (A) (A) (A) (A) (A) (A) (A) (A)
                 (A) (A) (A) (A) (A) (A) (A) (A) (A) (A) (A) (A)
                 (A) (A) (A) (A) (A) (A) (A) (A) (A) (A) (A) (A)
                 (A) (A) (A) (A) (A) (A) (A) (A) (A) (A) (A) (A)
                 (A) (A) (A) (A) (A) (A) (A) (A) (A) (A) (A) (A)
                 (A) (A) (A) (A) (A) (A) (A) (A) (A) (A) (A) (A)
                 (A) (A) (A) (A) (A) (A) (A) (A) (A) (A) (A) (A)
                 (A) (A) (A) (A) (A) (A) (A) (A) (A) (A) (A) (A)
                 (A) (A) (A) (A) (A) (A) (A) (A) (A) (A) (A) (A)
                 (A) (A) (A) (A) (A) (A)
 The electronic state is 1-A.
 Alpha  occ. eigenvalues -- -482.90658 -61.86833 -56.38964 -56.38557 -56.38547
 Alpha  occ. eigenvalues --  -19.15795 -19.14934 -10.28868 -10.24364 -10.23397
 Alpha  occ. eigenvalues --  -10.22555 -10.20110 -10.20047 -10.19926 -10.19604
 Alpha  occ. eigenvalues --  -10.19483 -10.17926 -10.16769  -8.57978  -6.53365
 Alpha  occ. eigenvalues --   -6.52107  -6.52076  -2.64940  -2.64581  -2.64558
 Alpha  occ. eigenvalues --   -2.63554  -2.63553  -1.07429  -1.00927  -0.87913
 Alpha  occ. eigenvalues --   -0.80644  -0.78145  -0.75341  -0.74957  -0.72482
 Alpha  occ. eigenvalues --   -0.68111  -0.63300  -0.61557  -0.59792  -0.56729
 Alpha  occ. eigenvalues --   -0.52663  -0.51575  -0.50348  -0.48694  -0.46398
 Alpha  occ. eigenvalues --   -0.45578  -0.44411  -0.42639  -0.41817  -0.40914
 Alpha  occ. eigenvalues --   -0.40610  -0.39988  -0.39000  -0.37798  -0.37564
 Alpha  occ. eigenvalues --   -0.36912  -0.35299  -0.35034  -0.33561  -0.30924
 Alpha  occ. eigenvalues --   -0.29617  -0.28305  -0.27666  -0.26968  -0.25596
 Alpha  occ. eigenvalues --   -0.23925
 Alpha virt. eigenvalues --   -0.01560  -0.01012   0.01318   0.08914   0.11090
 Alpha virt. eigenvalues --    0.11167   0.12718   0.13097   0.14258   0.14512
 Alpha virt. eigenvalues --    0.15625   0.16149   0.16766   0.16968   0.17251
 Alpha virt. eigenvalues --    0.17375   0.17905   0.18828   0.18961   0.20183
 Alpha virt. eigenvalues --    0.22233   0.23177   0.23242   0.24541   0.25850
 Alpha virt. eigenvalues --    0.27383   0.30116   0.30976   0.31729   0.32589
 Alpha virt. eigenvalues --    0.35390   0.42632   0.45353   0.46162   0.46759
 Alpha virt. eigenvalues --    0.46991   0.48134   0.49129   0.49330   0.50313
 Alpha virt. eigenvalues --    0.50891   0.52331   0.53219   0.54181   0.54615
 Alpha virt. eigenvalues --    0.55378   0.55732   0.56127   0.57352   0.58455
 Alpha virt. eigenvalues --    0.58952   0.59975   0.61650   0.62393   0.63461
 Alpha virt. eigenvalues --    0.64564   0.65683   0.66835   0.67763   0.71028
 Alpha virt. eigenvalues --    0.73120   0.73371   0.75713   0.76438   0.78050
 Alpha virt. eigenvalues --    0.79415   0.80379   0.80957   0.81351   0.82938
 Alpha virt. eigenvalues --    0.83472   0.83988   0.85430   0.87070   0.87609
 Alpha virt. eigenvalues --    0.87799   0.88711   0.90532   0.91691   0.92351
 Alpha virt. eigenvalues --    0.93436   0.94875   0.95662   0.96539   0.97666
 Alpha virt. eigenvalues --    1.00309   1.01482   1.04766   1.06349   1.08560
 Alpha virt. eigenvalues --    1.10414   1.11127   1.13332   1.13927   1.16959
 Alpha virt. eigenvalues --    1.19657   1.21068   1.22946   1.24328   1.26698
 Alpha virt. eigenvalues --    1.30649   1.35088   1.35323   1.36314   1.39455
 Alpha virt. eigenvalues --    1.40226   1.40641   1.41665   1.43551   1.50166
 Alpha virt. eigenvalues --    1.52131   1.54008   1.57370   1.57932   1.60773
 Alpha virt. eigenvalues --    1.61689   1.62782   1.65368   1.66752   1.67090
 Alpha virt. eigenvalues --    1.69055   1.74286   1.77184   1.78449   1.82032
 Alpha virt. eigenvalues --    1.83770   1.85367   1.86675   1.88405   1.89891
 Alpha virt. eigenvalues --    1.91326   1.94172   1.96028   1.97124   1.97700
 Alpha virt. eigenvalues --    1.98992   2.00184   2.00754   2.03280   2.03787
 Alpha virt. eigenvalues --    2.04526   2.05189   2.06046   2.06942   2.08106
 Alpha virt. eigenvalues --    2.08465   2.09813   2.10247   2.10740   2.13132
 Alpha virt. eigenvalues --    2.15395   2.16108   2.18397   2.19882   2.23182
 Alpha virt. eigenvalues --    2.26360   2.27035   2.27835   2.30151   2.31139
 Alpha virt. eigenvalues --    2.31403   2.34634   2.37855   2.38091   2.39690
 Alpha virt. eigenvalues --    2.41431   2.43261   2.46039   2.47673   2.49233
 Alpha virt. eigenvalues --    2.49688   2.52148   2.52822   2.54206   2.55836
 Alpha virt. eigenvalues --    2.59847   2.61431   2.64470   2.64714   2.66131
 Alpha virt. eigenvalues --    2.68651   2.69142   2.70026   2.71572   2.72559
 Alpha virt. eigenvalues --    2.74364   2.75804   2.78562   2.80438   2.81816
 Alpha virt. eigenvalues --    2.82467   2.85640   2.86928   2.89783   2.90971
 Alpha virt. eigenvalues --    2.92928   2.94751   2.97525   2.99170   3.00702
 Alpha virt. eigenvalues --    3.05066   3.12594   3.21558   3.21893   3.22681
 Alpha virt. eigenvalues --    3.25093   3.29108   3.31186   3.33472   3.37911
 Alpha virt. eigenvalues --    3.39901   3.40899   3.42216   3.47439   3.47826
 Alpha virt. eigenvalues --    3.49189   3.53900   3.55271   3.83008   3.99136
 Alpha virt. eigenvalues --    4.12500   4.15308   4.16180   4.24401   4.35665
 Alpha virt. eigenvalues --    4.37464   4.40590   4.45623   4.58829   4.64090
 Alpha virt. eigenvalues --    4.68401   4.82516   8.61171  72.83051
          Condensed to atoms (all electrons):
               1          2          3          4          5          6
     1  C    4.973874   0.369607  -0.047062  -0.003905   0.000185   0.000013
     2  C    0.369607   4.721048   0.223550  -0.017401  -0.011747   0.000293
     3  O   -0.047062   0.223550   8.299645   0.239455  -0.056355  -0.009090
     4  C   -0.003905  -0.017401   0.239455   4.653623   0.199429  -0.019955
     5  O    0.000185  -0.011747  -0.056355   0.199429   8.306746   0.232917
     6  C    0.000013   0.000293  -0.009090  -0.019955   0.232917   4.700964
     7  C   -0.000001   0.000038  -0.000277  -0.007426  -0.047587   0.366101
     8  C    0.000821  -0.008159  -0.059314   0.310979  -0.035064   0.005728
     9  C   -0.000651  -0.002300   0.005810  -0.051805   0.003699  -0.000148
    10  C   -0.000276  -0.000057   0.000171   0.005272  -0.000087   0.000003
    11  C   -0.000034  -0.000004  -0.000001   0.000583   0.000009   0.000000
    12  C   -0.000180  -0.000012  -0.000010   0.005094   0.000469  -0.000001
    13  Br   0.000002  -0.000001   0.000001  -0.000148  -0.000005  -0.000000
    14  C   -0.001597   0.001396  -0.001648  -0.038196  -0.007705   0.000170
    15  H    0.389801  -0.030225  -0.000990  -0.000688   0.000066  -0.000003
    16  H    0.382456  -0.033859   0.001129  -0.000014  -0.000003   0.000000
    17  H    0.359105  -0.027212   0.003285   0.000086   0.000009   0.000001
    18  H   -0.045170   0.371923  -0.035876  -0.009387   0.015558  -0.000262
    19  H   -0.051751   0.395306  -0.038496   0.003456   0.000091   0.000147
    20  H   -0.000255   0.006736  -0.059187   0.392583  -0.047050  -0.004099
    21  H   -0.000002  -0.000026   0.000049   0.004261  -0.037732   0.396455
    22  H    0.000105  -0.000210   0.017238  -0.011110  -0.034790   0.372255
    23  H    0.000000  -0.000006   0.000077   0.000937  -0.001868  -0.031977
    24  H    0.000000   0.000002   0.000010  -0.000104   0.001778  -0.033295
    25  H   -0.000000   0.000000   0.000008   0.000216   0.003321  -0.025048
    26  H    0.000102  -0.000139   0.002870  -0.008275   0.000143  -0.000008
    27  H   -0.000004  -0.000000   0.000001  -0.000181   0.000000  -0.000000
    28  H   -0.000001   0.000000  -0.000000   0.000008   0.000000  -0.000000
    29  H   -0.000009  -0.000262   0.000226  -0.013782   0.017178  -0.000511
               7          8          9         10         11         12
     1  C   -0.000001   0.000821  -0.000651  -0.000276  -0.000034  -0.000180
     2  C    0.000038  -0.008159  -0.002300  -0.000057  -0.000004  -0.000012
     3  O   -0.000277  -0.059314   0.005810   0.000171  -0.000001  -0.000010
     4  C   -0.007426   0.310979  -0.051805   0.005272   0.000583   0.005094
     5  O   -0.047587  -0.035064   0.003699  -0.000087   0.000009   0.000469
     6  C    0.366101   0.005728  -0.000148   0.000003   0.000000  -0.000001
     7  C    4.979313  -0.000358   0.000009  -0.000000  -0.000000   0.000001
     8  C   -0.000358   4.942483   0.520800  -0.013711  -0.039790  -0.019754
     9  C    0.000009   0.520800   4.902538   0.520302  -0.041726  -0.041981
    10  C   -0.000000  -0.013711   0.520302   4.843196   0.514480  -0.020870
    11  C   -0.000000  -0.039790  -0.041726   0.514480   4.876233   0.532267
    12  C    0.000001  -0.019754  -0.041981  -0.020870   0.532267   4.844731
    13  Br  -0.000000   0.005431   0.000478   0.005646  -0.061507   0.254843
    14  C    0.000034   0.494063  -0.058507  -0.048694  -0.042537   0.483784
    15  H    0.000000   0.001387  -0.000304   0.000674   0.000714   0.000885
    16  H    0.000000  -0.000075   0.000495  -0.000019  -0.000000   0.000001
    17  H    0.000000   0.000025   0.000110   0.000017  -0.000009  -0.000024
    18  H    0.000113  -0.001107   0.000849  -0.000012   0.000001  -0.000063
    19  H   -0.000004  -0.000070   0.000005  -0.000001  -0.000000   0.000001
    20  H    0.004626  -0.063129  -0.008496  -0.000072   0.000013  -0.000122
    21  H   -0.047567  -0.000135   0.000004  -0.000000  -0.000000  -0.000002
    22  H   -0.048666   0.000606  -0.000006  -0.000000   0.000000   0.000002
    23  H    0.386346  -0.000125  -0.000003  -0.000000   0.000000  -0.000000
    24  H    0.383995  -0.000092  -0.000001  -0.000000   0.000000   0.000000
    25  H    0.362361   0.000005  -0.000000   0.000000  -0.000000  -0.000000
    26  H   -0.000000  -0.046781   0.370637  -0.042314   0.005007   0.000468
    27  H    0.000000   0.003613  -0.036437   0.367210  -0.039189   0.004245
    28  H    0.000000   0.000321   0.004974  -0.040206   0.373217  -0.043539
    29  H    0.000035  -0.038003   0.006252  -0.000047   0.005229  -0.047067
              13         14         15         16         17         18
     1  C    0.000002  -0.001597   0.389801   0.382456   0.359105  -0.045170
     2  C   -0.000001   0.001396  -0.030225  -0.033859  -0.027212   0.371923
     3  O    0.000001  -0.001648  -0.000990   0.001129   0.003285  -0.035876
     4  C   -0.000148  -0.038196  -0.000688  -0.000014   0.000086  -0.009387
     5  O   -0.000005  -0.007705   0.000066  -0.000003   0.000009   0.015558
     6  C   -0.000000   0.000170  -0.000003   0.000000   0.000001  -0.000262
     7  C   -0.000000   0.000034   0.000000   0.000000   0.000000   0.000113
     8  C    0.005431   0.494063   0.001387  -0.000075   0.000025  -0.001107
     9  C    0.000478  -0.058507  -0.000304   0.000495   0.000110   0.000849
    10  C    0.005646  -0.048694   0.000674  -0.000019   0.000017  -0.000012
    11  C   -0.061507  -0.042537   0.000714  -0.000000  -0.000009   0.000001
    12  C    0.254843   0.483784   0.000885   0.000001  -0.000024  -0.000063
    13  Br  34.996020  -0.059076  -0.000024  -0.000000   0.000002  -0.000004
    14  C   -0.059076   4.981345   0.000289   0.000051   0.000023   0.001139
    15  H   -0.000024   0.000289   0.575690  -0.032249  -0.027765  -0.006377
    16  H   -0.000000   0.000051  -0.032249   0.598522  -0.028255   0.005624
    17  H    0.000002   0.000023  -0.027765  -0.028255   0.621581   0.001119
    18  H   -0.000004   0.001139  -0.006377   0.005624   0.001119   0.632513
    19  H    0.000000  -0.000018   0.005115  -0.005460  -0.000891  -0.038339
    20  H    0.000002   0.007254  -0.000018  -0.000024   0.000009   0.000653
    21  H    0.000000  -0.000056  -0.000000   0.000000   0.000000  -0.000029
    22  H   -0.000000   0.000046  -0.000000  -0.000000  -0.000004  -0.000570
    23  H    0.000000  -0.000017  -0.000000  -0.000000   0.000000  -0.000002
    24  H    0.000000   0.000022   0.000000  -0.000000   0.000000  -0.000002
    25  H    0.000000  -0.000000  -0.000000   0.000000   0.000000  -0.000003
    26  H    0.000010   0.006199   0.000003   0.000130   0.000005   0.000031
    27  H   -0.000163   0.001146   0.000013  -0.000002   0.000000  -0.000000
    28  H   -0.003518   0.005417   0.000001   0.000000  -0.000000   0.000000
    29  H   -0.002720   0.370968   0.000031  -0.000002   0.000001   0.000817
              19         20         21         22         23         24
     1  C   -0.051751  -0.000255  -0.000002   0.000105   0.000000   0.000000
     2  C    0.395306   0.006736  -0.000026  -0.000210  -0.000006   0.000002
     3  O   -0.038496  -0.059187   0.000049   0.017238   0.000077   0.000010
     4  C    0.003456   0.392583   0.004261  -0.011110   0.000937  -0.000104
     5  O    0.000091  -0.047050  -0.037732  -0.034790  -0.001868   0.001778
     6  C    0.000147  -0.004099   0.396455   0.372255  -0.031977  -0.033295
     7  C   -0.000004   0.004626  -0.047567  -0.048666   0.386346   0.383995
     8  C   -0.000070  -0.063129  -0.000135   0.000606  -0.000125  -0.000092
     9  C    0.000005  -0.008496   0.000004  -0.000006  -0.000003  -0.000001
    10  C   -0.000001  -0.000072  -0.000000  -0.000000  -0.000000  -0.000000
    11  C   -0.000000   0.000013  -0.000000   0.000000   0.000000   0.000000
    12  C    0.000001  -0.000122  -0.000002   0.000002  -0.000000   0.000000
    13  Br   0.000000   0.000002   0.000000  -0.000000   0.000000   0.000000
    14  C   -0.000018   0.007254  -0.000056   0.000046  -0.000017   0.000022
    15  H    0.005115  -0.000018  -0.000000  -0.000000  -0.000000   0.000000
    16  H   -0.005460  -0.000024   0.000000  -0.000000  -0.000000  -0.000000
    17  H   -0.000891   0.000009   0.000000  -0.000004   0.000000   0.000000
    18  H   -0.038339   0.000653  -0.000029  -0.000570  -0.000002  -0.000002
    19  H    0.633345  -0.000293  -0.000009  -0.000209  -0.000000   0.000000
    20  H   -0.000293   0.680501  -0.000199  -0.001683   0.002632   0.000212
    21  H   -0.000009  -0.000199   0.621568  -0.038524   0.005307  -0.005952
    22  H   -0.000209  -0.001683  -0.038524   0.636355  -0.006174   0.005614
    23  H   -0.000000   0.002632   0.005307  -0.006174   0.594478  -0.032630
    24  H    0.000000   0.000212  -0.005952   0.005614  -0.032630   0.585720
    25  H    0.000000  -0.000441  -0.001058   0.001203  -0.028281  -0.026798
    26  H    0.000006   0.003826   0.000000  -0.000001  -0.000003   0.000000
    27  H    0.000000   0.000001   0.000000  -0.000000   0.000000   0.000000
    28  H   -0.000000  -0.000000  -0.000000   0.000000  -0.000000   0.000000
    29  H    0.000003   0.000556  -0.000054   0.000052  -0.000002   0.000035
              25         26         27         28         29
     1  C   -0.000000   0.000102  -0.000004  -0.000001  -0.000009
     2  C    0.000000  -0.000139  -0.000000   0.000000  -0.000262
     3  O    0.000008   0.002870   0.000001  -0.000000   0.000226
     4  C    0.000216  -0.008275  -0.000181   0.000008  -0.013782
     5  O    0.003321   0.000143   0.000000   0.000000   0.017178
     6  C   -0.025048  -0.000008  -0.000000  -0.000000  -0.000511
     7  C    0.362361  -0.000000   0.000000   0.000000   0.000035
     8  C    0.000005  -0.046781   0.003613   0.000321  -0.038003
     9  C   -0.000000   0.370637  -0.036437   0.004974   0.006252
    10  C    0.000000  -0.042314   0.367210  -0.040206  -0.000047
    11  C   -0.000000   0.005007  -0.039189   0.373217   0.005229
    12  C   -0.000000   0.000468   0.004245  -0.043539  -0.047067
    13  Br   0.000000   0.000010  -0.000163  -0.003518  -0.002720
    14  C   -0.000000   0.006199   0.001146   0.005417   0.370968
    15  H   -0.000000   0.000003   0.000013   0.000001   0.000031
    16  H    0.000000   0.000130  -0.000002   0.000000  -0.000002
    17  H    0.000000   0.000005   0.000000  -0.000000   0.000001
    18  H   -0.000003   0.000031  -0.000000   0.000000   0.000817
    19  H    0.000000   0.000006   0.000000  -0.000000   0.000003
    20  H   -0.000441   0.003826   0.000001  -0.000000   0.000556
    21  H   -0.001058   0.000000   0.000000  -0.000000  -0.000054
    22  H    0.001203  -0.000001  -0.000000   0.000000   0.000052
    23  H   -0.028281  -0.000003   0.000000  -0.000000  -0.000002
    24  H   -0.026798   0.000000   0.000000   0.000000   0.000035
    25  H    0.606852  -0.000000  -0.000000  -0.000000  -0.000001
    26  H   -0.000000   0.620914  -0.005794  -0.000171  -0.000157
    27  H   -0.000000  -0.005794   0.616313  -0.006306   0.000018
    28  H   -0.000000  -0.000171  -0.006306   0.603701  -0.000143
    29  H   -0.000001  -0.000157   0.000018  -0.000143   0.575649
 Mulliken charges:
               1
     1  C   -0.325173
     2  C    0.041721
     3  O   -0.485218
     4  C    0.366398
     5  O   -0.501607
     6  C    0.049349
     7  C   -0.331087
     8  C    0.039404
     9  C   -0.094599
    10  C   -0.090603
    11  C   -0.082957
    12  C    0.046835
    13  Br  -0.135267
    14  C   -0.095294
    15  H    0.123974
    16  H    0.111555
    17  H    0.098781
    18  H    0.106865
    19  H    0.098065
    20  H    0.085465
    21  H    0.103699
    22  H    0.108477
    23  H    0.111310
    24  H    0.121485
    25  H    0.107664
    26  H    0.093291
    27  H    0.095514
    28  H    0.106247
    29  H    0.125709
 Sum of Mulliken charges =  -0.00000
 Mulliken charges with hydrogens summed into heavy atoms:
               1
     1  C    0.009137
     2  C    0.246650
     3  O   -0.485218
     4  C    0.451862
     5  O   -0.501607
     6  C    0.261525
     7  C    0.009373
     8  C    0.039404
     9  C   -0.001308
    10  C    0.004912
    11  C    0.023289
    12  C    0.046835
    13  Br  -0.135267
    14  C    0.030415
 Electronic spatial extent (au):  <R**2>=           4592.2204
 Charge=              0.0000 electrons
 Dipole moment (field-independent basis, Debye):
    X=              1.6190    Y=              0.5034    Z=              0.5563  Tot=              1.7844
 Quadrupole moment (field-independent basis, Debye-Ang):
   XX=            -93.7463   YY=            -93.5139   ZZ=            -92.0396
   XY=             -6.2617   XZ=             -1.9990   YZ=              2.6690
 Traceless Quadrupole moment (field-independent basis, Debye-Ang):
   XX=             -0.6464   YY=             -0.4139   ZZ=              1.0604
   XY=             -6.2617   XZ=             -1.9990   YZ=              2.6690
 Octapole moment (field-independent basis, Debye-Ang**2):
  XXX=            -60.4275  YYY=            -31.5133  ZZZ=            -22.2114  XYY=            -22.8227
  XXY=            -24.1635  XXZ=             -4.6830  XZZ=            -20.0289  YZZ=              0.1442
  YYZ=             -3.4658  XYZ=             -7.0831
 Hexadecapole moment (field-independent basis, Debye-Ang**3):
 XXXX=          -3348.1353 YYYY=          -1281.3097 ZZZZ=           -740.3386 XXXY=              7.6695
 XXXZ=             33.5836 YYYX=             74.8466 YYYZ=             35.9549 ZZZX=             40.1496
 ZZZY=             27.1040 XXYY=           -754.0838 XXZZ=           -670.1659 YYZZ=           -315.1415
 XXYZ=             24.4711 YYXZ=              0.9371 ZZXY=             34.0342
 N-N= 1.219495411856D+03 E-N=-9.918530514923D+03  KE= 3.129607074042D+03
 No NMR shielding tensors so no spin-rotation constants.
 Leave Link  601 at Tue Sep 17 09:49:37 2024, MaxMem=  1342177280 cpu:               0.5 elap:               0.1
 (Enter /groups/ReismanLab/Software/Gaussian16_RevC/Linux_Binary_AVX2-enabled-CPU/g16/l701.exe)
 ... and contract with generalized density number  0.
 Compute integral first derivatives.
 R6Disp: Adding Grimme-D3(BJ) dispersion energy 1st derivatives to the gradient.
 Leave Link  701 at Tue Sep 17 09:49:37 2024, MaxMem=  1342177280 cpu:               0.5 elap:               0.1
 (Enter /groups/ReismanLab/Software/Gaussian16_RevC/Linux_Binary_AVX2-enabled-CPU/g16/l702.exe)
 L702 exits ... SP integral derivatives will be done elsewhere.
 Leave Link  702 at Tue Sep 17 09:49:37 2024, MaxMem=  1342177280 cpu:               0.0 elap:               0.0
 (Enter /groups/ReismanLab/Software/Gaussian16_RevC/Linux_Binary_AVX2-enabled-CPU/g16/l703.exe)
 Integral derivatives from FoFJK, PRISM(SPDF).
 Compute integral first derivatives, UseDBF=F ICtDFT=           0.
 Calling FoFJK, ICntrl=      2127 FMM=F ISym2X=0 I1Cent= 0 IOpClX= 0 NMat=1 NMatS=1 NMatT=0.
 FoFJK:  IHMeth= 1 ICntrl=    2127 DoSepK=F KAlg= 0 I1Cent=           0 FoldK=F
 IRaf=         0 NMat=       1 IRICut=       1 DoRegI=T DoRafI=F ISym2E= 0 IDoP0=0 IntGTp=1.
 FoFCou: FMM=F IPFlag=           0 FMFlag=      100000 FMFlg1=         800
         NFxFlg=           0 DoJE=F BraDBF=F KetDBF=F FulRan=T
         wScrn=  0.000000 ICntrl=      2127 IOpCl=  0 I1Cent=           0 NGrid=           0
         NMat0=    1 NMatS0=      1 NMatT0=    0 NMatD0=    1 NMtDS0=    0 NMtDT0=    0
 Symmetry not used in FoFCou.
 Leave Link  703 at Tue Sep 17 09:49:44 2024, MaxMem=  1342177280 cpu:              52.1 elap:               6.6
 (Enter /groups/ReismanLab/Software/Gaussian16_RevC/Linux_Binary_AVX2-enabled-CPU/g16/l716.exe)
 Dipole        = 6.36955979D-01 1.98036726D-01 2.18865381D-01
 ***** Axes restored to original set *****
 -------------------------------------------------------------------
 Center     Atomic                   Forces (Hartrees/Bohr)
 Number     Number              X              Y              Z
 -------------------------------------------------------------------
      1        6           0.001339919   -0.004129425   -0.005108224
      2        6          -0.002207590    0.006602434    0.001447019
      3        8           0.005925348   -0.005566447    0.003036527
      4        6           0.001490604   -0.007013576    0.002572057
      5        8          -0.007791472   -0.000010857    0.000337330
      6        6           0.004793191   -0.000552757   -0.003271885
      7        6          -0.002978715    0.006208252    0.003916191
      8        6           0.004401294   -0.000381589   -0.005426570
      9        6           0.004651780   -0.001973534    0.000314430
     10        6           0.001029600   -0.003163135    0.004593726
     11        6          -0.006855013    0.001294577    0.002451681
     12        6          -0.004164625    0.003488450   -0.002106917
     13       35          -0.002899205    0.001736803   -0.001353907
     14        6           0.000465068    0.002079616   -0.005316589
     15        1          -0.002797023   -0.000229211    0.001186929
     16        1           0.001999001   -0.000898064    0.004279143
     17        1          -0.000530804    0.005323709    0.001466898
     18        1           0.001770809    0.001557094   -0.000524623
     19        1          -0.000507738    0.001176102   -0.001837464
     20        1          -0.000671599    0.002532624   -0.000640969
     21        1           0.001966040    0.000816924   -0.000021759
     22        1           0.000034784    0.001642305   -0.000880023
     23        1           0.000898248   -0.004027423    0.002101328
     24        1          -0.003111758   -0.001781856   -0.002592153
     25        1           0.004081032   -0.001741373   -0.003224437
     26        1           0.003443852   -0.002060259    0.002162908
     27        1          -0.000609519   -0.002096351    0.003825964
     28        1          -0.003059254    0.000232138    0.001157937
     29        1          -0.000106257    0.000934829   -0.002544547
 -------------------------------------------------------------------
 Cartesian Forces:  Max     0.007791472 RMS     0.003119412
 Leave Link  716 at Tue Sep 17 09:49:44 2024, MaxMem=  1342177280 cpu:               0.0 elap:               0.0
 (Enter /groups/ReismanLab/Software/Gaussian16_RevC/Linux_Binary_AVX2-enabled-CPU/g16/l103.exe)

 GradGradGradGradGradGradGradGradGradGradGradGradGradGradGradGradGradGrad
 Berny optimization.
 FormGI is forming the generalized inverse of G from B-inverse, IUseBI=4.
 Internal  Forces:  Max     0.011080792 RMS     0.002739930
 Search for a local minimum.
 Step number   1 out of a maximum of  149
 All quantities printed in internal units (Hartrees-Bohrs-Radians)
 RMS Force = .27399D-02 SwitMx=.10000D-02 MixMth= 1
 Mixed Optimization -- RFO/linear search
 Second derivative matrix not updated -- first step.
 ITU=  0
     Eigenvalues ---    0.00433   0.00433   0.00572   0.01388   0.01416
     Eigenvalues ---    0.01570   0.01579   0.01729   0.02246   0.02268
     Eigenvalues ---    0.02287   0.02294   0.02296   0.02301   0.02304
     Eigenvalues ---    0.02307   0.04809   0.04843   0.05641   0.05652
     Eigenvalues ---    0.05749   0.05786   0.05792   0.05819   0.06706
     Eigenvalues ---    0.07180   0.09574   0.11780   0.11792   0.13986
     Eigenvalues ---    0.14000   0.15999   0.16000   0.16000   0.16000
     Eigenvalues ---    0.16000   0.16000   0.16000   0.16000   0.16000
     Eigenvalues ---    0.16000   0.18000   0.19748   0.21041   0.22000
     Eigenvalues ---    0.22083   0.22088   0.23481   0.23501   0.24986
     Eigenvalues ---    0.25000   0.25000   0.25000   0.29873   0.29875
     Eigenvalues ---    0.30887   0.33318   0.34076   0.34204   0.34251
     Eigenvalues ---    0.34447   0.35113   0.35155   0.35173   0.35175
     Eigenvalues ---    0.35183   0.35234   0.36070   0.36071   0.36103
     Eigenvalues ---    0.36241   0.42016   0.42336   0.43550   0.43679
     Eigenvalues ---    0.44129   0.46096   0.47697   0.48072   0.48402
     Eigenvalues ---    0.48495
 RFO step:  Lambda=-3.01458015D-03 EMin= 4.32844295D-03
 Linear search not attempted -- first point.
 Iteration  1 RMS(Cart)=  0.05995783 RMS(Int)=  0.00091734
 Iteration  2 RMS(Cart)=  0.00172652 RMS(Int)=  0.00002126
 Iteration  3 RMS(Cart)=  0.00000178 RMS(Int)=  0.00002124
 Iteration  4 RMS(Cart)=  0.00000000 RMS(Int)=  0.00002124
 ITry= 1 IFail=0 DXMaxC= 2.59D-01 DCOld= 1.00D+10 DXMaxT= 3.00D-01 DXLimC= 3.00D+00 Rises=F
 Variable       Old X    -DE/DX   Delta X   Delta X   Delta X     New X
                                 (Linear)    (Quad)   (Total)
    R1        2.88212   0.00160   0.00000   0.00530   0.00530   2.88743
    R2        2.05380   0.00277   0.00000   0.00781   0.00781   2.06161
    R3        2.05394   0.00465   0.00000   0.01312   0.01312   2.06706
    R4        2.05391   0.00543   0.00000   0.01529   0.01529   2.06921
    R5        2.68902   0.00946   0.00000   0.02235   0.02235   2.71138
    R6        2.06987  -0.00014   0.00000  -0.00041  -0.00041   2.06947
    R7        2.06908   0.00020   0.00000   0.00058   0.00058   2.06967
    R8        2.66300   0.00743   0.00000   0.01672   0.01672   2.67972
    R9        2.64024   0.00379   0.00000   0.00817   0.00817   2.64840
   R10        2.86230   0.00237   0.00000   0.00759   0.00759   2.86989
   R11        2.08496  -0.00263   0.00000  -0.00781  -0.00781   2.07715
   R12        2.68498   0.00679   0.00000   0.01592   0.01592   2.70089
   R13        2.88218   0.00111   0.00000   0.00367   0.00367   2.88584
   R14        2.06582   0.00040   0.00000   0.00116   0.00116   2.06698
   R15        2.07203  -0.00011   0.00000  -0.00032  -0.00032   2.07170
   R16        2.05491   0.00438   0.00000   0.01235   0.01235   2.06727
   R17        2.05424   0.00428   0.00000   0.01208   0.01208   2.06632
   R18        2.05297   0.00529   0.00000   0.01490   0.01490   2.06787
   R19        2.62702   0.00776   0.00000   0.01618   0.01618   2.64320
   R20        2.61985   0.00965   0.00000   0.01984   0.01984   2.63969
   R21        2.61377   0.00937   0.00000   0.01922   0.01922   2.63299
   R22        2.03972   0.00455   0.00000   0.01250   0.01250   2.05222
   R23        2.61739   0.01108   0.00000   0.02300   0.02301   2.64040
   R24        2.03970   0.00440   0.00000   0.01211   0.01211   2.05181
   R25        2.61423   0.00874   0.00000   0.01803   0.01803   2.63226
   R26        2.03921   0.00326   0.00000   0.00895   0.00895   2.04816
   R27        3.60026   0.00364   0.00000   0.01986   0.01986   3.62012
   R28        2.61464   0.00930   0.00000   0.01904   0.01904   2.63368
   R29        2.03707   0.00265   0.00000   0.00727   0.00727   2.04433
    A1        1.94137   0.00133   0.00000   0.00904   0.00900   1.95037
    A2        1.91565   0.00116   0.00000   0.00735   0.00732   1.92297
    A3        1.90814   0.00103   0.00000   0.00527   0.00525   1.91339
    A4        1.89590  -0.00105   0.00000  -0.00444  -0.00449   1.89140
    A5        1.89982  -0.00126   0.00000  -0.00810  -0.00812   1.89170
    A6        1.90250  -0.00130   0.00000  -0.00970  -0.00971   1.89279
    A7        1.97078  -0.00113   0.00000  -0.00100  -0.00105   1.96973
    A8        1.93221   0.00120   0.00000   0.00950   0.00944   1.94165
    A9        1.91105   0.00043   0.00000  -0.00117  -0.00116   1.90989
   A10        1.91248   0.00075   0.00000   0.01154   0.01148   1.92395
   A11        1.83835   0.00042   0.00000   0.00170   0.00171   1.84006
   A12        1.89547  -0.00178   0.00000  -0.02218  -0.02215   1.87332
   A13        2.02265   0.00387   0.00000   0.01531   0.01531   2.03796
   A14        1.95679   0.00127   0.00000   0.00829   0.00833   1.96511
   A15        1.96183   0.00237   0.00000   0.01376   0.01376   1.97559
   A16        1.79879  -0.00117   0.00000  -0.00480  -0.00482   1.79398
   A17        1.90307  -0.00311   0.00000  -0.01369  -0.01373   1.88934
   A18        1.94061   0.00008   0.00000  -0.00641  -0.00643   1.93417
   A19        1.90068   0.00074   0.00000   0.00343   0.00337   1.90406
   A20        2.00596  -0.00075   0.00000  -0.00296  -0.00296   2.00300
   A21        1.96782  -0.00300   0.00000  -0.01101  -0.01099   1.95683
   A22        1.82917   0.00164   0.00000   0.01316   0.01318   1.84235
   A23        1.91229   0.00056   0.00000   0.00109   0.00111   1.91340
   A24        1.91978   0.00077   0.00000   0.00478   0.00480   1.92458
   A25        1.93030   0.00170   0.00000   0.00799   0.00800   1.93830
   A26        1.90110  -0.00170   0.00000  -0.01637  -0.01637   1.88473
   A27        1.93856   0.00156   0.00000   0.00950   0.00946   1.94802
   A28        1.91881   0.00105   0.00000   0.00734   0.00730   1.92611
   A29        1.91022   0.00133   0.00000   0.00730   0.00728   1.91750
   A30        1.89634  -0.00117   0.00000  -0.00558  -0.00563   1.89071
   A31        1.89514  -0.00169   0.00000  -0.01208  -0.01210   1.88304
   A32        1.90430  -0.00118   0.00000  -0.00710  -0.00713   1.89717
   A33        2.07852  -0.00169   0.00000  -0.00647  -0.00647   2.07205
   A34        2.11215   0.00157   0.00000   0.00642   0.00642   2.11856
   A35        2.09205   0.00011   0.00000  -0.00020  -0.00022   2.09183
   A36        2.09863  -0.00005   0.00000  -0.00046  -0.00048   2.09815
[...]
     23          1           0        3.078146   -2.591098   -2.197080
     24          1           0        2.320256   -1.762567   -3.568078
     25          1           0        4.090065   -1.859441   -3.448709
     26          1           0        1.060347   -1.188427    2.387138
     27          1           0       -1.283268   -1.288122    3.224154
     28          1           0       -3.179585   -0.921740    1.652540
     29          1           0       -0.377773   -0.371624   -1.566622
 ---------------------------------------------------------------------
                    Distance matrix (angstroms):
                    1          2          3          4          5
     1  C    0.000000
     2  C    1.516694   0.000000
     3  O    2.378319   1.433934   0.000000
     4  C    3.689231   2.400079   1.413194   0.000000
     5  O    4.229381   2.851386   2.343137   1.404378   0.000000
     6  C    4.649536   3.566685   2.933223   2.380399   1.432859
     7  C    5.993168   4.912954   4.005010   3.164617   2.448077
     8  C    4.325153   2.979835   2.441952   1.520109   2.374684
     9  C    4.382727   3.362243   2.881978   2.515534   3.664196
    10  C    5.477740   4.505888   4.237870   3.802606   4.785776
    11  C    6.360059   5.197195   5.040555   4.324196   4.975232
    12  C    6.300482   4.937912   4.780021   3.808983   4.101379
    13  Br   7.924247   6.508507   6.468854   5.395420   5.301524
    14  C    5.390960   3.936664   3.649134   2.540458   2.714082
    15  H    1.093825   2.160467   2.640973   3.976260   4.810776
    16  H    1.093814   2.160084   2.631701   3.972395   4.386128
    17  H    1.094286   2.156454   3.337720   4.531979   4.901610
    18  H    2.167121   1.097605   2.082229   2.667822   3.211584
    19  H    2.170154   1.096042   2.077179   2.665554   2.531854
    20  H    4.352142   3.280495   1.978373   1.099441   2.065447
    21  H    4.974306   3.935703   3.663365   3.233347   2.021302
    22  H    4.025588   3.237609   2.523246   2.498038   2.074160
    23  H    6.047804   5.012653   3.864780   2.985142   2.761096
    24  H    6.689295   5.460670   4.666661   3.601817   2.697154
    25  H    6.538902   5.620851   4.743092   4.110699   3.388907
    26  H    3.902726   3.201077   2.589043   2.690076   4.021858
    27  H    5.879800   5.135463   4.896149   4.667152   5.757685
    28  H    7.288337   6.184742   6.095962   5.407633   6.025907
    29  H    5.731133   4.218597   3.961292   2.745817   2.352550
                    6          7          8          9         10
     6  C    0.000000
     7  C    1.523146   0.000000
     8  C    3.680732   4.308124   0.000000
     9  C    4.875099   5.490368   1.398946   0.000000
    10  C    6.090527   6.632798   2.420249   1.392670   0.000000
    11  C    6.357491   6.817693   2.804776   2.420783   1.395890
    12  C    5.479727   5.893420   2.402834   2.767734   2.396383
    13  Br   6.579358   6.844121   4.167222   4.681646   4.164139
    14  C    4.088351   4.569361   1.395559   2.418084   2.794122
    15  H    5.315893   6.528931   4.433912   4.154171   5.179572
    16  H    4.458881   5.763167   4.915125   5.108051   6.315064
    17  H    5.367133   6.796773   5.010163   5.061118   6.001140
    18  H    4.242783   5.510037   2.634086   2.815391   3.730829
    19  H    3.106218   4.581751   3.381129   4.094336   5.191578
    20  H    2.554702   2.848441   2.150211   2.897642   4.176505
    21  H    1.093812   2.164666   4.392323   5.644855   6.794852
    22  H    1.096260   2.178458   3.983093   4.964767   6.287787
    23  H    2.177663   1.094407   4.066362   5.079527   6.221387
    24  H    2.162842   1.093544   4.444817   5.723806   6.710953
    25  H    2.162956   1.094944   5.353704   6.496933   7.681595
    26  H    5.036480   5.694027   2.146748   1.084768   2.158507
    27  H    7.016026   7.562585   3.404191   2.152471   1.085578
    28  H    7.413950   7.837326   3.888194   3.408258   2.164914
    29  H    3.606807   4.016224   2.149772   3.398002   3.875417
                   11         12         13         14         15
    11  C    0.000000
    12  C    1.391636   0.000000
    13  Br   2.862007   1.913914   0.000000
    14  C    2.433177   1.392346   2.861609   0.000000
    15  H    6.238629   6.407074   8.151142   5.628879   0.000000
    16  H    7.205791   7.050532   8.658390   6.007370   1.771792
    17  H    6.785832   6.729742   8.235239   5.920276   1.775632
    18  H    4.360924   4.225397   5.801494   3.459963   2.511759
    19  H    5.654521   5.143874   6.487774   4.042533   3.078042
    20  H    4.779835   4.345361   5.923117   3.150631   4.495442
    21  H    6.938521   5.951170   6.840749   4.592650   5.797161
    22  H    6.772407   6.071966   7.365375   4.694345   4.662516
    23  H    6.522260   5.752606   6.861410   4.496457   6.409126
    24  H    6.672005   5.602430   6.274915   4.366757   7.250260
    25  H    7.906933   6.984837   7.891030   5.655121   7.115729
    26  H    3.407061   3.852403   5.766290   3.394983   3.466187
    27  H    2.148721   3.381158   5.010692   3.879698   5.398383
    28  H    1.083491   2.152180   2.962322   3.410521   7.117538
    29  H    3.413402   2.158786   2.974199   1.081304   6.141271
                   16         17         18         19         20
    16  H    0.000000
    17  H    1.775766   0.000000
    18  H    3.076211   2.510751   0.000000
    19  H    2.521306   2.509164   1.769868   0.000000
    20  H    4.468788   5.309834   3.639492   3.612723   0.000000
    21  H    4.752956   5.513152   4.604386   3.192266   3.596247
    22  H    3.645747   4.823775   4.117187   2.923456   2.571279
    23  H    5.853052   6.958840   5.563235   4.918719   2.314777
    24  H    6.575717   7.423263   5.901982   5.053030   3.406371
    25  H    6.140895   7.330886   6.337790   5.225481   3.742681
    26  H    4.568320   4.683368   2.850029   4.123314   2.901887
    27  H    6.749370   6.370532   4.344857   5.939386   4.957808
    28  H    8.180470   7.642340   5.283831   6.642009   5.840307
    29  H    6.226485   6.230122   3.921379   4.048684   3.348208
                   21         22         23         24         25
    21  H    0.000000
    22  H    1.769776   0.000000
    23  H    3.082491   2.538102   0.000000
    24  H    2.507905   3.082333   1.772144   0.000000
    25  H    2.506287   2.522652   1.768015   1.776473   0.000000
    26  H    5.872961   4.889566   5.201352   6.114050   6.609581
    27  H    7.753861   7.109601   7.078804   7.703564   8.586397
    28  H    7.964530   7.851801   7.534289   7.629553   8.930276
    29  H    3.944876   4.409226   4.155348   3.635920   5.071236
                   26         27         28         29
    26  H    0.000000
    27  H    2.490595   0.000000
    28  H    4.311354   2.490025   0.000000
    29  H    4.285741   4.960990   4.302996   0.000000
 Stoichiometry    C11H15BrO2
 Framework group  C1[X(C11H15BrO2)]
 Deg. of freedom    81
 Full point group                 C1      NOp   1
 RotChk:  IX=3 Diff= 2.22D-15
 Largest Abelian subgroup         C1      NOp   1
 Largest concise Abelian subgroup C1      NOp   1
                         Standard orientation:                         
 ---------------------------------------------------------------------
 Center     Atomic      Atomic             Coordinates (Angstroms)
 Number     Number       Type             X           Y           Z
 ---------------------------------------------------------------------
      1          6           0        3.906084    2.226116   -1.252172
      2          6           0        2.748247    1.260211   -1.088460
      3          8           0        2.827193    0.717241    0.236349
      4          6           0        1.808363   -0.206037    0.562937
      5          8           0        1.778798   -1.305810   -0.309933
      6          6           0        2.902446   -2.185336   -0.179799
      7          6           0        2.680934   -3.228363    0.907860
      8          6           0        0.427607    0.429346    0.585968
      9          6           0        0.276439    1.701654    1.147602
     10          6           0       -0.983025    2.291936    1.217223
     11          6           0       -2.106801    1.622105    0.730434
     12          6           0       -1.938841    0.356896    0.175741
     13         35           0       -3.468575   -0.574190   -0.499584
     14          6           0       -0.688490   -0.250520    0.096384
     15          1           0        3.839321    3.036259   -0.520282
     16          1           0        4.860465    1.712087   -1.106014
     17          1           0        3.897266    2.663237   -2.255322
     18          1           0        1.787220    1.772027   -1.227059
     19          1           0        2.799861    0.448542   -1.823196
     20          1           0        2.077448   -0.526829    1.579529
     21          1           0        3.011281   -2.666107   -1.156242
     22          1           0        3.807938   -1.596253    0.006884
     23          1           0        2.577100   -2.765065    1.893913
     24          1           0        1.774243   -3.804908    0.704527
     25          1           0        3.529743   -3.918650    0.951793
     26          1           0        1.153773    2.223367    1.514783
     27          1           0       -1.097190    3.280591    1.650821
     28          1           0       -3.091670    2.071091    0.779393
     29          1           0       -0.572387   -1.232249   -0.341735
 ---------------------------------------------------------------------
 Rotational constants (GHZ):           0.7351044           0.2525723           0.2096572
 Leave Link  202 at Tue Sep 17 11:24:31 2024, MaxMem=  1342177280 cpu:               0.0 elap:               0.0
 (Enter /groups/ReismanLab/Software/Gaussian16_RevC/Linux_Binary_AVX2-enabled-CPU/g16/l301.exe)
 Standard basis: def2TZVP (5D, 7F)
 Ernie: Thresh=  0.10000D-02 Tol=  0.10000D-05 Strict=F.
 There are   613 symmetry adapted cartesian basis functions of A   symmetry.
 There are   541 symmetry adapted basis functions of A   symmetry.
   541 basis functions,   897 primitive gaussians,   613 cartesian basis functions
    66 alpha electrons       66 beta electrons
       nuclear repulsion energy      1194.1895650459 Hartrees.
 IExCor= 4336 DFT=T Ex+Corr=M062X ExCW=0 ScaHFX=  0.540000
 ScaDFX=  1.000000  1.000000  1.000000  1.000000 ScalE2=  1.000000  1.000000
 IRadAn=      5 IRanWt=     -1 IRanGd=            0 ICorTp=0 IEmpDi=  4
 NAtoms=   29 NActive=   29 NUniq=   29 SFac= 1.00D+00 NAtFMM=   60 NAOKFM=F Big=F
 Integral buffers will be    131072 words long.
 Raffenetti 2 integral format.
 Two-electron integral symmetry is turned on.
 ------------------------------------------------------------------------------
 Polarizable Continuum Model (PCM)
 =================================
 Model                : PCM.
 Atomic radii         : SMD-Coulomb.
 Polarization charges : Total charges.
 Charge compensation  : None.
 Solution method      : On-the-fly selection.
 Cavity type          : VdW (van der Waals Surface) (Alpha=1.000).
 Cavity algorithm     : GePol (No added spheres)
                        Default sphere list used, NSphG=   29.
                        Lebedev-Laikov grids with approx.  5.0 points / Ang**2.
                        Smoothing algorithm: York/Karplus (Gamma=1.0000).
                        Polarization charges: spherical gaussians, with
                                              point-specific exponents (IZeta= 3).
                        Self-potential: point-specific (ISelfS= 7).
                        Self-field    : sphere-specific E.n sum rule (ISelfD= 2).
 Solvent              : 1,4-Dioxane, Eps=   2.209900 Eps(inf)=   2.023222
 ------------------------------------------------------------------------------
 GePol: Number of generator spheres                  =      29
 GePol: Total number of spheres                      =      29
 GePol: Number of exposed spheres                    =      29 (100.00%)
 GePol: Number of points                             =    2201
 GePol: Average weight of points                     =       0.13
 GePol: Minimum weight of points                     =   0.49D-10
 GePol: Maximum weight of points                     =    0.21647
 GePol: Number of points with low weight             =      95
 GePol: Fraction of low-weight points (<1% of avg)   =       4.32%
 GePol: Cavity surface area                          =    275.200 Ang**2
 GePol: Cavity volume                                =    273.194 Ang**3
 ------------------------------------------------------------------------------
 Atomic radii for non-electrostatic terms: SMD-CDS.
 ------------------------------------------------------------------------------
 PCM non-electrostatic energy =        -0.0050424500 Hartrees.
 Nuclear repulsion after PCM non-electrostatic terms =     1194.1845225960 Hartrees.
 Leave Link  301 at Tue Sep 17 11:24:31 2024, MaxMem=  1342177280 cpu:               0.1 elap:               0.1
 (Enter /groups/ReismanLab/Software/Gaussian16_RevC/Linux_Binary_AVX2-enabled-CPU/g16/l302.exe)
 NPDir=0 NMtPBC=     1 NCelOv=     1 NCel=       1 NClECP=     1 NCelD=      1
         NCelK=      1 NCelE2=     1 NClLst=     1 CellRange=     0.0.
 One-electron integrals computed using PRISM.
 One-electron integral symmetry used in STVInt
   1 Symmetry operations used in ECPInt.
 ECPInt:  NShTT=   24090 NPrTT=   76252 LenC2=   22093 LenP2D=   50719.
 LDataN:  DoStor=T MaxTD1= 6 Len=  172
 NBasis=   541 RedAO= T EigKep=  7.74D-06  NBF=   541
 NBsUse=   541 1.00D-06 EigRej= -1.00D+00 NBFU=   541
 Precomputing XC quadrature grid using
 IXCGrd= 4 IRadAn=           5 IRanWt=          -1 IRanGd=           0 AccXCQ= 0.00D+00.
 Generated NRdTot=       0 NPtTot=           0 NUsed=           0 NTot=          32
 NSgBfM=   607   607   607   607   607 MxSgAt=    29 MxSgA2=    29.
 Leave Link  302 at Tue Sep 17 11:24:32 2024, MaxMem=  1342177280 cpu:               1.0 elap:               1.0
 (Enter /groups/ReismanLab/Software/Gaussian16_RevC/Linux_Binary_AVX2-enabled-CPU/g16/l303.exe)
 DipDrv:  MaxL=1.
 Leave Link  303 at Tue Sep 17 11:24:32 2024, MaxMem=  1342177280 cpu:               0.1 elap:               0.1
 (Enter /groups/ReismanLab/Software/Gaussian16_RevC/Linux_Binary_AVX2-enabled-CPU/g16/l308.exe)
 Leave Link  308 at Tue Sep 17 11:24:32 2024, MaxMem=  1342177280 cpu:               0.1 elap:               0.1
 (Enter /groups/ReismanLab/Software/Gaussian16_RevC/Linux_Binary_AVX2-enabled-CPU/g16/l401.exe)
 Initial guess from the checkpoint file:  "smiles_00034_conf_3.chk"
 B after Tr=     0.000000    0.000000   -0.000000
         Rot=    1.000000    0.000000   -0.000000    0.000000 Ang=   0.00 deg.
 Guess basis will be translated and rotated to current coordinates.
 JPrj=2 DoOrth=T DoCkMO=T.
 Leave Link  401 at Tue Sep 17 11:24:32 2024, MaxMem=  1342177280 cpu:               0.3 elap:               0.4
 (Enter /groups/ReismanLab/Software/Gaussian16_RevC/Linux_Binary_AVX2-enabled-CPU/g16/l502.exe)
 Integral symmetry usage will be decided dynamically.
 Closed shell SCF:
 Using DIIS extrapolation, IDIIS=  1040.
 NGot=  1342177280 LenX=  1341415894 LenY=  1341039512
 Requested convergence on RMS density matrix=1.00D-08 within  32 cycles.
 Requested convergence on MAX density matrix=1.00D-06.
 Requested convergence on             energy=1.00D-06.
 No special actions if energy rises.
 Fock matrices will be formed incrementally for  20 cycles.

 Cycle   1  Pass 1  IDiag  1:
 FoFJK:  IHMeth= 1 ICntrl=       0 DoSepK=F KAlg= 0 I1Cent=           0 FoldK=F
 IRaf= 870000000 NMat=       1 IRICut=       1 DoRegI=T DoRafI=F ISym2E= 0 IDoP0=0 IntGTp=1.
 FoFCou: FMM=F IPFlag=           0 FMFlag=      100000 FMFlg1=           0
         NFxFlg=           0 DoJE=F BraDBF=F KetDBF=F FulRan=T
         wScrn=  0.000000 ICntrl=         0 IOpCl=  0 I1Cent=           0 NGrid=           0
         NMat0=    1 NMatS0=      1 NMatT0=    0 NMatD0=    1 NMtDS0=    0 NMtDT0=    0
 Symmetry not used in FoFCou.
 Inv3:  Mode=1 IEnd=    14533203.
 Iteration    1 A*A^-1 deviation from unit magnitude is 2.66D-15 for    906.
 Iteration    1 A*A^-1 deviation from orthogonality  is 2.90D-15 for   1747    185.
 Iteration    1 A^-1*A deviation from unit magnitude is 2.66D-15 for    906.
 Iteration    1 A^-1*A deviation from orthogonality  is 2.11D-15 for   1970    937.
 E= -3152.81222921992    
 DIIS: error= 5.06D-08 at cycle   1 NSaved=   1.
 NSaved= 1 IEnMin= 1 EnMin= -3152.81222921992     IErMin= 1 ErrMin= 5.06D-08
 ErrMax= 5.06D-08  0.00D+00 EMaxC= 1.00D-01 BMatC= 6.01D-13 BMatP= 6.01D-13
 IDIUse=1 WtCom= 1.00D+00 WtEn= 0.00D+00
 Coeff-Com:  0.100D+01
 Coeff:      0.100D+01
 Gap=     0.302 Goal=   None    Shift=    0.000
 RMSDP=3.74D-09 MaxDP=1.38D-07              OVMax= 1.00D-06

 Error on total polarization charges =  0.02846
 SCF Done:  E(RM062X) =  -3152.81222922     A.U. after    1 cycles
            NFock=  1  Conv=0.37D-08     -V/T= 2.0020
 KE= 3.146384406292D+03 PE=-9.888789434645D+03 EE= 2.395408276537D+03
 SMD-CDS (non-electrostatic) energy       (kcal/mol) =      -3.16
 (included in total energy above)
 Leave Link  502 at Tue Sep 17 11:27:14 2024, MaxMem=  1342177280 cpu:             160.3 elap:             161.7
 (Enter /groups/ReismanLab/Software/Gaussian16_RevC/Linux_Binary_AVX2-enabled-CPU/g16/l508.exe)
 QCSCF skips out because SCF is already converged.
 Leave Link  508 at Tue Sep 17 11:27:14 2024, MaxMem=  1342177280 cpu:               0.0 elap:               0.0
 (Enter /groups/ReismanLab/Software/Gaussian16_RevC/Linux_Binary_AVX2-enabled-CPU/g16/l801.exe)
 DoSCS=F DFT=T ScalE2(SS,OS)=  1.000000  1.000000
 Range of M.O.s used for correlation:     1   541
 NBasis=   541 NAE=    66 NBE=    66 NFC=     0 NFV=     0
 NROrb=    541 NOA=    66 NOB=    66 NVA=   475 NVB=   475

 **** Warning!!: The largest alpha MO coefficient is  0.44384679D+02

 Leave Link  801 at Tue Sep 17 11:27:14 2024, MaxMem=  1342177280 cpu:               0.0 elap:               0.0
 (Enter /groups/ReismanLab/Software/Gaussian16_RevC/Linux_Binary_AVX2-enabled-CPU/g16/l1002.exe)
 Minotr:  Closed shell wavefunction.
 NEqPCM:  Using equilibrium solvation (IEInf=0, Eps=   2.2099, EpsInf=   2.0232)
          Direct CPHF calculation.
          Differentiating once with respect to magnetic field using GIAOs.
          Electric field/nuclear overlap derivatives assumed to be zero.
          Requested convergence is 1.0D-08 RMS, and 1.0D-07 maximum.
          Secondary convergence is 1.0D-12 RMS, and 1.0D-12 maximum.
          NewPWx=T KeepS1=F KeepF1=F KeepIn=T MapXYZ=F SortEE=F KeepMc=T.
         8755 words used for storage of precomputed grid.
 Two-electron integral symmetry used by symmetrizing perturbed Fock matrices.
          MDV=    1342177280 using IRadAn=       1.
          Solving linear equations simultaneously, MaxMat=     384.
   1 Symmetry operations used in ECPInt.
 ECPInt:  NShTT=   24090 NPrTT=   76252 LenC2=   24091 LenP2D=   76252.
 LDataN:  DoStor=T MaxTD1= 7 Len=  274
 FoFJK:  IHMeth= 1 ICntrl=    6127 DoSepK=F KAlg= 0 I1Cent=           0 FoldK=F
 IRaf=         1 NMat=       1 IRICut=       1 DoRegI=T DoRafI=F ISym2E= 0 IDoP0=0 IntGTp=1.
          There are     3 degrees of freedom in the 1st order CPHF.  IDoFFX=0 NUNeed=     3.
      3 vectors produced by pass  0 Test12= 1.05D-12 3.33D-08 XBig12= 1.91D+01 7.16D-01.
 AX will form     3 AO Fock derivatives at one time.
      3 vectors produced by pass  1 Test12= 1.05D-12 3.33D-08 XBig12= 1.11D-01 8.19D-02.
      3 vectors produced by pass  2 Test12= 1.05D-12 3.33D-08 XBig12= 1.72D-03 1.23D-02.
      3 vectors produced by pass  3 Test12= 1.05D-12 3.33D-08 XBig12= 2.18D-05 1.00D-03.
      3 vectors produced by pass  4 Test12= 1.05D-12 3.33D-08 XBig12= 1.82D-07 1.20D-04.
      3 vectors produced by pass  5 Test12= 1.05D-12 3.33D-08 XBig12= 2.02D-09 1.28D-05.
