 Entering Gaussian System, Link 0=g16
 Input=smiles_00119_conf_2.gjf
 Output=smiles_00119_conf_2.log
 Initial command:
 /groups/ReismanLab/Software/Gaussian16_RevC/Linux_Binary_AVX2-enabled-CPU/g16/l1.exe "/central/groups/ReismanLab/DM/dft_final/smiles_00119/Gau-673388.inp" -scrdir="/central/groups/ReismanLab/DM/dft_final/smiles_00119/"
 Entering Link 1 = /groups/ReismanLab/Software/Gaussian16_RevC/Linux_Binary_AVX2-enabled-CPU/g16/l1.exe PID=    673389.
  
 Copyright (c) 1988-2021, Gaussian, Inc.  All Rights Reserved.
  
 This is part of the Gaussian(R) 16 program.  It is based on
 the Gaussian(R) 09 system (copyright 2009, Gaussian, Inc.),
 the Gaussian(R) 03 system (copyright 2003, Gaussian, Inc.),
 the Gaussian(R) 98 system (copyright 1998, Gaussian, Inc.),
 the Gaussian(R) 94 system (copyright 1995, Gaussian, Inc.),
 the Gaussian 92(TM) system (copyright 1992, Gaussian, Inc.),
 the Gaussian 90(TM) system (copyright 1990, Gaussian, Inc.),
 the Gaussian 88(TM) system (copyright 1988, Gaussian, Inc.),
 the Gaussian 86(TM) system (copyright 1986, Carnegie Mellon
 University), and the Gaussian 82(TM) system (copyright 1983,
 Carnegie Mellon University). Gaussian is a federally registered
 trademark of Gaussian, Inc.
  
 This software contains proprietary and confidential information,
 including trade secrets, belonging to Gaussian, Inc.
  
 This software is provided under written license and may be
 used, copied, transmitted, or stored only in accord with that
 written license.
  
 The following legend is applicable only to US Government
 contracts under FAR:
  
                    RESTRICTED RIGHTS LEGEND
  
 Use, reproduction and disclosure by the US Government is
 subject to restrictions as set forth in subparagraphs (a)
 and (c) of the Commercial Computer Software - Restricted
 Rights clause in FAR 52.227-19.
  
 Gaussian, Inc.
 340 Quinnipiac St., Bldg. 40, Wallingford CT 06492
  
  
 ---------------------------------------------------------------
 Warning -- This program may not be used in any manner that
 competes with the business of Gaussian, Inc. or will provide
 assistance to any competitor of Gaussian, Inc.  The licensee
 of this program is prohibited from giving any competitor of
 Gaussian, Inc. access to this program.  By using this program,
 the user acknowledges that Gaussian, Inc. is engaged in the
 business of creating and licensing software in the field of
 computational chemistry and represents and warrants to the
 licensee that it is not a competitor of Gaussian, Inc. and that
 it will not use this program in any manner prohibited above.
 ---------------------------------------------------------------
  

 Cite this work as:
 Gaussian 16, Revision C.02,
 M. J. Frisch, G. W. Trucks, H. B. Schlegel, G. E. Scuseria, 
 M. A. Robb, J. R. Cheeseman, G. Scalmani, V. Barone, 
 G. A. Petersson, H. Nakatsuji, X. Li, M. Caricato, A. V. Marenich, 
 J. Bloino, B. G. Janesko, R. Gomperts, B. Mennucci, H. P. Hratchian, 
 J. V. Ortiz, A. F. Izmaylov, J. L. Sonnenberg, D. Williams-Young, 
 F. Ding, F. Lipparini, F. Egidi, J. Goings, B. Peng, A. Petrone, 
 T. Henderson, D. Ranasinghe, V. G. Zakrzewski, J. Gao, N. Rega, 
 G. Zheng, W. Liang, M. Hada, M. Ehara, K. Toyota, R. Fukuda, 
 J. Hasegawa, M. Ishida, T. Nakajima, Y. Honda, O. Kitao, H. Nakai, 
 T. Vreven, K. Throssell, J. A. Montgomery, Jr., J. E. Peralta, 
 F. Ogliaro, M. J. Bearpark, J. J. Heyd, E. N. Brothers, K. N. Kudin, 
 V. N. Staroverov, T. A. Keith, R. Kobayashi, J. Normand, 
 K. Raghavachari, A. P. Rendell, J. C. Burant, S. S. Iyengar, 
 J. Tomasi, M. Cossi, J. M. Millam, M. Klene, C. Adamo, R. Cammi, 
 J. W. Ochterski, R. L. Martin, K. Morokuma, O. Farkas, 
 J. B. Foresman, and D. J. Fox, Gaussian, Inc., Wallingford CT, 2019.
 
 ******************************************
 Gaussian 16:  ES64L-G16RevC.02  7-Dec-2021
                17-Sep-2024 
 ******************************************
 %nprocshared=8
 Will use up to    8 processors via shared memory.
 %Mem=10GB
 %Chk=smiles_00119_conf_2.chk
 ----------------------------------------------------------------------
 #p B3LYP/6-31G(d,p) EmpiricalDispersion=GD3BJ opt freq scf(xqc,tight) 
 integral(grid=ultrafine)
 ----------------------------------------------------------------------
 1/18=20,19=15,26=4,38=1/1,3;
 2/9=110,12=2,17=6,18=5,40=1/2;
 3/5=1,6=6,7=101,11=2,25=1,30=1,71=1,74=-5,75=-5,124=41/1,2,3;
 4//1;
 5/5=2,8=3,13=1,32=2,38=5/2,8;
 6/7=2,8=2,9=2,10=2,28=1/1;
 7//1,2,3,16;
 1/18=20,19=15,26=4/3(2);
 2/9=110/2;
 99//99;
 2/9=110/2;
 3/5=1,6=6,7=101,11=2,25=1,30=1,71=1,74=-5,75=-5,124=41/1,2,3;
 4/5=5,16=3,69=1/1;
 5/5=2,8=3,13=1,32=2,38=5/2,8;
 7//1,2,3,16;
 1/18=20,19=15,26=4/3(-5);
 2/9=110/2;
 6/7=2,8=2,9=2,10=2,19=2,28=1/1;
 99/9=1/99;
 Leave Link    1 at Tue Sep 17 09:50:45 2024, MaxMem=  1342177280 cpu:               0.1 elap:               2.9
 (Enter /groups/ReismanLab/Software/Gaussian16_RevC/Linux_Binary_AVX2-enabled-CPU/g16/l101.exe)
 ----------------------------------
 opt-freq conformers_unique/conf_ac
 ----------------------------------
 Symbolic Z-matrix:
 Charge =  0 Multiplicity = 1
 C                     4.12464  -0.22168   0.53715 
 O                     2.77975   0.24371   0.59047 
 C                     1.88118  -0.37045  -0.1863 
 O                     2.11998  -1.2721   -0.93831 
 C                     0.52386   0.24708   0.00525 
 C                     0.36375   1.58329   0.36646 
 C                    -0.94618   2.03023   0.48059 
 N                    -1.98225   1.23879   0.26749 
 C                    -1.71195  -0.01115  -0.06596 
 Cl                   -3.03992  -1.03475  -0.33206 
 N                    -0.51616  -0.54629  -0.21228 
 H                     4.75963   0.60634   0.22226 
 H                     4.20453  -1.04903  -0.16982 
 H                     4.41049  -0.54959   1.53629 
 H                     1.21019   2.22394   0.54244 
 H                    -1.18496   3.0499    0.75184 
 
 ITRead=  0  0  0  0  0  0  0  0  0  0  0  0  0  0  0  0
 MicOpt= -1 -1 -1 -1 -1 -1 -1 -1 -1 -1 -1 -1 -1 -1 -1 -1
 NAtoms=     16 NQM=       16 NQMF=       0 NMMI=      0 NMMIF=      0
                NMic=       0 NMicF=      0.
                    Isotopes and Nuclear Properties:
 (Nuclear quadrupole moments (NQMom) in fm**2, nuclear magnetic moments (NMagM)
  in nuclear magnetons)

  Atom         1           2           3           4           5           6           7           8           9          10
 IAtWgt=          12          16          12          16          12          12          12          14          12          35
 AtmWgt=  12.0000000  15.9949146  12.0000000  15.9949146  12.0000000  12.0000000  12.0000000  14.0030740  12.0000000  34.9688527
 NucSpn=           0           0           0           0           0           0           0           2           0           3
 AtZEff=  -0.0000000  -0.0000000  -0.0000000  -0.0000000  -0.0000000  -0.0000000  -0.0000000  -0.0000000  -0.0000000  -0.0000000
 NQMom=    0.0000000   0.0000000   0.0000000   0.0000000   0.0000000   0.0000000   0.0000000   2.0440000   0.0000000  -8.1650000
 NMagM=    0.0000000   0.0000000   0.0000000   0.0000000   0.0000000   0.0000000   0.0000000   0.4037610   0.0000000   0.8218740
 AtZNuc=   6.0000000   8.0000000   6.0000000   8.0000000   6.0000000   6.0000000   6.0000000   7.0000000   6.0000000  17.0000000

  Atom        11          12          13          14          15          16
 IAtWgt=          14           1           1           1           1           1
 AtmWgt=  14.0030740   1.0078250   1.0078250   1.0078250   1.0078250   1.0078250
 NucSpn=           2           1           1           1           1           1
 AtZEff=  -0.0000000  -0.0000000  -0.0000000  -0.0000000  -0.0000000  -0.0000000
 NQMom=    2.0440000   0.0000000   0.0000000   0.0000000   0.0000000   0.0000000
 NMagM=    0.4037610   2.7928460   2.7928460   2.7928460   2.7928460   2.7928460
 AtZNuc=   7.0000000   1.0000000   1.0000000   1.0000000   1.0000000   1.0000000
 Leave Link  101 at Tue Sep 17 09:50:45 2024, MaxMem=  1342177280 cpu:               0.2 elap:               0.3
 (Enter /groups/ReismanLab/Software/Gaussian16_RevC/Linux_Binary_AVX2-enabled-CPU/g16/l103.exe)

 GradGradGradGradGradGradGradGradGradGradGradGradGradGradGradGradGradGrad
 Berny optimization.
 Initialization pass.
                           ----------------------------
                           !    Initial Parameters    !
                           ! (Angstroms and Degrees)  !
 --------------------------                            --------------------------
 ! Name  Definition              Value          Derivative Info.                !
 --------------------------------------------------------------------------------
 ! R1    R(1,2)                  1.4241         estimate D2E/DX2                !
 ! R2    R(1,12)                 1.0899         estimate D2E/DX2                !
 ! R3    R(1,13)                 1.0912         estimate D2E/DX2                !
 ! R4    R(1,14)                 1.0897         estimate D2E/DX2                !
 ! R5    R(2,3)                  1.3372         estimate D2E/DX2                !
 ! R6    R(3,4)                  1.1981         estimate D2E/DX2                !
 ! R7    R(3,5)                  1.5035         estimate D2E/DX2                !
 ! R8    R(5,6)                  1.3934         estimate D2E/DX2                !
 ! R9    R(5,11)                 1.326          estimate D2E/DX2                !
 ! R10   R(6,7)                  1.3888         estimate D2E/DX2                !
 ! R11   R(6,15)                 1.076          estimate D2E/DX2                !
 ! R12   R(7,8)                  1.3211         estimate D2E/DX2                !
 ! R13   R(7,16)                 1.0818         estimate D2E/DX2                !
 ! R14   R(8,9)                  1.3216         estimate D2E/DX2                !
 ! R15   R(9,10)                 1.6977         estimate D2E/DX2                !
 ! R16   R(9,11)                 1.3182         estimate D2E/DX2                !
 ! A1    A(2,1,12)             108.2243         estimate D2E/DX2                !
 ! A2    A(2,1,13)             109.9482         estimate D2E/DX2                !
 ! A3    A(2,1,14)             108.1634         estimate D2E/DX2                !
 ! A4    A(12,1,13)            110.2534         estimate D2E/DX2                !
 ! A5    A(12,1,14)            109.9172         estimate D2E/DX2                !
 ! A6    A(13,1,14)            110.2831         estimate D2E/DX2                !
 ! A7    A(1,2,3)              117.5654         estimate D2E/DX2                !
 ! A8    A(2,3,4)              125.1926         estimate D2E/DX2                !
 ! A9    A(2,3,5)              110.1218         estimate D2E/DX2                !
 ! A10   A(4,3,5)              124.6807         estimate D2E/DX2                !
 ! A11   A(3,5,6)              122.049          estimate D2E/DX2                !
 ! A12   A(3,5,11)             116.1952         estimate D2E/DX2                !
 ! A13   A(6,5,11)             121.7454         estimate D2E/DX2                !
 ! A14   A(5,6,7)              115.9956         estimate D2E/DX2                !
 ! A15   A(5,6,15)             121.5305         estimate D2E/DX2                !
 ! A16   A(7,6,15)             122.4737         estimate D2E/DX2                !
 ! A17   A(6,7,8)              122.2541         estimate D2E/DX2                !
 ! A18   A(6,7,16)             122.15           estimate D2E/DX2                !
 ! A19   A(8,7,16)             115.5958         estimate D2E/DX2                !
 ! A20   A(7,8,9)              116.5455         estimate D2E/DX2                !
 ! A21   A(8,9,10)             116.732          estimate D2E/DX2                !
 ! A22   A(8,9,11)             126.6902         estimate D2E/DX2                !
 ! A23   A(10,9,11)            116.5777         estimate D2E/DX2                !
 ! A24   A(5,11,9)             116.7674         estimate D2E/DX2                !
 ! D1    D(12,1,2,3)           120.541          estimate D2E/DX2                !
 ! D2    D(13,1,2,3)             0.0624         estimate D2E/DX2                !
 ! D3    D(14,1,2,3)          -120.4151         estimate D2E/DX2                !
 ! D4    D(1,2,3,4)             -1.005          estimate D2E/DX2                !
 ! D5    D(1,2,3,5)            179.7635         estimate D2E/DX2                !
 ! D6    D(2,3,5,6)             28.9548         estimate D2E/DX2                !
 ! D7    D(2,3,5,11)          -152.1996         estimate D2E/DX2                !
 ! D8    D(4,3,5,6)           -150.2814         estimate D2E/DX2                !
 ! D9    D(4,3,5,11)            28.5642         estimate D2E/DX2                !
 ! D10   D(3,5,6,7)            178.6351         estimate D2E/DX2                !
 ! D11   D(3,5,6,15)            -1.2368         estimate D2E/DX2                !
 ! D12   D(11,5,6,7)            -0.1468         estimate D2E/DX2                !
 ! D13   D(11,5,6,15)          179.9813         estimate D2E/DX2                !
 ! D14   D(3,5,11,9)          -179.0701         estimate D2E/DX2                !
 ! D15   D(6,5,11,9)            -0.2207         estimate D2E/DX2                !
 ! D16   D(5,6,7,8)              0.3402         estimate D2E/DX2                !
 ! D17   D(5,6,7,16)          -179.772          estimate D2E/DX2                !
 ! D18   D(15,6,7,8)          -179.7892         estimate D2E/DX2                !
 ! D19   D(15,6,7,16)            0.0985         estimate D2E/DX2                !
 ! D20   D(6,7,8,9)             -0.1475         estimate D2E/DX2                !
 ! D21   D(16,7,8,9)           179.9579         estimate D2E/DX2                !
 ! D22   D(7,8,9,10)           179.6536         estimate D2E/DX2                !
 ! D23   D(7,8,9,11)            -0.2782         estimate D2E/DX2                !
 ! D24   D(8,9,11,5)             0.4612         estimate D2E/DX2                !
 ! D25   D(10,9,11,5)         -179.4707         estimate D2E/DX2                !
 --------------------------------------------------------------------------------
 Trust Radius=3.00D-01 FncErr=1.00D-07 GrdErr=1.00D-06 EigMax=2.50D+02 EigMin=1.00D-04
 Number of steps in this run=     75 maximum allowed number of steps=    100.
 GradGradGradGradGradGradGradGradGradGradGradGradGradGradGradGradGradGrad

 Leave Link  103 at Tue Sep 17 09:50:45 2024, MaxMem=  1342177280 cpu:               0.1 elap:               0.0
 (Enter /groups/ReismanLab/Software/Gaussian16_RevC/Linux_Binary_AVX2-enabled-CPU/g16/l202.exe)
                          Input orientation:                          
 ---------------------------------------------------------------------
 Center     Atomic      Atomic             Coordinates (Angstroms)
 Number     Number       Type             X           Y           Z
 ---------------------------------------------------------------------
      1          6           0        4.124638   -0.221676    0.537151
      2          8           0        2.779749    0.243709    0.590473
      3          6           0        1.881185   -0.370451   -0.186303
      4          8           0        2.119980   -1.272096   -0.938312
      5          6           0        0.523856    0.247077    0.005245
      6          6           0        0.363748    1.583287    0.366461
      7          6           0       -0.946179    2.030232    0.480590
      8          7           0       -1.982249    1.238785    0.267489
      9          6           0       -1.711948   -0.011147   -0.065960
     10         17           0       -3.039918   -1.034753   -0.332063
     11          7           0       -0.516160   -0.546289   -0.212276
     12          1           0        4.759630    0.606339    0.222265
     13          1           0        4.204530   -1.049028   -0.169815
     14          1           0        4.410494   -0.549595    1.536287
     15          1           0        1.210191    2.223945    0.542441
     16          1           0       -1.184959    3.049902    0.751838
 ---------------------------------------------------------------------
                    Distance matrix (angstroms):
                    1          2          3          4          5
     1  C    0.000000
     2  O    1.424132   0.000000
     3  C    2.361907   1.337157   0.000000
     4  O    2.701671   2.251698   1.198126   0.000000
     5  C    3.669917   2.330570   1.503454   2.397040   0.000000
     6  C    4.175084   2.771591   2.534809   3.597221   1.393402
     7  C    5.548646   4.133555   3.768555   4.724403   2.359363
     8  N    6.284882   4.875564   4.209714   4.958505   2.707918
     9  C    5.871440   4.546559   3.613057   4.127307   2.251792
    10  Cl   7.262747   6.029433   4.967876   5.200809   3.802281
    11  N    4.712115   3.483033   2.403925   2.828986   1.326038
    12  H    1.089943   2.046218   3.067001   3.441396   4.256519
    13  H    1.091190   2.068624   2.420469   2.232867   3.906136
    14  H    1.089732   2.045293   3.065422   3.448493   4.252615
    15  H    3.804615   2.527282   2.777083   3.904184   2.160473
    16  H    6.240284   4.860007   4.688300   5.697271   3.366493
                    6          7          8          9         10
     6  C    0.000000
     7  C    1.388774   0.000000
     8  N    2.373221   1.321076   0.000000
     9  C    2.652870   2.247743   1.321583   0.000000
    10  Cl   4.350518   3.799774   2.578197   1.697670   0.000000
    11  N    2.375767   2.702488   2.359255   1.318216   2.573383
    12  H    4.505442   5.886464   6.771630   6.507356   7.989581
    13  H    4.687033   6.036113   6.610715   6.007719   7.246278
    14  H    4.721635   6.038538   6.758352   6.351489   7.696411
    15  H    1.076047   2.165937   3.352285   3.728899   5.426536
    16  H    2.167480   1.081812   2.037255   3.211936   4.615205
                   11         12         13         14         15
    11  N    0.000000
    12  H    5.417688   0.000000
    13  H    4.747574   1.789442   0.000000
    14  H    5.227754   1.784582   1.789592   0.000000
    15  H    3.350236   3.913781   4.492852   4.349964   0.000000
    16  H    3.782776   6.449000   6.833539   6.699316   2.542204
                   16
    16  H    0.000000
 Stoichiometry    C6H5ClN2O2
 Framework group  C1[X(C6H5ClN2O2)]
 Deg. of freedom    42
 Full point group                 C1      NOp   1
 Largest Abelian subgroup         C1      NOp   1
 Largest concise Abelian subgroup C1      NOp   1
                         Standard orientation:                         
 ---------------------------------------------------------------------
 Center     Atomic      Atomic             Coordinates (Angstroms)
 Number     Number       Type             X           Y           Z
 ---------------------------------------------------------------------
      1          6           0        4.046468   -0.171178    0.351859
      2          8           0        2.709440    0.318631    0.327430
      3          6           0        1.763392   -0.489120   -0.162999
      4          8           0        1.952722   -1.588345   -0.600452
      5          6           0        0.422892    0.189115   -0.104407
      6          6           0        0.291138    1.574240   -0.179499
      7          6           0       -1.007480    2.065064   -0.142417
      8          7           0       -2.058295    1.271599   -0.035446
      9          6           0       -1.814466   -0.025522    0.032429
     10         17           0       -3.160964   -1.049001    0.179120
     11          7           0       -0.632133   -0.607481   -0.000792
     12          1           0        4.665827    0.498661   -0.244535
     13          1           0        4.080214   -1.181920   -0.057968
     14          1           0        4.389351   -0.171309    1.386242
     15          1           0        1.149710    2.217453   -0.263221
     16          1           0       -1.224678    3.123415   -0.197522
 ---------------------------------------------------------------------
 Rotational constants (GHZ):           2.2729120           0.5296186           0.4394441
 Leave Link  202 at Tue Sep 17 09:50:45 2024, MaxMem=  1342177280 cpu:               0.0 elap:               0.0
 (Enter /groups/ReismanLab/Software/Gaussian16_RevC/Linux_Binary_AVX2-enabled-CPU/g16/l301.exe)
 Standard basis: 6-31G(d,p) (6D, 7F)
 Ernie: Thresh=  0.10000D-02 Tol=  0.10000D-05 Strict=F.
 There are   194 symmetry adapted cartesian basis functions of A   symmetry.
 There are   194 symmetry adapted basis functions of A   symmetry.
   194 basis functions,   367 primitive gaussians,   194 cartesian basis functions
    44 alpha electrons       44 beta electrons
       nuclear repulsion energy       659.2589572568 Hartrees.
 IExCor=  402 DFT=T Ex+Corr=B3LYP ExCW=0 ScaHFX=  0.200000
 ScaDFX=  0.800000  0.720000  1.000000  0.810000 ScalE2=  1.000000  1.000000
 IRadAn=      5 IRanWt=     -1 IRanGd=            0 ICorTp=0 IEmpDi=141
 NAtoms=   16 NActive=   16 NUniq=   16 SFac= 1.00D+00 NAtFMM=   60 NAOKFM=F Big=F
 Integral buffers will be    131072 words long.
 Raffenetti 2 integral format.
 Two-electron integral symmetry is turned on.
 R6Disp:  Grimme-D3(BJ) Dispersion energy=       -0.0298825368 Hartrees.
 Nuclear repulsion after empirical dispersion term =      659.2290747200 Hartrees.
 Leave Link  301 at Tue Sep 17 09:50:46 2024, MaxMem=  1342177280 cpu:               0.1 elap:               0.1
 (Enter /groups/ReismanLab/Software/Gaussian16_RevC/Linux_Binary_AVX2-enabled-CPU/g16/l302.exe)
 NPDir=0 NMtPBC=     1 NCelOv=     1 NCel=       1 NClECP=     1 NCelD=      1
         NCelK=      1 NCelE2=     1 NClLst=     1 CellRange=     0.0.
 One-electron integrals computed using PRISM.
 One-electron integral symmetry used in STVInt
 NBasis=   194 RedAO= T EigKep=  1.21D-03  NBF=   194
 NBsUse=   194 1.00D-06 EigRej= -1.00D+00 NBFU=   194
 Precomputing XC quadrature grid using
 IXCGrd= 4 IRadAn=           5 IRanWt=          -1 IRanGd=           0 AccXCQ= 0.00D+00.
 Generated NRdTot=       0 NPtTot=           0 NUsed=           0 NTot=          32
 NSgBfM=   193   193   193   193   193 MxSgAt=    16 MxSgA2=    16.
 Leave Link  302 at Tue Sep 17 09:50:46 2024, MaxMem=  1342177280 cpu:               0.9 elap:               0.2
 (Enter /groups/ReismanLab/Software/Gaussian16_RevC/Linux_Binary_AVX2-enabled-CPU/g16/l303.exe)
 DipDrv:  MaxL=1.
 Leave Link  303 at Tue Sep 17 09:50:46 2024, MaxMem=  1342177280 cpu:               0.1 elap:               0.0
 (Enter /groups/ReismanLab/Software/Gaussian16_RevC/Linux_Binary_AVX2-enabled-CPU/g16/l401.exe)
 ExpMin= 1.43D-01 ExpMax= 2.52D+04 ExpMxC= 3.78D+03 IAcc=3 IRadAn=         5 AccDes= 0.00D+00
 Harris functional with IExCor=  402 and IRadAn=       5 diagonalized for initial guess.
 HarFok:  IExCor=  402 AccDes= 0.00D+00 IRadAn=         5 IDoV= 1 UseB2=F ITyADJ=14
 ICtDFT=  3500011 ScaDFX=  1.000000  1.000000  1.000000  1.000000
 FoFCou: FMM=F IPFlag=           0 FMFlag=      100000 FMFlg1=           0
         NFxFlg=           0 DoJE=T BraDBF=F KetDBF=T FulRan=T
         wScrn=  0.000000 ICntrl=       500 IOpCl=  0 I1Cent=   200000004 NGrid=           0
         NMat0=    1 NMatS0=      1 NMatT0=    0 NMatD0=    1 NMtDS0=    0 NMtDT0=    0
 Petite list used in FoFCou.
 Harris En= -951.732453695748    
 JPrj=0 DoOrth=F DoCkMO=F.
 Leave Link  401 at Tue Sep 17 09:50:46 2024, MaxMem=  1342177280 cpu:               3.6 elap:               0.5
 (Enter /groups/ReismanLab/Software/Gaussian16_RevC/Linux_Binary_AVX2-enabled-CPU/g16/l502.exe)
 Integral symmetry usage will be decided dynamically.
 Closed shell SCF:
 Using DIIS extrapolation, IDIIS=  1040.
 NGot=  1342177280 LenX=  1342098008 LenY=  1342059931
 Requested convergence on RMS density matrix=1.00D-08 within  32 cycles.
 Requested convergence on MAX density matrix=1.00D-06.
 Requested convergence on             energy=1.00D-06.
 No special actions if energy rises.
 Fock matrices will be formed incrementally for  20 cycles.
 Integral accuracy reduced to 1.0D-05 until final iterations.

 Cycle   1  Pass 0  IDiag  1:
 FoFJK:  IHMeth= 1 ICntrl=       0 DoSepK=F KAlg= 0 I1Cent=           0 FoldK=F
 IRaf= 860000000 NMat=       1 IRICut=       1 DoRegI=T DoRafI=F ISym2E= 0 IDoP0=0 IntGTp=1.
 FoFCou: FMM=F IPFlag=           0 FMFlag=      100000 FMFlg1=           0
         NFxFlg=           0 DoJE=F BraDBF=F KetDBF=F FulRan=T
         wScrn=  0.000000 ICntrl=         0 IOpCl=  0 I1Cent=           0 NGrid=           0
         NMat0=    1 NMatS0=      1 NMatT0=    0 NMatD0=    1 NMtDS0=    0 NMtDT0=    0
 Symmetry not used in FoFCou.
 E= -951.598323085765    
 DIIS: error= 2.32D-02 at cycle   1 NSaved=   1.
 NSaved= 1 IEnMin= 1 EnMin= -951.598323085765     IErMin= 1 ErrMin= 2.32D-02
 ErrMax= 2.32D-02  0.00D+00 EMaxC= 1.00D-01 BMatC= 2.64D-01 BMatP= 2.64D-01
 IDIUse=3 WtCom= 7.68D-01 WtEn= 2.32D-01
 Coeff-Com:  0.100D+01
 Coeff-En:   0.100D+01
 Coeff:      0.100D+01
 Gap=     0.306 Goal=   None    Shift=    0.000
 GapD=    0.306 DampG=1.000 DampE=0.500 DampFc=0.5000 IDamp=-1.
 Damping current iteration by 5.00D-01
 RMSDP=5.99D-03 MaxDP=2.00D-01              OVMax= 2.78D-01

 Cycle   2  Pass 0  IDiag  1:
 RMSU=  2.97D-03    CP:  9.87D-01
 E= -951.655543527730     Delta-E=       -0.057220441965 Rises=F Damp=T
 DIIS: error= 1.01D-02 at cycle   2 NSaved=   2.
 NSaved= 2 IEnMin= 2 EnMin= -951.655543527730     IErMin= 2 ErrMin= 1.01D-02
 ErrMax= 1.01D-02  0.00D+00 EMaxC= 1.00D-01 BMatC= 4.63D-02 BMatP= 2.64D-01
 IDIUse=3 WtCom= 8.99D-01 WtEn= 1.01D-01
 Coeff-Com:  0.228D+00 0.772D+00
 Coeff-En:   0.361D+00 0.639D+00
 Coeff:      0.241D+00 0.759D+00
 Gap=     0.227 Goal=   None    Shift=    0.000
 RMSDP=1.71D-03 MaxDP=5.29D-02 DE=-5.72D-02 OVMax= 1.84D-01

 Cycle   3  Pass 0  IDiag  1:
 RMSU=  1.59D-03    CP:  9.83D-01  7.89D-01
 E= -951.796105249178     Delta-E=       -0.140561721448 Rises=F Damp=F
 DIIS: error= 1.25D-02 at cycle   3 NSaved=   3.
 NSaved= 3 IEnMin= 3 EnMin= -951.796105249178     IErMin= 2 ErrMin= 1.01D-02
 ErrMax= 1.25D-02  0.00D+00 EMaxC= 1.00D-01 BMatC= 3.18D-02 BMatP= 4.63D-02
 IDIUse=3 WtCom= 8.75D-01 WtEn= 1.25D-01
 Coeff-Com:  0.664D-01 0.446D+00 0.488D+00
 Coeff-En:   0.000D+00 0.000D+00 0.100D+01
 Coeff:      0.581D-01 0.390D+00 0.552D+00
 Gap=     0.189 Goal=   None    Shift=    0.000
 RMSDP=1.29D-03 MaxDP=4.83D-02 DE=-1.41D-01 OVMax= 9.68D-02

 Cycle   4  Pass 0  IDiag  1:
 RMSU=  8.99D-04    CP:  9.86D-01  8.27D-01  4.22D-01
 E= -951.813026146822     Delta-E=       -0.016920897644 Rises=F Damp=F
 DIIS: error= 8.38D-03 at cycle   4 NSaved=   4.
 NSaved= 4 IEnMin= 4 EnMin= -951.813026146822     IErMin= 4 ErrMin= 8.38D-03
 ErrMax= 8.38D-03  0.00D+00 EMaxC= 1.00D-01 BMatC= 1.21D-02 BMatP= 3.18D-02
 IDIUse=3 WtCom= 9.16D-01 WtEn= 8.38D-02
 Coeff-Com:  0.654D-02 0.105D+00 0.383D+00 0.506D+00
 Coeff-En:   0.000D+00 0.000D+00 0.310D+00 0.690D+00
 Coeff:      0.599D-02 0.960D-01 0.377D+00 0.521D+00
 Gap=     0.191 Goal=   None    Shift=    0.000
 RMSDP=5.46D-04 MaxDP=1.95D-02 DE=-1.69D-02 OVMax= 4.04D-02

 Cycle   5  Pass 0  IDiag  1:
 RMSU=  2.44D-04    CP:  9.86D-01  8.09D-01  6.06D-01  5.69D-01
 E= -951.822372566688     Delta-E=       -0.009346419866 Rises=F Damp=F
 DIIS: error= 1.29D-03 at cycle   5 NSaved=   5.
 NSaved= 5 IEnMin= 5 EnMin= -951.822372566688     IErMin= 5 ErrMin= 1.29D-03
 ErrMax= 1.29D-03  0.00D+00 EMaxC= 1.00D-01 BMatC= 5.61D-04 BMatP= 1.21D-02
 IDIUse=3 WtCom= 9.87D-01 WtEn= 1.29D-02
 Coeff-Com: -0.169D-03 0.163D-01 0.160D+00 0.290D+00 0.533D+00
 Coeff-En:   0.000D+00 0.000D+00 0.000D+00 0.000D+00 0.100D+01
 Coeff:     -0.167D-03 0.161D-01 0.158D+00 0.286D+00 0.539D+00
 Gap=     0.190 Goal=   None    Shift=    0.000
 RMSDP=1.48D-04 MaxDP=5.05D-03 DE=-9.35D-03 OVMax= 6.52D-03

 Cycle   6  Pass 0  IDiag  1:
 RMSU=  8.09D-05    CP:  9.86D-01  8.15D-01  6.11D-01  5.83D-01  5.05D-01
 E= -951.822836642436     Delta-E=       -0.000464075748 Rises=F Damp=F
 DIIS: error= 4.27D-04 at cycle   6 NSaved=   6.
 NSaved= 6 IEnMin= 6 EnMin= -951.822836642436     IErMin= 6 ErrMin= 4.27D-04
 ErrMax= 4.27D-04  0.00D+00 EMaxC= 1.00D-01 BMatC= 4.65D-05 BMatP= 5.61D-04
 IDIUse=3 WtCom= 9.96D-01 WtEn= 4.27D-03
 Coeff-Com: -0.260D-03 0.227D-03 0.576D-01 0.119D+00 0.303D+00 0.520D+00
 Coeff-En:   0.000D+00 0.000D+00 0.000D+00 0.000D+00 0.745D-02 0.993D+00
 Coeff:     -0.259D-03 0.226D-03 0.574D-01 0.118D+00 0.302D+00 0.522D+00
 Gap=     0.190 Goal=   None    Shift=    0.000
 RMSDP=5.14D-05 MaxDP=1.49D-03 DE=-4.64D-04 OVMax= 2.69D-03

 Cycle   7  Pass 0  IDiag  1:
 RMSU=  2.39D-05    CP:  9.86D-01  8.13D-01  6.11D-01  5.97D-01  6.03D-01
                    CP:  5.51D-01
 E= -951.822877771186     Delta-E=       -0.000041128750 Rises=F Damp=F
 DIIS: error= 1.73D-04 at cycle   7 NSaved=   7.
 NSaved= 7 IEnMin= 7 EnMin= -951.822877771186     IErMin= 7 ErrMin= 1.73D-04
 ErrMax= 1.73D-04  0.00D+00 EMaxC= 1.00D-01 BMatC= 5.43D-06 BMatP= 4.65D-05
 IDIUse=3 WtCom= 9.98D-01 WtEn= 1.73D-03
 Coeff-Com: -0.700D-04-0.150D-02 0.200D-01 0.446D-01 0.134D+00 0.313D+00
 Coeff-Com:  0.490D+00
 Coeff-En:   0.000D+00 0.000D+00 0.000D+00 0.000D+00 0.000D+00 0.475D-01
 Coeff-En:   0.953D+00
 Coeff:     -0.699D-04-0.150D-02 0.200D-01 0.445D-01 0.134D+00 0.312D+00
 Coeff:      0.491D+00
 Gap=     0.190 Goal=   None    Shift=    0.000
 RMSDP=1.38D-05 MaxDP=5.64D-04 DE=-4.11D-05 OVMax= 1.18D-03

 Cycle   8  Pass 0  IDiag  1:
 RMSU=  7.58D-06    CP:  9.86D-01  8.13D-01  6.11D-01  6.00D-01  5.93D-01
                    CP:  6.04D-01  5.85D-01
 E= -951.822882840418     Delta-E=       -0.000005069232 Rises=F Damp=F
 DIIS: error= 4.16D-05 at cycle   8 NSaved=   8.
 NSaved= 8 IEnMin= 8 EnMin= -951.822882840418     IErMin= 8 ErrMin= 4.16D-05
 ErrMax= 4.16D-05  0.00D+00 EMaxC= 1.00D-01 BMatC= 3.95D-07 BMatP= 5.43D-06
 IDIUse=1 WtCom= 1.00D+00 WtEn= 0.00D+00
 Coeff-Com:  0.819D-04-0.953D-03 0.329D-02 0.799D-02 0.309D-01 0.899D-01
 Coeff-Com:  0.249D+00 0.620D+00
 Coeff:      0.819D-04-0.953D-03 0.329D-02 0.799D-02 0.309D-01 0.899D-01
 Coeff:      0.249D+00 0.620D+00
 Gap=     0.190 Goal=   None    Shift=    0.000
 RMSDP=4.19D-06 MaxDP=1.47D-04 DE=-5.07D-06 OVMax= 2.86D-04

 Initial convergence to 1.0D-05 achieved.  Increase integral accuracy.
 Cycle   9  Pass 1  IDiag  1:
 E= -951.822906096365     Delta-E=       -0.000023255947 Rises=F Damp=F
 DIIS: error= 8.63D-06 at cycle   1 NSaved=   1.
 NSaved= 1 IEnMin= 1 EnMin= -951.822906096365     IErMin= 1 ErrMin= 8.63D-06
 ErrMax= 8.63D-06  0.00D+00 EMaxC= 1.00D-01 BMatC= 6.29D-08 BMatP= 6.29D-08
 IDIUse=1 WtCom= 1.00D+00 WtEn= 0.00D+00
 Coeff-Com:  0.100D+01
 Coeff:      0.100D+01
 Gap=     0.190 Goal=   None    Shift=    0.000
 RMSDP=4.19D-06 MaxDP=1.47D-04 DE=-2.33D-05 OVMax= 1.68D-04

 Cycle  10  Pass 1  IDiag  1:
 RMSU=  5.50D-06    CP:  1.00D+00
 E= -951.822906045629     Delta-E=        0.000000050736 Rises=F Damp=F
 DIIS: error= 1.67D-05 at cycle   2 NSaved=   2.
 NSaved= 2 IEnMin= 1 EnMin= -951.822906096365     IErMin= 1 ErrMin= 8.63D-06
 ErrMax= 1.67D-05  0.00D+00 EMaxC= 1.00D-01 BMatC= 1.16D-07 BMatP= 6.29D-08
 IDIUse=1 WtCom= 1.00D+00 WtEn= 0.00D+00
 Coeff-Com:  0.587D+00 0.413D+00
 Coeff:      0.587D+00 0.413D+00
 Gap=     0.190 Goal=   None    Shift=    0.000
 RMSDP=2.09D-06 MaxDP=6.44D-05 DE= 5.07D-08 OVMax= 1.47D-04

 Cycle  11  Pass 1  IDiag  1:
 RMSU=  1.89D-06    CP:  1.00D+00  8.39D-01
 E= -951.822906146448     Delta-E=       -0.000000100819 Rises=F Damp=F
 DIIS: error= 5.34D-06 at cycle   3 NSaved=   3.
 NSaved= 3 IEnMin= 3 EnMin= -951.822906146448     IErMin= 3 ErrMin= 5.34D-06
 ErrMax= 5.34D-06  0.00D+00 EMaxC= 1.00D-01 BMatC= 8.96D-09 BMatP= 6.29D-08
 IDIUse=1 WtCom= 1.00D+00 WtEn= 0.00D+00
 Coeff-Com:  0.148D+00 0.228D+00 0.624D+00
 Coeff:      0.148D+00 0.228D+00 0.624D+00
 Gap=     0.190 Goal=   None    Shift=    0.000
 RMSDP=6.28D-07 MaxDP=1.85D-05 DE=-1.01D-07 OVMax= 4.14D-05

 Cycle  12  Pass 1  IDiag  1:
 RMSU=  4.91D-07    CP:  1.00D+00  8.68D-01  8.12D-01
 E= -951.822906152896     Delta-E=       -0.000000006448 Rises=F Damp=F
 DIIS: error= 2.45D-06 at cycle   4 NSaved=   4.
 NSaved= 4 IEnMin= 4 EnMin= -951.822906152896     IErMin= 4 ErrMin= 2.45D-06
 ErrMax= 2.45D-06  0.00D+00 EMaxC= 1.00D-01 BMatC= 1.91D-09 BMatP= 8.96D-09
 IDIUse=1 WtCom= 1.00D+00 WtEn= 0.00D+00
 Coeff-Com:  0.358D-02 0.806D-01 0.388D+00 0.528D+00
 Coeff:      0.358D-02 0.806D-01 0.388D+00 0.528D+00
 Gap=     0.190 Goal=   None    Shift=    0.000
 RMSDP=2.60D-07 MaxDP=6.77D-06 DE=-6.45D-09 OVMax= 1.52D-05

 Cycle  13  Pass 1  IDiag  1:
 RMSU=  9.43D-08    CP:  1.00D+00  8.76D-01  8.35D-01  5.22D-01
 E= -951.822906154663     Delta-E=       -0.000000001766 Rises=F Damp=F
 DIIS: error= 4.38D-07 at cycle   5 NSaved=   5.
 NSaved= 5 IEnMin= 5 EnMin= -951.822906154663     IErMin= 5 ErrMin= 4.38D-07
 ErrMax= 4.38D-07  0.00D+00 EMaxC= 1.00D-01 BMatC= 9.54D-11 BMatP= 1.91D-09
 IDIUse=1 WtCom= 1.00D+00 WtEn= 0.00D+00
 Coeff-Com: -0.355D-02 0.398D-01 0.204D+00 0.312D+00 0.448D+00
 Coeff:     -0.355D-02 0.398D-01 0.204D+00 0.312D+00 0.448D+00
 Gap=     0.190 Goal=   None    Shift=    0.000
 RMSDP=5.45D-08 MaxDP=1.54D-06 DE=-1.77D-09 OVMax= 2.61D-06

 Cycle  14  Pass 1  IDiag  1:
 RMSU=  3.74D-08    CP:  1.00D+00  8.76D-01  8.37D-01  5.46D-01  6.03D-01
 E= -951.822906154735     Delta-E=       -0.000000000072 Rises=F Damp=F
 DIIS: error= 2.15D-07 at cycle   6 NSaved=   6.
 NSaved= 6 IEnMin= 6 EnMin= -951.822906154735     IErMin= 6 ErrMin= 2.15D-07
 ErrMax= 2.15D-07  0.00D+00 EMaxC= 1.00D-01 BMatC= 1.05D-11 BMatP= 9.54D-11
 IDIUse=1 WtCom= 1.00D+00 WtEn= 0.00D+00
 Coeff-Com: -0.249D-02 0.185D-01 0.947D-01 0.151D+00 0.288D+00 0.450D+00
 Coeff:     -0.249D-02 0.185D-01 0.947D-01 0.151D+00 0.288D+00 0.450D+00
 Gap=     0.190 Goal=   None    Shift=    0.000
 RMSDP=1.90D-08 MaxDP=6.22D-07 DE=-7.23D-11 OVMax= 1.13D-06

 Cycle  15  Pass 1  IDiag  1:
 RMSU=  1.26D-08    CP:  1.00D+00  8.76D-01  8.35D-01  5.51D-01  6.03D-01
                    CP:  6.39D-01
 E= -951.822906154750     Delta-E=       -0.000000000015 Rises=F Damp=F
 DIIS: error= 4.91D-08 at cycle   7 NSaved=   7.
 NSaved= 7 IEnMin= 7 EnMin= -951.822906154750     IErMin= 7 ErrMin= 4.91D-08
 ErrMax= 4.91D-08  0.00D+00 EMaxC= 1.00D-01 BMatC= 7.68D-13 BMatP= 1.05D-11
 IDIUse=1 WtCom= 1.00D+00 WtEn= 0.00D+00
 Coeff-Com: -0.744D-03 0.345D-02 0.161D-01 0.279D-01 0.804D-01 0.250D+00
 Coeff-Com:  0.623D+00
 Coeff:     -0.744D-03 0.345D-02 0.161D-01 0.279D-01 0.804D-01 0.250D+00
 Coeff:      0.623D+00
 Gap=     0.190 Goal=   None    Shift=    0.000
 RMSDP=4.72D-09 MaxDP=1.27D-07 DE=-1.52D-11 OVMax= 2.28D-07

 SCF Done:  E(RB3LYP) =  -951.822906155     A.U. after   15 cycles
            NFock= 15  Conv=0.47D-08     -V/T= 2.0058
 KE= 9.463188003408D+02 PE=-3.558724822821D+03 EE= 1.001354041605D+03
 Leave Link  502 at Tue Sep 17 09:50:54 2024, MaxMem=  1342177280 cpu:              56.2 elap:               7.7
 (Enter /groups/ReismanLab/Software/Gaussian16_RevC/Linux_Binary_AVX2-enabled-CPU/g16/l508.exe)
 QCSCF skips out because SCF is already converged.
 Leave Link  508 at Tue Sep 17 09:50:54 2024, MaxMem=  1342177280 cpu:               0.0 elap:               0.0
 (Enter /groups/ReismanLab/Software/Gaussian16_RevC/Linux_Binary_AVX2-enabled-CPU/g16/l601.exe)
 Copying SCF densities to generalized density rwf, IOpCl= 0 IROHF=0.

 **********************************************************************

            Population analysis using the SCF Density.

 **********************************************************************

 Orbital symmetries:
       Occupied  (A) (A) (A) (A) (A) (A) (A) (A) (A) (A) (A) (A)
                 (A) (A) (A) (A) (A) (A) (A) (A) (A) (A) (A) (A)
                 (A) (A) (A) (A) (A) (A) (A) (A) (A) (A) (A) (A)
                 (A) (A) (A) (A) (A) (A) (A) (A)
       Virtual   (A) (A) (A) (A) (A) (A) (A) (A) (A) (A) (A) (A)
                 (A) (A) (A) (A) (A) (A) (A) (A) (A) (A) (A) (A)
                 (A) (A) (A) (A) (A) (A) (A) (A) (A) (A) (A) (A)
                 (A) (A) (A) (A) (A) (A) (A) (A) (A) (A) (A) (A)
                 (A) (A) (A) (A) (A) (A) (A) (A) (A) (A) (A) (A)
                 (A) (A) (A) (A) (A) (A) (A) (A) (A) (A) (A) (A)
                 (A) (A) (A) (A) (A) (A) (A) (A) (A) (A) (A) (A)
                 (A) (A) (A) (A) (A) (A) (A) (A) (A) (A) (A) (A)
                 (A) (A) (A) (A) (A) (A) (A) (A) (A) (A) (A) (A)
                 (A) (A) (A) (A) (A) (A) (A) (A) (A) (A) (A) (A)
                 (A) (A) (A) (A) (A) (A) (A) (A) (A) (A) (A) (A)
                 (A) (A) (A) (A) (A) (A) (A) (A) (A) (A) (A) (A)
                 (A) (A) (A) (A) (A) (A)
 The electronic state is 1-A.
 Alpha  occ. eigenvalues -- -101.55578 -19.21310 -19.15332 -14.36221 -14.36190
 Alpha  occ. eigenvalues --  -10.33394 -10.32273 -10.27222 -10.26301 -10.25231
 Alpha  occ. eigenvalues --  -10.22844  -9.47388  -7.23777  -7.22841  -7.22714
 Alpha  occ. eigenvalues --   -1.12845  -1.04027  -1.02999  -0.92522  -0.88487
 Alpha  occ. eigenvalues --   -0.80544  -0.75796  -0.69413  -0.66950  -0.59835
 Alpha  occ. eigenvalues --   -0.55900  -0.54838  -0.50186  -0.49446  -0.48556
 Alpha  occ. eigenvalues --   -0.47991  -0.46730  -0.44189  -0.43190  -0.41843
 Alpha  occ. eigenvalues --   -0.36994  -0.35771  -0.34147  -0.33008  -0.32535
 Alpha  occ. eigenvalues --   -0.31720  -0.29562  -0.28436  -0.26981
 Alpha virt. eigenvalues --   -0.07959  -0.04775   0.02643   0.05188   0.09661
 Alpha virt. eigenvalues --    0.11100   0.11329   0.13135   0.14980   0.15790
 Alpha virt. eigenvalues --    0.16143   0.20961   0.24401   0.25333   0.28780
 Alpha virt. eigenvalues --    0.30492   0.31706   0.35449   0.36843   0.40428
 Alpha virt. eigenvalues --    0.42596   0.42804   0.44476   0.46766   0.48903
 Alpha virt. eigenvalues --    0.50086   0.50502   0.51654   0.55132   0.56073
 Alpha virt. eigenvalues --    0.56737   0.57319   0.58317   0.62190   0.62853
 Alpha virt. eigenvalues --    0.65117   0.65551   0.68715   0.70020   0.73220
 Alpha virt. eigenvalues --    0.76280   0.76829   0.78612   0.79724   0.81122
 Alpha virt. eigenvalues --    0.81559   0.82951   0.84132   0.84336   0.85697
 Alpha virt. eigenvalues --    0.87053   0.88186   0.90124   0.92106   0.93181
 Alpha virt. eigenvalues --    0.94583   0.95962   0.98308   1.00657   1.05651
 Alpha virt. eigenvalues --    1.06502   1.09411   1.11717   1.12976   1.14817
 Alpha virt. eigenvalues --    1.19307   1.21283   1.23056   1.25862   1.31101
 Alpha virt. eigenvalues --    1.33352   1.36156   1.40549   1.43406   1.46687
 Alpha virt. eigenvalues --    1.47910   1.49378   1.55427   1.56246   1.57084
 Alpha virt. eigenvalues --    1.57914   1.64165   1.66428   1.73401   1.76136
 Alpha virt. eigenvalues --    1.79186   1.82360   1.83470   1.84388   1.89367
 Alpha virt. eigenvalues --    1.90275   1.91635   1.92930   1.97076   1.98027
 Alpha virt. eigenvalues --    2.00791   2.02636   2.03462   2.04570   2.05019
 Alpha virt. eigenvalues --    2.07853   2.12482   2.17428   2.19927   2.25310
 Alpha virt. eigenvalues --    2.29233   2.31675   2.33648   2.35774   2.39994
 Alpha virt. eigenvalues --    2.41336   2.43543   2.47826   2.48086   2.49523
 Alpha virt. eigenvalues --    2.50950   2.52559   2.59175   2.61275   2.62800
 Alpha virt. eigenvalues --    2.67519   2.71427   2.72466   2.77864   2.80573
 Alpha virt. eigenvalues --    2.83616   2.87704   2.89575   2.95337   2.99951
 Alpha virt. eigenvalues --    3.01112   3.14931   3.18022   3.23610   3.27754
 Alpha virt. eigenvalues --    3.28777   3.39405   3.41456   3.70136   3.95083
 Alpha virt. eigenvalues --    4.01074   4.02996   4.13104   4.16599   4.26478
 Alpha virt. eigenvalues --    4.34880   4.37363   4.40355   4.49694   4.66485
          Condensed to atoms (all electrons):
               1          2          3          4          5          6
     1  C    4.766388   0.216708  -0.024619  -0.014031   0.006920  -0.000723
     2  O    0.216708   8.239424   0.270998  -0.080440  -0.109248   0.010901
     3  C   -0.024619   0.270998   4.436072   0.581315   0.293948  -0.074945
     4  O   -0.014031  -0.080440   0.581315   7.991914  -0.073648   0.002688
     5  C    0.006920  -0.109248   0.293948  -0.073648   4.891250   0.448769
     6  C   -0.000723   0.010901  -0.074945   0.002688   0.448769   5.088674
     7  C    0.000001   0.000394   0.003745  -0.000075  -0.024943   0.449632
     8  N    0.000000  -0.000000  -0.000156  -0.000002  -0.039569  -0.030550
     9  C    0.000004  -0.000084   0.007603   0.000274  -0.041329  -0.051925
    10  Cl  -0.000000   0.000001  -0.000138   0.000007   0.005528   0.000374
    11  N   -0.000083   0.000906  -0.067832   0.002445   0.458190  -0.052001
    12  H    0.390395  -0.033793   0.001152   0.000454  -0.000064  -0.000033
    13  H    0.375747  -0.032214  -0.008915   0.025240   0.000975   0.000028
    14  H    0.391621  -0.033744   0.001068   0.000466  -0.000249   0.000018
    15  H   -0.000205   0.007279  -0.003149   0.000096  -0.032522   0.362036
    16  H   -0.000000  -0.000002  -0.000105   0.000000   0.003353  -0.063483
               7          8          9         10         11         12
     1  C    0.000001   0.000000   0.000004  -0.000000  -0.000083   0.390395
     2  O    0.000394  -0.000000  -0.000084   0.000001   0.000906  -0.033793
     3  C    0.003745  -0.000156   0.007603  -0.000138  -0.067832   0.001152
     4  O   -0.000075  -0.000002   0.000274   0.000007   0.002445   0.000454
     5  C   -0.024943  -0.039569  -0.041329   0.005528   0.458190  -0.000064
     6  C    0.449632  -0.030550  -0.051925   0.000374  -0.052001  -0.000033
     7  C    4.708017   0.481748  -0.061975   0.005242  -0.033341  -0.000002
     8  N    0.481748   6.754919   0.411053  -0.090747  -0.057550   0.000000
     9  C   -0.061975   0.411053   4.782341   0.301625   0.402863  -0.000000
    10  Cl   0.005242  -0.090747   0.301625  16.811012  -0.092113   0.000000
    11  N   -0.033341  -0.057550   0.402863  -0.092113   6.840551  -0.000001
    12  H   -0.000002   0.000000  -0.000000   0.000000  -0.000001   0.579234
    13  H    0.000001  -0.000000  -0.000000  -0.000000  -0.000014  -0.029356
    14  H    0.000001  -0.000000  -0.000000   0.000000   0.000008  -0.037147
    15  H   -0.032482   0.004218   0.000300   0.000021   0.004593  -0.000035
    16  H    0.393679  -0.053256   0.006545  -0.000213  -0.000306   0.000000
              13         14         15         16
     1  C    0.375747   0.391621  -0.000205  -0.000000
     2  O   -0.032214  -0.033744   0.007279  -0.000002
     3  C   -0.008915   0.001068  -0.003149  -0.000105
     4  O    0.025240   0.000466   0.000096   0.000000
     5  C    0.000975  -0.000249  -0.032522   0.003353
     6  C    0.000028   0.000018   0.362036  -0.063483
     7  C    0.000001   0.000001  -0.032482   0.393679
     8  N   -0.000000  -0.000000   0.004218  -0.053256
     9  C   -0.000000  -0.000000   0.000300   0.006545
    10  Cl  -0.000000   0.000000   0.000021  -0.000213
    11  N   -0.000014   0.000008   0.004593  -0.000306
    12  H   -0.029356  -0.037147  -0.000035   0.000000
    13  H    0.540389  -0.028963   0.000024  -0.000000
    14  H   -0.028963   0.574625   0.000014  -0.000000
    15  H    0.000024   0.000014   0.566407  -0.002134
    16  H   -0.000000  -0.000000  -0.002134   0.591265
 Mulliken charges:
               1
     1  C   -0.108123
     2  O   -0.457086
     3  C    0.583958
     4  O   -0.436701
     5  C    0.212640
     6  C   -0.089459
     7  C    0.110356
     8  N   -0.380109
     9  C    0.242705
    10  Cl   0.059402
    11  N   -0.406314
    12  H    0.129195
    13  H    0.157059
    14  H    0.132282
    15  H    0.125539
    16  H    0.124656
 Sum of Mulliken charges =  -0.00000
 Mulliken charges with hydrogens summed into heavy atoms:
               1
     1  C    0.310414
     2  O   -0.457086
     3  C    0.583958
     4  O   -0.436701
     5  C    0.212640
     6  C    0.036080
     7  C    0.235013
     8  N   -0.380109
     9  C    0.242705
    10  Cl   0.059402
    11  N   -0.406314
 Electronic spatial extent (au):  <R**2>=           2348.3257
 Charge=             -0.0000 electrons
 Dipole moment (field-independent basis, Debye):
    X=              3.4453    Y=              3.4636    Z=              0.4554  Tot=              4.9065
 Quadrupole moment (field-independent basis, Debye-Ang):
   XX=            -62.0901   YY=            -68.5741   ZZ=            -67.7295
   XY=              3.0457   XZ=              2.0086   YZ=             -2.7501
 Traceless Quadrupole moment (field-independent basis, Debye-Ang):
   XX=              4.0412   YY=             -2.4429   ZZ=             -1.5983
   XY=              3.0457   XZ=              2.0086   YZ=             -2.7501
 Octapole moment (field-independent basis, Debye-Ang**2):
  XXX=             81.1899  YYY=             17.1210  ZZZ=              1.3867  XYY=             -4.1840
  XXY=            -10.7445  XXZ=              6.5064  XZZ=              3.4811  YZZ=             -3.0082
  YYZ=              1.2301  XYZ=             -4.6624
 Hexadecapole moment (field-independent basis, Debye-Ang**3):
 XXXX=          -2051.4708 YYYY=           -532.9618 ZZZZ=            -94.3841 XXXY=             42.8553
 XXXZ=             21.1745 YYYX=             11.1721 YYYZ=             -7.3510 ZZZX=              2.9975
 ZZZY=              2.6214 XXYY=           -485.6742 XXZZ=           -390.4663 YYZZ=           -116.8911
 XXYZ=            -12.8236 YYXZ=              3.2927 ZZXY=              2.2958
 N-N= 6.592290747200D+02 E-N=-3.558724825538D+03  KE= 9.463188003408D+02
 No NMR shielding tensors so no spin-rotation constants.
 Leave Link  601 at Tue Sep 17 09:50:54 2024, MaxMem=  1342177280 cpu:               0.6 elap:               0.1
 (Enter /groups/ReismanLab/Software/Gaussian16_RevC/Linux_Binary_AVX2-enabled-CPU/g16/l701.exe)
 ... and contract with generalized density number  0.
 Compute integral first derivatives.
 R6Disp: Adding Grimme-D3(BJ) dispersion energy 1st derivatives to the gradient.
 Leave Link  701 at Tue Sep 17 09:50:54 2024, MaxMem=  1342177280 cpu:               0.6 elap:               0.1
 (Enter /groups/ReismanLab/Software/Gaussian16_RevC/Linux_Binary_AVX2-enabled-CPU/g16/l702.exe)
 L702 exits ... SP integral derivatives will be done elsewhere.
 Leave Link  702 at Tue Sep 17 09:50:54 2024, MaxMem=  1342177280 cpu:               0.1 elap:               0.0
 (Enter /groups/ReismanLab/Software/Gaussian16_RevC/Linux_Binary_AVX2-enabled-CPU/g16/l703.exe)
 Integral derivatives from FoFJK, PRISM(SPDF).
 Compute integral first derivatives, UseDBF=F ICtDFT=           0.
 Calling FoFJK, ICntrl=      2127 FMM=F ISym2X=0 I1Cent= 0 IOpClX= 0 NMat=1 NMatS=1 NMatT=0.
 FoFJK:  IHMeth= 1 ICntrl=    2127 DoSepK=F KAlg= 0 I1Cent=           0 FoldK=F
 IRaf=         0 NMat=       1 IRICut=       1 DoRegI=T DoRafI=F ISym2E= 0 IDoP0=0 IntGTp=1.
 FoFCou: FMM=F IPFlag=           0 FMFlag=      100000 FMFlg1=         800
         NFxFlg=           0 DoJE=F BraDBF=F KetDBF=F FulRan=T
         wScrn=  0.000000 ICntrl=      2127 IOpCl=  0 I1Cent=           0 NGrid=           0
         NMat0=    1 NMatS0=      1 NMatT0=    0 NMatD0=    1 NMtDS0=    0 NMtDT0=    0
 Symmetry not used in FoFCou.
 Leave Link  703 at Tue Sep 17 09:50:57 2024, MaxMem=  1342177280 cpu:              16.3 elap:               2.2
 (Enter /groups/ReismanLab/Software/Gaussian16_RevC/Linux_Binary_AVX2-enabled-CPU/g16/l716.exe)
 Dipole        = 1.35546709D+00 1.36270194D+00 1.79165983D-01
 ***** Axes restored to original set *****
 -------------------------------------------------------------------
 Center     Atomic                   Forces (Hartrees/Bohr)
 Number     Number              X              Y              Z
 -------------------------------------------------------------------
      1        6           0.006908787   -0.004788384   -0.003113613
      2        8          -0.000322136    0.010442947    0.009071308
      3        6          -0.005260612    0.005047285    0.002116245
      4        8           0.000035117   -0.013555528   -0.010513260
      5        6           0.003245358    0.007006379    0.002163614
      6        6           0.003045123   -0.000030541    0.000586927
      7        6           0.007030989    0.005405397    0.001079639
      8        7          -0.018627880    0.002999824    0.000877602
      9        6           0.014132279    0.009032054    0.002527705
     10       17          -0.019547928   -0.014753742   -0.003802739
     11        7           0.002720397   -0.015512978   -0.005390809
     12        1           0.000977175    0.001333019   -0.000014852
     13        1           0.000828136    0.000479244    0.000612623
     14        1           0.000344970    0.000089606    0.001577107
     15        1           0.003095773    0.002354300    0.001177081
     16        1           0.001394452    0.004451118    0.001045422
 -------------------------------------------------------------------
 Cartesian Forces:  Max     0.019547928 RMS     0.007010818
 Leave Link  716 at Tue Sep 17 09:50:57 2024, MaxMem=  1342177280 cpu:               0.1 elap:               0.0
 (Enter /groups/ReismanLab/Software/Gaussian16_RevC/Linux_Binary_AVX2-enabled-CPU/g16/l103.exe)

 GradGradGradGradGradGradGradGradGradGradGradGradGradGradGradGradGradGrad
 Berny optimization.
 FormGI is forming the generalized inverse of G from B-inverse, IUseBI=4.
 GSVD:  received Info=                   1 from GESDD.
 Internal  Forces:  Max     0.024782929 RMS     0.005696495
 Search for a local minimum.
 Step number   1 out of a maximum of   75
 All quantities printed in internal units (Hartrees-Bohrs-Radians)
 RMS Force = .56965D-02 SwitMx=.10000D-02 MixMth= 1
 Mixed Optimization -- RFO/linear search
 Second derivative matrix not updated -- first step.
 ITU=  0
     Eigenvalues ---    0.00720   0.01327   0.01373   0.01767   0.02206
     Eigenvalues ---    0.02281   0.02388   0.02523   0.02585   0.02738
     Eigenvalues ---    0.02752   0.10395   0.10593   0.16000   0.16000
     Eigenvalues ---    0.16000   0.16000   0.16000   0.22427   0.24444
     Eigenvalues ---    0.24996   0.24999   0.25000   0.25000   0.25000
     Eigenvalues ---    0.25000   0.32018   0.34676   0.34819   0.34844
     Eigenvalues ---    0.35776   0.36172   0.36476   0.41844   0.44476
     Eigenvalues ---    0.46259   0.56874   0.57847   0.58770   0.61070
     Eigenvalues ---    0.61928   1.05770
 RFO step:  Lambda=-4.67650305D-03 EMin= 7.20257113D-03
 Linear search not attempted -- first point.
 Iteration  1 RMS(Cart)=  0.06167227 RMS(Int)=  0.00112652
 Iteration  2 RMS(Cart)=  0.00192135 RMS(Int)=  0.00001811
 Iteration  3 RMS(Cart)=  0.00000221 RMS(Int)=  0.00001809
 Iteration  4 RMS(Cart)=  0.00000000 RMS(Int)=  0.00001809
 ITry= 1 IFail=0 DXMaxC= 1.73D-01 DCOld= 1.00D+10 DXMaxT= 3.00D-01 DXLimC= 3.00D+00 Rises=F
 Variable       Old X    -DE/DX   Delta X   Delta X   Delta X     New X
                                 (Linear)    (Quad)   (Total)
    R1        2.69122   0.00953   0.00000   0.02253   0.02253   2.71375
    R2        2.05969   0.00159   0.00000   0.00450   0.00450   2.06419
    R3        2.06205  -0.00070   0.00000  -0.00199  -0.00199   2.06006
    R4        2.05930   0.00151   0.00000   0.00427   0.00427   2.06357
    R5        2.52686   0.01407   0.00000   0.02412   0.02412   2.55098
    R6        2.26413   0.01681   0.00000   0.01582   0.01582   2.27995
    R7        2.84112   0.00359   0.00000   0.01107   0.01107   2.85218
    R8        2.63315   0.00345   0.00000   0.00592   0.00591   2.63905
    R9        2.50585   0.01206   0.00000   0.01950   0.01950   2.52535
   R10        2.62440   0.00535   0.00000   0.01017   0.01015   2.63455
   R11        2.03343   0.00403   0.00000   0.01091   0.01091   2.04434
   R12        2.49647   0.01653   0.00000   0.02689   0.02689   2.52336
   R13        2.04433   0.00415   0.00000   0.01145   0.01145   2.05578
   R14        2.49743   0.01306   0.00000   0.02215   0.02217   2.51960
   R15        3.20813   0.02478   0.00000   0.06764   0.06764   3.27577
   R16        2.49107   0.01203   0.00000   0.01996   0.01997   2.51104
    A1        1.88887  -0.00033   0.00000  -0.00253  -0.00255   1.88632
    A2        1.91896   0.00176   0.00000   0.01187   0.01186   1.93082
    A3        1.88781  -0.00076   0.00000  -0.00522  -0.00523   1.88257
    A4        1.92428  -0.00015   0.00000   0.00041   0.00039   1.92468
    A5        1.91842  -0.00051   0.00000  -0.00561  -0.00563   1.91278
    A6        1.92480  -0.00002   0.00000   0.00095   0.00095   1.92575
    A7        2.05190   0.00207   0.00000   0.00813   0.00813   2.06003
    A8        2.18502   0.00408   0.00000   0.01599   0.01598   2.20100
    A9        1.92199  -0.00093   0.00000  -0.00368  -0.00369   1.91830
   A10        2.17609  -0.00315   0.00000  -0.01241  -0.01242   2.16367
   A11        2.13016  -0.00153   0.00000  -0.00428  -0.00429   2.12587
   A12        2.02799  -0.00168   0.00000  -0.00489  -0.00490   2.02309
   A13        2.12486   0.00320   0.00000   0.00900   0.00897   2.13383
   A14        2.02451   0.00118   0.00000  -0.00030  -0.00033   2.02417
   A15        2.12111  -0.00047   0.00000   0.00087   0.00089   2.12200
   A16        2.13757  -0.00071   0.00000  -0.00057  -0.00056   2.13701
   A17        2.13374   0.00135   0.00000   0.00434   0.00432   2.13806
   A18        2.13192  -0.00309   0.00000  -0.01687  -0.01687   2.11505
   A19        2.01753   0.00175   0.00000   0.01252   0.01253   2.03006
   A20        2.03410  -0.00373   0.00000  -0.01030  -0.01029   2.02381
   A21        2.03736  -0.00088   0.00000  -0.00535  -0.00536   2.03200
   A22        2.21116   0.00092   0.00000   0.00742   0.00744   2.21860
   A23        2.03467  -0.00004   0.00000  -0.00207  -0.00208   2.03258
   A24        2.03798  -0.00292   0.00000  -0.01022  -0.01021   2.02777
    D1        2.10384   0.00060   0.00000   0.00426   0.00425   2.10809
    D2        0.00109  -0.00006   0.00000  -0.00175  -0.00176  -0.00067
    D3       -2.10164  -0.00062   0.00000  -0.00675  -0.00673  -2.10837
    D4       -0.01754   0.00042   0.00000   0.01305   0.01299  -0.00455
    D5        3.13747   0.00061   0.00000   0.02123   0.02128  -3.12444
    D6        0.50536  -0.00098   0.00000  -0.08441  -0.08441   0.42095
    D7       -2.65638  -0.00116   0.00000  -0.09393  -0.09388  -2.75027
    D8       -2.62291  -0.00086   0.00000  -0.07655  -0.07660  -2.69950
    D9        0.49854  -0.00104   0.00000  -0.08607  -0.08607   0.41247
   D10        3.11777  -0.00038   0.00000  -0.01453  -0.01454   3.10323
   D11       -0.02159  -0.00039   0.00000  -0.01522  -0.01523  -0.03682
   D12       -0.00256  -0.00013   0.00000  -0.00432  -0.00429  -0.00686
   D13        3.14127  -0.00014   0.00000  -0.00501  -0.00499   3.13628
   D14       -3.12536   0.00018   0.00000   0.00738   0.00741  -3.11795
   D15       -0.00385  -0.00006   0.00000  -0.00227  -0.00228  -0.00613
   D16        0.00594   0.00022   0.00000   0.00756   0.00756   0.01350
   D17       -3.13761   0.00012   0.00000   0.00394   0.00395  -3.13366
   D18       -3.13791   0.00023   0.00000   0.00826   0.00826  -3.12966
   D19        0.00172   0.00013   0.00000   0.00464   0.00466   0.00637
   D20       -0.00257  -0.00010   0.00000  -0.00384  -0.00386  -0.00644
   D21        3.14086  -0.00000   0.00000  -0.00042  -0.00039   3.14046
   D22        3.13555  -0.00001   0.00000   0.00018   0.00017   3.13572
   D23       -0.00486  -0.00012   0.00000  -0.00381  -0.00381  -0.00867
   D24        0.00805   0.00019   0.00000   0.00681   0.00682   0.01486
   D25       -3.13236   0.00008   0.00000   0.00283   0.00283  -3.12953
         Item               Value     Threshold  Converged?
 Maximum Force            0.024783     0.000450     NO 
 RMS     Force            0.005696     0.000300     NO 
 Maximum Displacement     0.172824     0.001800     NO 
 RMS     Displacement     0.062048     0.001200     NO 
 Predicted change in Energy=-2.433304D-03
 Lowest energy point so far.  Saving SCF results.
 GradGradGradGradGradGradGradGradGradGradGradGradGradGradGradGradGradGrad

 Leave Link  103 at Tue Sep 17 09:50:57 2024, MaxMem=  1342177280 cpu:               0.1 elap:               0.0
 (Enter /groups/ReismanLab/Software/Gaussian16_RevC/Linux_Binary_AVX2-enabled-CPU/g16/l202.exe)
                          Input orientation:                          
 ---------------------------------------------------------------------
 Center     Atomic      Atomic             Coordinates (Angstroms)
 Number     Number       Type             X           Y           Z
 ---------------------------------------------------------------------
      1          6           0        4.151959   -0.191957    0.512706
      2          8           0        2.788746    0.255322    0.574720
      3          6           0        1.868519   -0.411513   -0.153843
      4          8           0        2.079066   -1.360300   -0.868762
      5          6           0        0.511228    0.223345    0.027080
      6          6           0        0.368482    1.559570    0.407099
      7          6           0       -0.939766    2.033767    0.492349
      8          7           0       -2.000438    1.261699    0.243508
      9          6           0       -1.736561    0.001237   -0.101930
     10         17           0       -3.105086   -1.014395   -0.418987
     11          7           0       -0.539476   -0.560539   -0.232537
     12          1           0        4.763896    0.635557    0.146750
     13          1           0        4.244128   -1.052130   -0.150621
     14          1           0        4.463538   -0.458140    1.524890
     15          1           0        1.226731    2.183002    0.619404
     16          1           0       -1.148375    3.063717    0.773685
 ---------------------------------------------------------------------
                    Distance matrix (angstroms):
                    1          2          3          4          5
     1  C    0.000000
     2  O    1.436055   0.000000
     3  C    2.388848   1.349923   0.000000
     4  O    2.751430   2.279807   1.206498   0.000000
     5  C    3.696381   2.342652   1.509310   2.401787   0.000000
     6  C    4.170575   2.754421   2.539672   3.616567   1.396527
     7  C    5.556971   4.131762   3.779342   4.741905   2.366324
     8  N    6.327525   4.904974   4.233952   4.975377   2.726442
     9  C    5.923662   4.582665   3.629002   4.123206   2.262417
    10  Cl   7.362687   6.110392   5.017022   5.215111   3.848208
    11  N    4.764536   3.520561   2.413885   2.810901   1.336358
    12  H    1.092323   2.056442   3.093529   3.496144   4.274275
    13  H    1.090136   2.086549   2.460471   2.301779   3.948791
    14  H    1.091994   2.053480   3.091027   3.497023   4.281193
    15  H    3.769453   2.481499   2.782321   3.936509   2.168651
    16  H    6.225838   4.840205   4.694590   5.717161   3.373339
                    6          7          8          9         10
     6  C    0.000000
     7  C    1.394146   0.000000
     8  N    2.393171   1.335303   0.000000
     9  C    2.668093   2.262571   1.333313   0.000000
    10  Cl   4.401521   3.848433   2.615292   1.733463   0.000000
    11  N    2.393404   2.723255   2.383606   1.328783   2.612107
    12  H    4.499027   5.882703   6.793940   6.536065   8.059980
    13  H    4.706661   6.067036   6.671112   6.072939   7.354209
    14  H    4.700010   6.039159   6.810490   6.426414   7.834038
    15  H    1.081819   2.175344   3.377086   3.749869   5.483269
    16  H    2.167417   1.087871   2.062612   3.239050   4.677840
                   11         12         13         14         15
    11  N    0.000000
    12  H    5.449794   0.000000
    13  H    4.809494   1.790775   0.000000
    14  H    5.303695   1.784842   1.791173   0.000000
    15  H    3.372285   3.889669   4.490401   4.274630   0.000000
    16  H    3.810311   6.422145   6.846431   6.667934   2.537831
                   16
    16  H    0.000000
 Stoichiometry    C6H5ClN2O2
 Framework group  C1[X(C6H5ClN2O2)]
 Deg. of freedom    42
 Full point group                 C1      NOp   1
 RotChk:  IX=0 Diff= 2.33D-02
 Largest Abelian subgroup         C1      NOp   1
 Largest concise Abelian subgroup C1      NOp   1
                         Standard orientation:                         
 ---------------------------------------------------------------------
 Center     Atomic      Atomic             Coordinates (Angstroms)
 Number     Number       Type             X           Y           Z
 ---------------------------------------------------------------------
      1          6           0        4.093936   -0.160123    0.279021
      2          8           0        2.741239    0.322021    0.280994
      3          6           0        1.767201   -0.519537   -0.125602
      4          8           0        1.920399   -1.655620   -0.501744
      5          6           0        0.430024    0.178504   -0.073554
      6          6           0        0.322450    1.569066   -0.144650
      7          6           0       -0.973601    2.082648   -0.133263
      8          7           0       -2.053712    1.302634   -0.043983
      9          6           0       -1.822413   -0.008554    0.026797
     10         17           0       -3.215839   -1.032049    0.152160
     11          7           0       -0.640989   -0.616483    0.008790
     12          1           0        4.682470    0.484164   -0.378011
     13          1           0        4.133276   -1.192212   -0.069749
     14          1           0        4.476199   -0.089530    1.299484
     15          1           0        1.197212    2.202582   -0.206146
     16          1           0       -1.155675    3.153541   -0.192439
 ---------------------------------------------------------------------
 Rotational constants (GHZ):           2.2621584           0.5213114           0.4306761
 Leave Link  202 at Tue Sep 17 09:50:57 2024, MaxMem=  1342177280 cpu:               0.0 elap:               0.0
 (Enter /groups/ReismanLab/Software/Gaussian16_RevC/Linux_Binary_AVX2-enabled-CPU/g16/l301.exe)
 Standard basis: 6-31G(d,p) (6D, 7F)
 Ernie: Thresh=  0.10000D-02 Tol=  0.10000D-05 Strict=F.
 There are   194 symmetry adapted cartesian basis functions of A   symmetry.
 There are   194 symmetry adapted basis functions of A   symmetry.
   194 basis functions,   367 primitive gaussians,   194 cartesian basis functions
    44 alpha electrons       44 beta electrons
       nuclear repulsion energy       653.9521553508 Hartrees.
 IExCor=  402 DFT=T Ex+Corr=B3LYP ExCW=0 ScaHFX=  0.200000
 ScaDFX=  0.800000  0.720000  1.000000  0.810000 ScalE2=  1.000000  1.000000
 IRadAn=      5 IRanWt=     -1 IRanGd=            0 ICorTp=0 IEmpDi=141
 NAtoms=   16 NActive=   16 NUniq=   16 SFac= 1.00D+00 NAtFMM=   60 NAOKFM=F Big=F
 Integral buffers will be    131072 words long.
 Raffenetti 2 integral format.
 Two-electron integral symmetry is turned on.
 R6Disp:  Grimme-D3(BJ) Dispersion energy=       -0.0297392334 Hartrees.
 Nuclear repulsion after empirical dispersion term =      653.9224161174 Hartrees.
 Leave Link  301 at Tue Sep 17 09:50:57 2024, MaxMem=  1342177280 cpu:               0.1 elap:               0.0
 (Enter /groups/ReismanLab/Software/Gaussian16_RevC/Linux_Binary_AVX2-enabled-CPU/g16/l302.exe)
 NPDir=0 NMtPBC=     1 NCelOv=     1 NCel=       1 NClECP=     1 NCelD=      1
         NCelK=      1 NCelE2=     1 NClLst=     1 CellRange=     0.0.
 One-electron integrals computed using PRISM.
 One-electron integral symmetry used in STVInt
 NBasis=   194 RedAO= T EigKep=  1.25D-03  NBF=   194
 NBsUse=   194 1.00D-06 EigRej= -1.00D+00 NBFU=   194
 Precomputing XC quadrature grid using
 IXCGrd= 4 IRadAn=           5 IRanWt=          -1 IRanGd=           0 AccXCQ= 0.00D+00.
 Generated NRdTot=       0 NPtTot=           0 NUsed=           0 NTot=          32
 NSgBfM=   193   193   193   193   193 MxSgAt=    16 MxSgA2=    16.
 Leave Link  302 at Tue Sep 17 09:50:57 2024, MaxMem=  1342177280 cpu:               0.8 elap:               0.1
 (Enter /groups/ReismanLab/Software/Gaussian16_RevC/Linux_Binary_AVX2-enabled-CPU/g16/l303.exe)
 DipDrv:  MaxL=1.
 Leave Link  303 at Tue Sep 17 09:50:57 2024, MaxMem=  1342177280 cpu:               0.1 elap:               0.0
 (Enter /groups/ReismanLab/Software/Gaussian16_RevC/Linux_Binary_AVX2-enabled-CPU/g16/l401.exe)
 Initial guess from the checkpoint file:  "smiles_00119_conf_2.chk"
 B after Tr=     0.000000   -0.000000    0.000000
         Rot=    0.999983    0.004188   -0.000335    0.004023 Ang=   0.67 deg.
 Guess basis will be translated and rotated to current coordinates.
 JPrj=2 DoOrth=T DoCkMO=T.
 Generating alternative initial guess.
 ExpMin= 1.43D-01 ExpMax= 2.52D+04 ExpMxC= 3.78D+03 IAcc=3 IRadAn=         5 AccDes= 0.00D+00
 Harris functional with IExCor=  402 and IRadAn=       5 diagonalized for initial guess.
 HarFok:  IExCor=  402 AccDes= 0.00D+00 IRadAn=         5 IDoV= 1 UseB2=F ITyADJ=14
 ICtDFT=  3500011 ScaDFX=  1.000000  1.000000  1.000000  1.000000
 FoFCou: FMM=F IPFlag=           0 FMFlag=      100000 FMFlg1=           0
         NFxFlg=           0 DoJE=T BraDBF=F KetDBF=T FulRan=T
         wScrn=  0.000000 ICntrl=       500 IOpCl=  0 I1Cent=   200000004 NGrid=           0
         NMat0=    1 NMatS0=      1 NMatT0=    0 NMatD0=    1 NMtDS0=    0 NMtDT0=    0
 Petite list used in FoFCou.
 Harris En= -951.732580714648    
 Leave Link  401 at Tue Sep 17 09:50:58 2024, MaxMem=  1342177280 cpu:               3.5 elap:               0.5
 (Enter /groups/ReismanLab/Software/Gaussian16_RevC/Linux_Binary_AVX2-enabled-CPU/g16/l502.exe)
 Integral symmetry usage will be decided dynamically.
 Closed shell SCF:
 Using DIIS extrapolation, IDIIS=  1040.
 NGot=  1342177280 LenX=  1342098008 LenY=  1342059931
 Requested convergence on RMS density matrix=1.00D-08 within  32 cycles.
 Requested convergence on MAX density matrix=1.00D-06.
 Requested convergence on             energy=1.00D-06.
 No special actions if energy rises.
 Fock matrices will be formed incrementally for  20 cycles.
 Integral accuracy reduced to 1.0D-05 until final iterations.

 Cycle   1  Pass 0  IDiag  1:
 FoFJK:  IHMeth= 1 ICntrl=       0 DoSepK=F KAlg= 0 I1Cent=           0 FoldK=F
 IRaf= 860000000 NMat=       1 IRICut=       1 DoRegI=T DoRafI=F ISym2E= 0 IDoP0=0 IntGTp=1.
 FoFCou: FMM=F IPFlag=           0 FMFlag=      100000 FMFlg1=           0
         NFxFlg=           0 DoJE=F BraDBF=F KetDBF=F FulRan=T
         wScrn=  0.000000 ICntrl=         0 IOpCl=  0 I1Cent=           0 NGrid=           0
         NMat0=    1 NMatS0=      1 NMatT0=    0 NMatD0=    1 NMtDS0=    0 NMtDT0=    0
 Symmetry not used in FoFCou.
 E= -951.818342235877    
 DIIS: error= 2.92D-03 at cycle   1 NSaved=   1.
 NSaved= 1 IEnMin= 1 EnMin= -951.818342235877     IErMin= 1 ErrMin= 2.92D-03
 ErrMax= 2.92D-03  0.00D+00 EMaxC= 1.00D-01 BMatC= 3.80D-03 BMatP= 3.80D-03
 IDIUse=3 WtCom= 9.71D-01 WtEn= 2.92D-02
 Coeff-Com:  0.100D+01
 Coeff-En:   0.100D+01
 Coeff:      0.100D+01
 Gap=     1.530 Goal=   None    Shift=    0.000
 GapD=    1.530 DampG=2.000 DampE=1.000 DampFc=2.0000 IDamp=-1.
 RMSDP=5.70D-04 MaxDP=1.32D-02              OVMax= 1.95D-02

 Cycle   2  Pass 0  IDiag  1:
 RMSU=  5.70D-04    CP:  1.00D+00
 E= -951.825179159601     Delta-E=       -0.006836923724 Rises=F Damp=F
 DIIS: error= 6.65D-04 at cycle   2 NSaved=   2.
 NSaved= 2 IEnMin= 2 EnMin= -951.825179159601     IErMin= 2 ErrMin= 6.65D-04
 ErrMax= 6.65D-04  0.00D+00 EMaxC= 1.00D-01 BMatC= 2.05D-04 BMatP= 3.80D-03
 IDIUse=3 WtCom= 9.93D-01 WtEn= 6.65D-03
 Coeff-Com:  0.123D-01 0.988D+00
 Coeff-En:   0.000D+00 0.100D+01
 Coeff:      0.122D-01 0.988D+00
 Gap=     0.190 Goal=   None    Shift=    0.000
 RMSDP=2.12D-04 MaxDP=6.10D-03 DE=-6.84D-03 OVMax= 7.35D-03

 Cycle   3  Pass 0  IDiag  1:
 RMSU=  2.08D-04    CP:  1.00D+00  1.06D+00
 E= -951.825019288508     Delta-E=        0.000159871093 Rises=F Damp=F
 DIIS: error= 1.25D-03 at cycle   3 NSaved=   3.
 NSaved= 3 IEnMin= 2 EnMin= -951.825179159601     IErMin= 2 ErrMin= 6.65D-04
 ErrMax= 1.25D-03  0.00D+00 EMaxC= 1.00D-01 BMatC= 3.98D-04 BMatP= 2.05D-04
 IDIUse=3 WtCom= 2.20D-01 WtEn= 7.80D-01
 Coeff-Com: -0.424D-01 0.614D+00 0.429D+00
 Coeff-En:   0.000D+00 0.627D+00 0.373D+00
 Coeff:     -0.934D-02 0.624D+00 0.385D+00
 Gap=     0.189 Goal=   None    Shift=    0.000
 RMSDP=1.28D-04 MaxDP=4.13D-03 DE= 1.60D-04 OVMax= 5.71D-03

 Cycle   4  Pass 0  IDiag  1:
 RMSU=  4.47D-05    CP:  1.00D+00  1.08D+00  4.29D-01
 E= -951.825406299670     Delta-E=       -0.000387011162 Rises=F Damp=F
 DIIS: error= 2.05D-04 at cycle   4 NSaved=   4.
 NSaved= 4 IEnMin= 4 EnMin= -951.825406299670     IErMin= 4 ErrMin= 2.05D-04
 ErrMax= 2.05D-04  0.00D+00 EMaxC= 1.00D-01 BMatC= 1.16D-05 BMatP= 2.05D-04
 IDIUse=3 WtCom= 9.98D-01 WtEn= 2.05D-03
 Coeff-Com: -0.224D-01 0.242D+00 0.203D+00 0.577D+00
 Coeff-En:   0.000D+00 0.000D+00 0.000D+00 0.100D+01
 Coeff:     -0.224D-01 0.242D+00 0.202D+00 0.578D+00
 Gap=     0.189 Goal=   None    Shift=    0.000
 RMSDP=2.67D-05 MaxDP=6.61D-04 DE=-3.87D-04 OVMax= 1.62D-03

 Cycle   5  Pass 0  IDiag  1:
 RMSU=  2.01D-05    CP:  1.00D+00  1.08D+00  4.28D-01  6.19D-01
 E= -951.825416735564     Delta-E=       -0.000010435895 Rises=F Damp=F
 DIIS: error= 8.06D-05 at cycle   5 NSaved=   5.
 NSaved= 5 IEnMin= 5 EnMin= -951.825416735564     IErMin= 5 ErrMin= 8.06D-05
 ErrMax= 8.06D-05  0.00D+00 EMaxC= 1.00D-01 BMatC= 2.74D-06 BMatP= 1.16D-05
 IDIUse=1 WtCom= 1.00D+00 WtEn= 0.00D+00
 Coeff-Com: -0.827D-02 0.755D-01 0.748D-01 0.351D+00 0.507D+00
 Coeff:     -0.827D-02 0.755D-01 0.748D-01 0.351D+00 0.507D+00
 Gap=     0.189 Goal=   None    Shift=    0.000
 RMSDP=1.01D-05 MaxDP=3.13D-04 DE=-1.04D-05 OVMax= 5.22D-04

 Cycle   6  Pass 0  IDiag  1:
 RMSU=  6.32D-06    CP:  1.00D+00  1.08D+00  4.39D-01  6.97D-01  6.76D-01
 E= -951.825419019506     Delta-E=       -0.000002283942 Rises=F Damp=F
 DIIS: error= 4.13D-05 at cycle   6 NSaved=   6.
 NSaved= 6 IEnMin= 6 EnMin= -951.825419019506     IErMin= 6 ErrMin= 4.13D-05
 ErrMax= 4.13D-05  0.00D+00 EMaxC= 1.00D-01 BMatC= 4.07D-07 BMatP= 2.74D-06
 IDIUse=1 WtCom= 1.00D+00 WtEn= 0.00D+00
 Coeff-Com: -0.216D-02 0.129D-01 0.191D-01 0.147D+00 0.318D+00 0.505D+00
 Coeff:     -0.216D-02 0.129D-01 0.191D-01 0.147D+00 0.318D+00 0.505D+00
 Gap=     0.189 Goal=   None    Shift=    0.000
 RMSDP=3.53D-06 MaxDP=1.49D-04 DE=-2.28D-06 OVMax= 2.77D-04

 Initial convergence to 1.0D-05 achieved.  Increase integral accuracy.
 Cycle   7  Pass 1  IDiag  1:
 E= -951.825442878634     Delta-E=       -0.000023859128 Rises=F Damp=F
 DIIS: error= 1.16D-05 at cycle   1 NSaved=   1.
 NSaved= 1 IEnMin= 1 EnMin= -951.825442878634     IErMin= 1 ErrMin= 1.16D-05
 ErrMax= 1.16D-05  0.00D+00 EMaxC= 1.00D-01 BMatC= 7.83D-08 BMatP= 7.83D-08
 IDIUse=1 WtCom= 1.00D+00 WtEn= 0.00D+00
 Coeff-Com:  0.100D+01
 Coeff:      0.100D+01
 Gap=     0.189 Goal=   None    Shift=    0.000
 RMSDP=3.53D-06 MaxDP=1.49D-04 DE=-2.39D-05 OVMax= 2.36D-04

 Cycle   8  Pass 1  IDiag  1:
 RMSU=  5.85D-06    CP:  1.00D+00
 E= -951.825442760034     Delta-E=        0.000000118600 Rises=F Damp=F
 DIIS: error= 2.96D-05 at cycle   2 NSaved=   2.
 NSaved= 2 IEnMin= 1 EnMin= -951.825442878634     IErMin= 1 ErrMin= 1.16D-05
 ErrMax= 2.96D-05  0.00D+00 EMaxC= 1.00D-01 BMatC= 2.37D-07 BMatP= 7.83D-08
 IDIUse=1 WtCom= 1.00D+00 WtEn= 0.00D+00
 Coeff-Com:  0.649D+00 0.351D+00
 Coeff:      0.649D+00 0.351D+00
 Gap=     0.189 Goal=   None    Shift=    0.000
 RMSDP=2.30D-06 MaxDP=1.09D-04 DE= 1.19D-07 OVMax= 1.92D-04

 Cycle   9  Pass 1  IDiag  1:
 RMSU=  2.01D-06    CP:  1.00D+00  8.09D-01
 E= -951.825442943474     Delta-E=       -0.000000183440 Rises=F Damp=F
 DIIS: error= 5.76D-06 at cycle   3 NSaved=   3.
 NSaved= 3 IEnMin= 3 EnMin= -951.825442943474     IErMin= 3 ErrMin= 5.76D-06
 ErrMax= 5.76D-06  0.00D+00 EMaxC= 1.00D-01 BMatC= 7.44D-09 BMatP= 7.83D-08
 IDIUse=1 WtCom= 1.00D+00 WtEn= 0.00D+00
 Coeff-Com:  0.141D+00 0.166D+00 0.693D+00
 Coeff:      0.141D+00 0.166D+00 0.693D+00
 Gap=     0.189 Goal=   None    Shift=    0.000
 RMSDP=6.33D-07 MaxDP=2.53D-05 DE=-1.83D-07 OVMax= 3.50D-05

 Cycle  10  Pass 1  IDiag  1:
 RMSU=  5.92D-07    CP:  1.00D+00  8.29D-01  9.05D-01
 E= -951.825442947005     Delta-E=       -0.000000003531 Rises=F Damp=F
 DIIS: error= 2.21D-06 at cycle   4 NSaved=   4.
 NSaved= 4 IEnMin= 4 EnMin= -951.825442947005     IErMin= 4 ErrMin= 2.21D-06
 ErrMax= 2.21D-06  0.00D+00 EMaxC= 1.00D-01 BMatC= 2.46D-09 BMatP= 7.44D-09
 IDIUse=1 WtCom= 1.00D+00 WtEn= 0.00D+00
 Coeff-Com:  0.507D-02 0.607D-01 0.449D+00 0.486D+00
 Coeff:      0.507D-02 0.607D-01 0.449D+00 0.486D+00
 Gap=     0.189 Goal=   None    Shift=    0.000
 RMSDP=3.13D-07 MaxDP=8.43D-06 DE=-3.53D-09 OVMax= 2.01D-05

 Cycle  11  Pass 1  IDiag  1:
 RMSU=  1.56D-07    CP:  1.00D+00  8.38D-01  9.11D-01  5.51D-01
 E= -951.825442949332     Delta-E=       -0.000000002327 Rises=F Damp=F
 DIIS: error= 8.65D-07 at cycle   5 NSaved=   5.
 NSaved= 5 IEnMin= 5 EnMin= -951.825442949332     IErMin= 5 ErrMin= 8.65D-07
 ErrMax= 8.65D-07  0.00D+00 EMaxC= 1.00D-01 BMatC= 1.91D-10 BMatP= 2.46D-09
 IDIUse=1 WtCom= 1.00D+00 WtEn= 0.00D+00
 Coeff-Com: -0.511D-02 0.284D-01 0.240D+00 0.309D+00 0.427D+00
 Coeff:     -0.511D-02 0.284D-01 0.240D+00 0.309D+00 0.427D+00
 Gap=     0.189 Goal=   None    Shift=    0.000
 RMSDP=8.98D-08 MaxDP=3.12D-06 DE=-2.33D-09 OVMax= 5.34D-06

 Cycle  12  Pass 1  IDiag  1:
 RMSU=  5.13D-08    CP:  1.00D+00  8.39D-01  9.12D-01  5.38D-01  5.31D-01
 E= -951.825442949518     Delta-E=       -0.000000000187 Rises=F Damp=F
 DIIS: error= 1.37D-07 at cycle   6 NSaved=   6.
 NSaved= 6 IEnMin= 6 EnMin= -951.825442949518     IErMin= 6 ErrMin= 1.37D-07
 ErrMax= 1.37D-07  0.00D+00 EMaxC= 1.00D-01 BMatC= 6.17D-12 BMatP= 1.91D-10
 IDIUse=1 WtCom= 1.00D+00 WtEn= 0.00D+00
 Coeff-Com: -0.306D-02 0.635D-02 0.620D-01 0.933D-01 0.192D+00 0.649D+00
 Coeff:     -0.306D-02 0.635D-02 0.620D-01 0.933D-01 0.192D+00 0.649D+00
 Gap=     0.189 Goal=   None    Shift=    0.000
 RMSDP=2.23D-08 MaxDP=5.77D-07 DE=-1.87D-10 OVMax= 1.07D-06

 Cycle  13  Pass 1  IDiag  1:
 RMSU=  1.68D-08    CP:  1.00D+00  8.39D-01  9.13D-01  5.51D-01  5.95D-01
                    CP:  8.73D-01
 E= -951.825442949524     Delta-E=       -0.000000000006 Rises=F Damp=F
 DIIS: error= 5.05D-08 at cycle   7 NSaved=   7.
 NSaved= 7 IEnMin= 7 EnMin= -951.825442949524     IErMin= 7 ErrMin= 5.05D-08
 ErrMax= 5.05D-08  0.00D+00 EMaxC= 1.00D-01 BMatC= 5.84D-13 BMatP= 6.17D-12
 IDIUse=1 WtCom= 1.00D+00 WtEn= 0.00D+00
 Coeff-Com: -0.554D-03-0.128D-02-0.696D-02-0.411D-02 0.151D-01 0.237D+00
 Coeff-Com:  0.760D+00
 Coeff:     -0.554D-03-0.128D-02-0.696D-02-0.411D-02 0.151D-01 0.237D+00
 Coeff:      0.760D+00
 Gap=     0.189 Goal=   None    Shift=    0.000
 RMSDP=7.64D-09 MaxDP=2.43D-07 DE=-5.68D-12 OVMax= 5.68D-07

 SCF Done:  E(RB3LYP) =  -951.825442950     A.U. after   13 cycles
            NFock= 13  Conv=0.76D-08     -V/T= 2.0062
 KE= 9.459719909952D+02 PE=-3.547866403199D+03 EE= 9.961465531369D+02
 Leave Link  502 at Tue Sep 17 09:51:04 2024, MaxMem=  1342177280 cpu:              49.4 elap:               6.8
 (Enter /groups/ReismanLab/Software/Gaussian16_RevC/Linux_Binary_AVX2-enabled-CPU/g16/l508.exe)
 QCSCF skips out because SCF is already converged.
 Leave Link  508 at Tue Sep 17 09:51:04 2024, MaxMem=  1342177280 cpu:               0.0 elap:               0.0
 (Enter /groups/ReismanLab/Software/Gaussian16_RevC/Linux_Binary_AVX2-enabled-CPU/g16/l701.exe)
 ... and contract with generalized density number  0.
 Compute integral first derivatives.
 R6Disp: Adding Grimme-D3(BJ) dispersion energy 1st derivatives to the gradient.
 Leave Link  701 at Tue Sep 17 09:51:04 2024, MaxMem=  1342177280 cpu:               0.6 elap:               0.1
 (Enter /groups/ReismanLab/Software/Gaussian16_RevC/Linux_Binary_AVX2-enabled-CPU/g16/l702.exe)
 L702 exits ... SP integral derivatives will be done elsewhere.
 Leave Link  702 at Tue Sep 17 09:51:04 2024, MaxMem=  1342177280 cpu:               0.0 elap:               0.0
 (Enter /groups/ReismanLab/Software/Gaussian16_RevC/Linux_Binary_AVX2-enabled-CPU/g16/l703.exe)
 Integral derivatives from FoFJK, PRISM(SPDF).
 Compute integral first derivatives, UseDBF=F ICtDFT=           0.
 Calling FoFJK, ICntrl=      2127 FMM=F ISym2X=0 I1Cent= 0 IOpClX= 0 NMat=1 NMatS=1 NMatT=0.
 FoFJK:  IHMeth= 1 ICntrl=    2127 DoSepK=F KAlg= 0 I1Cent=           0 FoldK=F
 IRaf=         0 NMat=       1 IRICut=       1 DoRegI=T DoRafI=F ISym2E= 0 IDoP0=0 IntGTp=1.
 FoFCou: FMM=F IPFlag=           0 FMFlag=      100000 FMFlg1=         800
         NFxFlg=           0 DoJE=F BraDBF=F KetDBF=F FulRan=T
         wScrn=  0.000000 ICntrl=      2127 IOpCl=  0 I1Cent=           0 NGrid=           0
         NMat0=    1 NMatS0=      1 NMatT0=    0 NMatD0=    1 NMtDS0=    0 NMtDT0=    0
 Symmetry not used in FoFCou.
 Leave Link  703 at Tue Sep 17 09:51:07 2024, MaxMem=  1342177280 cpu:              15.9 elap:               2.0
 (Enter /groups/ReismanLab/Software/Gaussian16_RevC/Linux_Binary_AVX2-enabled-CPU/g16/l716.exe)
 Dipole        = 1.47202829D+00 1.40758541D+00 1.41998170D-01
 ***** Axes restored to original set *****
 -------------------------------------------------------------------
 Center     Atomic                   Forces (Hartrees/Bohr)
 Number     Number              X              Y              Z
 -------------------------------------------------------------------
      1        6           0.002100354   -0.001644991   -0.000944524
      2        8          -0.000702939    0.001611042    0.000957294
      3        6          -0.001225652   -0.000531578   -0.002135305
      4        8           0.001455495   -0.000214763    0.001777028
      5        6           0.000516353    0.002977948    0.001076804
      6        6          -0.000991260   -0.000893162    0.000277376
      7        6           0.002225807   -0.000662281    0.000265977
      8        7          -0.004602424   -0.001417283   -0.000673310
      9        6           0.010645627    0.007120237    0.002124383
     10       17          -0.003805558   -0.002750141   -0.000754716
     11        7          -0.003267049   -0.003256183   -0.001613138
     12        1          -0.000549944    0.000227313   -0.000008345
     13        1          -0.000884199   -0.000020335   -0.000149396
     14        1          -0.000392038    0.000106533    0.000026703
     15        1          -0.000338878   -0.000274993    0.000051430
     16        1          -0.000183694   -0.000377363   -0.000278262
 -------------------------------------------------------------------
 Cartesian Forces:  Max     0.010645627 RMS     0.002422752
 Leave Link  716 at Tue Sep 17 09:51:07 2024, MaxMem=  1342177280 cpu:               0.0 elap:               0.0
 (Enter /groups/ReismanLab/Software/Gaussian16_RevC/Linux_Binary_AVX2-enabled-CPU/g16/l103.exe)

 GradGradGradGradGradGradGradGradGradGradGradGradGradGradGradGradGradGrad
 Berny optimization.
 Using GEDIIS/GDIIS optimizer.
 FormGI is forming the generalized inverse of G from B-inverse, IUseBI=4.
 Internal  Forces:  Max     0.005107099 RMS     0.001367353
 Search for a local minimum.
 Step number   2 out of a maximum of   75
 All quantities printed in internal units (Hartrees-Bohrs-Radians)
 RMS Force = .13674D-02 SwitMx=.10000D-02 MixMth= 1
 Mixed Optimization -- RFO/linear search
 Update second derivatives using D2CorX and points    1    2
 DE= -2.54D-03 DEPred=-2.43D-03 R= 1.04D+00
 TightC=F SS=  1.41D+00  RLast= 2.02D-01 DXNew= 5.0454D-01 6.0550D-01
 Trust test= 1.04D+00 RLast= 2.02D-01 DXMaxT set to 5.05D-01
 ITU=  1  0
 Use linear search instead of GDIIS.
     Eigenvalues ---    0.00680   0.01348   0.01373   0.01775   0.02205
     Eigenvalues ---    0.02282   0.02392   0.02519   0.02583   0.02738
     Eigenvalues ---    0.02751   0.10323   0.10646   0.15886   0.16000
[...]
      5  C    Isotropic =     2.7954   Anisotropy =   194.3795
   XX=  -116.3508   YX=    43.3397   ZX=     0.0223
   XY=    28.7617   YY=    -7.6447   ZY=    -0.0004
   XZ=     0.0261   YZ=    -0.0198   ZZ=   132.3818
   Eigenvalues:  -127.2197     3.2242   132.3818
      6  C    Isotropic =    45.0850   Anisotropy =   208.2477
   XX=   -47.6732   YX=   -62.2536   ZX=     0.0395
   XY=   -41.9493   YY=    -0.9886   ZY=     0.0060
   XZ=     0.0234   YZ=    -0.0119   ZZ=   183.9168
   Eigenvalues:   -81.4223    32.7605   183.9168
      7  C    Isotropic =    -3.3797   Anisotropy =   226.0499
   XX=   -20.8115   YX=   -17.7864   ZX=     0.0272
   XY=     1.6236   YY=  -136.6479   ZY=    -0.0291
   XZ=     0.0192   YZ=    -0.0088   ZZ=   147.3202
   Eigenvalues:  -137.2090   -20.2504   147.3202
      8  N    Isotropic =  -123.9377   Anisotropy =   552.7818
   XX=  -222.4756   YX=   -55.3234   ZX=     0.0527
   XY=   -46.5607   YY=  -393.9211   ZY=    -0.0710
   XZ=     0.0396   YZ=    -0.0308   ZZ=   244.5835
   Eigenvalues:  -407.9154  -208.4813   244.5835
      9  C    Isotropic =    -7.0429   Anisotropy =   105.0399
   XX=   -60.2376   YX=   -67.2834   ZX=    -0.0042
   XY=   -66.6040   YY=   -23.8749   ZY=    -0.0094
   XZ=     0.0025   YZ=    -0.0052   ZZ=    62.9837
   Eigenvalues:  -111.4249    27.3125    62.9837
     10  Cl   Isotropic =   544.7689   Anisotropy =   695.1005
   XX=   758.2788   YX=   337.3272   ZX=     0.0327
   XY=   330.8682   YY=   561.4882   ZY=     0.0258
   XZ=    -0.0029   YZ=    -0.0062   ZZ=   314.5396
   Eigenvalues:   311.5978   314.5396  1008.1692
     11  N    Isotropic =  -112.3748   Anisotropy =   528.7611
   XX=  -392.2902   YX=    11.5275   ZX=     0.0317
   XY=    12.3765   YY=  -184.9669   ZY=    -0.0118
   XZ=     0.0839   YZ=    -0.0345   ZZ=   240.1326
   Eigenvalues:  -392.9770  -184.2801   240.1326
     12  H    Isotropic =    27.8586   Anisotropy =     7.9382
   XX=    29.5098   YX=    -3.0747   ZX=    -3.1208
   XY=    -1.3193   YY=    26.5143   ZY=     2.0604
   XZ=    -2.9382   YZ=     2.3702   ZZ=    27.5518
   Eigenvalues:    24.7427    25.6824    33.1508
     13  H    Isotropic =    27.8600   Anisotropy =     7.9408
   XX=    29.5093   YX=    -3.0711   ZX=     3.1249
   XY=    -1.3184   YY=    26.5096   ZY=    -2.0593
   XZ=     2.9424   YZ=    -2.3685   ZZ=    27.5613
   Eigenvalues:    24.7451    25.6812    33.1539
     14  H    Isotropic =    27.9578   Anisotropy =     7.4172
   XX=    32.3243   YX=     2.6827   ZX=    -0.0017
   XY=     0.8632   YY=    27.4674   ZY=    -0.0016
   XZ=    -0.0016   YZ=    -0.0029   ZZ=    24.0818
   Eigenvalues:    24.0818    26.8891    32.9026
     15  H    Isotropic =    23.0718   Anisotropy =     9.5274
   XX=    23.5706   YX=    -5.3183   ZX=     0.0005
   XY=    -4.0228   YY=    25.6964   ZY=     0.0005
   XZ=    -0.0016   YZ=     0.0001   ZZ=    19.9484
   Eigenvalues:    19.8435    19.9484    29.4234
     16  H    Isotropic =    22.1039   Anisotropy =     7.6208
   XX=    27.1773   YX=    -0.1377   ZX=    -0.0010
   XY=    -0.3108   YY=    20.1467   ZY=    -0.0003
   XZ=    -0.0009   YZ=     0.0014   ZZ=    18.9878
   Eigenvalues:    18.9878    20.1395    27.1845
 End of Minotr F.D. properties file   721 does not exist.
 End of Minotr F.D. properties file   722 does not exist.
 End of Minotr F.D. properties file   788 does not exist.
 Leave Link 1002 at Tue Sep 17 10:24:58 2024, MaxMem=  1342177280 cpu:             436.8 elap:             438.0
 (Enter /groups/ReismanLab/Software/Gaussian16_RevC/Linux_Binary_AVX2-enabled-CPU/g16/l601.exe)
 Copying SCF densities to generalized density rwf, IOpCl= 0 IROHF=0.

 **********************************************************************

            Population analysis using the SCF Density.

 **********************************************************************

 Orbital symmetries:
       Occupied  (A) (A) (A) (A) (A) (A) (A) (A) (A) (A) (A) (A)
                 (A) (A) (A) (A) (A) (A) (A) (A) (A) (A) (A) (A)
                 (A) (A) (A) (A) (A) (A) (A) (A) (A) (A) (A) (A)
                 (A) (A) (A) (A) (A) (A) (A) (A)
       Virtual   (A) (A) (A) (A) (A) (A) (A) (A) (A) (A) (A) (A)
                 (A) (A) (A) (A) (A) (A) (A) (A) (A) (A) (A) (A)
                 (A) (A) (A) (A) (A) (A) (A) (A) (A) (A) (A) (A)
                 (A) (A) (A) (A) (A) (A) (A) (A) (A) (A) (A) (A)
                 (A) (A) (A) (A) (A) (A) (A) (A) (A) (A) (A) (A)
                 (A) (A) (A) (A) (A) (A) (A) (A) (A) (A) (A) (A)
                 (A) (A) (A) (A) (A) (A) (A) (A) (A) (A) (A) (A)
                 (A) (A) (A) (A) (A) (A) (A) (A) (A) (A) (A) (A)
                 (A) (A) (A) (A) (A) (A) (A) (A) (A) (A) (A) (A)
                 (A) (A) (A) (A) (A) (A) (A) (A) (A) (A) (A) (A)
                 (A) (A) (A) (A) (A) (A) (A) (A) (A) (A) (A) (A)
                 (A) (A) (A) (A) (A) (A) (A) (A) (A) (A) (A) (A)
                 (A) (A) (A) (A) (A) (A) (A) (A) (A) (A) (A) (A)
                 (A) (A) (A) (A) (A) (A) (A) (A) (A) (A) (A) (A)
                 (A) (A) (A) (A) (A) (A) (A) (A) (A) (A) (A) (A)
                 (A) (A) (A) (A) (A) (A) (A) (A) (A) (A) (A) (A)
                 (A) (A) (A) (A) (A) (A) (A) (A) (A) (A) (A) (A)
                 (A) (A) (A) (A) (A) (A) (A) (A) (A) (A) (A) (A)
                 (A) (A) (A) (A) (A) (A) (A) (A) (A) (A) (A) (A)
                 (A) (A) (A) (A) (A) (A) (A) (A) (A) (A) (A) (A)
                 (A) (A) (A) (A) (A) (A) (A) (A) (A) (A) (A) (A)
                 (A) (A) (A) (A) (A) (A) (A) (A) (A) (A) (A) (A)
                 (A) (A) (A) (A) (A) (A) (A) (A) (A) (A) (A) (A)
                 (A) (A) (A) (A) (A) (A) (A) (A) (A) (A) (A) (A)
                 (A) (A) (A) (A) (A) (A) (A) (A) (A) (A) (A) (A)
                 (A) (A) (A) (A) (A) (A) (A) (A) (A) (A) (A) (A)
                 (A) (A) (A) (A) (A) (A) (A) (A) (A) (A) (A) (A)
                 (A) (A) (A) (A) (A) (A) (A) (A) (A)
 The electronic state is 1-A.
 Alpha  occ. eigenvalues -- -102.65422 -19.68997 -19.63638 -14.78741 -14.78707
 Alpha  occ. eigenvalues --  -10.69400 -10.68513 -10.63132 -10.61873 -10.59761
 Alpha  occ. eigenvalues --  -10.58080  -9.81712  -7.53906  -7.53404  -7.53355
 Alpha  occ. eigenvalues --   -1.25021  -1.15934  -1.13775  -1.02993  -0.97335
 Alpha  occ. eigenvalues --   -0.90009  -0.84528  -0.78009  -0.75266  -0.67785
 Alpha  occ. eigenvalues --   -0.63832  -0.62049  -0.58393  -0.57504  -0.55850
 Alpha  occ. eigenvalues --   -0.54771  -0.54263  -0.50691  -0.49432  -0.48341
 Alpha  occ. eigenvalues --   -0.44838  -0.42103  -0.40786  -0.40206  -0.39496
 Alpha  occ. eigenvalues --   -0.39233  -0.37896  -0.35037  -0.34329
 Alpha virt. eigenvalues --   -0.05864  -0.01979   0.06810   0.07256   0.07648
 Alpha virt. eigenvalues --    0.09583   0.10439   0.10975   0.13315   0.15065
 Alpha virt. eigenvalues --    0.15239   0.17257   0.17798   0.18524   0.20200
 Alpha virt. eigenvalues --    0.20549   0.22552   0.23581   0.24759   0.27570
 Alpha virt. eigenvalues --    0.27642   0.27839   0.27931   0.28570   0.30791
 Alpha virt. eigenvalues --    0.30897   0.31845   0.32208   0.33960   0.34281
 Alpha virt. eigenvalues --    0.35702   0.37259   0.37449   0.38923   0.40197
 Alpha virt. eigenvalues --    0.40607   0.41475   0.41797   0.43056   0.43188
 Alpha virt. eigenvalues --    0.44422   0.44649   0.46660   0.48106   0.48148
 Alpha virt. eigenvalues --    0.48752   0.49114   0.51058   0.51600   0.52842
 Alpha virt. eigenvalues --    0.53046   0.54638   0.56038   0.56722   0.59092
 Alpha virt. eigenvalues --    0.60757   0.61398   0.62977   0.63356   0.64749
 Alpha virt. eigenvalues --    0.64886   0.65185   0.66834   0.67870   0.69127
 Alpha virt. eigenvalues --    0.70239   0.71054   0.72088   0.72955   0.75488
 Alpha virt. eigenvalues --    0.78129   0.78862   0.81026   0.82055   0.84722
 Alpha virt. eigenvalues --    0.85979   0.86469   0.87930   0.90557   0.91586
 Alpha virt. eigenvalues --    0.93919   0.94333   0.97510   0.97528   1.00953
 Alpha virt. eigenvalues --    1.02283   1.03887   1.08730   1.10821   1.11402
 Alpha virt. eigenvalues --    1.11764   1.16444   1.19927   1.20782   1.22279
 Alpha virt. eigenvalues --    1.26684   1.28029   1.30466   1.32366   1.34381
 Alpha virt. eigenvalues --    1.37200   1.37974   1.39476   1.40354   1.42993
 Alpha virt. eigenvalues --    1.45629   1.46575   1.47467   1.49603   1.50429
 Alpha virt. eigenvalues --    1.53691   1.54406   1.54906   1.55245   1.56769
 Alpha virt. eigenvalues --    1.57774   1.58436   1.61071   1.62113   1.62932
 Alpha virt. eigenvalues --    1.64766   1.65662   1.68684   1.73749   1.75234
 Alpha virt. eigenvalues --    1.76796   1.77675   1.78755   1.79476   1.81271
 Alpha virt. eigenvalues --    1.82396   1.83262   1.86493   1.87026   1.87507
 Alpha virt. eigenvalues --    1.88952   1.89074   1.90146   1.94226   1.96610
 Alpha virt. eigenvalues --    1.97094   2.00168   2.01605   2.03545   2.04035
 Alpha virt. eigenvalues --    2.04332   2.06134   2.10092   2.10939   2.11337
 Alpha virt. eigenvalues --    2.12164   2.13829   2.15667   2.16344   2.18013
 Alpha virt. eigenvalues --    2.18878   2.22459   2.23838   2.26298   2.26819
 Alpha virt. eigenvalues --    2.28560   2.28869   2.29813   2.31811   2.33822
 Alpha virt. eigenvalues --    2.34767   2.38012   2.38013   2.41299   2.41690
 Alpha virt. eigenvalues --    2.42864   2.43758   2.50827   2.51811   2.51984
 Alpha virt. eigenvalues --    2.52801   2.55836   2.58479   2.58609   2.61179
 Alpha virt. eigenvalues --    2.63203   2.66851   2.67453   2.72855   2.76454
 Alpha virt. eigenvalues --    2.77351   2.79840   2.80656   2.81224   2.84393
 Alpha virt. eigenvalues --    2.87117   2.87937   2.88983   2.89394   2.91461
 Alpha virt. eigenvalues --    2.93318   2.95336   2.96562   2.97947   3.00424
 Alpha virt. eigenvalues --    3.00707   3.03133   3.04404   3.04638   3.07714
 Alpha virt. eigenvalues --    3.09641   3.12763   3.13208   3.15344   3.15885
 Alpha virt. eigenvalues --    3.17720   3.20218   3.20337   3.21089   3.23663
 Alpha virt. eigenvalues --    3.25426   3.26605   3.26759   3.29880   3.30444
 Alpha virt. eigenvalues --    3.31964   3.32363   3.33445   3.34319   3.34566
 Alpha virt. eigenvalues --    3.37087   3.38237   3.39178   3.40801   3.45588
 Alpha virt. eigenvalues --    3.45743   3.47377   3.48381   3.52088   3.53600
 Alpha virt. eigenvalues --    3.55083   3.57843   3.59600   3.61854   3.62083
 Alpha virt. eigenvalues --    3.67299   3.71885   3.75019   3.75679   3.77685
 Alpha virt. eigenvalues --    3.80426   3.82852   3.87098   3.93525   3.94542
 Alpha virt. eigenvalues --    3.98549   3.98792   4.05987   4.09371   4.11300
 Alpha virt. eigenvalues --    4.11928   4.14322   4.17541   4.24471   4.27898
 Alpha virt. eigenvalues --    4.34243   4.39742   4.41989   4.42564   4.45352
 Alpha virt. eigenvalues --    4.45957   4.50858   4.56996   4.60177   4.62482
 Alpha virt. eigenvalues --    4.69542   4.72167   4.76411   4.76925   4.86212
 Alpha virt. eigenvalues --    4.86649   4.98539   4.99077   4.99186   4.99483
 Alpha virt. eigenvalues --    5.03855   5.08176   5.12853   5.17074   5.22172
 Alpha virt. eigenvalues --    5.26806   5.28844   5.29633   5.31854   5.34347
 Alpha virt. eigenvalues --    5.38184   5.38777   5.45072   5.47801   5.49869
 Alpha virt. eigenvalues --    5.57965   5.61291   5.64715   5.68483   5.71644
 Alpha virt. eigenvalues --    5.85037   5.92755   5.93973   6.05987   6.10925
 Alpha virt. eigenvalues --    6.15829   6.29804   6.34017   6.38421   6.53155
 Alpha virt. eigenvalues --    6.62504   6.67820   6.73457   6.85158   6.88072
 Alpha virt. eigenvalues --    7.00940   7.10424   7.27481   7.39518  10.80555
 Alpha virt. eigenvalues --   10.86943  11.38567  22.41386  22.60020  22.79695
 Alpha virt. eigenvalues --   22.92428  23.15502  23.43999  25.84720  32.42400
 Alpha virt. eigenvalues --   32.69032  44.05305  44.26035
          Condensed to atoms (all electrons):
               1          2          3          4          5          6
     1  C    4.870186   0.203289  -0.051746   0.002804   0.009055  -0.001096
     2  O    0.203289   7.985561   0.394956  -0.082803  -0.174872   0.029469
     3  C   -0.051746   0.394956   4.470160   0.703087   0.281147  -0.075689
     4  O    0.002804  -0.082803   0.703087   7.777118  -0.098166   0.007129
     5  C    0.009055  -0.174872   0.281147  -0.098166   5.123983   0.408834
     6  C   -0.001096   0.029469  -0.075689   0.007129   0.408834   5.149903
     7  C    0.000009  -0.000400   0.009327  -0.000281  -0.036636   0.453088
     8  N   -0.000002   0.000114  -0.000799   0.000039  -0.023908  -0.045304
     9  C   -0.000012  -0.000284  -0.003778  -0.000626  -0.071493  -0.033025
    10  Cl  -0.000002   0.000002  -0.001568   0.000018  -0.002388   0.007460
    11  N   -0.000311   0.001620  -0.047348  -0.009725   0.484176  -0.073317
    12  H    0.418926  -0.032646  -0.007945   0.003453  -0.001482   0.000383
    13  H    0.418937  -0.032652  -0.007927   0.003445  -0.001488   0.000383
    14  H    0.397622  -0.029887   0.003636   0.001551   0.003380  -0.001106
    15  H   -0.000254   0.011912  -0.012682   0.000327  -0.027394   0.409188
    16  H    0.000002  -0.000076   0.000194  -0.000000   0.006370  -0.060966
               7          8          9         10         11         12
     1  C    0.000009  -0.000002  -0.000012  -0.000002  -0.000311   0.418926
     2  O   -0.000400   0.000114  -0.000284   0.000002   0.001620  -0.032646
     3  C    0.009327  -0.000799  -0.003778  -0.001568  -0.047348  -0.007945
     4  O   -0.000281   0.000039  -0.000626   0.000018  -0.009725   0.003453
     5  C   -0.036636  -0.023908  -0.071493  -0.002388   0.484176  -0.001482
     6  C    0.453088  -0.045304  -0.033025   0.007460  -0.073317   0.000383
     7  C    4.789683   0.484865  -0.086157  -0.000889  -0.004051   0.000004
     8  N    0.484865   6.504013   0.495620  -0.093241  -0.069652  -0.000000
     9  C   -0.086157   0.495620   4.578863   0.409778   0.519533  -0.000004
    10  Cl  -0.000889  -0.093241   0.409778  16.820922  -0.094458   0.000000
    11  N   -0.004051  -0.069652   0.519533  -0.094458   6.499768  -0.000044
    12  H    0.000004  -0.000000  -0.000004   0.000000  -0.000044   0.515059
    13  H    0.000004  -0.000000  -0.000004   0.000000  -0.000044  -0.038683
    14  H   -0.000019  -0.000000   0.000003  -0.000000   0.000029  -0.022995
    15  H   -0.034492   0.003955   0.002066   0.000119   0.003722   0.000098
    16  H    0.434278  -0.029331   0.004121  -0.000312  -0.001365  -0.000000
              13         14         15         16
     1  C    0.418937   0.397622  -0.000254   0.000002
     2  O   -0.032652  -0.029887   0.011912  -0.000076
     3  C   -0.007927   0.003636  -0.012682   0.000194
     4  O    0.003445   0.001551   0.000327  -0.000000
     5  C   -0.001488   0.003380  -0.027394   0.006370
     6  C    0.000383  -0.001106   0.409188  -0.060966
     7  C    0.000004  -0.000019  -0.034492   0.434278
     8  N   -0.000000  -0.000000   0.003955  -0.029331
     9  C   -0.000004   0.000003   0.002066   0.004121
    10  Cl   0.000000  -0.000000   0.000119  -0.000312
    11  N   -0.000044   0.000029   0.003722  -0.001365
    12  H   -0.038683  -0.022995   0.000098  -0.000000
    13  H    0.515047  -0.022996   0.000098  -0.000000
    14  H   -0.022996   0.511481  -0.000256   0.000001
    15  H    0.000098  -0.000256   0.460684  -0.001892
    16  H   -0.000000   0.000001  -0.001892   0.466258
 Mulliken charges:
               1
     1  C   -0.267409
     2  O   -0.273301
     3  C    0.346974
     4  O   -0.307371
     5  C    0.120880
     6  C   -0.175335
     7  C   -0.008332
     8  N   -0.226368
     9  C    0.185398
    10  Cl  -0.045441
    11  N   -0.208532
    12  H    0.165877
    13  H    0.165881
    14  H    0.159557
    15  H    0.184803
    16  H    0.182718
 Sum of Mulliken charges =  -0.00000
 Mulliken charges with hydrogens summed into heavy atoms:
               1
     1  C    0.223906
     2  O   -0.273301
     3  C    0.346974
     4  O   -0.307371
     5  C    0.120880
     6  C    0.009468
     7  C    0.174386
     8  N   -0.226368
     9  C    0.185398
    10  Cl  -0.045441
    11  N   -0.208532
 Electronic spatial extent (au):  <R**2>=           2389.9727
 Charge=              0.0000 electrons
 Dipole moment (field-independent basis, Debye):
    X=              4.2009    Y=              4.5094    Z=             -0.0003  Tot=              6.1630
 Quadrupole moment (field-independent basis, Debye-Ang):
   XX=            -62.8104   YY=            -69.5137   ZZ=            -68.5532
   XY=              3.4153   XZ=              0.0009   YZ=              0.0010
 Traceless Quadrupole moment (field-independent basis, Debye-Ang):
   XX=              4.1487   YY=             -2.5546   ZZ=             -1.5941
   XY=              3.4153   XZ=              0.0009   YZ=              0.0010
 Octapole moment (field-independent basis, Debye-Ang**2):
  XXX=             96.2554  YYY=             28.7768  ZZZ=              0.0017  XYY=             -5.8941
  XXY=             -9.5029  XXZ=              0.0015  XZZ=              4.6675  YZZ=             -5.2117
  YYZ=             -0.0023  XYZ=              0.0023
 Hexadecapole moment (field-independent basis, Debye-Ang**3):
 XXXX=          -2100.1184 YYYY=           -555.5978 ZZZZ=            -75.2571 XXXY=             51.7927
 XXXZ=              0.0224 YYYX=             19.9396 YYYZ=              0.0072 ZZZX=              0.0080
 ZZZY=             -0.0021 XXYY=           -509.2443 XXZZ=           -404.3803 YYZZ=           -117.9564
 XXYZ=             -0.0006 YYXZ=             -0.0111 ZZXY=             -2.8671
 N-N= 6.541879204425D+02 E-N=-3.551145730198D+03  KE= 9.489214441666D+02
 Calculating spin-rotation constants.
 Leave Link  601 at Tue Sep 17 10:25:00 2024, MaxMem=  1342177280 cpu:               2.3 elap:               2.3
 (Enter /groups/ReismanLab/Software/Gaussian16_RevC/Linux_Binary_AVX2-enabled-CPU/g16/l9999.exe)
 Unable to Open any file for archive entry.
 1\1\GINC-HPC-52-19\SP\RM062X\def2TZVP\C6H5Cl1N2O2\MANTIND\17-Sep-2024\
 0\\#p M062X/def2tzvp geom=check guess=read scf(xqc,tight) integral(gri
 d=ultrafine) scrf(SMD, solvent=1,4-Dioxane) nmr=giao\\spe\\0,1\C,0,4.1
 619886234,-0.1586055657,0.408836341\O,0,2.8265264779,0.3714668436,0.47
 95948071\C,0,1.8764745768,-0.407752104,-0.0792816893\O,0,2.0885278798,
 -1.4719581886,-0.6069301286\C,0,0.5167233772,0.2346082464,0.04737278\C
 ,0,0.3297106463,1.4692897896,0.6692540553\C,0,-0.9797999357,1.94311948
 12,0.7151376835\N,0,-2.009860733,1.2655536661,0.1973220414\C,0,-1.6956
 012538,0.1017476547,-0.3675359595\Cl,0,-3.0307129413,-0.7976713482,-1.
 0500966335\N,0,-0.5009502372,-0.4601679843,-0.4775978495\H,0,4.4595455
 047,-0.2991737795,-0.6325708944\H,0,4.2166253567,-1.1193071639,0.92549
 18272\H,0,4.7968972158,0.5795870673,0.8964330075\H,0,1.1588111496,2.02
 13000429,1.0894232282\H,0,-1.218316704,2.8962047192,1.1806578842\\Vers
 ion=ES64L-G16RevC.02\State=1-A\HF=-951.8028736\RMSD=3.795e-09\Dipole=1
 .5416903,1.5455824,1.0552807\Quadrupole=2.7266697,-1.8212676,-0.905402
 1,2.1918517,1.766507,0.0071764\PG=C01 [X(C6H5Cl1N2O2)]\\@
 The archive entry for this job was punched.


 ADAM SMITH SAID, "THE REAL PRICE OF ANYTHING IS THE TOIL AND TROUBLE
 OF ACQUIRING IT."  BUT IN ALL UNDERTAKINGS WITH NATURE WE SHOULD FIRST
 READ CAREFULLY THE SMALL PRINT IN THE CONTRACT. THIS MIGHT DISCLOSE
 THAT THE REAL PRICE IS TO BE PAID BY THOSE WHO INHERIT THE DEPLETION
 AND DESPOILATION THAT FOLLOWS.
                               -- E. R. HARRISON IN "COSMOLOGY" (1980)
 Job cpu time:       0 days  0 hours  8 minutes  4.8 seconds.
 Elapsed time:       0 days  0 hours  8 minutes  6.7 seconds.
 File lengths (MBytes):  RWF=    248 Int=      0 D2E=      0 Chk=     24 Scr=     16
 Normal termination of Gaussian 16 at Tue Sep 17 10:25:00 2024.
