 Entering Gaussian System, Link 0=g16
 Input=smiles_00098_conf_4.gjf
 Output=smiles_00098_conf_4.log
 Initial command:
 /groups/ReismanLab/Software/Gaussian16_RevC/Linux_Binary_AVX2-enabled-CPU/g16/l1.exe "/central/groups/ReismanLab/DM/dft_final/smiles_00098/Gau-1449734.inp" -scrdir="/central/groups/ReismanLab/DM/dft_final/smiles_00098/"
 Entering Link 1 = /groups/ReismanLab/Software/Gaussian16_RevC/Linux_Binary_AVX2-enabled-CPU/g16/l1.exe PID=   1449735.
  
 Copyright (c) 1988-2021, Gaussian, Inc.  All Rights Reserved.
  
 This is part of the Gaussian(R) 16 program.  It is based on
 the Gaussian(R) 09 system (copyright 2009, Gaussian, Inc.),
 the Gaussian(R) 03 system (copyright 2003, Gaussian, Inc.),
 the Gaussian(R) 98 system (copyright 1998, Gaussian, Inc.),
 the Gaussian(R) 94 system (copyright 1995, Gaussian, Inc.),
 the Gaussian 92(TM) system (copyright 1992, Gaussian, Inc.),
 the Gaussian 90(TM) system (copyright 1990, Gaussian, Inc.),
 the Gaussian 88(TM) system (copyright 1988, Gaussian, Inc.),
 the Gaussian 86(TM) system (copyright 1986, Carnegie Mellon
 University), and the Gaussian 82(TM) system (copyright 1983,
 Carnegie Mellon University). Gaussian is a federally registered
 trademark of Gaussian, Inc.
  
 This software contains proprietary and confidential information,
 including trade secrets, belonging to Gaussian, Inc.
  
 This software is provided under written license and may be
 used, copied, transmitted, or stored only in accord with that
 written license.
  
 The following legend is applicable only to US Government
 contracts under FAR:
  
                    RESTRICTED RIGHTS LEGEND
  
 Use, reproduction and disclosure by the US Government is
 subject to restrictions as set forth in subparagraphs (a)
 and (c) of the Commercial Computer Software - Restricted
 Rights clause in FAR 52.227-19.
  
 Gaussian, Inc.
 340 Quinnipiac St., Bldg. 40, Wallingford CT 06492
  
  
 ---------------------------------------------------------------
 Warning -- This program may not be used in any manner that
 competes with the business of Gaussian, Inc. or will provide
 assistance to any competitor of Gaussian, Inc.  The licensee
 of this program is prohibited from giving any competitor of
 Gaussian, Inc. access to this program.  By using this program,
 the user acknowledges that Gaussian, Inc. is engaged in the
 business of creating and licensing software in the field of
 computational chemistry and represents and warrants to the
 licensee that it is not a competitor of Gaussian, Inc. and that
 it will not use this program in any manner prohibited above.
 ---------------------------------------------------------------
  

 Cite this work as:
 Gaussian 16, Revision C.02,
 M. J. Frisch, G. W. Trucks, H. B. Schlegel, G. E. Scuseria, 
 M. A. Robb, J. R. Cheeseman, G. Scalmani, V. Barone, 
 G. A. Petersson, H. Nakatsuji, X. Li, M. Caricato, A. V. Marenich, 
 J. Bloino, B. G. Janesko, R. Gomperts, B. Mennucci, H. P. Hratchian, 
 J. V. Ortiz, A. F. Izmaylov, J. L. Sonnenberg, D. Williams-Young, 
 F. Ding, F. Lipparini, F. Egidi, J. Goings, B. Peng, A. Petrone, 
 T. Henderson, D. Ranasinghe, V. G. Zakrzewski, J. Gao, N. Rega, 
 G. Zheng, W. Liang, M. Hada, M. Ehara, K. Toyota, R. Fukuda, 
 J. Hasegawa, M. Ishida, T. Nakajima, Y. Honda, O. Kitao, H. Nakai, 
 T. Vreven, K. Throssell, J. A. Montgomery, Jr., J. E. Peralta, 
 F. Ogliaro, M. J. Bearpark, J. J. Heyd, E. N. Brothers, K. N. Kudin, 
 V. N. Staroverov, T. A. Keith, R. Kobayashi, J. Normand, 
 K. Raghavachari, A. P. Rendell, J. C. Burant, S. S. Iyengar, 
 J. Tomasi, M. Cossi, J. M. Millam, M. Klene, C. Adamo, R. Cammi, 
 J. W. Ochterski, R. L. Martin, K. Morokuma, O. Farkas, 
 J. B. Foresman, and D. J. Fox, Gaussian, Inc., Wallingford CT, 2019.
 
 ******************************************
 Gaussian 16:  ES64L-G16RevC.02  7-Dec-2021
                17-Sep-2024 
 ******************************************
 %nprocshared=8
 Will use up to    8 processors via shared memory.
 %Mem=10GB
 %Chk=smiles_00098_conf_4.chk
 ----------------------------------------------------------------------
 #p B3LYP/6-31G(d,p) EmpiricalDispersion=GD3BJ opt freq scf(xqc,tight) 
 integral(grid=ultrafine)
 ----------------------------------------------------------------------
 1/18=20,19=15,26=4,38=1/1,3;
 2/9=110,12=2,17=6,18=5,40=1/2;
 3/5=1,6=6,7=101,11=2,25=1,30=1,71=1,74=-5,75=-5,124=41/1,2,3;
 4//1;
 5/5=2,8=3,13=1,32=2,38=5/2,8;
 6/7=2,8=2,9=2,10=2,28=1/1;
 7//1,2,3,16;
 1/18=20,19=15,26=4/3(2);
 2/9=110/2;
 99//99;
 2/9=110/2;
 3/5=1,6=6,7=101,11=2,25=1,30=1,71=1,74=-5,75=-5,124=41/1,2,3;
 4/5=5,16=3,69=1/1;
 5/5=2,8=3,13=1,32=2,38=5/2,8;
 7//1,2,3,16;
 1/18=20,19=15,26=4/3(-5);
 2/9=110/2;
 6/7=2,8=2,9=2,10=2,19=2,28=1/1;
 99/9=1/99;
 Leave Link    1 at Tue Sep 17 09:43:38 2024, MaxMem=  1342177280 cpu:               0.1 elap:               4.5
 (Enter /groups/ReismanLab/Software/Gaussian16_RevC/Linux_Binary_AVX2-enabled-CPU/g16/l101.exe)
 ----------------------------------
 opt-freq conformers_unique/conf_ae
 ----------------------------------
 Symbolic Z-matrix:
 Charge =  0 Multiplicity = 1
 C                     2.81162   2.09856   1.01803 
 O                     1.46615   1.63525   1.04805 
 C                     0.86662   1.40038  -0.11911 
 O                     1.35738   1.57446  -1.20121 
 C                    -0.53076   0.90277   0.10336 
 C                    -1.55289   1.79152   0.40871 
 C                    -2.8495    1.3346    0.56992 
 C                    -3.13312  -0.01412   0.4298 
 C                    -2.12338  -0.9124    0.13297 
 C                    -0.82954  -0.44673  -0.02974 
 Br                    0.56344  -1.6835   -0.40974 
 H                     3.46816   1.28918   1.33959 
 H                     2.88593   2.9363    1.70963 
 H                     3.07615   2.40978   0.00595 
 H                    -1.32457   2.84131   0.51352 
 H                    -3.63837   2.03215   0.80532 
 H                    -4.14336  -0.37285   0.55433 
 H                    -2.33199  -1.96586   0.02811 
 
 ITRead=  0  0  0  0  0  0  0  0  0  0  0  0  0  0  0  0  0  0
 MicOpt= -1 -1 -1 -1 -1 -1 -1 -1 -1 -1 -1 -1 -1 -1 -1 -1 -1 -1
 NAtoms=     18 NQM=       18 NQMF=       0 NMMI=      0 NMMIF=      0
                NMic=       0 NMicF=      0.
                    Isotopes and Nuclear Properties:
 (Nuclear quadrupole moments (NQMom) in fm**2, nuclear magnetic moments (NMagM)
  in nuclear magnetons)

  Atom         1           2           3           4           5           6           7           8           9          10
 IAtWgt=          12          16          12          16          12          12          12          12          12          12
 AtmWgt=  12.0000000  15.9949146  12.0000000  15.9949146  12.0000000  12.0000000  12.0000000  12.0000000  12.0000000  12.0000000
 NucSpn=           0           0           0           0           0           0           0           0           0           0
 AtZEff=  -0.0000000  -0.0000000  -0.0000000  -0.0000000  -0.0000000  -0.0000000  -0.0000000  -0.0000000  -0.0000000  -0.0000000
 NQMom=    0.0000000   0.0000000   0.0000000   0.0000000   0.0000000   0.0000000   0.0000000   0.0000000   0.0000000   0.0000000
 NMagM=    0.0000000   0.0000000   0.0000000   0.0000000   0.0000000   0.0000000   0.0000000   0.0000000   0.0000000   0.0000000
 AtZNuc=   6.0000000   8.0000000   6.0000000   8.0000000   6.0000000   6.0000000   6.0000000   6.0000000   6.0000000   6.0000000

  Atom        11          12          13          14          15          16          17          18
 IAtWgt=          79           1           1           1           1           1           1           1
 AtmWgt=  78.9183361   1.0078250   1.0078250   1.0078250   1.0078250   1.0078250   1.0078250   1.0078250
 NucSpn=           3           1           1           1           1           1           1           1
 AtZEff=  -0.0000000  -0.0000000  -0.0000000  -0.0000000  -0.0000000  -0.0000000  -0.0000000  -0.0000000
 NQMom=   31.3000000   0.0000000   0.0000000   0.0000000   0.0000000   0.0000000   0.0000000   0.0000000
 NMagM=    2.1063990   2.7928460   2.7928460   2.7928460   2.7928460   2.7928460   2.7928460   2.7928460
 AtZNuc=  35.0000000   1.0000000   1.0000000   1.0000000   1.0000000   1.0000000   1.0000000   1.0000000
 Leave Link  101 at Tue Sep 17 09:43:38 2024, MaxMem=  1342177280 cpu:               0.2 elap:               0.2
 (Enter /groups/ReismanLab/Software/Gaussian16_RevC/Linux_Binary_AVX2-enabled-CPU/g16/l103.exe)

 GradGradGradGradGradGradGradGradGradGradGradGradGradGradGradGradGradGrad
 Berny optimization.
 Initialization pass.
                           ----------------------------
                           !    Initial Parameters    !
                           ! (Angstroms and Degrees)  !
 --------------------------                            --------------------------
 ! Name  Definition              Value          Derivative Info.                !
 --------------------------------------------------------------------------------
 ! R1    R(1,2)                  1.4233         estimate D2E/DX2                !
 ! R2    R(1,12)                 1.0907         estimate D2E/DX2                !
 ! R3    R(1,13)                 1.0889         estimate D2E/DX2                !
 ! R4    R(1,14)                 1.0914         estimate D2E/DX2                !
 ! R5    R(2,3)                  1.333          estimate D2E/DX2                !
 ! R6    R(3,4)                  1.2009         estimate D2E/DX2                !
 ! R7    R(3,5)                  1.4999         estimate D2E/DX2                !
 ! R8    R(5,6)                  1.3885         estimate D2E/DX2                !
 ! R9    R(5,10)                 1.3886         estimate D2E/DX2                !
 ! R10   R(6,7)                  1.3842         estimate D2E/DX2                !
 ! R11   R(6,15)                 1.0794         estimate D2E/DX2                !
 ! R12   R(7,8)                  1.3853         estimate D2E/DX2                !
 ! R13   R(7,16)                 1.079          estimate D2E/DX2                !
 ! R14   R(8,9)                  1.3837         estimate D2E/DX2                !
 ! R15   R(8,17)                 1.0792         estimate D2E/DX2                !
 ! R16   R(9,10)                 1.3847         estimate D2E/DX2                !
 ! R17   R(9,18)                 1.079          estimate D2E/DX2                !
 ! R18   R(10,11)                1.9012         estimate D2E/DX2                !
 ! A1    A(2,1,12)             108.7392         estimate D2E/DX2                !
 ! A2    A(2,1,13)             107.5507         estimate D2E/DX2                !
 ! A3    A(2,1,14)             109.9686         estimate D2E/DX2                !
 ! A4    A(12,1,13)            110.0353         estimate D2E/DX2                !
 ! A5    A(12,1,14)            109.8239         estimate D2E/DX2                !
 ! A6    A(13,1,14)            110.6741         estimate D2E/DX2                !
 ! A7    A(1,2,3)              117.6487         estimate D2E/DX2                !
 ! A8    A(2,3,4)              125.4255         estimate D2E/DX2                !
 ! A9    A(2,3,5)              110.3408         estimate D2E/DX2                !
 ! A10   A(4,3,5)              124.2271         estimate D2E/DX2                !
 ! A11   A(3,5,6)              120.4033         estimate D2E/DX2                !
 ! A12   A(3,5,10)             120.575          estimate D2E/DX2                !
 ! A13   A(6,5,10)             118.9969         estimate D2E/DX2                !
 ! A14   A(5,6,7)              120.2582         estimate D2E/DX2                !
 ! A15   A(5,6,15)             119.2196         estimate D2E/DX2                !
 ! A16   A(7,6,15)             120.5215         estimate D2E/DX2                !
 ! A17   A(6,7,8)              120.0911         estimate D2E/DX2                !
 ! A18   A(6,7,16)             119.7918         estimate D2E/DX2                !
 ! A19   A(8,7,16)             120.1171         estimate D2E/DX2                !
 ! A20   A(7,8,9)              120.2871         estimate D2E/DX2                !
 ! A21   A(7,8,17)             120.2371         estimate D2E/DX2                !
 ! A22   A(9,8,17)             119.4756         estimate D2E/DX2                !
 ! A23   A(8,9,10)             119.2589         estimate D2E/DX2                !
 ! A24   A(8,9,18)             120.9019         estimate D2E/DX2                !
 ! A25   A(10,9,18)            119.8392         estimate D2E/DX2                !
 ! A26   A(5,10,9)             121.1064         estimate D2E/DX2                !
 ! A27   A(5,10,11)            119.5863         estimate D2E/DX2                !
 ! A28   A(9,10,11)            119.2974         estimate D2E/DX2                !
 ! D1    D(12,1,2,3)          -107.2719         estimate D2E/DX2                !
 ! D2    D(13,1,2,3)           133.6019         estimate D2E/DX2                !
 ! D3    D(14,1,2,3)            13.0119         estimate D2E/DX2                !
 ! D4    D(1,2,3,4)             -1.7094         estimate D2E/DX2                !
 ! D5    D(1,2,3,5)            179.1898         estimate D2E/DX2                !
 ! D6    D(2,3,5,6)             79.2985         estimate D2E/DX2                !
 ! D7    D(2,3,5,10)          -102.5295         estimate D2E/DX2                !
 ! D8    D(4,3,5,6)            -99.8154         estimate D2E/DX2                !
 ! D9    D(4,3,5,10)            78.3567         estimate D2E/DX2                !
 ! D10   D(3,5,6,7)            177.862          estimate D2E/DX2                !
 ! D11   D(3,5,6,15)            -1.8309         estimate D2E/DX2                !
 ! D12   D(10,5,6,7)            -0.3387         estimate D2E/DX2                !
 ! D13   D(10,5,6,15)          179.9684         estimate D2E/DX2                !
 ! D14   D(3,5,10,9)          -178.0075         estimate D2E/DX2                !
 ! D15   D(3,5,10,11)            3.1441         estimate D2E/DX2                !
 ! D16   D(6,5,10,9)             0.19           estimate D2E/DX2                !
 ! D17   D(6,5,10,11)         -178.6584         estimate D2E/DX2                !
 ! D18   D(5,6,7,8)              0.1339         estimate D2E/DX2                !
 ! D19   D(5,6,7,16)          -179.8845         estimate D2E/DX2                !
 ! D20   D(15,6,7,8)           179.8227         estimate D2E/DX2                !
 ! D21   D(15,6,7,16)           -0.1956         estimate D2E/DX2                !
 ! D22   D(6,7,8,9)              0.227          estimate D2E/DX2                !
 ! D23   D(6,7,8,17)          -179.9588         estimate D2E/DX2                !
 ! D24   D(16,7,8,9)          -179.7546         estimate D2E/DX2                !
 ! D25   D(16,7,8,17)            0.0596         estimate D2E/DX2                !
 ! D26   D(7,8,9,10)            -0.3734         estimate D2E/DX2                !
 ! D27   D(7,8,9,18)           179.5906         estimate D2E/DX2                !
 ! D28   D(17,8,9,10)          179.811          estimate D2E/DX2                !
 ! D29   D(17,8,9,18)           -0.225          estimate D2E/DX2                !
 ! D30   D(8,9,10,5)             0.1645         estimate D2E/DX2                !
 ! D31   D(8,9,10,11)          179.016          estimate D2E/DX2                !
 ! D32   D(18,9,10,5)         -179.8            estimate D2E/DX2                !
 ! D33   D(18,9,10,11)          -0.9484         estimate D2E/DX2                !
 --------------------------------------------------------------------------------
 Trust Radius=3.00D-01 FncErr=1.00D-07 GrdErr=1.00D-06 EigMax=2.50D+02 EigMin=1.00D-04
 Number of steps in this run=     89 maximum allowed number of steps=    108.
 GradGradGradGradGradGradGradGradGradGradGradGradGradGradGradGradGradGrad

 Leave Link  103 at Tue Sep 17 09:43:38 2024, MaxMem=  1342177280 cpu:               0.0 elap:               0.0
 (Enter /groups/ReismanLab/Software/Gaussian16_RevC/Linux_Binary_AVX2-enabled-CPU/g16/l202.exe)
                          Input orientation:                          
 ---------------------------------------------------------------------
 Center     Atomic      Atomic             Coordinates (Angstroms)
 Number     Number       Type             X           Y           Z
 ---------------------------------------------------------------------
      1          6           0        2.811622    2.098557    1.018025
      2          8           0        1.466152    1.635253    1.048051
      3          6           0        0.866616    1.400379   -0.119113
      4          8           0        1.357377    1.574460   -1.201211
      5          6           0       -0.530759    0.902768    0.103355
      6          6           0       -1.552886    1.791519    0.408714
      7          6           0       -2.849504    1.334600    0.569921
      8          6           0       -3.133124   -0.014122    0.429798
      9          6           0       -2.123376   -0.912403    0.132973
     10          6           0       -0.829538   -0.446731   -0.029743
     11         35           0        0.563442   -1.683501   -0.409741
     12          1           0        3.468163    1.289180    1.339591
     13          1           0        2.885933    2.936305    1.709625
     14          1           0        3.076146    2.409784    0.005955
     15          1           0       -1.324567    2.841311    0.513518
     16          1           0       -3.638366    2.032146    0.805316
     17          1           0       -4.143359   -0.372854    0.554328
     18          1           0       -2.331992   -1.965860    0.028107
 ---------------------------------------------------------------------
                    Distance matrix (angstroms):
                    1          2          3          4          5
     1  C    0.000000
     2  O    1.423321   0.000000
     3  C    2.358725   1.332997   0.000000
     4  O    2.704535   2.252711   1.200869   0.000000
     5  C    3.665794   2.327368   1.499922   2.391260   0.000000
     6  C    4.417517   3.089945   2.507105   3.332957   1.388476
     7  C    5.729988   4.352457   3.780031   4.570808   2.404316
     8  C    6.336358   4.925040   4.277854   5.034718   2.778409
     9  C    5.848367   4.495845   3.788476   4.481091   2.414984
    10  C    4.564467   3.281233   2.509331   3.200023   1.388571
    11  Br   4.625666   3.735528   3.112345   3.445441   2.854703
    12  H    1.090661   2.052513   2.984666   3.315490   4.203448
    13  H    1.088878   2.036221   3.127458   3.558661   4.288259
    14  H    1.091385   2.068319   2.432399   2.260349   3.910287
    15  H    4.232525   3.086812   2.697737   3.426081   2.134552
    16  H    6.453836   5.125675   4.642042   5.403062   3.380157
    17  H    7.395582   5.978534   5.357025   6.093607   3.857650
    18  H    6.629946   5.332373   4.645894   5.258948   3.388086
                    6          7          8          9         10
     6  C    0.000000
     7  C    1.384189   0.000000
     8  C    2.399570   1.385325   0.000000
     9  C    2.777172   2.401501   1.383693   0.000000
    10  C    2.392747   2.759166   2.388480   1.384681   0.000000
    11  Br   4.150238   4.660136   4.142011   2.847476   1.901156
    12  H    5.131258   6.364540   6.789942   6.129290   4.833084
    13  H    4.765083   6.062971   6.824370   6.510880   5.317430
    14  H    4.687472   6.048751   6.679071   6.171554   4.838938
    15  H    1.079434   2.144479   3.381033   3.856589   3.369185
    16  H    2.136451   1.079020   2.140909   3.378995   3.838185
    17  H    3.378796   2.142359   1.079245   2.132835   3.365710
    18  H    3.856134   3.384438   2.147663   1.079023   2.137397
                   11         12         13         14         15
    11  Br   0.000000
    12  H    4.509368   0.000000
    13  H    5.588227   1.785760   0.000000
    14  H    4.820940   1.785502   1.793293   0.000000
    15  H    4.989079   5.105072   4.378128   4.450854   0.000000
    16  H    5.739128   7.165208   6.648440   6.772463   2.468514
    17  H    4.980080   7.830342   7.854692   7.756612   4.275290
    18  H    2.941934   6.779164   7.354282   6.956630   4.935527
                   16         17         18
    16  H    0.000000
    17  H    2.470230   0.000000
    18  H    4.277233   2.468933   0.000000
 Stoichiometry    C8H7BrO2
 Framework group  C1[X(C8H7BrO2)]
 Deg. of freedom    48
 Full point group                 C1      NOp   1
 Largest Abelian subgroup         C1      NOp   1
 Largest concise Abelian subgroup C1      NOp   1
                         Standard orientation:                         
 ---------------------------------------------------------------------
 Center     Atomic      Atomic             Coordinates (Angstroms)
 Number     Number       Type             X           Y           Z
 ---------------------------------------------------------------------
      1          6           0        3.431293   -0.866416   -0.665318
      2          8           0        2.014624   -0.994978   -0.713923
      3          6           0        1.331418   -0.736321    0.401069
      4          8           0        1.813346   -0.430100    1.457507
      5          6           0       -0.139885   -0.902411    0.161384
      6          6           0       -0.711150   -2.167848    0.147639
      7          6           0       -2.075999   -2.315083   -0.029812
      8          6           0       -2.879027   -1.198776   -0.197533
      9          6           0       -2.322613    0.068107   -0.193494
     10          6           0       -0.956870    0.206869   -0.012297
     11         35           0       -0.187293    1.945156   -0.034697
     12          1           0        3.720836    0.030000   -1.214995
     13          1           0        3.857552   -1.748930   -1.139796
     14          1           0        3.763084   -0.788161    0.371462
     15          1           0       -0.079324   -3.032703    0.281801
     16          1           0       -2.512264   -3.301947   -0.037372
     17          1           0       -3.943550   -1.310809   -0.335408
     18          1           0       -2.937851    0.944002   -0.329810
 ---------------------------------------------------------------------
 Rotational constants (GHZ):           0.9049496           0.7843437           0.4617331
 Leave Link  202 at Tue Sep 17 09:43:38 2024, MaxMem=  1342177280 cpu:               0.0 elap:               0.0
 (Enter /groups/ReismanLab/Software/Gaussian16_RevC/Linux_Binary_AVX2-enabled-CPU/g16/l301.exe)
 Standard basis: 6-31G(d,p) (6D, 7F)
 Ernie: Thresh=  0.10000D-02 Tol=  0.10000D-05 Strict=F.
 There are   215 symmetry adapted cartesian basis functions of A   symmetry.
 There are   215 symmetry adapted basis functions of A   symmetry.
   215 basis functions,   412 primitive gaussians,   215 cartesian basis functions
    53 alpha electrons       53 beta electrons
       nuclear repulsion energy       860.5619815256 Hartrees.
 IExCor=  402 DFT=T Ex+Corr=B3LYP ExCW=0 ScaHFX=  0.200000
 ScaDFX=  0.800000  0.720000  1.000000  0.810000 ScalE2=  1.000000  1.000000
 IRadAn=      5 IRanWt=     -1 IRanGd=            0 ICorTp=0 IEmpDi=141
 NAtoms=   18 NActive=   18 NUniq=   18 SFac= 1.00D+00 NAtFMM=   60 NAOKFM=F Big=F
 Integral buffers will be    131072 words long.
 Raffenetti 2 integral format.
 Two-electron integral symmetry is turned on.
 R6Disp:  Grimme-D3(BJ) Dispersion energy=       -0.0366938195 Hartrees.
 Nuclear repulsion after empirical dispersion term =      860.5252877061 Hartrees.
 Leave Link  301 at Tue Sep 17 09:43:38 2024, MaxMem=  1342177280 cpu:               0.1 elap:               0.1
 (Enter /groups/ReismanLab/Software/Gaussian16_RevC/Linux_Binary_AVX2-enabled-CPU/g16/l302.exe)
 NPDir=0 NMtPBC=     1 NCelOv=     1 NCel=       1 NClECP=     1 NCelD=      1
         NCelK=      1 NCelE2=     1 NClLst=     1 CellRange=     0.0.
 One-electron integrals computed using PRISM.
 One-electron integral symmetry used in STVInt
 NBasis=   215 RedAO= T EigKep=  3.95D-04  NBF=   215
 NBsUse=   215 1.00D-06 EigRej= -1.00D+00 NBFU=   215
 Precomputing XC quadrature grid using
 IXCGrd= 4 IRadAn=           5 IRanWt=          -1 IRanGd=           0 AccXCQ= 0.00D+00.
 Generated NRdTot=       0 NPtTot=           0 NUsed=           0 NTot=          32
 NSgBfM=   214   214   214   214   214 MxSgAt=    18 MxSgA2=    18.
 Leave Link  302 at Tue Sep 17 09:43:38 2024, MaxMem=  1342177280 cpu:               0.8 elap:               0.1
 (Enter /groups/ReismanLab/Software/Gaussian16_RevC/Linux_Binary_AVX2-enabled-CPU/g16/l303.exe)
 DipDrv:  MaxL=1.
 Leave Link  303 at Tue Sep 17 09:43:38 2024, MaxMem=  1342177280 cpu:               0.1 elap:               0.0
 (Enter /groups/ReismanLab/Software/Gaussian16_RevC/Linux_Binary_AVX2-enabled-CPU/g16/l401.exe)
 ExpMin= 1.43D-01 ExpMax= 5.74D+05 ExpMxC= 5.74D+03 IAcc=3 IRadAn=         5 AccDes= 0.00D+00
 Harris functional with IExCor=  402 and IRadAn=       5 diagonalized for initial guess.
 HarFok:  IExCor=  402 AccDes= 0.00D+00 IRadAn=         5 IDoV= 1 UseB2=F ITyADJ=14
 ICtDFT=  3500011 ScaDFX=  1.000000  1.000000  1.000000  1.000000
 FoFCou: FMM=F IPFlag=           0 FMFlag=      100000 FMFlg1=           0
         NFxFlg=           0 DoJE=T BraDBF=F KetDBF=T FulRan=T
         wScrn=  0.000000 ICntrl=       500 IOpCl=  0 I1Cent=   200000004 NGrid=           0
         NMat0=    1 NMatS0=      1 NMatT0=    0 NMatD0=    1 NMtDS0=    0 NMtDT0=    0
 Petite list used in FoFCou.
 Harris En= -3031.38875414868    
 JPrj=0 DoOrth=F DoCkMO=F.
 Leave Link  401 at Tue Sep 17 09:43:39 2024, MaxMem=  1342177280 cpu:               4.3 elap:               0.6
 (Enter /groups/ReismanLab/Software/Gaussian16_RevC/Linux_Binary_AVX2-enabled-CPU/g16/l502.exe)
 Integral symmetry usage will be decided dynamically.
 Closed shell SCF:
 Using DIIS extrapolation, IDIIS=  1040.
 NGot=  1342177280 LenX=  1342080394 LenY=  1342033728
 Requested convergence on RMS density matrix=1.00D-08 within  32 cycles.
 Requested convergence on MAX density matrix=1.00D-06.
 Requested convergence on             energy=1.00D-06.
 No special actions if energy rises.
 Fock matrices will be formed incrementally for  20 cycles.
 Integral accuracy reduced to 1.0D-05 until final iterations.

 Cycle   1  Pass 0  IDiag  1:
 FoFJK:  IHMeth= 1 ICntrl=       0 DoSepK=F KAlg= 0 I1Cent=           0 FoldK=F
 IRaf= 860000000 NMat=       1 IRICut=       1 DoRegI=T DoRafI=F ISym2E= 0 IDoP0=0 IntGTp=1.
 FoFCou: FMM=F IPFlag=           0 FMFlag=      100000 FMFlg1=           0
         NFxFlg=           0 DoJE=F BraDBF=F KetDBF=F FulRan=T
         wScrn=  0.000000 ICntrl=         0 IOpCl=  0 I1Cent=           0 NGrid=           0
         NMat0=    1 NMatS0=      1 NMatT0=    0 NMatD0=    1 NMtDS0=    0 NMtDT0=    0
 Symmetry not used in FoFCou.
 E= -3031.02240154641    
 DIIS: error= 1.56D-01 at cycle   1 NSaved=   1.
 NSaved= 1 IEnMin= 1 EnMin= -3031.02240154641     IErMin= 1 ErrMin= 1.56D-01
 ErrMax= 1.56D-01  0.00D+00 EMaxC= 1.00D-01 BMatC= 6.12D-01 BMatP= 6.12D-01
 IDIUse=3 WtCom= 0.00D+00 WtEn= 1.00D+00
 Coeff-Com:  0.100D+01
 Coeff-En:   0.100D+01
 Coeff:      0.100D+01
 Gap=     0.290 Goal=   None    Shift=    0.000
 GapD=    0.290 DampG=1.000 DampE=0.250 DampFc=0.2500 IDamp=-1.
 Damping current iteration by 2.50D-01
 RMSDP=5.51D-03 MaxDP=2.01D-01              OVMax= 2.56D-01

 Cycle   2  Pass 0  IDiag  1:
 RMSU=  1.34D-03    CP:  9.92D-01
 E= -3031.10710697829     Delta-E=       -0.084705431887 Rises=F Damp=T
 DIIS: error= 1.15D-01 at cycle   2 NSaved=   2.
 NSaved= 2 IEnMin= 2 EnMin= -3031.10710697829     IErMin= 2 ErrMin= 1.15D-01
 ErrMax= 1.15D-01  0.00D+00 EMaxC= 1.00D-01 BMatC= 2.49D-01 BMatP= 6.12D-01
 IDIUse=3 WtCom= 0.00D+00 WtEn= 1.00D+00
 Coeff-Com: -0.107D+01 0.207D+01
 Coeff-En:   0.000D+00 0.100D+01
 Coeff:      0.000D+00 0.100D+01
 Gap=     0.245 Goal=   None    Shift=    0.000
 RMSDP=2.66D-03 MaxDP=1.11D-01 DE=-8.47D-02 OVMax= 1.38D-01

 Cycle   3  Pass 0  IDiag  1:
 RMSU=  1.31D-03    CP:  9.70D-01  2.57D+00
 E= -3031.21701503104     Delta-E=       -0.109908052751 Rises=F Damp=F
 DIIS: error= 1.19D-02 at cycle   3 NSaved=   3.
 NSaved= 3 IEnMin= 3 EnMin= -3031.21701503104     IErMin= 3 ErrMin= 1.19D-02
 ErrMax= 1.19D-02  0.00D+00 EMaxC= 1.00D-01 BMatC= 5.15D-02 BMatP= 2.49D-01
 IDIUse=3 WtCom= 8.81D-01 WtEn= 1.19D-01
 Coeff-Com:  0.607D+00-0.634D+00 0.103D+01
 Coeff-En:   0.108D+00 0.000D+00 0.892D+00
 Coeff:      0.548D+00-0.559D+00 0.101D+01
 Gap=     0.233 Goal=   None    Shift=    0.000
 RMSDP=1.67D-03 MaxDP=4.45D-02 DE=-1.10D-01 OVMax= 6.11D-02

 Cycle   4  Pass 0  IDiag  1:
 RMSU=  1.27D-03    CP:  9.71D-01  1.78D+00  8.18D-01
 E= -3031.23873589143     Delta-E=       -0.021720860388 Rises=F Damp=F
 DIIS: error= 1.07D-02 at cycle   4 NSaved=   4.
 NSaved= 4 IEnMin= 4 EnMin= -3031.23873589143     IErMin= 4 ErrMin= 1.07D-02
 ErrMax= 1.07D-02  0.00D+00 EMaxC= 1.00D-01 BMatC= 2.82D-02 BMatP= 5.15D-02
 IDIUse=3 WtCom= 8.93D-01 WtEn= 1.07D-01
 Coeff-Com:  0.520D+00-0.667D+00 0.685D+00 0.461D+00
 Coeff-En:   0.000D+00 0.000D+00 0.331D+00 0.669D+00
 Coeff:      0.464D+00-0.595D+00 0.647D+00 0.483D+00
 Gap=     0.232 Goal=   None    Shift=    0.000
 RMSDP=8.72D-04 MaxDP=3.08D-02 DE=-2.17D-02 OVMax= 5.16D-02

 Cycle   5  Pass 0  IDiag  1:
 RMSU=  2.12D-04    CP:  9.71D-01  1.90D+00  1.02D+00  3.79D-01
 E= -3031.26393299952     Delta-E=       -0.025197108093 Rises=F Damp=F
 DIIS: error= 2.37D-03 at cycle   5 NSaved=   5.
 NSaved= 5 IEnMin= 5 EnMin= -3031.26393299952     IErMin= 5 ErrMin= 2.37D-03
 ErrMax= 2.37D-03  0.00D+00 EMaxC= 1.00D-01 BMatC= 1.03D-03 BMatP= 2.82D-02
 IDIUse=3 WtCom= 9.76D-01 WtEn= 2.37D-02
 Coeff-Com:  0.194D+00-0.251D+00 0.277D+00 0.253D+00 0.526D+00
 Coeff-En:   0.000D+00 0.000D+00 0.000D+00 0.000D+00 0.100D+01
 Coeff:      0.189D+00-0.245D+00 0.270D+00 0.247D+00 0.538D+00
 Gap=     0.226 Goal=   None    Shift=    0.000
 RMSDP=1.42D-04 MaxDP=6.18D-03 DE=-2.52D-02 OVMax= 1.03D-02

 Cycle   6  Pass 0  IDiag  1:
 RMSU=  6.55D-05    CP:  9.71D-01  1.93D+00  1.00D+00  4.37D-01  5.52D-01
 E= -3031.26470170124     Delta-E=       -0.000768701712 Rises=F Damp=F
 DIIS: error= 5.72D-04 at cycle   6 NSaved=   6.
 NSaved= 6 IEnMin= 6 EnMin= -3031.26470170124     IErMin= 6 ErrMin= 5.72D-04
 ErrMax= 5.72D-04  0.00D+00 EMaxC= 1.00D-01 BMatC= 6.52D-05 BMatP= 1.03D-03
 IDIUse=3 WtCom= 9.94D-01 WtEn= 5.72D-03
 Coeff-Com:  0.603D-01-0.785D-01 0.841D-01 0.840D-01 0.281D+00 0.569D+00
 Coeff-En:   0.000D+00 0.000D+00 0.000D+00 0.000D+00 0.000D+00 0.100D+01
 Coeff:      0.599D-01-0.781D-01 0.836D-01 0.835D-01 0.280D+00 0.571D+00
 Gap=     0.225 Goal=   None    Shift=    0.000
 RMSDP=4.09D-05 MaxDP=1.50D-03 DE=-7.69D-04 OVMax= 2.44D-03

 Cycle   7  Pass 0  IDiag  1:
 RMSU=  2.19D-05    CP:  9.70D-01  1.92D+00  1.01D+00  4.44D-01  5.78D-01
                    CP:  5.51D-01
 E= -3031.26475195842     Delta-E=       -0.000050257187 Rises=F Damp=F
 DIIS: error= 1.31D-04 at cycle   7 NSaved=   7.
 NSaved= 7 IEnMin= 7 EnMin= -3031.26475195842     IErMin= 7 ErrMin= 1.31D-04
 ErrMax= 1.31D-04  0.00D+00 EMaxC= 1.00D-01 BMatC= 4.99D-06 BMatP= 6.52D-05
 IDIUse=3 WtCom= 9.99D-01 WtEn= 1.31D-03
 Coeff-Com:  0.183D-01-0.241D-01 0.232D-01 0.233D-01 0.101D+00 0.294D+00
 Coeff-Com:  0.564D+00
 Coeff-En:   0.000D+00 0.000D+00 0.000D+00 0.000D+00 0.000D+00 0.000D+00
 Coeff-En:   0.100D+01
 Coeff:      0.182D-01-0.241D-01 0.231D-01 0.232D-01 0.101D+00 0.294D+00
 Coeff:      0.565D+00
 Gap=     0.225 Goal=   None    Shift=    0.000
 RMSDP=1.33D-05 MaxDP=4.29D-04 DE=-5.03D-05 OVMax= 8.60D-04

 Cycle   8  Pass 0  IDiag  1:
 RMSU=  6.86D-06    CP:  9.71D-01  1.92D+00  1.01D+00  4.41D-01  5.88D-01
                    CP:  6.15D-01  5.81D-01
 E= -3031.26475613293     Delta-E=       -0.000004174506 Rises=F Damp=F
 DIIS: error= 5.72D-05 at cycle   8 NSaved=   8.
 NSaved= 8 IEnMin= 8 EnMin= -3031.26475613293     IErMin= 8 ErrMin= 5.72D-05
 ErrMax= 5.72D-05  0.00D+00 EMaxC= 1.00D-01 BMatC= 5.46D-07 BMatP= 4.99D-06
 IDIUse=1 WtCom= 1.00D+00 WtEn= 0.00D+00
 Coeff-Com:  0.484D-02-0.648D-02 0.516D-02 0.490D-02 0.300D-01 0.110D+00
 Coeff-Com:  0.312D+00 0.540D+00
 Coeff:      0.484D-02-0.648D-02 0.516D-02 0.490D-02 0.300D-01 0.110D+00
 Coeff:      0.312D+00 0.540D+00
 Gap=     0.225 Goal=   None    Shift=    0.000
 RMSDP=4.44D-06 MaxDP=1.31D-04 DE=-4.17D-06 OVMax= 3.24D-04

 Initial convergence to 1.0D-05 achieved.  Increase integral accuracy.
 Cycle   9  Pass 1  IDiag  1:
 E= -3031.26473047647     Delta-E=        0.000025656456 Rises=F Damp=F
 DIIS: error= 3.88D-05 at cycle   1 NSaved=   1.
 NSaved= 1 IEnMin= 1 EnMin= -3031.26473047647     IErMin= 1 ErrMin= 3.88D-05
 ErrMax= 3.88D-05  0.00D+00 EMaxC= 1.00D-01 BMatC= 2.32D-07 BMatP= 2.32D-07
 IDIUse=1 WtCom= 1.00D+00 WtEn= 0.00D+00
 Coeff-Com:  0.100D+01
 Coeff:      0.100D+01
 Gap=     0.225 Goal=   None    Shift=    0.000
 RMSDP=4.44D-06 MaxDP=1.31D-04 DE= 2.57D-05 OVMax= 2.75D-04

 Cycle  10  Pass 1  IDiag  1:
 RMSU=  1.38D-05    CP:  1.00D+00
 E= -3031.26473041602     Delta-E=        0.000000060450 Rises=F Damp=F
 DIIS: error= 3.94D-05 at cycle   2 NSaved=   2.
 NSaved= 2 IEnMin= 1 EnMin= -3031.26473047647     IErMin= 1 ErrMin= 3.88D-05
 ErrMax= 3.94D-05  0.00D+00 EMaxC= 1.00D-01 BMatC= 2.01D-07 BMatP= 2.32D-07
 IDIUse=1 WtCom= 1.00D+00 WtEn= 0.00D+00
 Coeff-Com:  0.476D+00 0.524D+00
 Coeff:      0.476D+00 0.524D+00
 Gap=     0.225 Goal=   None    Shift=    0.000
 RMSDP=3.55D-06 MaxDP=1.06D-04 DE= 6.04D-08 OVMax= 2.74D-04

 Cycle  11  Pass 1  IDiag  1:
 RMSU=  3.46D-06    CP:  1.00D+00  9.42D-01
 E= -3031.26473057520     Delta-E=       -0.000000159182 Rises=F Damp=F
 DIIS: error= 2.19D-05 at cycle   3 NSaved=   3.
 NSaved= 3 IEnMin= 3 EnMin= -3031.26473057520     IErMin= 3 ErrMin= 2.19D-05
 ErrMax= 2.19D-05  0.00D+00 EMaxC= 1.00D-01 BMatC= 6.20D-08 BMatP= 2.01D-07
 IDIUse=1 WtCom= 1.00D+00 WtEn= 0.00D+00
 Coeff-Com:  0.293D-01 0.354D+00 0.617D+00
 Coeff:      0.293D-01 0.354D+00 0.617D+00
 Gap=     0.225 Goal=   None    Shift=    0.000
 RMSDP=1.35D-06 MaxDP=4.42D-05 DE=-1.59D-07 OVMax= 1.02D-04

 Cycle  12  Pass 1  IDiag  1:
 RMSU=  5.26D-07    CP:  1.00D+00  9.72D-01  6.60D-01
 E= -3031.26473064140     Delta-E=       -0.000000066195 Rises=F Damp=F
 DIIS: error= 3.33D-06 at cycle   4 NSaved=   4.
 NSaved= 4 IEnMin= 4 EnMin= -3031.26473064140     IErMin= 4 ErrMin= 3.33D-06
 ErrMax= 3.33D-06  0.00D+00 EMaxC= 1.00D-01 BMatC= 4.96D-09 BMatP= 6.20D-08
 IDIUse=1 WtCom= 1.00D+00 WtEn= 0.00D+00
 Coeff-Com: -0.672D-03 0.204D+00 0.388D+00 0.409D+00
 Coeff:     -0.672D-03 0.204D+00 0.388D+00 0.409D+00
 Gap=     0.225 Goal=   None    Shift=    0.000
 RMSDP=3.18D-07 MaxDP=1.45D-05 DE=-6.62D-08 OVMax= 1.45D-05

 Cycle  13  Pass 1  IDiag  1:
 RMSU=  1.26D-07    CP:  1.00D+00  9.73D-01  6.67D-01  4.49D-01
 E= -3031.26473064540     Delta-E=       -0.000000003997 Rises=F Damp=F
 DIIS: error= 8.65D-07 at cycle   5 NSaved=   5.
 NSaved= 5 IEnMin= 5 EnMin= -3031.26473064540     IErMin= 5 ErrMin= 8.65D-07
 ErrMax= 8.65D-07  0.00D+00 EMaxC= 1.00D-01 BMatC= 2.40D-10 BMatP= 4.96D-09
 IDIUse=1 WtCom= 1.00D+00 WtEn= 0.00D+00
 Coeff-Com: -0.175D-02 0.115D+00 0.220D+00 0.264D+00 0.403D+00
 Coeff:     -0.175D-02 0.115D+00 0.220D+00 0.264D+00 0.403D+00
 Gap=     0.225 Goal=   None    Shift=    0.000
 RMSDP=6.76D-08 MaxDP=2.99D-06 DE=-4.00D-09 OVMax= 4.32D-06

 Cycle  14  Pass 1  IDiag  1:
 RMSU=  4.11D-08    CP:  1.00D+00  9.73D-01  6.67D-01  4.51D-01  5.78D-01
 E= -3031.26473064560     Delta-E=       -0.000000000201 Rises=F Damp=F
 DIIS: error= 2.09D-07 at cycle   6 NSaved=   6.
 NSaved= 6 IEnMin= 6 EnMin= -3031.26473064560     IErMin= 6 ErrMin= 2.09D-07
 ErrMax= 2.09D-07  0.00D+00 EMaxC= 1.00D-01 BMatC= 9.50D-12 BMatP= 2.40D-10
 IDIUse=1 WtCom= 1.00D+00 WtEn= 0.00D+00
 Coeff-Com: -0.957D-03 0.525D-01 0.101D+00 0.126D+00 0.233D+00 0.489D+00
 Coeff:     -0.957D-03 0.525D-01 0.101D+00 0.126D+00 0.233D+00 0.489D+00
 Gap=     0.225 Goal=   None    Shift=    0.000
 RMSDP=1.46D-08 MaxDP=6.16D-07 DE=-2.01D-10 OVMax= 9.75D-07

 Cycle  15  Pass 1  IDiag  1:
 RMSU=  1.23D-08    CP:  1.00D+00  9.73D-01  6.66D-01  4.52D-01  5.90D-01
                    CP:  8.27D-01
 E= -3031.26473064562     Delta-E=       -0.000000000018 Rises=F Damp=F
 DIIS: error= 5.12D-08 at cycle   7 NSaved=   7.
 NSaved= 7 IEnMin= 7 EnMin= -3031.26473064562     IErMin= 7 ErrMin= 5.12D-08
 ErrMax= 5.12D-08  0.00D+00 EMaxC= 1.00D-01 BMatC= 4.94D-13 BMatP= 9.50D-12
 IDIUse=1 WtCom= 1.00D+00 WtEn= 0.00D+00
 Coeff-Com: -0.227D-03 0.105D-01 0.202D-01 0.268D-01 0.591D-01 0.222D+00
 Coeff-Com:  0.662D+00
 Coeff:     -0.227D-03 0.105D-01 0.202D-01 0.268D-01 0.591D-01 0.222D+00
 Coeff:      0.662D+00
 Gap=     0.225 Goal=   None    Shift=    0.000
 RMSDP=4.22D-09 MaxDP=1.50D-07 DE=-1.77D-11 OVMax= 2.28D-07

 SCF Done:  E(RB3LYP) =  -3031.26473065     A.U. after   15 cycles
            NFock= 15  Conv=0.42D-08     -V/T= 2.0065
 KE= 3.011562848980D+03 PE=-8.925196948310D+03 EE= 2.021844080978D+03
 Leave Link  502 at Tue Sep 17 09:43:50 2024, MaxMem=  1342177280 cpu:              84.3 elap:              11.2
 (Enter /groups/ReismanLab/Software/Gaussian16_RevC/Linux_Binary_AVX2-enabled-CPU/g16/l508.exe)
 QCSCF skips out because SCF is already converged.
 Leave Link  508 at Tue Sep 17 09:43:50 2024, MaxMem=  1342177280 cpu:               0.0 elap:               0.0
 (Enter /groups/ReismanLab/Software/Gaussian16_RevC/Linux_Binary_AVX2-enabled-CPU/g16/l601.exe)
 Copying SCF densities to generalized density rwf, IOpCl= 0 IROHF=0.

 **********************************************************************

            Population analysis using the SCF Density.

 **********************************************************************

 Orbital symmetries:
       Occupied  (A) (A) (A) (A) (A) (A) (A) (A) (A) (A) (A) (A)
                 (A) (A) (A) (A) (A) (A) (A) (A) (A) (A) (A) (A)
                 (A) (A) (A) (A) (A) (A) (A) (A) (A) (A) (A) (A)
                 (A) (A) (A) (A) (A) (A) (A) (A) (A) (A) (A) (A)
                 (A) (A) (A) (A) (A)
       Virtual   (A) (A) (A) (A) (A) (A) (A) (A) (A) (A) (A) (A)
                 (A) (A) (A) (A) (A) (A) (A) (A) (A) (A) (A) (A)
                 (A) (A) (A) (A) (A) (A) (A) (A) (A) (A) (A) (A)
                 (A) (A) (A) (A) (A) (A) (A) (A) (A) (A) (A) (A)
                 (A) (A) (A) (A) (A) (A) (A) (A) (A) (A) (A) (A)
                 (A) (A) (A) (A) (A) (A) (A) (A) (A) (A) (A) (A)
                 (A) (A) (A) (A) (A) (A) (A) (A) (A) (A) (A) (A)
                 (A) (A) (A) (A) (A) (A) (A) (A) (A) (A) (A) (A)
                 (A) (A) (A) (A) (A) (A) (A) (A) (A) (A) (A) (A)
                 (A) (A) (A) (A) (A) (A) (A) (A) (A) (A) (A) (A)
                 (A) (A) (A) (A) (A) (A) (A) (A) (A) (A) (A) (A)
                 (A) (A) (A) (A) (A) (A) (A) (A) (A) (A) (A) (A)
                 (A) (A) (A) (A) (A) (A) (A) (A) (A) (A) (A) (A)
                 (A) (A) (A) (A) (A) (A)
 The electronic state is 1-A.
 Alpha  occ. eigenvalues -- -482.91369 -61.87519 -56.39643 -56.39227 -56.39213
 Alpha  occ. eigenvalues --  -19.19907 -19.14024 -10.32169 -10.25334 -10.24083
 Alpha  occ. eigenvalues --  -10.21817 -10.20872 -10.20743 -10.20545 -10.20304
 Alpha  occ. eigenvalues --   -8.58628  -6.54027  -6.52741  -6.52708  -2.65598
 Alpha  occ. eigenvalues --   -2.65231  -2.65207  -2.64180  -2.64179  -1.11499
 Alpha  occ. eigenvalues --   -1.02556  -0.88846  -0.80963  -0.78621  -0.74025
 Alpha  occ. eigenvalues --   -0.72510  -0.64043  -0.61607  -0.57418  -0.54126
 Alpha  occ. eigenvalues --   -0.49797  -0.49533  -0.47579  -0.46907  -0.45657
 Alpha  occ. eigenvalues --   -0.43010  -0.42333  -0.40049  -0.39447  -0.37769
 Alpha  occ. eigenvalues --   -0.36051  -0.35226  -0.31922  -0.30393  -0.28956
 Alpha  occ. eigenvalues --   -0.28552  -0.26368  -0.24675
 Alpha virt. eigenvalues --   -0.02191  -0.01757   0.00474   0.01467   0.10012
 Alpha virt. eigenvalues --    0.11536   0.12671   0.13850   0.15284   0.16002
 Alpha virt. eigenvalues --    0.16907   0.17135   0.17669   0.23077   0.24411
 Alpha virt. eigenvalues --    0.28209   0.29368   0.30756   0.32888   0.34984
 Alpha virt. eigenvalues --    0.36071   0.41421   0.43609   0.45426   0.46062
 Alpha virt. eigenvalues --    0.46524   0.48333   0.49765   0.50799   0.52028
 Alpha virt. eigenvalues --    0.52818   0.53479   0.55399   0.55819   0.57096
 Alpha virt. eigenvalues --    0.57901   0.59466   0.59770   0.60621   0.62347
 Alpha virt. eigenvalues --    0.62804   0.65926   0.67769   0.68243   0.72143
 Alpha virt. eigenvalues --    0.74000   0.78110   0.78754   0.80046   0.81030
 Alpha virt. eigenvalues --    0.81579   0.82589   0.83356   0.84268   0.84982
 Alpha virt. eigenvalues --    0.86703   0.89251   0.91510   0.94191   0.95930
 Alpha virt. eigenvalues --    0.96240   0.98138   1.01396   1.02253   1.07897
 Alpha virt. eigenvalues --    1.09251   1.10915   1.12321   1.15079   1.18554
 Alpha virt. eigenvalues --    1.22705   1.23296   1.27568   1.31267   1.33579
 Alpha virt. eigenvalues --    1.38981   1.39996   1.41080   1.41775   1.46753
 Alpha virt. eigenvalues --    1.50242   1.52008   1.55412   1.59094   1.61441
 Alpha virt. eigenvalues --    1.64731   1.71358   1.75359   1.76799   1.79369
 Alpha virt. eigenvalues --    1.82412   1.85839   1.86228   1.87809   1.90388
 Alpha virt. eigenvalues --    1.91567   1.92495   1.94135   1.97048   1.97970
 Alpha virt. eigenvalues --    1.98479   1.99678   2.01691   2.01846   2.04204
 Alpha virt. eigenvalues --    2.05545   2.06421   2.10273   2.11342   2.13920
 Alpha virt. eigenvalues --    2.27036   2.28529   2.29790   2.34640   2.37112
 Alpha virt. eigenvalues --    2.39680   2.41250   2.42749   2.45431   2.48075
 Alpha virt. eigenvalues --    2.50057   2.50632   2.51298   2.53532   2.56145
 Alpha virt. eigenvalues --    2.56680   2.62104   2.62357   2.66650   2.69151
 Alpha virt. eigenvalues --    2.72038   2.75106   2.79048   2.82141   2.87574
 Alpha virt. eigenvalues --    2.89104   2.95062   2.97632   3.01860   3.04629
 Alpha virt. eigenvalues --    3.17094   3.20541   3.20724   3.23941   3.32278
 Alpha virt. eigenvalues --    3.33116   3.40897   3.42561   3.47192   3.84570
 Alpha virt. eigenvalues --    3.99414   4.10383   4.13200   4.14248   4.24010
 Alpha virt. eigenvalues --    4.30169   4.39530   4.45069   4.52447   4.81597
 Alpha virt. eigenvalues --    8.62230  73.12978
          Condensed to atoms (all electrons):
               1          2          3          4          5          6
     1  C    4.764150   0.211777  -0.021333  -0.011800   0.006809  -0.000127
     2  O    0.211777   8.241257   0.250047  -0.077909  -0.099224   0.003010
     3  C   -0.021333   0.250047   4.508396   0.551738   0.305139  -0.043959
     4  O   -0.011800  -0.077909   0.551738   8.028735  -0.066140  -0.001090
     5  C    0.006809  -0.099224   0.305139  -0.066140   4.940994   0.514135
     6  C   -0.000127   0.003010  -0.043959  -0.001090   0.514135   4.846195
     7  C    0.000007   0.000074   0.005714  -0.000051  -0.027002   0.523800
     8  C    0.000000   0.000003  -0.000034   0.000001  -0.038320  -0.031639
     9  C    0.000007  -0.000073   0.007004  -0.000023  -0.030540  -0.056336
    10  C   -0.000063  -0.000950  -0.042282  -0.002797   0.523485  -0.015674
    11  Br  -0.000109  -0.000305   0.000797  -0.001639  -0.075045   0.006606
    12  H    0.391251  -0.033788  -0.000067   0.000578  -0.000314   0.000009
    13  H    0.389232  -0.033753   0.002710   0.000464  -0.000147  -0.000027
    14  H    0.374811  -0.031940  -0.008941   0.023787   0.000950  -0.000008
    15  H   -0.000098   0.001420  -0.006815   0.000306  -0.044250   0.372086
    16  H   -0.000000   0.000000  -0.000163   0.000001   0.004195  -0.036865
    17  H    0.000000  -0.000000   0.000007  -0.000000   0.000894   0.004603
    18  H   -0.000000   0.000001  -0.000139   0.000001   0.005161   0.000664
               7          8          9         10         11         12
     1  C    0.000007   0.000000   0.000007  -0.000063  -0.000109   0.391251
     2  O    0.000074   0.000003  -0.000073  -0.000950  -0.000305  -0.033788
     3  C    0.005714  -0.000034   0.007004  -0.042282   0.000797  -0.000067
     4  O   -0.000051   0.000001  -0.000023  -0.002797  -0.001639   0.000578
     5  C   -0.027002  -0.038320  -0.030540   0.523485  -0.075045  -0.000314
     6  C    0.523800  -0.031639  -0.056336  -0.015674   0.006606   0.000009
     7  C    4.818885   0.544414  -0.026870  -0.047435  -0.000000   0.000000
     8  C    0.544414   4.810175   0.518241  -0.029789   0.005754  -0.000000
     9  C   -0.026870   0.518241   4.911448   0.504576  -0.069557  -0.000000
    10  C   -0.047435  -0.029789   0.504576   4.819163   0.278324   0.000021
    11  Br  -0.000000   0.005754  -0.069557   0.278324  34.969498   0.000238
    12  H    0.000000  -0.000000  -0.000000   0.000021   0.000238   0.579743
    13  H   -0.000001   0.000000  -0.000000  -0.000002   0.000003  -0.037058
    14  H    0.000001   0.000000   0.000000  -0.000029   0.000008  -0.031517
    15  H   -0.039527   0.004636   0.000582   0.005049  -0.000130   0.000003
    16  H    0.368249  -0.040313   0.004389   0.001232   0.000010  -0.000000
    17  H   -0.039628   0.370618  -0.038684   0.004349  -0.000163   0.000000
    18  H    0.004534  -0.039335   0.369601  -0.039576  -0.002842   0.000000
              13         14         15         16         17         18
     1  C    0.389232   0.374811  -0.000098  -0.000000   0.000000  -0.000000
     2  O   -0.033753  -0.031940   0.001420   0.000000  -0.000000   0.000001
     3  C    0.002710  -0.008941  -0.006815  -0.000163   0.000007  -0.000139
     4  O    0.000464   0.023787   0.000306   0.000001  -0.000000   0.000001
     5  C   -0.000147   0.000950  -0.044250   0.004195   0.000894   0.005161
     6  C   -0.000027  -0.000008   0.372086  -0.036865   0.004603   0.000664
     7  C   -0.000001   0.000001  -0.039527   0.368249  -0.039628   0.004534
     8  C    0.000000   0.000000   0.004636  -0.040313   0.370618  -0.039335
     9  C   -0.000000   0.000000   0.000582   0.004389  -0.038684   0.369601
    10  C   -0.000002  -0.000029   0.005049   0.001232   0.004349  -0.039576
    11  Br   0.000003   0.000008  -0.000130   0.000010  -0.000163  -0.002842
    12  H   -0.037058  -0.031517   0.000003  -0.000000   0.000000   0.000000
    13  H    0.582558  -0.028669  -0.000002   0.000000  -0.000000  -0.000000
    14  H   -0.028669   0.552542  -0.000012  -0.000000   0.000000  -0.000000
    15  H   -0.000002  -0.000012   0.609365  -0.005793  -0.000204   0.000018
    16  H    0.000000  -0.000000  -0.005793   0.615102  -0.006062  -0.000186
    17  H   -0.000000   0.000000  -0.000204  -0.006062   0.612112  -0.006343
    18  H   -0.000000  -0.000000   0.000018  -0.000186  -0.006343   0.596435
 Mulliken charges:
               1
     1  C   -0.104514
     2  O   -0.429646
     3  C    0.492184
     4  O   -0.444162
     5  C    0.079220
     6  C   -0.085382
     7  C   -0.085164
     8  C   -0.074412
     9  C   -0.093765
    10  C    0.042399
    11  Br  -0.111448
    12  H    0.130900
    13  H    0.124694
    14  H    0.149016
    15  H    0.103367
    16  H    0.096206
    17  H    0.098500
    18  H    0.112006
 Sum of Mulliken charges =  -0.00000
 Mulliken charges with hydrogens summed into heavy atoms:
               1
     1  C    0.300097
     2  O   -0.429646
     3  C    0.492184
     4  O   -0.444162
     5  C    0.079220
     6  C    0.017985
     7  C    0.011042
     8  C    0.024088
     9  C    0.018241
    10  C    0.042399
    11  Br  -0.111448
 Electronic spatial extent (au):  <R**2>=           2335.5324
 Charge=             -0.0000 electrons
 Dipole moment (field-independent basis, Debye):
    X=             -0.5894    Y=             -1.8186    Z=             -1.7036  Tot=              2.5607
 Quadrupole moment (field-independent basis, Debye-Ang):
   XX=            -61.1433   YY=            -68.6532   ZZ=            -81.1519
   XY=              0.3870   XZ=             -3.7399   YZ=             -0.3699
 Traceless Quadrupole moment (field-independent basis, Debye-Ang):
   XX=              9.1728   YY=              1.6629   ZZ=            -10.8357
   XY=              0.3870   XZ=             -3.7399   YZ=             -0.3699
 Octapole moment (field-independent basis, Debye-Ang**2):
  XXX=             21.8100  YYY=             42.0373  ZZZ=             -4.7536  XYY=              2.8126
  XXY=              5.8869  XXZ=            -16.7240  XZZ=              2.7650  YZZ=             23.0075
  YYZ=              1.6086  XYZ=              0.9140
 Hexadecapole moment (field-independent basis, Debye-Ang**3):
 XXXX=          -1383.2258 YYYY=           -957.7832 ZZZZ=           -208.2169 XXXY=            -36.0345
 XXXZ=            -24.2123 YYYX=              0.5604 YYYZ=             -5.1107 ZZZX=            -10.8323
 ZZZY=              0.8686 XXYY=           -405.6934 XXZZ=           -317.6000 YYZZ=           -215.7048
 XXYZ=              8.2905 YYXZ=              0.0898 ZZXY=            -11.6307
 N-N= 8.605252877061D+02 E-N=-8.925196953176D+03  KE= 3.011562848980D+03
 No NMR shielding tensors so no spin-rotation constants.
 Leave Link  601 at Tue Sep 17 09:43:50 2024, MaxMem=  1342177280 cpu:               0.4 elap:               0.1
 (Enter /groups/ReismanLab/Software/Gaussian16_RevC/Linux_Binary_AVX2-enabled-CPU/g16/l701.exe)
 ... and contract with generalized density number  0.
 Compute integral first derivatives.
 R6Disp: Adding Grimme-D3(BJ) dispersion energy 1st derivatives to the gradient.
 Leave Link  701 at Tue Sep 17 09:43:51 2024, MaxMem=  1342177280 cpu:               0.5 elap:               0.1
 (Enter /groups/ReismanLab/Software/Gaussian16_RevC/Linux_Binary_AVX2-enabled-CPU/g16/l702.exe)
 L702 exits ... SP integral derivatives will be done elsewhere.
 Leave Link  702 at Tue Sep 17 09:43:51 2024, MaxMem=  1342177280 cpu:               0.0 elap:               0.0
 (Enter /groups/ReismanLab/Software/Gaussian16_RevC/Linux_Binary_AVX2-enabled-CPU/g16/l703.exe)
 Integral derivatives from FoFJK, PRISM(SPDF).
 Compute integral first derivatives, UseDBF=F ICtDFT=           0.
 Calling FoFJK, ICntrl=      2127 FMM=F ISym2X=0 I1Cent= 0 IOpClX= 0 NMat=1 NMatS=1 NMatT=0.
 FoFJK:  IHMeth= 1 ICntrl=    2127 DoSepK=F KAlg= 0 I1Cent=           0 FoldK=F
 IRaf=         0 NMat=       1 IRICut=       1 DoRegI=T DoRafI=F ISym2E= 0 IDoP0=0 IntGTp=1.
 FoFCou: FMM=F IPFlag=           0 FMFlag=      100000 FMFlg1=         800
         NFxFlg=           0 DoJE=F BraDBF=F KetDBF=F FulRan=T
         wScrn=  0.000000 ICntrl=      2127 IOpCl=  0 I1Cent=           0 NGrid=           0
         NMat0=    1 NMatS0=      1 NMatT0=    0 NMatD0=    1 NMtDS0=    0 NMtDT0=    0
 Symmetry not used in FoFCou.
 Leave Link  703 at Tue Sep 17 09:43:54 2024, MaxMem=  1342177280 cpu:              24.0 elap:               3.1
 (Enter /groups/ReismanLab/Software/Gaussian16_RevC/Linux_Binary_AVX2-enabled-CPU/g16/l716.exe)
 Dipole        =-2.31899527D-01-7.15474424D-01-6.70260475D-01
 ***** Axes restored to original set *****
 -------------------------------------------------------------------
 Center     Atomic                   Forces (Hartrees/Bohr)
 Number     Number              X              Y              Z
 -------------------------------------------------------------------
      1        6           0.007505028    0.003431360   -0.004472865
      2        8          -0.003435378   -0.000214791    0.013591928
      3        6          -0.010154872   -0.002987118    0.002669846
      4        8           0.006303448    0.001931354   -0.014811580
      5        6           0.007296362    0.000470215   -0.002114894
      6        6           0.001256479    0.003444992    0.000720226
      7        6          -0.004392796    0.004730242    0.001052897
      8        6          -0.005135009   -0.001183774    0.000853238
      9        6           0.000607497   -0.006387256   -0.001238905
     10        6           0.002923729   -0.002608879   -0.000544018
     11       35           0.002017926   -0.002701323   -0.000763466
     12        1           0.000902116   -0.001030088    0.000690468
     13        1           0.000242799    0.000817887    0.001594499
     14        1           0.000950040    0.000245392    0.000899656
     15        1           0.000797819    0.003956859    0.000760092
     16        1          -0.003190500    0.002844173    0.000867218
     17        1          -0.004062565   -0.001467734    0.000535197
     18        1          -0.000432123   -0.003291512   -0.000289539
 -------------------------------------------------------------------
 Cartesian Forces:  Max     0.014811580 RMS     0.004202131
 Leave Link  716 at Tue Sep 17 09:43:54 2024, MaxMem=  1342177280 cpu:               0.0 elap:               0.0
 (Enter /groups/ReismanLab/Software/Gaussian16_RevC/Linux_Binary_AVX2-enabled-CPU/g16/l103.exe)

 GradGradGradGradGradGradGradGradGradGradGradGradGradGradGradGradGradGrad
 Berny optimization.
 FormGI is forming the generalized inverse of G from B-inverse, IUseBI=4.
 Internal  Forces:  Max     0.016202648 RMS     0.003888123
 Search for a local minimum.
 Step number   1 out of a maximum of   89
 All quantities printed in internal units (Hartrees-Bohrs-Radians)
 RMS Force = .38881D-02 SwitMx=.10000D-02 MixMth= 1
 Mixed Optimization -- RFO/linear search
 Second derivative matrix not updated -- first step.
 ITU=  0
     Eigenvalues ---    0.00767   0.01383   0.01384   0.01785   0.02247
     Eigenvalues ---    0.02265   0.02271   0.02283   0.02289   0.02294
     Eigenvalues ---    0.02295   0.02299   0.02578   0.10396   0.10608
     Eigenvalues ---    0.16000   0.16000   0.16000   0.16000   0.16000
     Eigenvalues ---    0.16000   0.16000   0.18195   0.22000   0.22491
     Eigenvalues ---    0.24485   0.24986   0.24996   0.24998   0.25000
     Eigenvalues ---    0.25000   0.32386   0.34653   0.34736   0.34943
     Eigenvalues ---    0.36063   0.36086   0.36113   0.36113   0.41964
     Eigenvalues ---    0.43511   0.43583   0.47711   0.47931   0.48288
     Eigenvalues ---    0.48330   0.58803   1.04387
 RFO step:  Lambda=-2.38079063D-03 EMin= 7.66981769D-03
 Linear search not attempted -- first point.
 Iteration  1 RMS(Cart)=  0.03209839 RMS(Int)=  0.00017456
 Iteration  2 RMS(Cart)=  0.00034950 RMS(Int)=  0.00001130
 Iteration  3 RMS(Cart)=  0.00000009 RMS(Int)=  0.00001130
 ITry= 1 IFail=0 DXMaxC= 1.00D-01 DCOld= 1.00D+10 DXMaxT= 3.00D-01 DXLimC= 3.00D+00 Rises=F
 Variable       Old X    -DE/DX   Delta X   Delta X   Delta X     New X
                                 (Linear)    (Quad)   (Total)
    R1        2.68969   0.01023   0.00000   0.02424   0.02424   2.71393
    R2        2.06105   0.00151   0.00000   0.00432   0.00432   2.06537
    R3        2.05768   0.00166   0.00000   0.00472   0.00472   2.06240
    R4        2.06242  -0.00053   0.00000  -0.00153  -0.00153   2.06089
    R5        2.51900   0.01412   0.00000   0.02391   0.02391   2.54291
    R6        2.26931   0.01620   0.00000   0.01549   0.01549   2.28480
    R7        2.83444   0.00286   0.00000   0.00876   0.00876   2.84320
    R8        2.62384   0.00933   0.00000   0.01938   0.01937   2.64321
    R9        2.62402   0.00875   0.00000   0.01812   0.01812   2.64214
   R10        2.61574   0.00914   0.00000   0.01885   0.01885   2.63459
   R11        2.03983   0.00409   0.00000   0.01127   0.01127   2.05110
   R12        2.61789   0.00942   0.00000   0.01965   0.01965   2.63754
   R13        2.03905   0.00436   0.00000   0.01199   0.01199   2.05105
   R14        2.61480   0.01046   0.00000   0.02160   0.02161   2.63641
   R15        2.03948   0.00435   0.00000   0.01198   0.01198   2.05146
   R16        2.61667   0.00820   0.00000   0.01685   0.01685   2.63352
   R17        2.03906   0.00333   0.00000   0.00915   0.00915   2.04821
   R18        3.59266   0.00339   0.00000   0.01838   0.01838   3.61105
    A1        1.89786  -0.00045   0.00000  -0.00345  -0.00347   1.89438
    A2        1.87711  -0.00050   0.00000  -0.00370  -0.00373   1.87339
    A3        1.91931   0.00221   0.00000   0.01493   0.01491   1.93423
    A4        1.92048  -0.00065   0.00000  -0.00681  -0.00684   1.91364
    A5        1.91679  -0.00037   0.00000  -0.00107  -0.00108   1.91570
    A6        1.93163  -0.00022   0.00000   0.00007   0.00005   1.93168
    A7        2.05336   0.00012   0.00000   0.00046   0.00046   2.05382
    A8        2.18909   0.00033   0.00000   0.00127   0.00125   2.19033
    A9        1.92581   0.00044   0.00000   0.00168   0.00166   1.92747
   A10        2.16817  -0.00078   0.00000  -0.00312  -0.00314   2.16503
   A11        2.10143  -0.00166   0.00000  -0.00623  -0.00623   2.09520
   A12        2.10443   0.00231   0.00000   0.00951   0.00951   2.11394
   A13        2.07689  -0.00065   0.00000  -0.00319  -0.00320   2.07369
   A14        2.09890   0.00127   0.00000   0.00547   0.00546   2.10437
   A15        2.08077  -0.00050   0.00000  -0.00191  -0.00190   2.07887
   A16        2.10350  -0.00077   0.00000  -0.00356  -0.00356   2.09994
   A17        2.09599  -0.00102   0.00000  -0.00415  -0.00416   2.09183
   A18        2.09076   0.00049   0.00000   0.00197   0.00197   2.09273
   A19        2.09644   0.00053   0.00000   0.00219   0.00219   2.09862
   A20        2.09941  -0.00018   0.00000  -0.00022  -0.00022   2.09919
   A21        2.09853   0.00011   0.00000   0.00022   0.00022   2.09875
   A22        2.08524   0.00007   0.00000  -0.00000  -0.00000   2.08524
   A23        2.08146   0.00033   0.00000   0.00157   0.00157   2.08303
   A24        2.11014   0.00004   0.00000   0.00051   0.00051   2.11064
   A25        2.09159  -0.00037   0.00000  -0.00208  -0.00208   2.08951
   A26        2.11371   0.00024   0.00000   0.00050   0.00048   2.11419
   A27        2.08717   0.00110   0.00000   0.00463   0.00463   2.09180
   A28        2.08213  -0.00134   0.00000  -0.00502  -0.00502   2.07711
    D1       -1.87225  -0.00027   0.00000   0.01707   0.01708  -1.85517
    D2        2.33179   0.00105   0.00000   0.02918   0.02917   2.36096
    D3        0.22710   0.00034   0.00000   0.02266   0.02266   0.24976
    D4       -0.02983   0.00008   0.00000   0.00064   0.00063  -0.02921
    D5        3.12745   0.00028   0.00000   0.01245   0.01246   3.13992
    D6        1.38402  -0.00043   0.00000  -0.03867  -0.03867   1.34535
    D7       -1.78948  -0.00038   0.00000  -0.03566  -0.03566  -1.82513
    D8       -1.74211  -0.00025   0.00000  -0.02708  -0.02708  -1.76919
    D9        1.36758  -0.00020   0.00000  -0.02407  -0.02407   1.34351
   D10        3.10428  -0.00011   0.00000  -0.00560  -0.00563   3.09865
   D11       -0.03196  -0.00011   0.00000  -0.00542  -0.00544  -0.03739
   D12       -0.00591  -0.00022   0.00000  -0.00880  -0.00880  -0.01472
   D13        3.14104  -0.00022   0.00000  -0.00862  -0.00861   3.13243
   D14       -3.10682   0.00011   0.00000   0.00334   0.00332  -3.10350
   D15        0.05488  -0.00003   0.00000  -0.00279  -0.00282   0.05206
   D16        0.00332   0.00015   0.00000   0.00625   0.00624   0.00955
   D17       -3.11818   0.00000   0.00000   0.00012   0.00010  -3.11808
   D18        0.00234   0.00018   0.00000   0.00714   0.00714   0.00948
   D19       -3.13958   0.00009   0.00000   0.00367   0.00368  -3.13590
   D20        3.13850   0.00019   0.00000   0.00696   0.00696  -3.13773
   D21       -0.00341   0.00009   0.00000   0.00349   0.00349   0.00007
   D22        0.00396  -0.00008   0.00000  -0.00278  -0.00277   0.00119
   D23       -3.14087  -0.00008   0.00000  -0.00304  -0.00303   3.13928
   D24       -3.13731   0.00002   0.00000   0.00070   0.00071  -3.13660
   D25        0.00104   0.00001   0.00000   0.00045   0.00045   0.00149
   D26       -0.00652   0.00001   0.00000   0.00020   0.00020  -0.00632
   D27        3.13445  -0.00001   0.00000  -0.00071  -0.00073   3.13372
   D28        3.13829   0.00001   0.00000   0.00046   0.00047   3.13876
   D29       -0.00393  -0.00001   0.00000  -0.00046  -0.00046  -0.00439
   D30        0.00287  -0.00004   0.00000  -0.00199  -0.00200   0.00087
   D31        3.12442   0.00013   0.00000   0.00423   0.00420   3.12862
   D32       -3.13810  -0.00003   0.00000  -0.00109  -0.00108  -3.13919
   D33       -0.01655   0.00014   0.00000   0.00513   0.00512  -0.01144
         Item               Value     Threshold  Converged?
 Maximum Force            0.016203     0.000450     NO 
 RMS     Force            0.003888     0.000300     NO 
 Maximum Displacement     0.100002     0.001800     NO 
 RMS     Displacement     0.032131     0.001200     NO 
 Predicted change in Energy=-1.204031D-03
 Lowest energy point so far.  Saving SCF results.
 GradGradGradGradGradGradGradGradGradGradGradGradGradGradGradGradGradGrad

 Leave Link  103 at Tue Sep 17 09:43:54 2024, MaxMem=  1342177280 cpu:               0.1 elap:               0.0
 (Enter /groups/ReismanLab/Software/Gaussian16_RevC/Linux_Binary_AVX2-enabled-CPU/g16/l202.exe)
                          Input orientation:                          
 ---------------------------------------------------------------------
 Center     Atomic      Atomic             Coordinates (Angstroms)
 Number     Number       Type             X           Y           Z
 ---------------------------------------------------------------------
      1          6           0        2.826425    2.135494    1.020682
      2          8           0        1.475261    1.649859    1.052872
      3          6           0        0.880330    1.378863   -0.123305
      4          8           0        1.377355    1.536270   -1.214189
      5          6           0       -0.522012    0.881421    0.099605
      6          6           0       -1.542596    1.783185    0.418459
      7          6           0       -2.855319    1.341265    0.577093
      8          6           0       -3.155018   -0.013747    0.428194
      9          6           0       -2.146246   -0.927774    0.122722
     10          6           0       -0.838887   -0.473229   -0.039526
     11         35           0        0.538844   -1.736419   -0.436622
     12          1           0        3.492088    1.332870    1.348128
     13          1           0        2.888281    2.971492    1.719522
     14          1           0        3.100061    2.453918    0.014161
     15          1           0       -1.300468    2.834672    0.536083
     16          1           0       -3.639738    2.051223    0.819311
     17          1           0       -4.174597   -0.365206    0.552414
     18          1           0       -2.365784   -1.983366    0.011865
 ---------------------------------------------------------------------
                    Distance matrix (angstroms):
                    1          2          3          4          5
     1  C    0.000000
     2  O    1.436148   0.000000
     3  C    2.380858   1.345651   0.000000
     4  O    2.730114   2.272015   1.209065   0.000000
     5  C    3.692304   2.342715   1.504559   2.400515   0.000000
     6  C    4.424380   3.086700   2.515463   3.354492   1.398727
     7  C    5.754110   4.367553   3.800927   4.600244   2.425650
     8  C    6.383411   4.959565   4.304363   5.063829   2.800360
     9  C    5.909094   4.541441   3.813300   4.502733   2.431431
    10  C    4.622120   3.325075   2.528433   3.213977   1.398158
    11  Br   4.727417   3.816065   3.149565   3.466728   2.875073
    12  H    1.092946   2.062825   2.998085   3.328503   4.227956
    13  H    1.091374   2.046401   3.156635   3.598530   4.315393
    14  H    1.090575   2.089355   2.470192   2.306217   3.949614
    15  H    4.213660   3.061948   2.703711   3.452540   2.147486
    16  H    6.469847   5.136036   4.666006   5.437970   3.406851
    17  H    7.448965   6.019289   5.389866   6.128675   3.885936
    18  H    6.703861   5.388659   4.675479   5.282247   3.407961
                    6          7          8          9         10
     6  C    0.000000
     7  C    1.394167   0.000000
     8  C    2.414324   1.395724   0.000000
     9  C    2.793054   2.420284   1.395127   0.000000
    10  C    2.407564   2.781835   2.407145   1.393600   0.000000
    11  Br   4.177460   4.692559   4.166548   2.859455   1.910884
    12  H    5.139563   6.394071   6.844243   6.197010   4.893355
    13  H    4.768386   6.078793   6.862990   6.565097   5.371418
    14  H    4.708248   6.084524   6.736972   6.242704   4.907788
    15  H    1.085397   2.156272   3.400659   3.878428   3.389188
    16  H    2.151867   1.085367   2.156855   3.404435   3.867199
    17  H    3.400141   2.157115   1.085586   2.148331   3.389546
    18  H    3.876837   3.407682   2.162318   1.083864   2.148154
                   11         12         13         14         15
    11  Br   0.000000
    12  H    4.618173   0.000000
    13  H    5.686232   1.785384   0.000000
    14  H    4.931730   1.786029   1.794711   0.000000
    15  H    5.022360   5.087574   4.354867   4.447699   0.000000
    16  H    5.777902   7.187393   6.653744   6.799656   2.483183
    17  H    5.007489   7.892697   7.898097   7.820346   4.301175
    18  H    2.949404   6.862775   7.421044   7.040238   4.962176
                   16         17         18
    16  H    0.000000
    17  H    2.489264   0.000000
    18  H    4.307300   2.486451   0.000000
 Stoichiometry    C8H7BrO2
 Framework group  C1[X(C8H7BrO2)]
 Deg. of freedom    48
 Full point group                 C1      NOp   1
 RotChk:  IX=0 Diff= 6.98D-02
 Largest Abelian subgroup         C1      NOp   1
 Largest concise Abelian subgroup C1      NOp   1
                         Standard orientation:                         
 ---------------------------------------------------------------------
 Center     Atomic      Atomic             Coordinates (Angstroms)
 Number     Number       Type             X           Y           Z
 ---------------------------------------------------------------------
      1          6           0        3.515073   -0.749157   -0.654344
      2          8           0        2.091481   -0.930384   -0.709679
      3          6           0        1.383226   -0.659099    0.401877
      4          8           0        1.846575   -0.300563    1.459514
      5          6           0       -0.082432   -0.900913    0.162988
      6          6           0       -0.584004   -2.206563    0.151056
      7          6           0       -1.947889   -2.440708   -0.018345
      8          6           0       -2.821439   -1.365614   -0.189022
      9          6           0       -2.335232   -0.057956   -0.192220
     10          6           0       -0.970756    0.163867   -0.015816
     11         35           0       -0.312325    1.957521   -0.043287
     12          1           0        3.772858    0.151658   -1.217025
     13          1           0        3.972418   -1.620239   -1.126730
     14          1           0        3.853277   -0.648739    0.377590
     15          1           0        0.102536   -3.037171    0.280813
     16          1           0       -2.326089   -3.458048   -0.020580
     17          1           0       -3.884336   -1.540635   -0.323610
     18          1           0       -3.003022    0.784374   -0.331140
 ---------------------------------------------------------------------
 Rotational constants (GHZ):           0.8875699           0.7715974           0.4526623
 Leave Link  202 at Tue Sep 17 09:43:54 2024, MaxMem=  1342177280 cpu:               0.0 elap:               0.0
 (Enter /groups/ReismanLab/Software/Gaussian16_RevC/Linux_Binary_AVX2-enabled-CPU/g16/l301.exe)
 Standard basis: 6-31G(d,p) (6D, 7F)
 Ernie: Thresh=  0.10000D-02 Tol=  0.10000D-05 Strict=F.
 There are   215 symmetry adapted cartesian basis functions of A   symmetry.
 There are   215 symmetry adapted basis functions of A   symmetry.
   215 basis functions,   412 primitive gaussians,   215 cartesian basis functions
    53 alpha electrons       53 beta electrons
       nuclear repulsion energy       853.7466391369 Hartrees.
 IExCor=  402 DFT=T Ex+Corr=B3LYP ExCW=0 ScaHFX=  0.200000
 ScaDFX=  0.800000  0.720000  1.000000  0.810000 ScalE2=  1.000000  1.000000
 IRadAn=      5 IRanWt=     -1 IRanGd=            0 ICorTp=0 IEmpDi=141
 NAtoms=   18 NActive=   18 NUniq=   18 SFac= 1.00D+00 NAtFMM=   60 NAOKFM=F Big=F
 Integral buffers will be    131072 words long.
 Raffenetti 2 integral format.
 Two-electron integral symmetry is turned on.
 R6Disp:  Grimme-D3(BJ) Dispersion energy=       -0.0364200558 Hartrees.
 Nuclear repulsion after empirical dispersion term =      853.7102190811 Hartrees.
 Leave Link  301 at Tue Sep 17 09:43:54 2024, MaxMem=  1342177280 cpu:               0.0 elap:               0.0
 (Enter /groups/ReismanLab/Software/Gaussian16_RevC/Linux_Binary_AVX2-enabled-CPU/g16/l302.exe)
 NPDir=0 NMtPBC=     1 NCelOv=     1 NCel=       1 NClECP=     1 NCelD=      1
         NCelK=      1 NCelE2=     1 NClLst=     1 CellRange=     0.0.
 One-electron integrals computed using PRISM.
 One-electron integral symmetry used in STVInt
 NBasis=   215 RedAO= T EigKep=  4.25D-04  NBF=   215
 NBsUse=   215 1.00D-06 EigRej= -1.00D+00 NBFU=   215
 Precomputing XC quadrature grid using
 IXCGrd= 4 IRadAn=           5 IRanWt=          -1 IRanGd=           0 AccXCQ= 0.00D+00.
 Generated NRdTot=       0 NPtTot=           0 NUsed=           0 NTot=          32
 NSgBfM=   214   214   214   214   214 MxSgAt=    18 MxSgA2=    18.
 Leave Link  302 at Tue Sep 17 09:43:54 2024, MaxMem=  1342177280 cpu:               0.8 elap:               0.1
 (Enter /groups/ReismanLab/Software/Gaussian16_RevC/Linux_Binary_AVX2-enabled-CPU/g16/l303.exe)
 DipDrv:  MaxL=1.
 Leave Link  303 at Tue Sep 17 09:43:54 2024, MaxMem=  1342177280 cpu:               0.1 elap:               0.0
 (Enter /groups/ReismanLab/Software/Gaussian16_RevC/Linux_Binary_AVX2-enabled-CPU/g16/l401.exe)
 Initial guess from the checkpoint file:  "smiles_00098_conf_4.chk"
 B after Tr=    -0.000000   -0.000000   -0.000000
         Rot=    0.999635    0.003787    0.000269   -0.026741 Ang=   3.10 deg.
 Guess basis will be translated and rotated to current coordinates.
 JPrj=2 DoOrth=T DoCkMO=T.
 Generating alternative initial guess.
 ExpMin= 1.43D-01 ExpMax= 5.74D+05 ExpMxC= 5.74D+03 IAcc=3 IRadAn=         5 AccDes= 0.00D+00
 Harris functional with IExCor=  402 and IRadAn=       5 diagonalized for initial guess.
 HarFok:  IExCor=  402 AccDes= 0.00D+00 IRadAn=         5 IDoV= 1 UseB2=F ITyADJ=14
 ICtDFT=  3500011 ScaDFX=  1.000000  1.000000  1.000000  1.000000
 FoFCou: FMM=F IPFlag=           0 FMFlag=      100000 FMFlg1=           0
         NFxFlg=           0 DoJE=T BraDBF=F KetDBF=T FulRan=T
         wScrn=  0.000000 ICntrl=       500 IOpCl=  0 I1Cent=   200000004 NGrid=           0
         NMat0=    1 NMatS0=      1 NMatT0=    0 NMatD0=    1 NMtDS0=    0 NMtDT0=    0
 Petite list used in FoFCou.
 Harris En= -3031.38417079796    
 Leave Link  401 at Tue Sep 17 09:43:55 2024, MaxMem=  1342177280 cpu:               4.3 elap:               0.6
 (Enter /groups/ReismanLab/Software/Gaussian16_RevC/Linux_Binary_AVX2-enabled-CPU/g16/l502.exe)
 Integral symmetry usage will be decided dynamically.
 Closed shell SCF:
 Using DIIS extrapolation, IDIIS=  1040.
 NGot=  1342177280 LenX=  1342080394 LenY=  1342033728
 Requested convergence on RMS density matrix=1.00D-08 within  32 cycles.
 Requested convergence on MAX density matrix=1.00D-06.
 Requested convergence on             energy=1.00D-06.
 No special actions if energy rises.
 Fock matrices will be formed incrementally for  20 cycles.
 Integral accuracy reduced to 1.0D-05 until final iterations.

 Cycle   1  Pass 0  IDiag  1:
 FoFJK:  IHMeth= 1 ICntrl=       0 DoSepK=F KAlg= 0 I1Cent=           0 FoldK=F
 IRaf= 860000000 NMat=       1 IRICut=       1 DoRegI=T DoRafI=F ISym2E= 0 IDoP0=0 IntGTp=1.
 FoFCou: FMM=F IPFlag=           0 FMFlag=      100000 FMFlg1=           0
         NFxFlg=           0 DoJE=F BraDBF=F KetDBF=F FulRan=T
         wScrn=  0.000000 ICntrl=         0 IOpCl=  0 I1Cent=           0 NGrid=           0
         NMat0=    1 NMatS0=      1 NMatT0=    0 NMatD0=    1 NMtDS0=    0 NMtDT0=    0
 Symmetry not used in FoFCou.
 E= -3031.26454976530    
 DIIS: error= 2.74D-03 at cycle   1 NSaved=   1.
 NSaved= 1 IEnMin= 1 EnMin= -3031.26454976530     IErMin= 1 ErrMin= 2.74D-03
 ErrMax= 2.74D-03  0.00D+00 EMaxC= 1.00D-01 BMatC= 2.24D-03 BMatP= 2.24D-03
 IDIUse=3 WtCom= 9.73D-01 WtEn= 2.74D-02
 Coeff-Com:  0.100D+01
 Coeff-En:   0.100D+01
 Coeff:      0.100D+01
 Gap=     1.814 Goal=   None    Shift=    0.000
 GapD=    1.814 DampG=2.000 DampE=1.000 DampFc=2.0000 IDamp=-1.
 RMSDP=2.74D-04 MaxDP=5.34D-03              OVMax= 8.22D-03

 Cycle   2  Pass 0  IDiag  1:
 RMSU=  2.74D-04    CP:  1.00D+00
 E= -3031.26581830982     Delta-E=       -0.001268544526 Rises=F Damp=F
 DIIS: error= 5.17D-04 at cycle   2 NSaved=   2.
 NSaved= 2 IEnMin= 2 EnMin= -3031.26581830982     IErMin= 2 ErrMin= 5.17D-04
 ErrMax= 5.17D-04  0.00D+00 EMaxC= 1.00D-01 BMatC= 6.23D-05 BMatP= 2.24D-03
 IDIUse=3 WtCom= 9.95D-01 WtEn= 5.17D-03
 Coeff-Com:  0.326D-01 0.967D+00
 Coeff-En:   0.000D+00 0.100D+01
 Coeff:      0.324D-01 0.968D+00
 Gap=     0.221 Goal=   None    Shift=    0.000
 RMSDP=8.42D-05 MaxDP=2.13D-03 DE=-1.27D-03 OVMax= 3.39D-03

 Cycle   3  Pass 0  IDiag  1:
 RMSU=  8.41D-05    CP:  1.00D+00  1.00D+00
 E= -3031.26581325320     Delta-E=        0.000005056625 Rises=F Damp=F
 DIIS: error= 4.99D-04 at cycle   3 NSaved=   3.
 NSaved= 3 IEnMin= 2 EnMin= -3031.26581830982     IErMin= 3 ErrMin= 4.99D-04
 ErrMax= 4.99D-04  0.00D+00 EMaxC= 1.00D-01 BMatC= 7.21D-05 BMatP= 6.23D-05
 IDIUse=3 WtCom= 3.09D-01 WtEn= 6.91D-01
 Coeff-Com: -0.876D-02 0.521D+00 0.487D+00
 Coeff-En:   0.000D+00 0.518D+00 0.482D+00
 Coeff:     -0.271D-02 0.519D+00 0.484D+00
 Gap=     0.221 Goal=   None    Shift=    0.000
 RMSDP=5.14D-05 MaxDP=1.57D-03 DE= 5.06D-06 OVMax= 2.14D-03

 Cycle   4  Pass 0  IDiag  1:
 RMSU=  2.11D-05    CP:  1.00D+00  1.03D+00  4.52D-01
 E= -3031.26588636226     Delta-E=       -0.000073109059 Rises=F Damp=F
 DIIS: error= 1.00D-04 at cycle   4 NSaved=   4.
 NSaved= 4 IEnMin= 4 EnMin= -3031.26588636226     IErMin= 4 ErrMin= 1.00D-04
 ErrMax= 1.00D-04  0.00D+00 EMaxC= 1.00D-01 BMatC= 3.45D-06 BMatP= 6.23D-05
 IDIUse=3 WtCom= 9.99D-01 WtEn= 1.00D-03
 Coeff-Com: -0.571D-02 0.217D+00 0.257D+00 0.532D+00
 Coeff-En:   0.000D+00 0.000D+00 0.000D+00 0.100D+01
 Coeff:     -0.571D-02 0.217D+00 0.257D+00 0.532D+00
 Gap=     0.221 Goal=   None    Shift=    0.000
 RMSDP=1.10D-05 MaxDP=3.40D-04 DE=-7.31D-05 OVMax= 6.09D-04

 Cycle   5  Pass 0  IDiag  1:
 RMSU=  8.04D-06    CP:  1.00D+00  1.03D+00  4.93D-01  6.90D-01
 E= -3031.26588908875     Delta-E=       -0.000002726495 Rises=F Damp=F
 DIIS: error= 5.00D-05 at cycle   5 NSaved=   5.
 NSaved= 5 IEnMin= 5 EnMin= -3031.26588908875     IErMin= 5 ErrMin= 5.00D-05
 ErrMax= 5.00D-05  0.00D+00 EMaxC= 1.00D-01 BMatC= 7.20D-07 BMatP= 3.45D-06
 IDIUse=1 WtCom= 1.00D+00 WtEn= 0.00D+00
 Coeff-Com: -0.220D-02 0.496D-01 0.838D-01 0.335D+00 0.534D+00
 Coeff:     -0.220D-02 0.496D-01 0.838D-01 0.335D+00 0.534D+00
 Gap=     0.221 Goal=   None    Shift=    0.000
 RMSDP=4.55D-06 MaxDP=1.97D-04 DE=-2.73D-06 OVMax= 2.83D-04

 Initial convergence to 1.0D-05 achieved.  Increase integral accuracy.
 Cycle   6  Pass 1  IDiag  1:
 E= -3031.26588891861     Delta-E=        0.000000170147 Rises=F Damp=F
 DIIS: error= 3.27D-05 at cycle   1 NSaved=   1.
 NSaved= 1 IEnMin= 1 EnMin= -3031.26588891861     IErMin= 1 ErrMin= 3.27D-05
 ErrMax= 3.27D-05  0.00D+00 EMaxC= 1.00D-01 BMatC= 2.36D-07 BMatP= 2.36D-07
 IDIUse=1 WtCom= 1.00D+00 WtEn= 0.00D+00
 Coeff-Com:  0.100D+01
 Coeff:      0.100D+01
 Gap=     0.221 Goal=   None    Shift=    0.000
 RMSDP=4.55D-06 MaxDP=1.97D-04 DE= 1.70D-07 OVMax= 2.38D-04

 Cycle   7  Pass 1  IDiag  1:
 RMSU=  1.35D-05    CP:  1.00D+00
 E= -3031.26588870330     Delta-E=        0.000000215307 Rises=F Damp=F
 DIIS: error= 3.53D-05 at cycle   2 NSaved=   2.
 NSaved= 2 IEnMin= 1 EnMin= -3031.26588891861     IErMin= 1 ErrMin= 3.27D-05
 ErrMax= 3.53D-05  0.00D+00 EMaxC= 1.00D-01 BMatC= 4.73D-07 BMatP= 2.36D-07
 IDIUse=1 WtCom= 1.00D+00 WtEn= 0.00D+00
 Coeff-Com:  0.605D+00 0.395D+00
 Coeff:      0.605D+00 0.395D+00
 Gap=     0.221 Goal=   None    Shift=    0.000
 RMSDP=3.36D-06 MaxDP=1.68D-04 DE= 2.15D-07 OVMax= 2.32D-04

 Cycle   8  Pass 1  IDiag  1:
 RMSU=  3.23D-06    CP:  1.00D+00  9.33D-01
 E= -3031.26588905418     Delta-E=       -0.000000350880 Rises=F Damp=F
 DIIS: error= 1.38D-05 at cycle   3 NSaved=   3.
 NSaved= 3 IEnMin= 3 EnMin= -3031.26588905418     IErMin= 3 ErrMin= 1.38D-05
 ErrMax= 1.38D-05  0.00D+00 EMaxC= 1.00D-01 BMatC= 5.14D-08 BMatP= 2.36D-07
 IDIUse=1 WtCom= 1.00D+00 WtEn= 0.00D+00
 Coeff-Com:  0.709D-01 0.247D+00 0.682D+00
 Coeff:      0.709D-01 0.247D+00 0.682D+00
 Gap=     0.221 Goal=   None    Shift=    0.000
 RMSDP=1.05D-06 MaxDP=5.20D-05 DE=-3.51D-07 OVMax= 7.46D-05

 Cycle   9  Pass 1  IDiag  1:
 RMSU=  7.89D-07    CP:  1.00D+00  9.50D-01  7.98D-01
 E= -3031.26588908859     Delta-E=       -0.000000034411 Rises=F Damp=F
 DIIS: error= 3.45D-06 at cycle   4 NSaved=   4.
 NSaved= 4 IEnMin= 4 EnMin= -3031.26588908859     IErMin= 4 ErrMin= 3.45D-06
 ErrMax= 3.45D-06  0.00D+00 EMaxC= 1.00D-01 BMatC= 5.96D-09 BMatP= 5.14D-08
 IDIUse=1 WtCom= 1.00D+00 WtEn= 0.00D+00
 Coeff-Com:  0.520D-03 0.121D+00 0.406D+00 0.473D+00
 Coeff:      0.520D-03 0.121D+00 0.406D+00 0.473D+00
 Gap=     0.221 Goal=   None    Shift=    0.000
 RMSDP=4.24D-07 MaxDP=1.17D-05 DE=-3.44D-08 OVMax= 2.70D-05

 Cycle  10  Pass 1  IDiag  1:
 RMSU=  1.35D-07    CP:  1.00D+00  9.54D-01  7.92D-01  4.98D-01
 E= -3031.26588909442     Delta-E=       -0.000000005828 Rises=F Damp=F
 DIIS: error= 7.24D-07 at cycle   5 NSaved=   5.
 NSaved= 5 IEnMin= 5 EnMin= -3031.26588909442     IErMin= 5 ErrMin= 7.24D-07
 ErrMax= 7.24D-07  0.00D+00 EMaxC= 1.00D-01 BMatC= 1.86D-10 BMatP= 5.96D-09
 IDIUse=1 WtCom= 1.00D+00 WtEn= 0.00D+00
 Coeff-Com: -0.210D-02 0.594D-01 0.203D+00 0.265D+00 0.475D+00
 Coeff:     -0.210D-02 0.594D-01 0.203D+00 0.265D+00 0.475D+00
 Gap=     0.221 Goal=   None    Shift=    0.000
 RMSDP=6.96D-08 MaxDP=2.20D-06 DE=-5.83D-09 OVMax= 5.27D-06

 Cycle  11  Pass 1  IDiag  1:
 RMSU=  4.33D-08    CP:  1.00D+00  9.55D-01  7.92D-01  5.07D-01  6.05D-01
 E= -3031.26588909458     Delta-E=       -0.000000000167 Rises=F Damp=F
 DIIS: error= 1.66D-07 at cycle   6 NSaved=   6.
 NSaved= 6 IEnMin= 6 EnMin= -3031.26588909458     IErMin= 6 ErrMin= 1.66D-07
 ErrMax= 1.66D-07  0.00D+00 EMaxC= 1.00D-01 BMatC= 9.69D-12 BMatP= 1.86D-10
 IDIUse=1 WtCom= 1.00D+00 WtEn= 0.00D+00
 Coeff-Com: -0.118D-02 0.263D-01 0.909D-01 0.122D+00 0.260D+00 0.502D+00
 Coeff:     -0.118D-02 0.263D-01 0.909D-01 0.122D+00 0.260D+00 0.502D+00
 Gap=     0.221 Goal=   None    Shift=    0.000
 RMSDP=2.16D-08 MaxDP=7.66D-07 DE=-1.67D-10 OVMax= 1.28D-06

 Cycle  12  Pass 1  IDiag  1:
 RMSU=  1.84D-08    CP:  1.00D+00  9.55D-01  7.91D-01  5.09D-01  6.41D-01
                    CP:  7.73D-01
 E= -3031.26588909457     Delta-E=        0.000000000011 Rises=F Damp=F
 DIIS: error= 7.37D-08 at cycle   7 NSaved=   7.
 NSaved= 7 IEnMin= 6 EnMin= -3031.26588909458     IErMin= 7 ErrMin= 7.37D-08
 ErrMax= 7.37D-08  0.00D+00 EMaxC= 1.00D-01 BMatC= 1.57D-12 BMatP= 9.69D-12
 IDIUse=1 WtCom= 1.00D+00 WtEn= 0.00D+00
 Coeff-Com: -0.116D-03-0.857D-03-0.241D-02-0.882D-03 0.200D-01 0.289D+00
 Coeff-Com:  0.695D+00
 Coeff:     -0.116D-03-0.857D-03-0.241D-02-0.882D-03 0.200D-01 0.289D+00
 Coeff:      0.695D+00
 Gap=     0.221 Goal=   None    Shift=    0.000
 RMSDP=8.20D-09 MaxDP=3.56D-07 DE= 1.09D-11 OVMax= 5.47D-07

 SCF Done:  E(RB3LYP) =  -3031.26588909     A.U. after   12 cycles
            NFock= 12  Conv=0.82D-08     -V/T= 2.0066
 KE= 3.011255501058D+03 PE=-8.911349481989D+03 EE= 2.015117872755D+03
 Leave Link  502 at Tue Sep 17 09:44:04 2024, MaxMem=  1342177280 cpu:              65.5 elap:               9.1
[...]
   XY=  -390.9958   YY=  2672.9536   ZY=   -97.2948
   XZ=    24.3675   YZ=  -102.9410   ZZ=  1725.7786
   Eigenvalues:  1570.7294  1717.4833  2819.5630
     12  H    Isotropic =    27.9140   Anisotropy =     8.0660
   XX=    28.3770   YX=     3.6803   ZX=    -1.6774
   XY=     1.7375   YY=    29.1735   ZY=    -2.8227
   XZ=    -1.9321   YZ=    -3.4084   ZZ=    26.1916
   Eigenvalues:    24.2260    26.2247    33.2913
     13  H    Isotropic =    28.0454   Anisotropy =     7.8573
   XX=    33.0336   YX=    -1.0614   ZX=    -1.5902
   XY=     0.5528   YY=    26.7197   ZY=     0.4695
   XZ=    -1.2817   YZ=     0.6573   ZZ=    24.3828
   Eigenvalues:    24.0506    26.8019    33.2836
     14  H    Isotropic =    27.9866   Anisotropy =     8.2528
   XX=    29.6351   YX=     2.9996   ZX=     3.6723
   XY=     1.4756   YY=    26.2734   ZY=     2.0146
   XZ=     2.9145   YZ=     2.0378   ZZ=    28.0513
   Eigenvalues:    24.9451    25.5263    33.4884
     15  H    Isotropic =    22.7298   Anisotropy =    10.0067
   XX=    21.6595   YX=     3.4578   ZX=    -0.3117
   XY=     2.6173   YY=    28.1821   ZY=    -0.0420
   XZ=    -0.4799   YZ=    -0.7402   ZZ=    18.3480
   Eigenvalues:    18.3012    20.4874    29.4010
     16  H    Isotropic =    23.6713   Anisotropy =     5.9199
   XX=    27.2156   YX=     1.3237   ZX=     0.1416
   XY=     1.3792   YY=    23.0452   ZY=     0.0872
   XZ=     0.1042   YZ=     0.0399   ZZ=    20.7532
   Eigenvalues:    20.7501    22.6459    27.6179
     17  H    Isotropic =    23.5065   Anisotropy =     6.2203
   XX=    24.4115   YX=    -2.4864   ZX=     0.1166
   XY=    -2.8615   YY=    25.4425   ZY=    -0.0812
   XZ=    -0.0551   YZ=    -0.2526   ZZ=    20.6655
   Eigenvalues:    20.6579    22.2082    27.6534
     18  H    Isotropic =    23.4028   Anisotropy =    11.4767
   XX=    21.7229   YX=     3.2754   ZX=    -0.0016
   XY=     4.0921   YY=    29.5990   ZY=     0.0716
   XZ=     0.1130   YZ=     0.0457   ZZ=    18.8864
   Eigenvalues:    18.8853    20.2692    31.0539
 End of Minotr F.D. properties file   721 does not exist.
 End of Minotr F.D. properties file   722 does not exist.
 End of Minotr F.D. properties file   788 does not exist.
 Leave Link 1002 at Tue Sep 17 10:42:24 2024, MaxMem=  1342177280 cpu:             785.5 elap:             787.7
 (Enter /groups/ReismanLab/Software/Gaussian16_RevC/Linux_Binary_AVX2-enabled-CPU/g16/l601.exe)
 Copying SCF densities to generalized density rwf, IOpCl= 0 IROHF=0.

 **********************************************************************

            Population analysis using the SCF Density.

 **********************************************************************

 Orbital symmetries:
       Occupied  (A) (A) (A) (A) (A) (A) (A) (A) (A) (A) (A) (A)
                 (A) (A) (A) (A) (A) (A) (A) (A) (A) (A) (A) (A)
                 (A) (A) (A) (A) (A) (A) (A) (A) (A) (A) (A) (A)
                 (A) (A) (A) (A) (A) (A) (A) (A) (A) (A) (A) (A)
                 (A) (A) (A) (A) (A)
       Virtual   (A) (A) (A) (A) (A) (A) (A) (A) (A) (A) (A) (A)
                 (A) (A) (A) (A) (A) (A) (A) (A) (A) (A) (A) (A)
                 (A) (A) (A) (A) (A) (A) (A) (A) (A) (A) (A) (A)
                 (A) (A) (A) (A) (A) (A) (A) (A) (A) (A) (A) (A)
                 (A) (A) (A) (A) (A) (A) (A) (A) (A) (A) (A) (A)
                 (A) (A) (A) (A) (A) (A) (A) (A) (A) (A) (A) (A)
                 (A) (A) (A) (A) (A) (A) (A) (A) (A) (A) (A) (A)
                 (A) (A) (A) (A) (A) (A) (A) (A) (A) (A) (A) (A)
                 (A) (A) (A) (A) (A) (A) (A) (A) (A) (A) (A) (A)
                 (A) (A) (A) (A) (A) (A) (A) (A) (A) (A) (A) (A)
                 (A) (A) (A) (A) (A) (A) (A) (A) (A) (A) (A) (A)
                 (A) (A) (A) (A) (A) (A) (A) (A) (A) (A) (A) (A)
                 (A) (A) (A) (A) (A) (A) (A) (A) (A) (A) (A) (A)
                 (A) (A) (A) (A) (A) (A) (A) (A) (A) (A) (A) (A)
                 (A) (A) (A) (A) (A) (A) (A) (A) (A) (A) (A) (A)
                 (A) (A) (A) (A) (A) (A) (A) (A) (A) (A) (A) (A)
                 (A) (A) (A) (A) (A) (A) (A) (A) (A) (A) (A) (A)
                 (A) (A) (A) (A) (A) (A) (A) (A) (A) (A) (A) (A)
                 (A) (A) (A) (A) (A) (A) (A) (A) (A) (A) (A) (A)
                 (A) (A) (A) (A) (A) (A) (A) (A) (A) (A) (A) (A)
                 (A) (A) (A) (A) (A) (A) (A) (A) (A) (A) (A) (A)
                 (A) (A) (A) (A) (A) (A) (A) (A) (A) (A) (A) (A)
                 (A) (A) (A) (A) (A) (A) (A) (A) (A) (A) (A) (A)
                 (A) (A) (A) (A) (A) (A) (A) (A) (A) (A) (A) (A)
                 (A) (A) (A) (A) (A) (A) (A) (A) (A) (A) (A) (A)
                 (A) (A) (A) (A) (A) (A) (A) (A) (A) (A) (A) (A)
                 (A) (A) (A) (A) (A) (A) (A) (A) (A) (A) (A) (A)
                 (A) (A) (A) (A) (A) (A) (A) (A) (A) (A) (A) (A)
                 (A) (A) (A) (A) (A) (A) (A) (A) (A) (A) (A)
 The electronic state is 1-A.
 Alpha  occ. eigenvalues -- -485.37304 -63.35779 -57.17733 -57.17492 -57.17468
 Alpha  occ. eigenvalues --  -19.67508 -19.62173 -10.68280 -10.61651 -10.58826
 Alpha  occ. eigenvalues --  -10.57900 -10.56350 -10.56308 -10.56146 -10.55659
 Alpha  occ. eigenvalues --   -9.02426  -6.84862  -6.83970  -6.83888  -2.88240
 Alpha  occ. eigenvalues --   -2.87934  -2.87852  -2.87020  -2.87018  -1.23614
 Alpha  occ. eigenvalues --   -1.14354  -0.99006  -0.90357  -0.88470  -0.82790
 Alpha  occ. eigenvalues --   -0.81185  -0.72673  -0.69495  -0.65479  -0.62107
 Alpha  occ. eigenvalues --   -0.57197  -0.56913  -0.56420  -0.53490  -0.52738
 Alpha  occ. eigenvalues --   -0.49133  -0.48855  -0.48384  -0.45392  -0.43791
 Alpha  occ. eigenvalues --   -0.43720  -0.41382  -0.38526  -0.38203  -0.37316
 Alpha  occ. eigenvalues --   -0.33233  -0.32780  -0.30365
 Alpha virt. eigenvalues --   -0.02780   0.00334   0.03770   0.08035   0.08497
 Alpha virt. eigenvalues --    0.09532   0.11106   0.11784   0.13244   0.13652
 Alpha virt. eigenvalues --    0.15250   0.15968   0.16180   0.18217   0.18774
 Alpha virt. eigenvalues --    0.21022   0.21305   0.21964   0.23581   0.24021
 Alpha virt. eigenvalues --    0.24982   0.25095   0.26296   0.26783   0.26990
 Alpha virt. eigenvalues --    0.27841   0.28908   0.29632   0.31159   0.31343
 Alpha virt. eigenvalues --    0.32729   0.34023   0.34366   0.34796   0.35382
 Alpha virt. eigenvalues --    0.36744   0.36986   0.37640   0.39310   0.39358
 Alpha virt. eigenvalues --    0.41625   0.42336   0.42525   0.43744   0.44485
 Alpha virt. eigenvalues --    0.45341   0.45865   0.47218   0.48466   0.48776
 Alpha virt. eigenvalues --    0.49284   0.49771   0.51387   0.52587   0.53175
 Alpha virt. eigenvalues --    0.54064   0.54594   0.57043   0.57695   0.58196
 Alpha virt. eigenvalues --    0.60207   0.61245   0.62971   0.63611   0.65833
 Alpha virt. eigenvalues --    0.67322   0.68159   0.69372   0.71305   0.71752
 Alpha virt. eigenvalues --    0.73090   0.73819   0.75195   0.76587   0.78273
 Alpha virt. eigenvalues --    0.78377   0.80465   0.82788   0.84200   0.85693
 Alpha virt. eigenvalues --    0.86214   0.86898   0.88161   0.89702   0.91420
 Alpha virt. eigenvalues --    0.92698   0.93799   0.95207   0.96627   0.99133
 Alpha virt. eigenvalues --    1.02160   1.02547   1.03508   1.05096   1.06576
 Alpha virt. eigenvalues --    1.09068   1.10099   1.11058   1.12031   1.14223
 Alpha virt. eigenvalues --    1.14923   1.20899   1.21329   1.21807   1.22944
 Alpha virt. eigenvalues --    1.25495   1.25937   1.27902   1.29162   1.30752
 Alpha virt. eigenvalues --    1.33994   1.35915   1.36993   1.38941   1.40822
 Alpha virt. eigenvalues --    1.41794   1.42624   1.46185   1.47086   1.48478
 Alpha virt. eigenvalues --    1.49462   1.51221   1.51853   1.53362   1.54717
 Alpha virt. eigenvalues --    1.55909   1.57137   1.57330   1.57743   1.58455
 Alpha virt. eigenvalues --    1.58945   1.60390   1.62132   1.62376   1.64160
 Alpha virt. eigenvalues --    1.64626   1.65602   1.66720   1.68080   1.69390
 Alpha virt. eigenvalues --    1.71785   1.72557   1.72832   1.75009   1.75700
 Alpha virt. eigenvalues --    1.78281   1.79169   1.80924   1.81666   1.84309
 Alpha virt. eigenvalues --    1.86522   1.87528   1.89704   1.90265   1.92080
 Alpha virt. eigenvalues --    1.95616   1.96742   1.98250   1.99704   2.03080
 Alpha virt. eigenvalues --    2.03803   2.05572   2.05970   2.06534   2.09277
 Alpha virt. eigenvalues --    2.10898   2.12007   2.14662   2.15934   2.17190
 Alpha virt. eigenvalues --    2.19477   2.22578   2.25430   2.25631   2.28351
 Alpha virt. eigenvalues --    2.30716   2.32431   2.35559   2.38307   2.38950
 Alpha virt. eigenvalues --    2.41591   2.42442   2.43711   2.47972   2.49316
 Alpha virt. eigenvalues --    2.52502   2.53992   2.55285   2.56229   2.58578
 Alpha virt. eigenvalues --    2.59382   2.60824   2.62794   2.65585   2.65922
 Alpha virt. eigenvalues --    2.67534   2.69413   2.70603   2.71618   2.71948
 Alpha virt. eigenvalues --    2.74248   2.75772   2.77387   2.79134   2.80214
 Alpha virt. eigenvalues --    2.81658   2.83170   2.83473   2.85033   2.86909
 Alpha virt. eigenvalues --    2.87432   2.88258   2.89247   2.94553   2.95828
 Alpha virt. eigenvalues --    2.98850   2.99445   3.01355   3.02540   3.06609
 Alpha virt. eigenvalues --    3.07496   3.08202   3.08721   3.10245   3.11524
 Alpha virt. eigenvalues --    3.13564   3.14143   3.16502   3.17044   3.17792
 Alpha virt. eigenvalues --    3.19187   3.21323   3.22325   3.24577   3.26649
 Alpha virt. eigenvalues --    3.27764   3.29026   3.30161   3.30488   3.32092
 Alpha virt. eigenvalues --    3.32650   3.34928   3.35730   3.37031   3.38212
 Alpha virt. eigenvalues --    3.39543   3.41137   3.43115   3.43611   3.44807
 Alpha virt. eigenvalues --    3.46156   3.47910   3.49696   3.51120   3.51748
 Alpha virt. eigenvalues --    3.52374   3.54242   3.55224   3.57800   3.60226
 Alpha virt. eigenvalues --    3.61046   3.62619   3.64271   3.69588   3.72240
 Alpha virt. eigenvalues --    3.76584   3.80864   3.83713   3.86160   3.89260
 Alpha virt. eigenvalues --    3.93077   3.96717   4.05463   4.06842   4.07749
 Alpha virt. eigenvalues --    4.08908   4.11197   4.11995   4.14891   4.14938
 Alpha virt. eigenvalues --    4.17134   4.17795   4.18172   4.18709   4.20234
 Alpha virt. eigenvalues --    4.22596   4.26781   4.27125   4.28833   4.32152
 Alpha virt. eigenvalues --    4.35668   4.38311   4.43924   4.45801   4.51227
 Alpha virt. eigenvalues --    4.53867   4.57336   4.58426   4.61717   4.65805
 Alpha virt. eigenvalues --    4.72400   4.76369   4.78695   4.83790   4.91492
 Alpha virt. eigenvalues --    5.03826   5.08234   5.11410   5.18691   5.21535
 Alpha virt. eigenvalues --    5.27768   5.28546   5.32662   5.38364   5.46141
 Alpha virt. eigenvalues --    5.48984   5.51937   5.65846   5.68018   5.84140
 Alpha virt. eigenvalues --    5.93909   6.06620   6.16538   6.21211   6.36720
 Alpha virt. eigenvalues --    6.37143   6.53783   6.64480   6.69058   6.76439
 Alpha virt. eigenvalues --    6.86349   6.87786   7.01889   7.10695   7.26141
 Alpha virt. eigenvalues --    7.37601   7.87891  22.10017  22.43808  22.67564
 Alpha virt. eigenvalues --   22.73953  22.85135  22.89406  23.26165  23.51264
 Alpha virt. eigenvalues --   44.05975  44.23449
          Condensed to atoms (all electrons):
               1          2          3          4          5          6
     1  C    4.868070   0.206730  -0.051604  -0.000975   0.008986  -0.000358
     2  O    0.206730   8.010915   0.374520  -0.081808  -0.161073   0.023319
     3  C   -0.051604   0.374520   4.534711   0.655055   0.312482  -0.082170
     4  O   -0.000975  -0.081808   0.655055   7.874027  -0.078297   0.001790
     5  C    0.008986  -0.161073   0.312482  -0.078297   5.674279   0.181614
     6  C   -0.000358   0.023319  -0.082170   0.001790   0.181614   5.234802
     7  C   -0.000136  -0.000705   0.016040   0.000510   0.051744   0.388358
     8  C    0.000021   0.000369  -0.010713  -0.000686  -0.161400   0.061245
     9  C   -0.000045   0.000064   0.027300   0.004961   0.110993  -0.175339
    10  C   -0.001311  -0.006258  -0.097938  -0.016582   0.112459   0.134258
    11  Br  -0.000080  -0.000775  -0.023878  -0.026726  -0.142344   0.028372
    12  H    0.417842  -0.030308  -0.010084   0.004114  -0.003533   0.001086
    13  H    0.395414  -0.030199   0.004608   0.001805   0.002877  -0.000986
    14  H    0.421539  -0.037035  -0.006556   0.003803   0.001212  -0.000205
    15  H   -0.000527   0.016272  -0.007456   0.000294  -0.036604   0.410739
    16  H   -0.000000  -0.000138   0.000007   0.000006   0.008858  -0.035881
    17  H    0.000000  -0.000000   0.000048  -0.000002  -0.001253   0.005420
    18  H   -0.000000   0.000011   0.000834   0.000096   0.022672  -0.005884
               7          8          9         10         11         12
     1  C   -0.000136   0.000021  -0.000045  -0.001311  -0.000080   0.417842
     2  O   -0.000705   0.000369   0.000064  -0.006258  -0.000775  -0.030308
     3  C    0.016040  -0.010713   0.027300  -0.097938  -0.023878  -0.010084
     4  O    0.000510  -0.000686   0.004961  -0.016582  -0.026726   0.004114
     5  C    0.051744  -0.161400   0.110993   0.112459  -0.142344  -0.003533
     6  C    0.388358   0.061245  -0.175339   0.134258   0.028372   0.001086
     7  C    5.013182   0.425953   0.023491  -0.114252  -0.005501   0.000011
     8  C    0.425953   5.006518   0.375164   0.084772   0.019814   0.000008
     9  C    0.023491   0.375164   5.177781   0.304566  -0.101218  -0.000023
    10  C   -0.114252   0.084772   0.304566   5.269029   0.436329   0.000097
    11  Br  -0.005501   0.019814  -0.101218   0.436329  34.889536   0.000035
    12  H    0.000011   0.000008  -0.000023   0.000097   0.000035   0.523685
    13  H   -0.000044   0.000001  -0.000005   0.000200   0.000006  -0.023319
    14  H   -0.000023  -0.000002  -0.000000  -0.000356   0.000050  -0.040540
    15  H   -0.031186   0.005547  -0.001826   0.008205   0.000008   0.000324
    16  H    0.417994  -0.036698   0.006170  -0.001983   0.000021  -0.000001
    17  H   -0.033350   0.412987  -0.031935   0.005276  -0.000387   0.000000
    18  H    0.008110  -0.039821   0.431011  -0.066727  -0.001778  -0.000000
              13         14         15         16         17         18
     1  C    0.395414   0.421539  -0.000527  -0.000000   0.000000  -0.000000
     2  O   -0.030199  -0.037035   0.016272  -0.000138  -0.000000   0.000011
     3  C    0.004608  -0.006556  -0.007456   0.000007   0.000048   0.000834
     4  O    0.001805   0.003803   0.000294   0.000006  -0.000002   0.000096
     5  C    0.002877   0.001212  -0.036604   0.008858  -0.001253   0.022672
     6  C   -0.000986  -0.000205   0.410739  -0.035881   0.005420  -0.005884
     7  C   -0.000044  -0.000023  -0.031186   0.417994  -0.033350   0.008110
     8  C    0.000001  -0.000002   0.005547  -0.036698   0.412987  -0.039821
     9  C   -0.000005  -0.000000  -0.001826   0.006170  -0.031935   0.431011
    10  C    0.000200  -0.000356   0.008205  -0.001983   0.005276  -0.066727
    11  Br   0.000006   0.000050   0.000008   0.000021  -0.000387  -0.001778
    12  H   -0.023319  -0.040540   0.000324  -0.000001   0.000000  -0.000000
    13  H    0.519342  -0.024215  -0.000274   0.000001   0.000000  -0.000000
    14  H   -0.024215   0.522139  -0.000224   0.000000   0.000000  -0.000000
    15  H   -0.000274  -0.000224   0.459960  -0.003834  -0.000145   0.000011
    16  H    0.000001   0.000000  -0.003834   0.480022  -0.003442  -0.000129
    17  H    0.000000   0.000000  -0.000145  -0.003442   0.478767  -0.003565
    18  H   -0.000000  -0.000000   0.000011  -0.000129  -0.003565   0.478719
 Mulliken charges:
               1
     1  C   -0.263566
     2  O   -0.283903
     3  C    0.364794
     4  O   -0.341385
     5  C    0.096327
     6  C   -0.170181
     7  C   -0.160195
     8  C   -0.143080
     9  C   -0.151109
    10  C   -0.049788
    11  Br  -0.071484
    12  H    0.160605
    13  H    0.154790
    14  H    0.160412
    15  H    0.180714
    16  H    0.169027
    17  H    0.171583
    18  H    0.176439
 Sum of Mulliken charges =  -0.00000
 Mulliken charges with hydrogens summed into heavy atoms:
               1
     1  C    0.212241
     2  O   -0.283903
     3  C    0.364794
     4  O   -0.341385
     5  C    0.096327
     6  C    0.010533
     7  C    0.008833
     8  C    0.028503
     9  C    0.025330
    10  C   -0.049788
    11  Br  -0.071484
 Electronic spatial extent (au):  <R**2>=           2491.3183
 Charge=             -0.0000 electrons
 Dipole moment (field-independent basis, Debye):
    X=              1.0819    Y=             -3.6933    Z=             -0.4452  Tot=              3.8742
 Quadrupole moment (field-independent basis, Debye-Ang):
   XX=            -61.4290   YY=            -70.9306   ZZ=            -79.1097
   XY=              3.1330   XZ=             -0.5607   YZ=             -1.8634
 Traceless Quadrupole moment (field-independent basis, Debye-Ang):
   XX=              9.0607   YY=             -0.4408   ZZ=             -8.6199
   XY=              3.1330   XZ=             -0.5607   YZ=             -1.8634
 Octapole moment (field-independent basis, Debye-Ang**2):
  XXX=             13.5910  YYY=             17.8256  ZZZ=             -1.1234  XYY=            -21.0165
  XXY=             13.5636  XXZ=             -2.6364  XZZ=             -5.2601  YZZ=             24.2097
  YYZ=             -2.9847  XYZ=             -3.3879
 Hexadecapole moment (field-independent basis, Debye-Ang**3):
 XXXX=          -1422.7898 YYYY=          -1113.3976 ZZZZ=           -104.9737 XXXY=             -4.2962
 XXXZ=             -7.1532 YYYX=            -62.9894 YYYZ=             -7.6801 ZZZX=              3.8762
 ZZZY=             -0.2073 XXYY=           -458.6279 XXZZ=           -305.6693 YYZZ=           -247.1375
 XXYZ=             -3.9800 YYXZ=             -2.8369 ZZXY=            -23.3270
 N-N= 8.498019818922D+02 E-N=-8.924702486366D+03  KE= 3.028005373365D+03
 Calculating spin-rotation constants.
 Leave Link  601 at Tue Sep 17 10:42:28 2024, MaxMem=  1342177280 cpu:               4.1 elap:               4.1
 (Enter /groups/ReismanLab/Software/Gaussian16_RevC/Linux_Binary_AVX2-enabled-CPU/g16/l9999.exe)
 Unable to Open any file for archive entry.
 1\1\GINC-HPC-21-34\SP\RM062X\def2TZVP\C8H7Br1O2\MANTIND\17-Sep-2024\0\
 \#p M062X/def2tzvp geom=check guess=read scf(xqc,tight) integral(grid=
 ultrafine) scrf(SMD, solvent=1,4-Dioxane) nmr=giao\\spe\\0,1\C,0,2.664
 7741142,2.537476738,0.8635917695\O,0,1.3024293696,2.0889395205,0.91712
 12631\C,0,1.029388406,1.0112436407,0.1401454997\O,0,1.8746887893,0.456
 3758785,-0.5274073344\C,0,-0.4168036225,0.6438526657,0.2181147134\C,0,
 -1.337244712,1.6034481666,0.6747244306\C,0,-2.6991827868,1.3357913435,
 0.7314491047\C,0,-3.1714161107,0.0839886713,0.3373011459\C,0,-2.280104
 1995,-0.8875096323,-0.1086978788\C,0,-0.9136140023,-0.6117614723,-0.17
 31362293\Br,0,0.2008677892,-2.0372509803,-0.7702609109\H,0,3.341143711
 4,1.7468083201,1.1961736856\H,0,2.7169397893,3.3955212571,1.5328841419
 \H,0,2.9357146083,2.8250650658,-0.1551179122\H,0,-0.9573255213,2.56985
 12249,0.9802383545\H,0,-3.3870213945,2.0981797074,1.0814897117\H,0,-4.
 2322673287,-0.1423520183,0.377343567\H,0,-2.6329873774,-1.8668779342,-
 0.4084875093\\Version=ES64L-G16RevC.02\State=1-A\HF=-3033.7090801\RMSD
 =1.368e-09\Dipole=-0.8879884,1.0334543,0.6831603\Quadrupole=4.5992811,
 1.4365523,-6.0358335,3.5975499,1.7318374,2.2432636\PG=C01 [X(C8H7Br1O2
 )]\\@
 The archive entry for this job was punched.


 IF YOU GET CONFUSED, LOGIC OUT YOUR DILEMMA

           --  PICKER X-RAY CORP.    DIGITAL PRINTER MANUAL CA. 1964
 Job cpu time:       0 days  0 hours 14 minutes 23.3 seconds.
 Elapsed time:       0 days  0 hours 14 minutes 27.2 seconds.
 File lengths (MBytes):  RWF=    256 Int=      0 D2E=      0 Chk=     24 Scr=     16
 Normal termination of Gaussian 16 at Tue Sep 17 10:42:28 2024.
