 Entering Gaussian System, Link 0=g16
 Input=smiles_00015_conf_1.gjf
 Output=smiles_00015_conf_1.log
 Initial command:
 /groups/ReismanLab/Software/Gaussian16_RevC/Linux_Binary_AVX2-enabled-CPU/g16/l1.exe "/central/groups/ReismanLab/DM/dft_final/smiles_00015/Gau-990265.inp" -scrdir="/central/groups/ReismanLab/DM/dft_final/smiles_00015/"
 Entering Link 1 = /groups/ReismanLab/Software/Gaussian16_RevC/Linux_Binary_AVX2-enabled-CPU/g16/l1.exe PID=    990271.
  
 Copyright (c) 1988-2021, Gaussian, Inc.  All Rights Reserved.
  
 This is part of the Gaussian(R) 16 program.  It is based on
 the Gaussian(R) 09 system (copyright 2009, Gaussian, Inc.),
 the Gaussian(R) 03 system (copyright 2003, Gaussian, Inc.),
 the Gaussian(R) 98 system (copyright 1998, Gaussian, Inc.),
 the Gaussian(R) 94 system (copyright 1995, Gaussian, Inc.),
 the Gaussian 92(TM) system (copyright 1992, Gaussian, Inc.),
 the Gaussian 90(TM) system (copyright 1990, Gaussian, Inc.),
 the Gaussian 88(TM) system (copyright 1988, Gaussian, Inc.),
 the Gaussian 86(TM) system (copyright 1986, Carnegie Mellon
 University), and the Gaussian 82(TM) system (copyright 1983,
 Carnegie Mellon University). Gaussian is a federally registered
 trademark of Gaussian, Inc.
  
 This software contains proprietary and confidential information,
 including trade secrets, belonging to Gaussian, Inc.
  
 This software is provided under written license and may be
 used, copied, transmitted, or stored only in accord with that
 written license.
  
 The following legend is applicable only to US Government
 contracts under FAR:
  
                    RESTRICTED RIGHTS LEGEND
  
 Use, reproduction and disclosure by the US Government is
 subject to restrictions as set forth in subparagraphs (a)
 and (c) of the Commercial Computer Software - Restricted
 Rights clause in FAR 52.227-19.
  
 Gaussian, Inc.
 340 Quinnipiac St., Bldg. 40, Wallingford CT 06492
  
  
 ---------------------------------------------------------------
 Warning -- This program may not be used in any manner that
 competes with the business of Gaussian, Inc. or will provide
 assistance to any competitor of Gaussian, Inc.  The licensee
 of this program is prohibited from giving any competitor of
 Gaussian, Inc. access to this program.  By using this program,
 the user acknowledges that Gaussian, Inc. is engaged in the
 business of creating and licensing software in the field of
 computational chemistry and represents and warrants to the
 licensee that it is not a competitor of Gaussian, Inc. and that
 it will not use this program in any manner prohibited above.
 ---------------------------------------------------------------
  

 Cite this work as:
 Gaussian 16, Revision C.02,
 M. J. Frisch, G. W. Trucks, H. B. Schlegel, G. E. Scuseria, 
 M. A. Robb, J. R. Cheeseman, G. Scalmani, V. Barone, 
 G. A. Petersson, H. Nakatsuji, X. Li, M. Caricato, A. V. Marenich, 
 J. Bloino, B. G. Janesko, R. Gomperts, B. Mennucci, H. P. Hratchian, 
 J. V. Ortiz, A. F. Izmaylov, J. L. Sonnenberg, D. Williams-Young, 
 F. Ding, F. Lipparini, F. Egidi, J. Goings, B. Peng, A. Petrone, 
 T. Henderson, D. Ranasinghe, V. G. Zakrzewski, J. Gao, N. Rega, 
 G. Zheng, W. Liang, M. Hada, M. Ehara, K. Toyota, R. Fukuda, 
 J. Hasegawa, M. Ishida, T. Nakajima, Y. Honda, O. Kitao, H. Nakai, 
 T. Vreven, K. Throssell, J. A. Montgomery, Jr., J. E. Peralta, 
 F. Ogliaro, M. J. Bearpark, J. J. Heyd, E. N. Brothers, K. N. Kudin, 
 V. N. Staroverov, T. A. Keith, R. Kobayashi, J. Normand, 
 K. Raghavachari, A. P. Rendell, J. C. Burant, S. S. Iyengar, 
 J. Tomasi, M. Cossi, J. M. Millam, M. Klene, C. Adamo, R. Cammi, 
 J. W. Ochterski, R. L. Martin, K. Morokuma, O. Farkas, 
 J. B. Foresman, and D. J. Fox, Gaussian, Inc., Wallingford CT, 2019.
 
 ******************************************
 Gaussian 16:  ES64L-G16RevC.02  7-Dec-2021
                17-Sep-2024 
 ******************************************
 %nprocshared=8
 Will use up to    8 processors via shared memory.
 %Mem=10GB
 %Chk=smiles_00015_conf_1.chk
 ----------------------------------------------------------------------
 #p B3LYP/gen pseudo=read EmpiricalDispersion=GD3BJ opt freq scf(xqc,ti
 ght) integral(grid=ultrafine)
 ----------------------------------------------------------------------
 1/18=20,19=15,26=4,38=1/1,3;
 2/9=110,12=2,17=6,18=5,40=1/2;
 3/5=7,11=2,16=1,17=8,25=1,30=1,71=1,74=-5,75=-5,124=41/1,2,3;
 4//1;
 5/5=2,8=3,13=1,32=2,38=5/2,8;
 6/7=2,8=2,9=2,10=2,28=1/1;
 7//1,2,3,16;
 1/18=20,19=15,26=4/3(2);
 2/9=110/2;
 99//99;
 2/9=110/2;
 3/5=7,6=1,11=2,16=1,17=8,25=1,30=1,71=1,74=-5,75=-5,82=7,124=41/1,2,3;
 4/5=5,16=3,69=1/1;
 5/5=2,8=3,13=1,32=2,38=5/2,8;
 7//1,2,3,16;
 1/18=20,19=15,26=4/3(-5);
 2/9=110/2;
 6/7=2,8=2,9=2,10=2,19=2,28=1/1;
 99/9=1/99;
 Leave Link    1 at Tue Sep 17 09:49:42 2024, MaxMem=  1342177280 cpu:               0.1 elap:               1.2
 (Enter /groups/ReismanLab/Software/Gaussian16_RevC/Linux_Binary_AVX2-enabled-CPU/g16/l101.exe)
 ----------------------------------
 opt-freq conformers_unique/conf_ab
 ----------------------------------
 Symbolic Z-matrix:
 Charge =  0 Multiplicity = 1
 F                     1.81337   3.31001  -0.65006 
 C                     2.02229   2.51553   0.41072 
 F                     3.34423   2.3929    0.55084 
 F                     1.57844   3.19303   1.48263 
 C                     1.31762   1.19058   0.26391 
 C                    -0.0389    1.20376  -0.03126 
 C                    -0.71254   0.00073  -0.15959 
 I                    -2.76599   0.0028   -0.6061 
 C                    -0.04862  -1.20329   0.00455 
 C                     1.30781  -1.19235   0.30068 
 C                     2.00324  -2.51942   0.47076 
 F                     1.94277  -3.25593  -0.65042 
 F                     1.43264  -3.25655   1.43691 
 F                     3.29463  -2.39836   0.78611 
 C                     2.00615  -0.00148   0.43412 
 H                    -0.55366   2.14411  -0.1594 
 H                    -0.57109  -2.14288  -0.09414 
 H                     3.06062  -0.00226   0.66329 
 
 ITRead=  0  0  0  0  0  0  0  0  0  0  0  0  0  0  0  0  0  0
 MicOpt= -1 -1 -1 -1 -1 -1 -1 -1 -1 -1 -1 -1 -1 -1 -1 -1 -1 -1
 NAtoms=     18 NQM=       18 NQMF=       0 NMMI=      0 NMMIF=      0
                NMic=       0 NMicF=      0.
                    Isotopes and Nuclear Properties:
 (Nuclear quadrupole moments (NQMom) in fm**2, nuclear magnetic moments (NMagM)
  in nuclear magnetons)

  Atom         1           2           3           4           5           6           7           8           9          10
 IAtWgt=          19          12          19          19          12          12          12         127          12          12
 AtmWgt=  18.9984032  12.0000000  18.9984032  18.9984032  12.0000000  12.0000000  12.0000000 126.9004000  12.0000000  12.0000000
 NucSpn=           1           0           1           1           0           0           0           5           0           0
 AtZEff=  -0.0000000  -0.0000000  -0.0000000  -0.0000000  -0.0000000  -0.0000000  -0.0000000  -0.0000000  -0.0000000  -0.0000000
 NQMom=    0.0000000   0.0000000   0.0000000   0.0000000   0.0000000   0.0000000   0.0000000 -71.0000000   0.0000000   0.0000000
 NMagM=    2.6288670   0.0000000   2.6288670   2.6288670   0.0000000   0.0000000   0.0000000   2.8132800   0.0000000   0.0000000
 AtZNuc=   9.0000000   6.0000000   9.0000000   9.0000000   6.0000000   6.0000000   6.0000000  53.0000000   6.0000000   6.0000000

  Atom        11          12          13          14          15          16          17          18
 IAtWgt=          12          19          19          19          12           1           1           1
 AtmWgt=  12.0000000  18.9984032  18.9984032  18.9984032  12.0000000   1.0078250   1.0078250   1.0078250
 NucSpn=           0           1           1           1           0           1           1           1
 AtZEff=  -0.0000000  -0.0000000  -0.0000000  -0.0000000  -0.0000000  -0.0000000  -0.0000000  -0.0000000
 NQMom=    0.0000000   0.0000000   0.0000000   0.0000000   0.0000000   0.0000000   0.0000000   0.0000000
 NMagM=    0.0000000   2.6288670   2.6288670   2.6288670   0.0000000   2.7928460   2.7928460   2.7928460
 AtZNuc=   6.0000000   9.0000000   9.0000000   9.0000000   6.0000000   1.0000000   1.0000000   1.0000000
 Leave Link  101 at Tue Sep 17 09:49:43 2024, MaxMem=  1342177280 cpu:               0.3 elap:               0.4
 (Enter /groups/ReismanLab/Software/Gaussian16_RevC/Linux_Binary_AVX2-enabled-CPU/g16/l103.exe)

 GradGradGradGradGradGradGradGradGradGradGradGradGradGradGradGradGradGrad
 Berny optimization.
 Initialization pass.
                           ----------------------------
                           !    Initial Parameters    !
                           ! (Angstroms and Degrees)  !
 --------------------------                            --------------------------
 ! Name  Definition              Value          Derivative Info.                !
 --------------------------------------------------------------------------------
 ! R1    R(1,2)                  1.3417         estimate D2E/DX2                !
 ! R2    R(2,3)                  1.335          estimate D2E/DX2                !
 ! R3    R(2,4)                  1.3435         estimate D2E/DX2                !
 ! R4    R(2,5)                  1.5078         estimate D2E/DX2                !
 ! R5    R(5,6)                  1.3883         estimate D2E/DX2                !
 ! R6    R(5,15)                 1.3871         estimate D2E/DX2                !
 ! R7    R(6,7)                  1.3848         estimate D2E/DX2                !
 ! R8    R(6,16)                 1.0797         estimate D2E/DX2                !
 ! R9    R(7,8)                  2.1014         estimate D2E/DX2                !
 ! R10   R(7,9)                  1.3847         estimate D2E/DX2                !
 ! R11   R(9,10)                 1.3884         estimate D2E/DX2                !
 ! R12   R(9,17)                 1.0796         estimate D2E/DX2                !
 ! R13   R(10,11)                1.5079         estimate D2E/DX2                !
 ! R14   R(10,15)                1.387          estimate D2E/DX2                !
 ! R15   R(11,12)                1.3428         estimate D2E/DX2                !
 ! R16   R(11,13)                1.3425         estimate D2E/DX2                !
 ! R17   R(11,14)                1.3348         estimate D2E/DX2                !
 ! R18   R(15,18)                1.0791         estimate D2E/DX2                !
 ! A1    A(1,2,3)              106.9522         estimate D2E/DX2                !
 ! A2    A(1,2,4)              106.3052         estimate D2E/DX2                !
 ! A3    A(1,2,5)              111.7513         estimate D2E/DX2                !
 ! A4    A(3,2,4)              106.8409         estimate D2E/DX2                !
 ! A5    A(3,2,5)              113.0959         estimate D2E/DX2                !
 ! A6    A(4,2,5)              111.4937         estimate D2E/DX2                !
 ! A7    A(2,5,6)              117.9686         estimate D2E/DX2                !
 ! A8    A(2,5,15)             120.7456         estimate D2E/DX2                !
 ! A9    A(6,5,15)             121.2822         estimate D2E/DX2                !
 ! A10   A(5,6,7)              119.1292         estimate D2E/DX2                !
 ! A11   A(5,6,16)             119.9578         estimate D2E/DX2                !
 ! A12   A(7,6,16)             120.9129         estimate D2E/DX2                !
 ! A13   A(6,7,8)              119.6167         estimate D2E/DX2                !
 ! A14   A(6,7,9)              120.7423         estimate D2E/DX2                !
 ! A15   A(8,7,9)              119.641          estimate D2E/DX2                !
 ! A16   A(7,9,10)             119.1341         estimate D2E/DX2                !
 ! A17   A(7,9,17)             120.9228         estimate D2E/DX2                !
 ! A18   A(10,9,17)            119.9431         estimate D2E/DX2                !
 ! A19   A(9,10,11)            117.8851         estimate D2E/DX2                !
 ! A20   A(9,10,15)            121.2777         estimate D2E/DX2                !
 ! A21   A(11,10,15)           120.837          estimate D2E/DX2                !
 ! A22   A(10,11,12)           111.578          estimate D2E/DX2                !
 ! A23   A(10,11,13)           111.6162         estimate D2E/DX2                !
 ! A24   A(10,11,14)           113.1424         estimate D2E/DX2                !
 ! A25   A(12,11,13)           106.295          estimate D2E/DX2                !
 ! A26   A(12,11,14)           106.8913         estimate D2E/DX2                !
 ! A27   A(13,11,14)           106.9157         estimate D2E/DX2                !
 ! A28   A(5,15,10)            118.4344         estimate D2E/DX2                !
 ! A29   A(5,15,18)            120.7793         estimate D2E/DX2                !
 ! A30   A(10,15,18)           120.7863         estimate D2E/DX2                !
 ! D1    D(1,2,5,6)            -52.4748         estimate D2E/DX2                !
 ! D2    D(1,2,5,15)           128.2095         estimate D2E/DX2                !
 ! D3    D(3,2,5,6)           -173.2336         estimate D2E/DX2                !
 ! D4    D(3,2,5,15)             7.4507         estimate D2E/DX2                !
 ! D5    D(4,2,5,6)             66.3402         estimate D2E/DX2                !
 ! D6    D(4,2,5,15)          -112.9756         estimate D2E/DX2                !
 ! D7    D(2,5,6,7)           -179.4296         estimate D2E/DX2                !
 ! D8    D(2,5,6,16)             0.6905         estimate D2E/DX2                !
 ! D9    D(15,5,6,7)            -0.1177         estimate D2E/DX2                !
 ! D10   D(15,5,6,16)         -179.9976         estimate D2E/DX2                !
 ! D11   D(2,5,15,10)          179.388          estimate D2E/DX2                !
 ! D12   D(2,5,15,18)           -0.7138         estimate D2E/DX2                !
 ! D13   D(6,5,15,10)            0.0952         estimate D2E/DX2                !
 ! D14   D(6,5,15,18)          179.9934         estimate D2E/DX2                !
 ! D15   D(5,6,7,8)            179.9987         estimate D2E/DX2                !
 ! D16   D(5,6,7,9)              0.0755         estimate D2E/DX2                !
 ! D17   D(16,6,7,8)            -0.1226         estimate D2E/DX2                !
 ! D18   D(16,6,7,9)           179.9543         estimate D2E/DX2                !
 ! D19   D(6,7,9,10)            -0.0133         estimate D2E/DX2                !
 ! D20   D(6,7,9,17)           179.9553         estimate D2E/DX2                !
 ! D21   D(8,7,9,10)          -179.9364         estimate D2E/DX2                !
 ! D22   D(8,7,9,17)             0.0321         estimate D2E/DX2                !
 ! D23   D(7,9,10,11)         -179.8784         estimate D2E/DX2                !
 ! D24   D(7,9,10,15)           -0.0093         estimate D2E/DX2                !
 ! D25   D(17,9,10,11)           0.1527         estimate D2E/DX2                !
 ! D26   D(17,9,10,15)        -179.9782         estimate D2E/DX2                !
 ! D27   D(9,10,11,12)          61.0072         estimate D2E/DX2                !
 ! D28   D(9,10,11,13)         -57.7609         estimate D2E/DX2                !
 ! D29   D(9,10,11,14)        -178.4067         estimate D2E/DX2                !
 ! D30   D(15,10,11,12)       -118.8624         estimate D2E/DX2                !
 ! D31   D(15,10,11,13)        122.3694         estimate D2E/DX2                !
 ! D32   D(15,10,11,14)          1.7237         estimate D2E/DX2                !
 ! D33   D(9,10,15,5)           -0.0309         estimate D2E/DX2                !
 ! D34   D(9,10,15,18)        -179.9291         estimate D2E/DX2                !
 ! D35   D(11,10,15,5)         179.8343         estimate D2E/DX2                !
 ! D36   D(11,10,15,18)         -0.0639         estimate D2E/DX2                !
 --------------------------------------------------------------------------------
 Trust Radius=3.00D-01 FncErr=1.00D-07 GrdErr=1.00D-06 EigMax=2.50D+02 EigMin=1.00D-04
 Number of steps in this run=     94 maximum allowed number of steps=    108.
 GradGradGradGradGradGradGradGradGradGradGradGradGradGradGradGradGradGrad

 Leave Link  103 at Tue Sep 17 09:49:43 2024, MaxMem=  1342177280 cpu:               0.1 elap:               0.0
 (Enter /groups/ReismanLab/Software/Gaussian16_RevC/Linux_Binary_AVX2-enabled-CPU/g16/l202.exe)
                          Input orientation:                          
 ---------------------------------------------------------------------
 Center     Atomic      Atomic             Coordinates (Angstroms)
 Number     Number       Type             X           Y           Z
 ---------------------------------------------------------------------
      1          9           0        1.813367    3.310015   -0.650063
      2          6           0        2.022290    2.515532    0.410717
      3          9           0        3.344226    2.392905    0.550837
      4          9           0        1.578443    3.193031    1.482630
      5          6           0        1.317620    1.190581    0.263912
      6          6           0       -0.038900    1.203759   -0.031263
      7          6           0       -0.712539    0.000728   -0.159592
      8         53           0       -2.765986    0.002800   -0.606105
      9          6           0       -0.048622   -1.203286    0.004552
     10          6           0        1.307808   -1.192351    0.300676
     11          6           0        2.003236   -2.519421    0.470762
     12          9           0        1.942771   -3.255929   -0.650423
     13          9           0        1.432643   -3.256552    1.436910
     14          9           0        3.294626   -2.398360    0.786108
     15          6           0        2.006151   -0.001483    0.434115
     16          1           0       -0.553665    2.144112   -0.159397
     17          1           0       -0.571088   -2.142884   -0.094135
     18          1           0        3.060624   -0.002257    0.663294
 ---------------------------------------------------------------------
                    Distance matrix (angstroms):
                    1          2          3          4          5
     1  F    0.000000
     2  C    1.341681   0.000000
     3  F    2.150995   1.334985   0.000000
     4  F    2.148780   1.343504   2.150914   0.000000
     5  C    2.360744   1.507848   2.373824   2.358625   0.000000
     6  C    2.872302   2.482860   3.632966   2.977394   1.388326
     7  C    4.191913   3.758826   4.762831   4.258673   2.390952
     8  I    5.648900   5.502303   6.662267   5.780524   4.340921
     9  C    4.925993   4.275892   4.974176   4.915248   2.768480
    10  C    4.629341   3.777697   4.130816   4.549928   2.383236
    11  C    5.939244   5.035347   5.092701   5.816910   3.778488
    12  F    6.567220   5.868740   5.942763   6.802334   4.582388
    13  F    6.900740   5.892174   6.029564   6.451393   4.600668
    14  F    6.069783   5.089803   4.797295   5.890169   4.130586
    15  C    3.489789   2.517175   2.745389   3.389283   1.387105
    16  H    2.683826   2.664305   3.969871   2.888316   2.142456
    17  H    5.977356   5.355495   6.026529   5.964786   3.848040
    18  H    3.775142   2.735177   2.414513   3.616357   2.149519
                    6          7          8          9         10
     6  C    0.000000
     7  C    1.384753   0.000000
     8  I    3.034757   2.101434   0.000000
     9  C    2.407331   1.384694   3.035063   0.000000
    10  C    2.768601   2.391043   4.341248   1.388421   0.000000
    11  C    4.276028   3.758182   5.501520   2.481871   1.507867
    12  F    4.919268   4.230532   5.726576   2.933937   2.359263
    13  F    4.920909   4.214321   5.694363   2.908900   2.359562
    14  F    4.975515   4.765222   6.665946   3.635429   2.374352
    15  C    2.418970   2.782762   4.884196   2.418873   1.386960
    16  H    1.079660   2.149264   3.111131   3.389250   3.848212
    17  H    3.389277   2.149272   3.111856   1.079609   2.142344
    18  H    3.397636   3.861853   5.963287   3.397621   2.149461
                   11         12         13         14         15
    11  C    0.000000
    12  F    1.342816   0.000000
    13  F    1.342528   2.148765   0.000000
    14  F    1.334836   2.150943   2.151050   0.000000
    15  C    2.518206   3.430986   3.453981   2.743919   0.000000
    16  H    5.355686   5.969401   5.971665   6.028049   3.392416
    17  H    2.662336   2.804962   2.756682   3.972888   3.392169
    18  H    2.737016   3.682640   3.720114   2.410633   1.079091
                   16         17         18
    16  H    0.000000
    17  H    4.287528   0.000000
    18  H    4.283317   4.283144   0.000000
 Stoichiometry    C8H3F6I
 Framework group  C1[X(C8H3F6I)]
 Deg. of freedom    48
 Full point group                 C1      NOp   1
 Largest Abelian subgroup         C1      NOp   1
 Largest concise Abelian subgroup C1      NOp   1
                         Standard orientation:                         
 ---------------------------------------------------------------------
 Center     Atomic      Atomic             Coordinates (Angstroms)
 Number     Number       Type             X           Y           Z
 ---------------------------------------------------------------------
      1          9           0       -1.480729   -3.322805   -0.983571
      2          6           0       -1.912347   -2.516711   -0.001723
      3          9           0       -3.233671   -2.396420   -0.149433
      4          9           0       -1.708083   -3.180414    1.148397
      5          6           0       -1.193167   -1.191450   -0.010049
      6          6           0        0.195100   -1.203993   -0.007688
      7          6           0        0.880065   -0.000522   -0.003154
      8         53           0        2.981496   -0.001630    0.000510
      9          6           0        0.195872    1.203323    0.000589
     10          6           0       -1.192500    1.191767   -0.000537
     11          6           0       -1.908800    2.518634    0.000789
     12          9           0       -1.609928    3.242278   -1.090161
     13          9           0       -1.558697    3.268614    1.057832
     14          9           0       -3.237710    2.397376    0.033683
     15          6           0       -1.902696    0.000443   -0.005516
     16          1           0        0.725774   -2.144225   -0.011353
     17          1           0        0.726939    2.143273    0.004851
     18          1           0       -2.981785    0.000720   -0.007503
 ---------------------------------------------------------------------
 Rotational constants (GHZ):           0.3768998           0.2547464           0.1604738
 Leave Link  202 at Tue Sep 17 09:49:43 2024, MaxMem=  1342177280 cpu:               0.1 elap:               0.0
 (Enter /groups/ReismanLab/Software/Gaussian16_RevC/Linux_Binary_AVX2-enabled-CPU/g16/l301.exe)
 General basis read from cards:  (5D, 7F)
 Centers:       2      5      6      7      9     10     11     15      1      3
 Centers:       4     12     13     14     16     17     18
 6-31G(d,p)
 ****
 Centers:       8
 LANL2DZ
 ****
 ======================================================================================================
                                       Pseudopotential Parameters
 ======================================================================================================
  Center     Atomic      Valence      Angular      Power
  Number     Number     Electrons     Momentum     of R      Exponent        Coefficient   SO-Coeffient
 ======================================================================================================
    1          9
                                   No pseudopotential on this center.
    2          6
                                   No pseudopotential on this center.
    3          9
                                   No pseudopotential on this center.
    4          9
                                   No pseudopotential on this center.
    5          6
                                   No pseudopotential on this center.
    6          6
                                   No pseudopotential on this center.
    7          6
                                   No pseudopotential on this center.
    8         53            7
                                      F and up 
                                                     0        1.0715702       -0.07476210    0.00000000
                                                     1       44.1936028      -30.08112240    0.00000000
                                                     2       12.9367609      -75.37227210    0.00000000
                                                     2        3.1956412      -22.05637580    0.00000000
                                                     2        0.8589806       -1.69795850    0.00000000
                                      S - F
                                                     0      127.9202670        2.93800360    0.00000000
                                                     1       78.6211465       41.24712670    0.00000000
                                                     2       36.5146237      287.86800950    0.00000000
                                                     2        9.9065681      114.37585060    0.00000000
                                                     2        1.9420086       37.65477140    0.00000000
                                      P - F
                                                     0       13.0035304        2.22226300    0.00000000
                                                     1       76.0331404       39.40908310    0.00000000
                                                     2       24.1961684      177.40750020    0.00000000
                                                     2        6.4053433       77.98894620    0.00000000
                                                     2        1.5851786       25.75476410    0.00000000
                                      D - F
                                                     0       40.4278108        7.05243600    0.00000000
                                                     1       28.9084375       33.30416350    0.00000000
                                                     2       15.6268936      186.94538750    0.00000000
                                                     2        4.1442856       71.96883610    0.00000000
                                                     2        0.9377235        9.36306570    0.00000000
    9          6
                                   No pseudopotential on this center.
   10          6
                                   No pseudopotential on this center.
   11          6
                                   No pseudopotential on this center.
   12          9
                                   No pseudopotential on this center.
   13          9
                                   No pseudopotential on this center.
   14          9
                                   No pseudopotential on this center.
   15          6
                                   No pseudopotential on this center.
   16          1
                                   No pseudopotential on this center.
   17          1
                                   No pseudopotential on this center.
   18          1
                                   No pseudopotential on this center.
 ======================================================================================================
 Ernie: Thresh=  0.10000D-02 Tol=  0.10000D-05 Strict=F.
 There are   233 symmetry adapted cartesian basis functions of A   symmetry.
 There are   219 symmetry adapted basis functions of A   symmetry.
   219 basis functions,   425 primitive gaussians,   233 cartesian basis functions
    56 alpha electrons       56 beta electrons
       nuclear repulsion energy      1014.3078917796 Hartrees.
 IExCor=  402 DFT=T Ex+Corr=B3LYP ExCW=0 ScaHFX=  0.200000
 ScaDFX=  0.800000  0.720000  1.000000  0.810000 ScalE2=  1.000000  1.000000
 IRadAn=      5 IRanWt=     -1 IRanGd=            0 ICorTp=0 IEmpDi=141
 NAtoms=   18 NActive=   18 NUniq=   18 SFac= 1.00D+00 NAtFMM=   60 NAOKFM=F Big=F
 Integral buffers will be    131072 words long.
 Raffenetti 2 integral format.
 Two-electron integral symmetry is turned on.
 R6Disp:  Grimme-D3(BJ) Dispersion energy=       -0.0384093750 Hartrees.
 Nuclear repulsion after empirical dispersion term =     1014.2694824045 Hartrees.
 Leave Link  301 at Tue Sep 17 09:49:43 2024, MaxMem=  1342177280 cpu:               0.1 elap:               0.1
 (Enter /groups/ReismanLab/Software/Gaussian16_RevC/Linux_Binary_AVX2-enabled-CPU/g16/l302.exe)
 NPDir=0 NMtPBC=     1 NCelOv=     1 NCel=       1 NClECP=     1 NCelD=      1
         NCelK=      1 NCelE2=     1 NClLst=     1 CellRange=     0.0.
 One-electron integrals computed using PRISM.
 One-electron integral symmetry used in STVInt
   1 Symmetry operations used in ECPInt.
 ECPInt:  NShTT=    2415 NPrTT=   15663 LenC2=    2208 LenP2D=    8907.
 LDataN:  DoStor=T MaxTD1= 5 Len=  102
 NBasis=   219 RedAO= T EigKep=  4.23D-04  NBF=   219
 NBsUse=   219 1.00D-06 EigRej= -1.00D+00 NBFU=   219
 Precomputing XC quadrature grid using
 IXCGrd= 4 IRadAn=           5 IRanWt=          -1 IRanGd=           0 AccXCQ= 0.00D+00.
 Defaulting to unpruned grid for atomic number  53.
 Generated NRdTot=       0 NPtTot=           0 NUsed=           0 NTot=          32
 NSgBfM=   233   233   233   233   233 MxSgAt=    18 MxSgA2=    18.
 Leave Link  302 at Tue Sep 17 09:49:43 2024, MaxMem=  1342177280 cpu:               1.3 elap:               0.2
 (Enter /groups/ReismanLab/Software/Gaussian16_RevC/Linux_Binary_AVX2-enabled-CPU/g16/l303.exe)
 DipDrv:  MaxL=1.
 Leave Link  303 at Tue Sep 17 09:49:43 2024, MaxMem=  1342177280 cpu:               0.1 elap:               0.1
 (Enter /groups/ReismanLab/Software/Gaussian16_RevC/Linux_Binary_AVX2-enabled-CPU/g16/l401.exe)
 ExpMin= 1.05D-01 ExpMax= 7.00D+03 ExpMxC= 1.05D+03 IAcc=3 IRadAn=         5 AccDes= 0.00D+00
 Harris functional with IExCor=  402 and IRadAn=       5 diagonalized for initial guess.
 HarFok:  IExCor=  402 AccDes= 0.00D+00 IRadAn=         5 IDoV= 1 UseB2=F ITyADJ=14
 ICtDFT=  3500011 ScaDFX=  1.000000  1.000000  1.000000  1.000000
 Defaulting to unpruned grid for atomic number  53.
 FoFCou: FMM=F IPFlag=           0 FMFlag=      100000 FMFlg1=           0
         NFxFlg=           0 DoJE=T BraDBF=F KetDBF=T FulRan=T
         wScrn=  0.000000 ICntrl=       500 IOpCl=  0 I1Cent=   200000004 NGrid=           0
         NMat0=    1 NMatS0=      1 NMatT0=    0 NMatD0=    1 NMtDS0=    0 NMtDT0=    0
 Petite list used in FoFCou.
 Harris En= -917.001096112497    
 JPrj=0 DoOrth=F DoCkMO=F.
 Leave Link  401 at Tue Sep 17 09:49:44 2024, MaxMem=  1342177280 cpu:               5.2 elap:               0.7
 (Enter /groups/ReismanLab/Software/Gaussian16_RevC/Linux_Binary_AVX2-enabled-CPU/g16/l502.exe)
 Integral symmetry usage will be decided dynamically.
 Closed shell SCF:
 Using DIIS extrapolation, IDIIS=  1040.
 NGot=  1342177280 LenX=  1342064014 LenY=  1342009284
 Requested convergence on RMS density matrix=1.00D-08 within  32 cycles.
 Requested convergence on MAX density matrix=1.00D-06.
 Requested convergence on             energy=1.00D-06.
 No special actions if energy rises.
 Fock matrices will be formed incrementally for  20 cycles.
 Integral accuracy reduced to 1.0D-05 until final iterations.

 Cycle   1  Pass 0  IDiag  1:
 FoFJK:  IHMeth= 1 ICntrl=       0 DoSepK=F KAlg= 0 I1Cent=           0 FoldK=F
 IRaf= 850000000 NMat=       1 IRICut=       1 DoRegI=T DoRafI=F ISym2E= 0 IDoP0=0 IntGTp=1.
 FoFCou: FMM=F IPFlag=           0 FMFlag=      100000 FMFlg1=           0
         NFxFlg=           0 DoJE=F BraDBF=F KetDBF=F FulRan=T
         wScrn=  0.000000 ICntrl=         0 IOpCl=  0 I1Cent=           0 NGrid=           0
         NMat0=    1 NMatS0=      1 NMatT0=    0 NMatD0=    1 NMtDS0=    0 NMtDT0=    0
 Symmetry not used in FoFCou.
 Defaulting to unpruned grid for atomic number  53.
 Defaulting to unpruned grid for atomic number  53.
 Defaulting to unpruned grid for atomic number  53.
 Defaulting to unpruned grid for atomic number  53.
 Defaulting to unpruned grid for atomic number  53.
 Defaulting to unpruned grid for atomic number  53.
 Defaulting to unpruned grid for atomic number  53.
 Defaulting to unpruned grid for atomic number  53.
 E= -916.886641704377    
 DIIS: error= 2.98D-02 at cycle   1 NSaved=   1.
 NSaved= 1 IEnMin= 1 EnMin= -916.886641704377     IErMin= 1 ErrMin= 2.98D-02
 ErrMax= 2.98D-02  0.00D+00 EMaxC= 1.00D-01 BMatC= 2.91D-01 BMatP= 2.91D-01
 IDIUse=3 WtCom= 7.02D-01 WtEn= 2.98D-01
 Coeff-Com:  0.100D+01
 Coeff-En:   0.100D+01
 Coeff:      0.100D+01
 Gap=     0.305 Goal=   None    Shift=    0.000
 GapD=    0.305 DampG=1.000 DampE=0.500 DampFc=0.5000 IDamp=-1.
 Damping current iteration by 5.00D-01
 RMSDP=4.44D-03 MaxDP=1.16D-01              OVMax= 1.71D-01

 Cycle   2  Pass 0  IDiag  1:
 RMSU=  2.21D-03    CP:  9.91D-01
 E= -916.972810173328     Delta-E=       -0.086168468951 Rises=F Damp=T
 DIIS: error= 5.53D-03 at cycle   2 NSaved=   2.
 NSaved= 2 IEnMin= 2 EnMin= -916.972810173328     IErMin= 2 ErrMin= 5.53D-03
 ErrMax= 5.53D-03  0.00D+00 EMaxC= 1.00D-01 BMatC= 1.88D-02 BMatP= 2.91D-01
 IDIUse=3 WtCom= 9.45D-01 WtEn= 5.53D-02
 Coeff-Com:  0.150D+00 0.850D+00
 Coeff-En:   0.266D+00 0.734D+00
 Coeff:      0.157D+00 0.843D+00
 Gap=     0.230 Goal=   None    Shift=    0.000
 RMSDP=1.35D-03 MaxDP=3.26D-02 DE=-8.62D-02 OVMax= 1.24D-01

 Cycle   3  Pass 0  IDiag  1:
 RMSU=  1.28D-03    CP:  9.89D-01  8.06D-01
 E= -917.121213212552     Delta-E=       -0.148403039224 Rises=F Damp=F
 DIIS: error= 5.37D-03 at cycle   3 NSaved=   3.
 NSaved= 3 IEnMin= 3 EnMin= -917.121213212552     IErMin= 3 ErrMin= 5.37D-03
 ErrMax= 5.37D-03  0.00D+00 EMaxC= 1.00D-01 BMatC= 5.67D-03 BMatP= 1.88D-02
 IDIUse=3 WtCom= 9.46D-01 WtEn= 5.37D-02
 Coeff-Com:  0.266D-01 0.354D+00 0.620D+00
 Coeff-En:   0.000D+00 0.000D+00 0.100D+01
 Coeff:      0.252D-01 0.335D+00 0.640D+00
 Gap=     0.200 Goal=   None    Shift=    0.000
 RMSDP=6.28D-04 MaxDP=2.01D-02 DE=-1.48D-01 OVMax= 4.88D-02

 Cycle   4  Pass 0  IDiag  1:
 RMSU=  5.16D-04    CP:  9.88D-01  8.52D-01  7.31D-01
 E= -917.123560343203     Delta-E=       -0.002347130651 Rises=F Damp=F
 DIIS: error= 5.24D-03 at cycle   4 NSaved=   4.
 NSaved= 4 IEnMin= 4 EnMin= -917.123560343203     IErMin= 4 ErrMin= 5.24D-03
 ErrMax= 5.24D-03  0.00D+00 EMaxC= 1.00D-01 BMatC= 3.02D-03 BMatP= 5.67D-03
 IDIUse=3 WtCom= 9.48D-01 WtEn= 5.24D-02
 Coeff-Com: -0.518D-02 0.107D+00 0.434D+00 0.465D+00
 Coeff-En:   0.000D+00 0.000D+00 0.392D+00 0.608D+00
 Coeff:     -0.491D-02 0.101D+00 0.431D+00 0.473D+00
 Gap=     0.205 Goal=   None    Shift=    0.000
 RMSDP=3.21D-04 MaxDP=1.24D-02 DE=-2.35D-03 OVMax= 2.39D-02

 Cycle   5  Pass 0  IDiag  1:
 RMSU=  1.18D-04    CP:  9.88D-01  8.44D-01  8.25D-01  4.71D-01
 E= -917.126845020664     Delta-E=       -0.003284677461 Rises=F Damp=F
 DIIS: error= 1.01D-03 at cycle   5 NSaved=   5.
 NSaved= 5 IEnMin= 5 EnMin= -917.126845020664     IErMin= 5 ErrMin= 1.01D-03
 ErrMax= 1.01D-03  0.00D+00 EMaxC= 1.00D-01 BMatC= 1.16D-04 BMatP= 3.02D-03
 IDIUse=3 WtCom= 9.90D-01 WtEn= 1.01D-02
 Coeff-Com: -0.440D-02 0.199D-01 0.149D+00 0.234D+00 0.602D+00
 Coeff-En:   0.000D+00 0.000D+00 0.000D+00 0.000D+00 0.100D+01
 Coeff:     -0.435D-02 0.197D-01 0.148D+00 0.231D+00 0.606D+00
 Gap=     0.206 Goal=   None    Shift=    0.000
 RMSDP=7.61D-05 MaxDP=2.11D-03 DE=-3.28D-03 OVMax= 4.74D-03

 Cycle   6  Pass 0  IDiag  1:
 RMSU=  4.89D-05    CP:  9.88D-01  8.54D-01  8.08D-01  5.28D-01  6.72D-01
 E= -917.126957568296     Delta-E=       -0.000112547632 Rises=F Damp=F
 DIIS: error= 3.38D-04 at cycle   6 NSaved=   6.
 NSaved= 6 IEnMin= 6 EnMin= -917.126957568296     IErMin= 6 ErrMin= 3.38D-04
 ErrMax= 3.38D-04  0.00D+00 EMaxC= 1.00D-01 BMatC= 1.76D-05 BMatP= 1.16D-04
 IDIUse=3 WtCom= 9.97D-01 WtEn= 3.38D-03
 Coeff-Com: -0.214D-02 0.212D-02 0.450D-01 0.889D-01 0.350D+00 0.517D+00
 Coeff-En:   0.000D+00 0.000D+00 0.000D+00 0.000D+00 0.898D-01 0.910D+00
 Coeff:     -0.214D-02 0.211D-02 0.448D-01 0.886D-01 0.349D+00 0.518D+00
 Gap=     0.206 Goal=   None    Shift=    0.000
 RMSDP=2.47D-05 MaxDP=6.68D-04 DE=-1.13D-04 OVMax= 1.19D-03

 Cycle   7  Pass 0  IDiag  1:
 RMSU=  7.84D-06    CP:  9.88D-01  8.51D-01  8.16D-01  5.27D-01  7.18D-01
                    CP:  6.21D-01
 E= -917.126975338242     Delta-E=       -0.000017769946 Rises=F Damp=F
 DIIS: error= 2.60D-05 at cycle   7 NSaved=   7.
 NSaved= 7 IEnMin= 7 EnMin= -917.126975338242     IErMin= 7 ErrMin= 2.60D-05
 ErrMax= 2.60D-05  0.00D+00 EMaxC= 1.00D-01 BMatC= 2.55D-07 BMatP= 1.76D-05
 IDIUse=1 WtCom= 1.00D+00 WtEn= 0.00D+00
 Coeff-Com: -0.637D-03-0.598D-03 0.864D-02 0.225D-01 0.105D+00 0.191D+00
 Coeff-Com:  0.674D+00
 Coeff:     -0.637D-03-0.598D-03 0.864D-02 0.225D-01 0.105D+00 0.191D+00
 Coeff:      0.674D+00
 Gap=     0.206 Goal=   None    Shift=    0.000
 RMSDP=3.09D-06 MaxDP=7.26D-05 DE=-1.78D-05 OVMax= 9.99D-05

 Initial convergence to 1.0D-05 achieved.  Increase integral accuracy.
 Cycle   8  Pass 1  IDiag  1:
 E= -917.127084017362     Delta-E=       -0.000108679119 Rises=F Damp=F
 DIIS: error= 2.96D-05 at cycle   1 NSaved=   1.
 NSaved= 1 IEnMin= 1 EnMin= -917.127084017362     IErMin= 1 ErrMin= 2.96D-05
 ErrMax= 2.96D-05  0.00D+00 EMaxC= 1.00D-01 BMatC= 5.90D-08 BMatP= 5.90D-08
 IDIUse=1 WtCom= 1.00D+00 WtEn= 0.00D+00
 Coeff-Com:  0.100D+01
 Coeff:      0.100D+01
 Gap=     0.206 Goal=   None    Shift=    0.000
 RMSDP=3.09D-06 MaxDP=7.26D-05 DE=-1.09D-04 OVMax= 1.25D-04

 Cycle   9  Pass 1  IDiag  1:
 RMSU=  5.96D-06    CP:  1.00D+00
 E= -917.127084054724     Delta-E=       -0.000000037363 Rises=F Damp=F
 DIIS: error= 7.60D-06 at cycle   2 NSaved=   2.
 NSaved= 2 IEnMin= 2 EnMin= -917.127084054724     IErMin= 2 ErrMin= 7.60D-06
 ErrMax= 7.60D-06  0.00D+00 EMaxC= 1.00D-01 BMatC= 1.93D-08 BMatP= 5.90D-08
 IDIUse=1 WtCom= 1.00D+00 WtEn= 0.00D+00
 Coeff-Com:  0.320D+00 0.680D+00
 Coeff:      0.320D+00 0.680D+00
 Gap=     0.206 Goal=   None    Shift=    0.000
 RMSDP=1.03D-06 MaxDP=3.69D-05 DE=-3.74D-08 OVMax= 4.76D-05

 Cycle  10  Pass 1  IDiag  1:
 RMSU=  1.01D-06    CP:  1.00D+00  9.65D-01
 E= -917.127084065322     Delta-E=       -0.000000010598 Rises=F Damp=F
 DIIS: error= 4.47D-06 at cycle   3 NSaved=   3.
 NSaved= 3 IEnMin= 3 EnMin= -917.127084065322     IErMin= 3 ErrMin= 4.47D-06
 ErrMax= 4.47D-06  0.00D+00 EMaxC= 1.00D-01 BMatC= 7.78D-09 BMatP= 1.93D-08
 IDIUse=1 WtCom= 1.00D+00 WtEn= 0.00D+00
 Coeff-Com:  0.376D-01 0.387D+00 0.576D+00
 Coeff:      0.376D-01 0.387D+00 0.576D+00
 Gap=     0.206 Goal=   None    Shift=    0.000
 RMSDP=4.65D-07 MaxDP=9.99D-06 DE=-1.06D-08 OVMax= 3.62D-05

 Cycle  11  Pass 1  IDiag  1:
 RMSU=  3.35D-07    CP:  1.00D+00  9.82D-01  6.97D-01
 E= -917.127084070560     Delta-E=       -0.000000005238 Rises=F Damp=F
 DIIS: error= 2.50D-06 at cycle   4 NSaved=   4.
 NSaved= 4 IEnMin= 4 EnMin= -917.127084070560     IErMin= 4 ErrMin= 2.50D-06
 ErrMax= 2.50D-06  0.00D+00 EMaxC= 1.00D-01 BMatC= 7.65D-10 BMatP= 7.78D-09
 IDIUse=1 WtCom= 1.00D+00 WtEn= 0.00D+00
 Coeff-Com:  0.364D-04 0.178D+00 0.336D+00 0.486D+00
 Coeff:      0.364D-04 0.178D+00 0.336D+00 0.486D+00
 Gap=     0.206 Goal=   None    Shift=    0.000
 RMSDP=1.95D-07 MaxDP=6.57D-06 DE=-5.24D-09 OVMax= 1.38D-05

 Cycle  12  Pass 1  IDiag  1:
 RMSU=  8.73D-08    CP:  1.00D+00  9.82D-01  7.14D-01  4.82D-01
 E= -917.127084071379     Delta-E=       -0.000000000819 Rises=F Damp=F
 DIIS: error= 8.06D-07 at cycle   5 NSaved=   5.
 NSaved= 5 IEnMin= 5 EnMin= -917.127084071379     IErMin= 5 ErrMin= 8.06D-07
 ErrMax= 8.06D-07  0.00D+00 EMaxC= 1.00D-01 BMatC= 8.58D-11 BMatP= 7.65D-10
 IDIUse=1 WtCom= 1.00D+00 WtEn= 0.00D+00
 Coeff-Com: -0.314D-02 0.855D-01 0.173D+00 0.314D+00 0.431D+00
 Coeff:     -0.314D-02 0.855D-01 0.173D+00 0.314D+00 0.431D+00
 Gap=     0.206 Goal=   None    Shift=    0.000
 RMSDP=4.87D-08 MaxDP=1.64D-06 DE=-8.19D-10 OVMax= 2.81D-06

 Cycle  13  Pass 1  IDiag  1:
 RMSU=  2.88D-08    CP:  1.00D+00  9.84D-01  7.01D-01  5.35D-01  6.44D-01
 E= -917.127084071453     Delta-E=       -0.000000000073 Rises=F Damp=F
 DIIS: error= 6.49D-08 at cycle   6 NSaved=   6.
 NSaved= 6 IEnMin= 6 EnMin= -917.127084071453     IErMin= 6 ErrMin= 6.49D-08
 ErrMax= 6.49D-08  0.00D+00 EMaxC= 1.00D-01 BMatC= 1.56D-12 BMatP= 8.58D-11
 IDIUse=1 WtCom= 1.00D+00 WtEn= 0.00D+00
 Coeff-Com: -0.120D-02 0.177D-01 0.373D-01 0.839D-01 0.159D+00 0.704D+00
 Coeff:     -0.120D-02 0.177D-01 0.373D-01 0.839D-01 0.159D+00 0.704D+00
 Gap=     0.206 Goal=   None    Shift=    0.000
 RMSDP=7.40D-09 MaxDP=2.96D-07 DE=-7.34D-11 OVMax= 2.97D-07

 SCF Done:  E(RB3LYP) =  -917.127084071     A.U. after   13 cycles
            NFock= 13  Conv=0.74D-08     -V/T= 2.0142
 KE= 9.042738568270D+02 PE=-4.189676592940D+03 EE= 1.354006169637D+03
 Leave Link  502 at Tue Sep 17 09:49:52 2024, MaxMem=  1342177280 cpu:              64.1 elap:               8.3
 (Enter /groups/ReismanLab/Software/Gaussian16_RevC/Linux_Binary_AVX2-enabled-CPU/g16/l508.exe)
 QCSCF skips out because SCF is already converged.
 Leave Link  508 at Tue Sep 17 09:49:52 2024, MaxMem=  1342177280 cpu:               0.0 elap:               0.0
 (Enter /groups/ReismanLab/Software/Gaussian16_RevC/Linux_Binary_AVX2-enabled-CPU/g16/l601.exe)
 Copying SCF densities to generalized density rwf, IOpCl= 0 IROHF=0.

 **********************************************************************

            Population analysis using the SCF Density.

 **********************************************************************

 Orbital symmetries:
       Occupied  (A) (A) (A) (A) (A) (A) (A) (A) (A) (A) (A) (A)
                 (A) (A) (A) (A) (A) (A) (A) (A) (A) (A) (A) (A)
                 (A) (A) (A) (A) (A) (A) (A) (A) (A) (A) (A) (A)
                 (A) (A) (A) (A) (A) (A) (A) (A) (A) (A) (A) (A)
                 (A) (A) (A) (A) (A) (A) (A) (A)
       Virtual   (A) (A) (A) (A) (A) (A) (A) (A) (A) (A) (A) (A)
                 (A) (A) (A) (A) (A) (A) (A) (A) (A) (A) (A) (A)
                 (A) (A) (A) (A) (A) (A) (A) (A) (A) (A) (A) (A)
                 (A) (A) (A) (A) (A) (A) (A) (A) (A) (A) (A) (A)
                 (A) (A) (A) (A) (A) (A) (A) (A) (A) (A) (A) (A)
                 (A) (A) (A) (A) (A) (A) (A) (A) (A) (A) (A) (A)
                 (A) (A) (A) (A) (A) (A) (A) (A) (A) (A) (A) (A)
                 (A) (A) (A) (A) (A) (A) (A) (A) (A) (A) (A) (A)
                 (A) (A) (A) (A) (A) (A) (A) (A) (A) (A) (A) (A)
                 (A) (A) (A) (A) (A) (A) (A) (A) (A) (A) (A) (A)
                 (A) (A) (A) (A) (A) (A) (A) (A) (A) (A) (A) (A)
                 (A) (A) (A) (A) (A) (A) (A) (A) (A) (A) (A) (A)
                 (A) (A) (A) (A) (A) (A) (A) (A) (A) (A) (A) (A)
                 (A) (A) (A) (A) (A) (A) (A)
 The electronic state is 1-A.
 Alpha  occ. eigenvalues --  -24.73559 -24.73545 -24.72878 -24.72778 -24.72727
 Alpha  occ. eigenvalues --  -24.72644 -10.44325 -10.44325 -10.26511 -10.23787
 Alpha  occ. eigenvalues --  -10.23785 -10.23342 -10.23340 -10.23068  -1.32116
 Alpha  occ. eigenvalues --   -1.32114  -1.23175  -1.23170  -1.22494  -1.22493
 Alpha  occ. eigenvalues --   -0.91571  -0.82623  -0.81594  -0.72284  -0.71781
 Alpha  occ. eigenvalues --   -0.70858  -0.65226  -0.64320  -0.59972  -0.59745
 Alpha  occ. eigenvalues --   -0.59441  -0.59380  -0.58070  -0.54421  -0.53409
 Alpha  occ. eigenvalues --   -0.50571  -0.47128  -0.47025  -0.46855  -0.46834
 Alpha  occ. eigenvalues --   -0.44712  -0.43866  -0.43327  -0.43049  -0.42638
 Alpha  occ. eigenvalues --   -0.42505  -0.42034  -0.40859  -0.40809  -0.40803
 Alpha  occ. eigenvalues --   -0.37671  -0.36793  -0.32597  -0.29770  -0.28648
 Alpha  occ. eigenvalues --   -0.26469
 Alpha virt. eigenvalues --   -0.05903  -0.04761  -0.04674   0.08693   0.10452
 Alpha virt. eigenvalues --    0.12609   0.13489   0.14742   0.15448   0.20410
 Alpha virt. eigenvalues --    0.21156   0.21850   0.22246   0.24314   0.25840
 Alpha virt. eigenvalues --    0.25946   0.26132   0.32485   0.33682   0.35634
 Alpha virt. eigenvalues --    0.37231   0.41833   0.43578   0.45818   0.45879
 Alpha virt. eigenvalues --    0.47038   0.49459   0.50175   0.51805   0.52150
 Alpha virt. eigenvalues --    0.55037   0.56166   0.57507   0.58433   0.60362
 Alpha virt. eigenvalues --    0.60744   0.62743   0.64906   0.66781   0.70868
 Alpha virt. eigenvalues --    0.71778   0.73447   0.73826   0.77068   0.79233
 Alpha virt. eigenvalues --    0.81226   0.88336   0.91205   0.92701   0.99322
 Alpha virt. eigenvalues --    1.03226   1.04788   1.06088   1.07532   1.09013
 Alpha virt. eigenvalues --    1.10947   1.12543   1.14213   1.15565   1.15721
 Alpha virt. eigenvalues --    1.16107   1.17092   1.20450   1.20786   1.23731
 Alpha virt. eigenvalues --    1.26183   1.31405   1.31722   1.32475   1.32910
 Alpha virt. eigenvalues --    1.33882   1.34756   1.35140   1.35239   1.36506
 Alpha virt. eigenvalues --    1.37485   1.37615   1.37691   1.38587   1.40674
 Alpha virt. eigenvalues --    1.41911   1.44309   1.50330   1.56261   1.60688
 Alpha virt. eigenvalues --    1.63351   1.63784   1.67481   1.67776   1.68921
 Alpha virt. eigenvalues --    1.71048   1.71256   1.74337   1.76293   1.77397
 Alpha virt. eigenvalues --    1.81963   1.82236   1.84737   1.84810   1.86225
 Alpha virt. eigenvalues --    1.87696   1.88453   1.94427   1.94905   1.96234
 Alpha virt. eigenvalues --    1.97222   1.99604   1.99852   2.00578   2.00689
 Alpha virt. eigenvalues --    2.01696   2.02279   2.03263   2.05635   2.07284
 Alpha virt. eigenvalues --    2.07947   2.08132   2.08203   2.08828   2.13026
 Alpha virt. eigenvalues --    2.13896   2.17292   2.19579   2.22697   2.25370
 Alpha virt. eigenvalues --    2.29680   2.32287   2.32602   2.37409   2.40802
 Alpha virt. eigenvalues --    2.41325   2.41551   2.46757   2.48451   2.51809
 Alpha virt. eigenvalues --    2.51825   2.59015   2.59793   2.62291   2.63780
 Alpha virt. eigenvalues --    2.63986   2.69418   2.73495   2.75649   2.77633
 Alpha virt. eigenvalues --    2.78033   2.82000   2.88123   2.88995   2.95436
 Alpha virt. eigenvalues --    3.01752   3.03528   3.04421   3.04787   3.06354
 Alpha virt. eigenvalues --    3.10848   3.15016   3.17869   3.27450   3.38292
 Alpha virt. eigenvalues --    3.38616   3.71716  10.05827
          Condensed to atoms (all electrons):
               1          2          3          4          5          6
     1  F    9.128501   0.279064  -0.038887  -0.040418  -0.050421   0.004745
     2  C    0.279064   4.027015   0.283020   0.284124   0.289804  -0.020383
     3  F   -0.038887   0.283020   9.107083  -0.039537  -0.043654   0.003240
     4  F   -0.040418   0.284124  -0.039537   9.128993  -0.051681   0.003157
     5  C   -0.050421   0.289804  -0.043654  -0.051681   5.139739   0.466839
     6  C    0.004745  -0.020383   0.003240   0.003157   0.466839   4.923047
     7  C    0.000399   0.004939  -0.000044   0.000201  -0.004437   0.442456
     8  I    0.000003  -0.000122   0.000000   0.000003   0.001125  -0.068804
     9  C   -0.000005   0.000412   0.000001  -0.000005  -0.033936  -0.037872
    10  C   -0.000050   0.004873   0.000969  -0.000048  -0.011470  -0.033970
    11  C    0.000000  -0.000125  -0.000005   0.000000   0.004912   0.000412
    12  F   -0.000000   0.000000   0.000000   0.000000  -0.000050  -0.000005
    13  F   -0.000000   0.000000   0.000000  -0.000000  -0.000049  -0.000006
    14  F    0.000000  -0.000005   0.000000   0.000000   0.000974   0.000001
    15  C    0.001764  -0.025693   0.003149   0.000651   0.438413  -0.059449
    16  H    0.003362  -0.004188   0.000094   0.001217  -0.039804   0.374158
    17  H   -0.000000   0.000004  -0.000000  -0.000000   0.000434   0.004188
    18  H    0.000162  -0.006615   0.008943   0.000188  -0.040053   0.005274
               7          8          9         10         11         12
     1  F    0.000399   0.000003  -0.000005  -0.000050   0.000000  -0.000000
     2  C    0.004939  -0.000122   0.000412   0.004873  -0.000125   0.000000
     3  F   -0.000044   0.000000   0.000001   0.000969  -0.000005   0.000000
     4  F    0.000201   0.000003  -0.000005  -0.000048   0.000000   0.000000
     5  C   -0.004437   0.001125  -0.033936  -0.011470   0.004912  -0.000050
     6  C    0.442456  -0.068804  -0.037872  -0.033970   0.000412  -0.000005
     7  C    5.365435   0.274964   0.443231  -0.004429   0.004918   0.000273
     8  I    0.274964   6.657229  -0.068716   0.001130  -0.000123   0.000003
     9  C    0.443231  -0.068716   4.922167   0.465542  -0.019819   0.003941
    10  C   -0.004429   0.001130   0.465542   5.138361   0.289892  -0.051384
    11  C    0.004918  -0.000123  -0.019819   0.289892   4.026666   0.281897
    12  F    0.000273   0.000003   0.003941  -0.051384   0.281897   9.129446
    13  F    0.000323   0.000003   0.004333  -0.051095   0.280629  -0.040385
    14  F   -0.000044   0.000000   0.003252  -0.043503   0.283391  -0.039280
    15  C   -0.052024   0.001276  -0.059276   0.440912  -0.026163   0.001087
    16  H   -0.036446  -0.001869   0.004195   0.000433   0.000004  -0.000000
    17  H   -0.036523  -0.001867   0.374248  -0.039840  -0.004002   0.001889
    18  H   -0.000030   0.000030   0.005291  -0.039810  -0.006706   0.000180
              13         14         15         16         17         18
     1  F   -0.000000   0.000000   0.001764   0.003362  -0.000000   0.000162
     2  C    0.000000  -0.000005  -0.025693  -0.004188   0.000004  -0.006615
     3  F    0.000000   0.000000   0.003149   0.000094  -0.000000   0.008943
     4  F   -0.000000   0.000000   0.000651   0.001217  -0.000000   0.000188
     5  C   -0.000049   0.000974   0.438413  -0.039804   0.000434  -0.040053
     6  C   -0.000006   0.000001  -0.059449   0.374158   0.004188   0.005274
     7  C    0.000323  -0.000044  -0.052024  -0.036446  -0.036523  -0.000030
     8  I    0.000003   0.000000   0.001276  -0.001869  -0.001867   0.000030
     9  C    0.004333   0.003252  -0.059276   0.004195   0.374248   0.005291
    10  C   -0.051095  -0.043503   0.440912   0.000433  -0.039840  -0.039810
    11  C    0.280629   0.283391  -0.026163   0.000004  -0.004002  -0.006706
    12  F   -0.040385  -0.039280   0.001087  -0.000000   0.001889   0.000180
    13  F    9.129500  -0.039112   0.001326  -0.000000   0.002389   0.000172
    14  F   -0.039112   9.106497   0.003070  -0.000000   0.000092   0.009030
    15  C    0.001326   0.003070   5.061003   0.004959   0.004972   0.368007
    16  H   -0.000000  -0.000000   0.004959   0.560530  -0.000146  -0.000143
    17  H    0.002389   0.000092   0.004972  -0.000146   0.560622  -0.000143
    18  H    0.000172   0.009030   0.368007  -0.000143  -0.000143   0.559599
 Mulliken charges:
               1
     1  F   -0.288218
     2  C    0.883877
     3  F   -0.284370
     4  F   -0.286843
     5  C   -0.066684
     6  C   -0.007027
     7  C   -0.403159
     8  I    0.205733
     9  C   -0.006982
    10  C   -0.066513
    11  C    0.884222
    12  F   -0.287611
    13  F   -0.288029
    14  F   -0.284364
    15  C   -0.107983
    16  H    0.133643
    17  H    0.133683
    18  H    0.136623
 Sum of Mulliken charges =  -0.00000
 Mulliken charges with hydrogens summed into heavy atoms:
               1
     1  F   -0.288218
     2  C    0.883877
     3  F   -0.284370
     4  F   -0.286843
     5  C   -0.066684
     6  C    0.126616
     7  C   -0.403159
     8  I    0.205733
     9  C    0.126702
    10  C   -0.066513
    11  C    0.884222
    12  F   -0.287611
    13  F   -0.288029
    14  F   -0.284364
    15  C    0.028640
 Electronic spatial extent (au):  <R**2>=           4092.5301
 Charge=             -0.0000 electrons
 Dipole moment (field-independent basis, Debye):
    X=              0.9353    Y=             -0.0034    Z=             -0.0288  Tot=              0.9358
 Quadrupole moment (field-independent basis, Debye-Ang):
   XX=            -93.8285   YY=           -101.1610   ZZ=            -96.5270
   XY=             -0.0144   XZ=              0.0698   YZ=              0.1227
 Traceless Quadrupole moment (field-independent basis, Debye-Ang):
   XX=              3.3437   YY=             -3.9888   ZZ=              0.6451
   XY=             -0.0144   XZ=              0.0698   YZ=              0.1227
 Octapole moment (field-independent basis, Debye-Ang**2):
  XXX=            138.7972  YYY=             -0.1467  ZZZ=             -0.1030  XYY=             63.0605
  XXY=              0.0645  XXZ=              0.1415  XZZ=             38.4405  YZZ=             -0.0496
  YYZ=             -0.0819  XYZ=             -0.3854
 Hexadecapole moment (field-independent basis, Debye-Ang**3):
 XXXX=          -2452.4530 YYYY=          -2363.0980 ZZZZ=           -226.0370 XXXY=             -0.4921
 XXXZ=             -0.6254 YYYX=             -0.0493 YYYZ=              0.0760 ZZZX=              0.4960
 ZZZY=              1.0208 XXYY=           -850.3450 XXZZ=           -473.0051 YYZZ=           -434.0119
 XXYZ=              0.3541 YYXZ=              0.8103 ZZXY=             -0.1395
 N-N= 1.014269482405D+03 E-N=-4.189676618421D+03  KE= 9.042738568270D+02
 No NMR shielding tensors so no spin-rotation constants.
 Leave Link  601 at Tue Sep 17 09:49:52 2024, MaxMem=  1342177280 cpu:               0.6 elap:               0.1
 (Enter /groups/ReismanLab/Software/Gaussian16_RevC/Linux_Binary_AVX2-enabled-CPU/g16/l701.exe)
 ... and contract with generalized density number  0.
 Compute integral first derivatives.
 R6Disp: Adding Grimme-D3(BJ) dispersion energy 1st derivatives to the gradient.
   1 Symmetry operations used in ECPInt.
 ECPInt:  NShTT=    2415 NPrTT=   15663 LenC2=    2208 LenP2D=    8907.
 LDataN:  DoStor=T MaxTD1= 6 Len=  172
 Leave Link  701 at Tue Sep 17 09:49:52 2024, MaxMem=  1342177280 cpu:               0.9 elap:               0.2
 (Enter /groups/ReismanLab/Software/Gaussian16_RevC/Linux_Binary_AVX2-enabled-CPU/g16/l702.exe)
 L702 exits ... SP integral derivatives will be done elsewhere.
 Leave Link  702 at Tue Sep 17 09:49:52 2024, MaxMem=  1342177280 cpu:               0.0 elap:               0.0
 (Enter /groups/ReismanLab/Software/Gaussian16_RevC/Linux_Binary_AVX2-enabled-CPU/g16/l703.exe)
 Integral derivatives from FoFJK, PRISM(SPDF).
 Compute integral first derivatives, UseDBF=F ICtDFT=           0.
 Calling FoFJK, ICntrl=      2127 FMM=F ISym2X=0 I1Cent= 0 IOpClX= 0 NMat=1 NMatS=1 NMatT=0.
 FoFJK:  IHMeth= 1 ICntrl=    2127 DoSepK=F KAlg= 0 I1Cent=           0 FoldK=F
 IRaf=         0 NMat=       1 IRICut=       1 DoRegI=T DoRafI=F ISym2E= 0 IDoP0=0 IntGTp=1.
 FoFCou: FMM=F IPFlag=           0 FMFlag=      100000 FMFlg1=         800
         NFxFlg=           0 DoJE=F BraDBF=F KetDBF=F FulRan=T
         wScrn=  0.000000 ICntrl=      2127 IOpCl=  0 I1Cent=           0 NGrid=           0
         NMat0=    1 NMatS0=      1 NMatT0=    0 NMatD0=    1 NMtDS0=    0 NMtDT0=    0
 Symmetry not used in FoFCou.
 Defaulting to unpruned grid for atomic number  53.
 Defaulting to unpruned grid for atomic number  53.
 Defaulting to unpruned grid for atomic number  53.
 Defaulting to unpruned grid for atomic number  53.
 Defaulting to unpruned grid for atomic number  53.
 Defaulting to unpruned grid for atomic number  53.
 Defaulting to unpruned grid for atomic number  53.
 Defaulting to unpruned grid for atomic number  53.
 Leave Link  703 at Tue Sep 17 09:49:55 2024, MaxMem=  1342177280 cpu:              20.2 elap:               2.6
 (Enter /groups/ReismanLab/Software/Gaussian16_RevC/Linux_Binary_AVX2-enabled-CPU/g16/l716.exe)
 Dipole        = 3.67983788D-01-1.34761395D-03-1.13351226D-02
 ***** Axes restored to original set *****
 -------------------------------------------------------------------
 Center     Atomic                   Forces (Hartrees/Bohr)
 Number     Number              X              Y              Z
 -------------------------------------------------------------------
      1        9          -0.004355513    0.003052941   -0.009439062
      2        6          -0.002251926    0.001347314    0.000983499
      3        9           0.011759657   -0.006520236    0.001058736
      4        9          -0.005682846    0.001884591    0.007905437
      5        6           0.006386469    0.007222716    0.000660842
      6        6          -0.001253260    0.004579030   -0.000345555
      7        6          -0.000590490   -0.000076373    0.000085218
      8       53          -0.009648789   -0.000006922   -0.002131891
      9        6          -0.001345199   -0.004476792   -0.000253675
     10        6           0.006248982   -0.007148401    0.001789767
     11        6          -0.002009827   -0.001410607   -0.000730243
     12        9          -0.002845475   -0.002434631   -0.009562527
     13        9          -0.007062336   -0.002447479    0.007230184
     14        9           0.011508805    0.006550501    0.002788651
     15        6           0.001883982   -0.000052535    0.000383186
     16        1          -0.001267406    0.002392250   -0.000509046
     17        1          -0.001398689   -0.002435470   -0.000258643
     18        1           0.001923862   -0.000019897    0.000345122
 -------------------------------------------------------------------
 Cartesian Forces:  Max     0.011759657 RMS     0.004637212
 Leave Link  716 at Tue Sep 17 09:49:55 2024, MaxMem=  1342177280 cpu:               0.1 elap:               0.0
 (Enter /groups/ReismanLab/Software/Gaussian16_RevC/Linux_Binary_AVX2-enabled-CPU/g16/l103.exe)

 GradGradGradGradGradGradGradGradGradGradGradGradGradGradGradGradGradGrad
 Berny optimization.
 FormGI is forming the generalized inverse of G from B-inverse, IUseBI=4.
 Internal  Forces:  Max     0.012387387 RMS     0.004291635
 Search for a local minimum.
 Step number   1 out of a maximum of   94
 All quantities printed in internal units (Hartrees-Bohrs-Radians)
 RMS Force = .42916D-02 SwitMx=.10000D-02 MixMth= 1
 Mixed Optimization -- RFO/linear search
 Second derivative matrix not updated -- first step.
 ITU=  0
     Eigenvalues ---    0.00662   0.00662   0.01605   0.01656   0.02252
     Eigenvalues ---    0.02253   0.02260   0.02266   0.02270   0.02282
     Eigenvalues ---    0.02291   0.10462   0.10468   0.10823   0.10829
     Eigenvalues ---    0.13954   0.16000   0.16000   0.16000   0.23494
     Eigenvalues ---    0.23497   0.23501   0.24998   0.25000   0.25000
     Eigenvalues ---    0.25000   0.25000   0.25000   0.25000   0.25000
     Eigenvalues ---    0.25000   0.31566   0.31568   0.36035   0.36042
     Eigenvalues ---    0.36104   0.43375   0.43688   0.47603   0.47788
     Eigenvalues ---    0.48050   0.48164   0.56427   0.56578   0.56642
     Eigenvalues ---    0.56830   0.58344   0.58378
 RFO step:  Lambda=-4.18334113D-03 EMin= 6.61883831D-03
 Linear search not attempted -- first point.
 Iteration  1 RMS(Cart)=  0.01888712 RMS(Int)=  0.00027125
 Iteration  2 RMS(Cart)=  0.00031605 RMS(Int)=  0.00007510
 Iteration  3 RMS(Cart)=  0.00000012 RMS(Int)=  0.00007510
 ITry= 1 IFail=0 DXMaxC= 8.59D-02 DCOld= 1.00D+10 DXMaxT= 3.00D-01 DXLimC= 3.00D+00 Rises=F
 Variable       Old X    -DE/DX   Delta X   Delta X   Delta X     New X
                                 (Linear)    (Quad)   (Total)
    R1        2.53541   0.00995   0.00000   0.01738   0.01738   2.55279
    R2        2.52276   0.01235   0.00000   0.02102   0.02102   2.54378
    R3        2.53885   0.00914   0.00000   0.01607   0.01607   2.55492
    R4        2.84942  -0.00041   0.00000  -0.00127  -0.00127   2.84815
    R5        2.62356   0.00790   0.00000   0.01645   0.01645   2.64000
    R6        2.62125   0.00623   0.00000   0.01255   0.01255   2.63380
    R7        2.61680   0.00944   0.00000   0.01977   0.01977   2.63658
    R8        2.04026   0.00275   0.00000   0.00754   0.00754   2.04780
    R9        3.97113   0.00988   0.00000   0.06875   0.06875   4.03989
   R10        2.61669   0.00932   0.00000   0.01952   0.01952   2.63621
   R11        2.62373   0.00796   0.00000   0.01657   0.01657   2.64030
   R12        2.04017   0.00282   0.00000   0.00774   0.00774   2.04790
   R13        2.84946  -0.00045   0.00000  -0.00139  -0.00139   2.84806
   R14        2.62097   0.00617   0.00000   0.01241   0.01241   2.63338
   R15        2.53756   0.00945   0.00000   0.01658   0.01658   2.55413
   R16        2.53701   0.00955   0.00000   0.01673   0.01673   2.55374
   R17        2.52247   0.01239   0.00000   0.02107   0.02107   2.54354
   R18        2.03919   0.00195   0.00000   0.00535   0.00535   2.04453
    A1        1.86667   0.00640   0.00000   0.02491   0.02467   1.89134
    A2        1.85538   0.00467   0.00000   0.01866   0.01853   1.87391
    A3        1.95043  -0.00474   0.00000  -0.01864  -0.01883   1.93159
    A4        1.86473   0.00596   0.00000   0.02341   0.02321   1.88794
    A5        1.97390  -0.00688   0.00000  -0.02721  -0.02744   1.94646
    A6        1.94593  -0.00395   0.00000  -0.01541  -0.01558   1.93035
    A7        2.05894   0.00130   0.00000   0.00556   0.00556   2.06450
    A8        2.10741  -0.00041   0.00000  -0.00118  -0.00118   2.10623
    A9        2.11677  -0.00088   0.00000  -0.00441  -0.00441   2.11236
   A10        2.07920   0.00023   0.00000   0.00160   0.00160   2.08080
   A11        2.09366  -0.00012   0.00000  -0.00082  -0.00082   2.09284
   A12        2.11033  -0.00011   0.00000  -0.00078  -0.00078   2.10954
   A13        2.08771   0.00050   0.00000   0.00137   0.00137   2.08908
   A14        2.10735  -0.00094   0.00000  -0.00248  -0.00248   2.10487
   A15        2.08813   0.00044   0.00000   0.00111   0.00111   2.08924
   A16        2.07928   0.00021   0.00000   0.00150   0.00150   2.08078
   A17        2.11050  -0.00014   0.00000  -0.00098  -0.00099   2.10952
   A18        2.09340  -0.00007   0.00000  -0.00051  -0.00051   2.09289
   A19        2.05748   0.00131   0.00000   0.00562   0.00562   2.06311
   A20        2.11670  -0.00085   0.00000  -0.00427  -0.00427   2.11243
   A21        2.10900  -0.00046   0.00000  -0.00136  -0.00136   2.10764
   A22        1.94740  -0.00425   0.00000  -0.01664  -0.01682   1.93058
   A23        1.94807  -0.00442   0.00000  -0.01733  -0.01752   1.93055
   A24        1.97471  -0.00694   0.00000  -0.02741  -0.02764   1.94707
   A25        1.85520   0.00463   0.00000   0.01845   0.01832   1.87352
   A26        1.86561   0.00616   0.00000   0.02416   0.02395   1.88955
   A27        1.86603   0.00626   0.00000   0.02449   0.02427   1.89031
   A28        2.06707   0.00223   0.00000   0.00806   0.00806   2.07513
   A29        2.10800  -0.00110   0.00000  -0.00392  -0.00392   2.10407
   A30        2.10812  -0.00113   0.00000  -0.00414  -0.00413   2.10398
    D1       -0.91586  -0.00007   0.00000   0.00028   0.00032  -0.91554
    D2        2.23768  -0.00000   0.00000   0.00324   0.00329   2.24097
    D3       -3.02350   0.00002   0.00000   0.00105   0.00103  -3.02247
    D4        0.13004   0.00008   0.00000   0.00401   0.00400   0.13403
    D5        1.15785   0.00003   0.00000   0.00112   0.00109   1.15894
    D6       -1.97180   0.00009   0.00000   0.00408   0.00406  -1.96774
    D7       -3.13164   0.00016   0.00000   0.00596   0.00597  -3.12567
    D8        0.01205   0.00016   0.00000   0.00646   0.00646   0.01852
    D9       -0.00205   0.00009   0.00000   0.00301   0.00301   0.00096
   D10       -3.14155   0.00010   0.00000   0.00351   0.00351  -3.13804
   D11        3.13091  -0.00012   0.00000  -0.00511  -0.00511   3.12580
   D12       -0.01246  -0.00011   0.00000  -0.00484  -0.00484  -0.01729
   D13        0.00166  -0.00006   0.00000  -0.00212  -0.00213  -0.00046
   D14        3.14148  -0.00006   0.00000  -0.00186  -0.00186   3.13962
   D15        3.14157   0.00001   0.00000   0.00062   0.00062  -3.14100
   D16        0.00132  -0.00006   0.00000  -0.00204  -0.00204  -0.00073
   D17       -0.00214   0.00000   0.00000   0.00011   0.00011  -0.00203
   D18        3.14079  -0.00007   0.00000  -0.00254  -0.00255   3.13825
   D19       -0.00023   0.00000   0.00000   0.00025   0.00025   0.00002
   D20        3.14081   0.00004   0.00000   0.00152   0.00152  -3.14086
   D21       -3.14048  -0.00007   0.00000  -0.00241  -0.00241   3.14029
   D22        0.00056  -0.00003   0.00000  -0.00114  -0.00114  -0.00058
   D23       -3.13947   0.00007   0.00000   0.00267   0.00267  -3.13680
   D24       -0.00016   0.00003   0.00000   0.00065   0.00065   0.00049
   D25        0.00267   0.00003   0.00000   0.00142   0.00142   0.00408
   D26       -3.14121  -0.00001   0.00000  -0.00061  -0.00061   3.14137
   D27        1.06478   0.00002   0.00000  -0.00002  -0.00005   1.06473
   D28       -1.00812  -0.00005   0.00000  -0.00066  -0.00063  -1.00875
   D29       -3.11378  -0.00001   0.00000  -0.00028  -0.00029  -3.11407
   D30       -2.07454   0.00006   0.00000   0.00200   0.00197  -2.07257
   D31        2.13575  -0.00001   0.00000   0.00136   0.00139   2.13714
   D32        0.03008   0.00003   0.00000   0.00174   0.00174   0.03182
   D33       -0.00054   0.00001   0.00000   0.00027   0.00027  -0.00026
   D34       -3.14036  -0.00000   0.00000   0.00000   0.00000  -3.14035
   D35        3.13870  -0.00004   0.00000  -0.00180  -0.00179   3.13691
   D36       -0.00112  -0.00004   0.00000  -0.00207  -0.00206  -0.00318
         Item               Value     Threshold  Converged?
 Maximum Force            0.012387     0.000450     NO 
 RMS     Force            0.004292     0.000300     NO 
 Maximum Displacement     0.085912     0.001800     NO 
 RMS     Displacement     0.018942     0.001200     NO 
 Predicted change in Energy=-2.122255D-03
 Lowest energy point so far.  Saving SCF results.
 GradGradGradGradGradGradGradGradGradGradGradGradGradGradGradGradGradGrad

 Leave Link  103 at Tue Sep 17 09:49:55 2024, MaxMem=  1342177280 cpu:               0.1 elap:               0.0
 (Enter /groups/ReismanLab/Software/Gaussian16_RevC/Linux_Binary_AVX2-enabled-CPU/g16/l202.exe)
                          Input orientation:                          
 ---------------------------------------------------------------------
 Center     Atomic      Atomic             Coordinates (Angstroms)
 Number     Number       Type             X           Y           Z
 ---------------------------------------------------------------------
      1          9           0        1.812397    3.306639   -0.660310
      2          6           0        2.033169    2.519664    0.415236
      3          9           0        3.361763    2.352851    0.553173
      4          9           0        1.576528    3.183024    1.501217
      5          6           0        1.322908    1.199078    0.263029
      6          6           0       -0.041943    1.211899   -0.034816
      7          6           0       -0.722955    0.000734   -0.161028
      8         53           0       -2.811449    0.002647   -0.617591
      9          6           0       -0.053077   -1.211414    0.006451
     10          6           0        1.312218   -1.200873    0.303086
     11          6           0        2.014501   -2.523499    0.473080
     12          9           0        1.944530   -3.249166   -0.665033
     13          9           0        1.429882   -3.250351    1.450906
     14          9           0        3.312468   -2.357383    0.788297
     15          6           0        2.009768   -0.001595    0.433722
     16          1           0       -0.557317    2.155930   -0.167058
     17          1           0       -0.577622   -2.154659   -0.091278
     18          1           0        3.067235   -0.002587    0.662452
 ---------------------------------------------------------------------
                    Distance matrix (angstroms):
                    1          2          3          4          5
     1  F    0.000000
     2  C    1.350877   0.000000
     3  F    2.186959   1.346111   0.000000
     4  F    2.177869   1.352008   2.185187   0.000000
     5  C    2.352437   1.507177   2.360573   2.352334   0.000000
     6  C    2.866662   2.493770   3.637680   2.977278   1.397030
     7  C    4.195986   3.778003   4.767333   4.263526   2.408612
     8  I    5.683144   5.556296   6.708405   5.818804   4.393159
     9  C    4.933291   4.294237   4.966289   4.919454   2.787407
    10  C    4.636375   3.791404   4.110004   4.552355   2.400310
    11  C    5.942720   5.043529   5.059675   5.814920   3.792097
    12  F    6.557138   5.869773   5.905520   6.797142   4.586348
    13  F    6.899106   5.893185   5.994494   6.435243   4.606508
    14  F    6.035712   5.055825   4.716356   5.849604   4.108853
    15  C    3.490024   2.521435   2.717641   3.386598   1.393747
    16  H    2.680106   2.679923   3.989574   2.896784   2.153088
    17  H    5.988469   5.377926   6.020940   5.972208   3.871060
    18  H    3.778265   2.737180   2.376294   3.615778   2.155508
                    6          7          8          9         10
     6  C    0.000000
     7  C    1.395216   0.000000
     8  I    3.077674   2.137816   0.000000
     9  C    2.423689   1.395023   3.077659   0.000000
    10  C    2.787364   2.408566   4.393260   1.397188   0.000000
    11  C    4.294195   3.777236   5.555247   2.492827   1.507129
    12  F    4.923854   4.234542   5.761586   2.931511   2.352143
    13  F    4.928013   4.219312   5.731454   2.905664   2.351955
    14  F    4.966826   4.769337   6.711827   3.640250   2.360920
    15  C    2.429323   2.796696   4.934512   2.429311   1.393525
    16  H    1.083649   2.161561   3.149717   3.409307   3.870960
    17  H    3.409377   2.161413   3.149755   1.083702   2.153306
    18  H    3.410006   3.878617   6.016432   3.409978   2.155254
                   11         12         13         14         15
    11  C    0.000000
    12  F    1.351588   0.000000
    13  F    1.351384   2.177628   0.000000
    14  F    1.345985   2.186024   2.186452   0.000000
    15  C    2.522215   3.429029   3.453309   2.715233   0.000000
    16  H    5.377833   5.976812   5.982863   6.021457   3.406726
    17  H    2.678366   2.808628   2.758432   3.993438   3.406743
    18  H    2.738450   3.682792   3.721634   2.370874   1.081921
                   16         17         18
    16  H    0.000000
    17  H    4.311303   0.000000
    18  H    4.299379   4.299361   0.000000
 Stoichiometry    C8H3F6I
 Framework group  C1[X(C8H3F6I)]
 Deg. of freedom    48
 Full point group                 C1      NOp   1
 RotChk:  IX=0 Diff= 7.01D-04
 Largest Abelian subgroup         C1      NOp   1
 Largest concise Abelian subgroup C1      NOp   1
                         Standard orientation:                         
 ---------------------------------------------------------------------
 Center     Atomic      Atomic             Coordinates (Angstroms)
 Number     Number       Type             X           Y           Z
 ---------------------------------------------------------------------
      1          9           0       -1.490755   -3.319131   -0.994693
      2          6           0       -1.937408   -2.520615   -0.000841
      3          9           0       -3.264707   -2.355984   -0.153127
      4          9           0       -1.724213   -3.170312    1.165507
      5          6           0       -1.211441   -1.199851   -0.012553
      6          6           0        0.185533   -1.212214   -0.010462
      7          6           0        0.877389   -0.000650   -0.001780
      8         53           0        3.015204   -0.001874    0.000430
      9          6           0        0.186802    1.211432    0.003886
     10          6           0       -1.210340    1.200421    0.000791
     11          6           0       -1.933152    2.522911    0.000669
     12          9           0       -1.620832    3.235799   -1.104336
     13          9           0       -1.572185    3.262464    1.072585
     14          9           0       -3.268472    2.356736    0.031988
     15          6           0       -1.919301    0.000746   -0.007256
     16          1           0        0.717572   -2.156234   -0.017999
     17          1           0        0.719806    2.154979    0.009948
     18          1           0       -3.001217    0.001361   -0.010760
 ---------------------------------------------------------------------
 Rotational constants (GHZ):           0.3787711           0.2493909           0.1588986
 Leave Link  202 at Tue Sep 17 09:49:55 2024, MaxMem=  1342177280 cpu:               0.0 elap:               0.0
 (Enter /groups/ReismanLab/Software/Gaussian16_RevC/Linux_Binary_AVX2-enabled-CPU/g16/l301.exe)
 Basis read from rwf:  (5D, 7F)
 Pseudo-potential data read from rwf file.
 There are   233 symmetry adapted cartesian basis functions of A   symmetry.
 There are   219 symmetry adapted basis functions of A   symmetry.
   219 basis functions,   425 primitive gaussians,   233 cartesian basis functions
    56 alpha electrons       56 beta electrons
       nuclear repulsion energy      1010.4437366373 Hartrees.
 IExCor=  402 DFT=T Ex+Corr=B3LYP ExCW=0 ScaHFX=  0.200000
 ScaDFX=  0.800000  0.720000  1.000000  0.810000 ScalE2=  1.000000  1.000000
 IRadAn=      5 IRanWt=     -1 IRanGd=            0 ICorTp=0 IEmpDi=141
 NAtoms=   18 NActive=   18 NUniq=   18 SFac= 1.00D+00 NAtFMM=   60 NAOKFM=F Big=F
 Integral buffers will be    131072 words long.
 Raffenetti 2 integral format.
 Two-electron integral symmetry is turned on.
 R6Disp:  Grimme-D3(BJ) Dispersion energy=       -0.0383211329 Hartrees.
 Nuclear repulsion after empirical dispersion term =     1010.4054155044 Hartrees.
 No density basis found on file    724.
 Leave Link  301 at Tue Sep 17 09:49:55 2024, MaxMem=  1342177280 cpu:               0.1 elap:               0.1
 (Enter /groups/ReismanLab/Software/Gaussian16_RevC/Linux_Binary_AVX2-enabled-CPU/g16/l302.exe)
 NPDir=0 NMtPBC=     1 NCelOv=     1 NCel=       1 NClECP=     1 NCelD=      1
         NCelK=      1 NCelE2=     1 NClLst=     1 CellRange=     0.0.
 One-electron integrals computed using PRISM.
 One-electron integral symmetry used in STVInt
   1 Symmetry operations used in ECPInt.
 ECPInt:  NShTT=    2415 NPrTT=   15663 LenC2=    2210 LenP2D=    8900.
 LDataN:  DoStor=T MaxTD1= 5 Len=  102
 NBasis=   219 RedAO= T EigKep=  4.48D-04  NBF=   219
 NBsUse=   219 1.00D-06 EigRej= -1.00D+00 NBFU=   219
 Precomputing XC quadrature grid using
 IXCGrd= 4 IRadAn=           5 IRanWt=          -1 IRanGd=           0 AccXCQ= 0.00D+00.
 Defaulting to unpruned grid for atomic number  53.
 Generated NRdTot=       0 NPtTot=           0 NUsed=           0 NTot=          32
 NSgBfM=   233   233   233   233   233 MxSgAt=    18 MxSgA2=    18.
 Leave Link  302 at Tue Sep 17 09:49:55 2024, MaxMem=  1342177280 cpu:               1.0 elap:               0.3
 (Enter /groups/ReismanLab/Software/Gaussian16_RevC/Linux_Binary_AVX2-enabled-CPU/g16/l303.exe)
 DipDrv:  MaxL=1.
 Leave Link  303 at Tue Sep 17 09:49:56 2024, MaxMem=  1342177280 cpu:               0.1 elap:               0.0
 (Enter /groups/ReismanLab/Software/Gaussian16_RevC/Linux_Binary_AVX2-enabled-CPU/g16/l401.exe)
 Initial guess from the checkpoint file:  "smiles_00015_conf_1.chk"
 B after Tr=    -0.000000    0.000000    0.000000
         Rot=    1.000000    0.000018    0.000071    0.000047 Ang=   0.01 deg.
 Guess basis will be translated and rotated to current coordinates.
 JPrj=2 DoOrth=T DoCkMO=T.
 Generating alternative initial guess.
 ExpMin= 1.05D-01 ExpMax= 7.00D+03 ExpMxC= 1.05D+03 IAcc=3 IRadAn=         5 AccDes= 0.00D+00
 Harris functional with IExCor=  402 and IRadAn=       5 diagonalized for initial guess.
 HarFok:  IExCor=  402 AccDes= 0.00D+00 IRadAn=         5 IDoV= 1 UseB2=F ITyADJ=14
 ICtDFT=  3500011 ScaDFX=  1.000000  1.000000  1.000000  1.000000
 Defaulting to unpruned grid for atomic number  53.
 FoFCou: FMM=F IPFlag=           0 FMFlag=      100000 FMFlg1=           0
         NFxFlg=           0 DoJE=T BraDBF=F KetDBF=T FulRan=T
         wScrn=  0.000000 ICntrl=       500 IOpCl=  0 I1Cent=   200000004 NGrid=           0
         NMat0=    1 NMatS0=      1 NMatT0=    0 NMatD0=    1 NMtDS0=    0 NMtDT0=    0
 Petite list used in FoFCou.
 Harris En= -917.002061793152    
 Leave Link  401 at Tue Sep 17 09:49:56 2024, MaxMem=  1342177280 cpu:               3.8 elap:               0.5
 (Enter /groups/ReismanLab/Software/Gaussian16_RevC/Linux_Binary_AVX2-enabled-CPU/g16/l502.exe)
 Integral symmetry usage will be decided dynamically.
 Closed shell SCF:
 Using DIIS extrapolation, IDIIS=  1040.
 NGot=  1342177280 LenX=  1342064014 LenY=  1342009284
 Requested convergence on RMS density matrix=1.00D-08 within  32 cycles.
 Requested convergence on MAX density matrix=1.00D-06.
 Requested convergence on             energy=1.00D-06.
 No special actions if energy rises.
 Fock matrices will be formed incrementally for  20 cycles.
 Integral accuracy reduced to 1.0D-05 until final iterations.

 Cycle   1  Pass 0  IDiag  1:
 FoFJK:  IHMeth= 1 ICntrl=       0 DoSepK=F KAlg= 0 I1Cent=           0 FoldK=F
 IRaf= 850000000 NMat=       1 IRICut=       1 DoRegI=T DoRafI=F ISym2E= 0 IDoP0=0 IntGTp=1.
 FoFCou: FMM=F IPFlag=           0 FMFlag=      100000 FMFlg1=           0
         NFxFlg=           0 DoJE=F BraDBF=F KetDBF=F FulRan=T
         wScrn=  0.000000 ICntrl=         0 IOpCl=  0 I1Cent=           0 NGrid=           0
         NMat0=    1 NMatS0=      1 NMatT0=    0 NMatD0=    1 NMtDS0=    0 NMtDT0=    0
 Symmetry not used in FoFCou.
 Defaulting to unpruned grid for atomic number  53.
 Defaulting to unpruned grid for atomic number  53.
 Defaulting to unpruned grid for atomic number  53.
 Defaulting to unpruned grid for atomic number  53.
 Defaulting to unpruned grid for atomic number  53.
 Defaulting to unpruned grid for atomic number  53.
 Defaulting to unpruned grid for atomic number  53.
 Defaulting to unpruned grid for atomic number  53.
 E= -917.126521580292    
 DIIS: error= 3.12D-03 at cycle   1 NSaved=   1.
 NSaved= 1 IEnMin= 1 EnMin= -917.126521580292     IErMin= 1 ErrMin= 3.12D-03
 ErrMax= 3.12D-03  0.00D+00 EMaxC= 1.00D-01 BMatC= 1.84D-03 BMatP= 1.84D-03
 IDIUse=3 WtCom= 9.69D-01 WtEn= 3.12D-02
 Coeff-Com:  0.100D+01
 Coeff-En:   0.100D+01
 Coeff:      0.100D+01
 Gap=     0.800 Goal=   None    Shift=    0.000
 GapD=    0.800 DampG=2.000 DampE=1.000 DampFc=2.0000 IDamp=-1.
 RMSDP=3.53D-04 MaxDP=7.92D-03              OVMax= 1.15D-02

 Cycle   2  Pass 0  IDiag  1:
 RMSU=  3.51D-04    CP:  9.99D-01
 E= -917.128082105932     Delta-E=       -0.001560525640 Rises=F Damp=F
 DIIS: error= 1.78D-03 at cycle   2 NSaved=   2.
 NSaved= 2 IEnMin= 2 EnMin= -917.128082105932     IErMin= 2 ErrMin= 1.78D-03
 ErrMax= 1.78D-03  0.00D+00 EMaxC= 1.00D-01 BMatC= 2.46D-04 BMatP= 1.84D-03
 IDIUse=3 WtCom= 9.82D-01 WtEn= 1.78D-02
 Coeff-Com:  0.146D+00 0.854D+00
 Coeff-En:   0.000D+00 0.100D+01
 Coeff:      0.143D+00 0.857D+00
 Gap=     0.204 Goal=   None    Shift=    0.000
 RMSDP=2.11D-04 MaxDP=8.25D-03 DE=-1.56D-03 OVMax= 1.34D-02

 Cycle   3  Pass 0  IDiag  1:
 RMSU=  1.93D-04    CP:  9.99D-01  7.66D-01
 E= -917.127808814725     Delta-E=        0.000273291207 Rises=F Damp=F
 DIIS: error= 2.50D-03 at cycle   3 NSaved=   3.
 NSaved= 3 IEnMin= 2 EnMin= -917.128082105932     IErMin= 2 ErrMin= 1.78D-03
 ErrMax= 2.50D-03  0.00D+00 EMaxC= 1.00D-01 BMatC= 4.94D-04 BMatP= 2.46D-04
 IDIUse=3 WtCom= 1.67D-01 WtEn= 8.33D-01
 Coeff-Com: -0.147D-01 0.594D+00 0.420D+00
 Coeff-En:   0.000D+00 0.632D+00 0.368D+00
 Coeff:     -0.245D-02 0.625D+00 0.377D+00
 Gap=     0.204 Goal=   None    Shift=    0.000
 RMSDP=1.18D-04 MaxDP=4.82D-03 DE= 2.73D-04 OVMax= 6.65D-03

 Cycle   4  Pass 0  IDiag  1:
 RMSU=  3.16D-05    CP:  9.99D-01  9.19D-01  4.85D-01
 E= -917.128360788475     Delta-E=       -0.000551973750 Rises=F Damp=F
[...]
 (Enter /groups/ReismanLab/Software/Gaussian16_RevC/Linux_Binary_AVX2-enabled-CPU/g16/l601.exe)
 Copying SCF densities to generalized density rwf, IOpCl= 0 IROHF=0.

 **********************************************************************

            Population analysis using the SCF Density.

 **********************************************************************

 Orbital symmetries:
       Occupied  (A) (A) (A) (A) (A) (A) (A) (A) (A) (A) (A) (A)
                 (A) (A) (A) (A) (A) (A) (A) (A) (A) (A) (A) (A)
                 (A) (A) (A) (A) (A) (A) (A) (A) (A) (A) (A) (A)
                 (A) (A) (A) (A) (A) (A) (A) (A) (A) (A) (A) (A)
                 (A) (A) (A) (A) (A) (A) (A) (A) (A) (A) (A) (A)
                 (A) (A) (A) (A) (A)
       Virtual   (A) (A) (A) (A) (A) (A) (A) (A) (A) (A) (A) (A)
                 (A) (A) (A) (A) (A) (A) (A) (A) (A) (A) (A) (A)
                 (A) (A) (A) (A) (A) (A) (A) (A) (A) (A) (A) (A)
                 (A) (A) (A) (A) (A) (A) (A) (A) (A) (A) (A) (A)
                 (A) (A) (A) (A) (A) (A) (A) (A) (A) (A) (A) (A)
                 (A) (A) (A) (A) (A) (A) (A) (A) (A) (A) (A) (A)
                 (A) (A) (A) (A) (A) (A) (A) (A) (A) (A) (A) (A)
                 (A) (A) (A) (A) (A) (A) (A) (A) (A) (A) (A) (A)
                 (A) (A) (A) (A) (A) (A) (A) (A) (A) (A) (A) (A)
                 (A) (A) (A) (A) (A) (A) (A) (A) (A) (A) (A) (A)
                 (A) (A) (A) (A) (A) (A) (A) (A) (A) (A) (A) (A)
                 (A) (A) (A) (A) (A) (A) (A) (A) (A) (A) (A) (A)
                 (A) (A) (A) (A) (A) (A) (A) (A) (A) (A) (A) (A)
                 (A) (A) (A) (A) (A) (A) (A) (A) (A) (A) (A) (A)
                 (A) (A) (A) (A) (A) (A) (A) (A) (A) (A) (A) (A)
                 (A) (A) (A) (A) (A) (A) (A) (A) (A) (A) (A) (A)
                 (A) (A) (A) (A) (A) (A) (A) (A) (A) (A) (A) (A)
                 (A) (A) (A) (A) (A) (A) (A) (A) (A) (A) (A) (A)
                 (A) (A) (A) (A) (A) (A) (A) (A) (A) (A) (A) (A)
                 (A) (A) (A) (A) (A) (A) (A) (A) (A) (A) (A) (A)
                 (A) (A) (A) (A) (A) (A) (A) (A) (A) (A) (A) (A)
                 (A) (A) (A) (A) (A) (A) (A) (A) (A) (A) (A) (A)
                 (A) (A) (A) (A) (A) (A) (A) (A) (A) (A) (A) (A)
                 (A) (A) (A) (A) (A) (A) (A) (A) (A) (A) (A) (A)
                 (A) (A) (A) (A) (A) (A) (A) (A) (A) (A) (A) (A)
                 (A) (A) (A) (A) (A) (A) (A) (A) (A) (A) (A) (A)
                 (A) (A) (A) (A) (A) (A) (A) (A) (A) (A) (A) (A)
                 (A) (A) (A) (A) (A) (A) (A) (A) (A) (A) (A) (A)
                 (A) (A) (A) (A) (A) (A) (A) (A) (A) (A) (A) (A)
                 (A) (A) (A) (A) (A) (A) (A) (A) (A) (A) (A) (A)
                 (A) (A) (A) (A) (A) (A) (A) (A) (A) (A) (A) (A)
                 (A) (A) (A) (A) (A) (A) (A) (A) (A) (A) (A) (A)
                 (A) (A) (A) (A) (A) (A) (A) (A) (A) (A) (A) (A)
                 (A) (A) (A) (A) (A) (A) (A) (A) (A) (A) (A) (A)
                 (A) (A) (A) (A) (A) (A) (A) (A) (A) (A) (A) (A)
                 (A) (A) (A) (A) (A) (A) (A) (A) (A) (A) (A) (A)
                 (A) (A) (A) (A) (A)
 The electronic state is 1-A.
 Alpha  occ. eigenvalues --  -25.29257 -25.29257 -25.29244 -25.29244 -25.28942
 Alpha  occ. eigenvalues --  -25.28941 -10.81434 -10.81434 -10.62493 -10.59958
 Alpha  occ. eigenvalues --  -10.59957 -10.59147 -10.59145 -10.59013  -7.12050
 Alpha  occ. eigenvalues --   -5.11434  -5.10332  -5.10323  -2.08259  -2.07806
 Alpha  occ. eigenvalues --   -2.07804  -2.06885  -2.06883  -1.47345  -1.47342
 Alpha  occ. eigenvalues --   -1.38551  -1.38549  -1.38220  -1.38220  -1.01791
 Alpha  occ. eigenvalues --   -0.92967  -0.91077  -0.83316  -0.82359  -0.80012
 Alpha  occ. eigenvalues --   -0.75037  -0.74071  -0.70410  -0.70196  -0.70192
 Alpha  occ. eigenvalues --   -0.70142  -0.66803  -0.63778  -0.61120  -0.59321
 Alpha  occ. eigenvalues --   -0.58661  -0.58389  -0.58181  -0.56718  -0.54735
 Alpha  occ. eigenvalues --   -0.54569  -0.54543  -0.53602  -0.52718  -0.52690
 Alpha  occ. eigenvalues --   -0.51325  -0.50224  -0.49868  -0.48613  -0.45095
 Alpha  occ. eigenvalues --   -0.41553  -0.38061  -0.35555  -0.33706  -0.31452
 Alpha virt. eigenvalues --   -0.03315  -0.02528  -0.02020   0.08828   0.11018
 Alpha virt. eigenvalues --    0.11100   0.11888   0.13116   0.14270   0.15131
 Alpha virt. eigenvalues --    0.16156   0.16528   0.17430   0.18652   0.18819
 Alpha virt. eigenvalues --    0.19092   0.19869   0.20143   0.22011   0.22617
 Alpha virt. eigenvalues --    0.23136   0.23384   0.23791   0.25011   0.25502
 Alpha virt. eigenvalues --    0.25903   0.27359   0.27818   0.28040   0.28391
 Alpha virt. eigenvalues --    0.29395   0.30368   0.31687   0.31923   0.32765
 Alpha virt. eigenvalues --    0.32936   0.34008   0.34222   0.35555   0.37747
 Alpha virt. eigenvalues --    0.38440   0.39766   0.41215   0.41286   0.43037
 Alpha virt. eigenvalues --    0.43794   0.45068   0.45637   0.45917   0.47372
 Alpha virt. eigenvalues --    0.48370   0.50568   0.51452   0.53960   0.54277
 Alpha virt. eigenvalues --    0.55414   0.55954   0.56826   0.57892   0.59458
 Alpha virt. eigenvalues --    0.59725   0.61461   0.62839   0.63683   0.65167
 Alpha virt. eigenvalues --    0.66092   0.67261   0.68285   0.69283   0.69584
 Alpha virt. eigenvalues --    0.70207   0.72758   0.73222   0.73981   0.75739
 Alpha virt. eigenvalues --    0.76605   0.77149   0.78222   0.78822   0.79592
 Alpha virt. eigenvalues --    0.80122   0.80480   0.81995   0.82334   0.82493
 Alpha virt. eigenvalues --    0.82794   0.84860   0.85324   0.86471   0.87247
 Alpha virt. eigenvalues --    0.87865   0.89637   0.92142   0.92538   0.93180
 Alpha virt. eigenvalues --    0.94245   0.94704   0.95510   0.96014   0.96404
 Alpha virt. eigenvalues --    0.97911   0.98044   0.98424   1.01309   1.02156
 Alpha virt. eigenvalues --    1.03145   1.04101   1.04385   1.05320   1.08224
 Alpha virt. eigenvalues --    1.08401   1.11358   1.13847   1.14313   1.15701
 Alpha virt. eigenvalues --    1.16660   1.18726   1.21485   1.24295   1.24377
 Alpha virt. eigenvalues --    1.26405   1.27533   1.28853   1.29206   1.30278
 Alpha virt. eigenvalues --    1.31585   1.33022   1.34673   1.36204   1.37978
 Alpha virt. eigenvalues --    1.38190   1.38984   1.41561   1.42625   1.43425
 Alpha virt. eigenvalues --    1.44373   1.44592   1.48474   1.49760   1.51105
 Alpha virt. eigenvalues --    1.53874   1.54527   1.58262   1.58843   1.60497
 Alpha virt. eigenvalues --    1.63160   1.63432   1.65213   1.66240   1.67402
 Alpha virt. eigenvalues --    1.70814   1.71506   1.74196   1.75912   1.77049
 Alpha virt. eigenvalues --    1.78709   1.83519   1.88877   1.91069   1.92252
 Alpha virt. eigenvalues --    1.92401   1.93788   1.94219   1.96093   1.96451
 Alpha virt. eigenvalues --    1.97493   1.99813   2.00067   2.00838   2.03240
 Alpha virt. eigenvalues --    2.06969   2.07192   2.08685   2.08712   2.12563
 Alpha virt. eigenvalues --    2.13727   2.13870   2.15370   2.15521   2.18041
 Alpha virt. eigenvalues --    2.18178   2.22055   2.25748   2.29363   2.29709
 Alpha virt. eigenvalues --    2.32259   2.34826   2.35518   2.36206   2.37861
 Alpha virt. eigenvalues --    2.38552   2.40260   2.41291   2.44670   2.46531
 Alpha virt. eigenvalues --    2.48770   2.49342   2.50480   2.51749   2.52356
 Alpha virt. eigenvalues --    2.52635   2.56642   2.57678   2.58971   2.61108
 Alpha virt. eigenvalues --    2.61221   2.63595   2.64929   2.65162   2.67422
 Alpha virt. eigenvalues --    2.67816   2.69714   2.70522   2.71772   2.74100
 Alpha virt. eigenvalues --    2.78249   2.79033   2.79961   2.81734   2.82510
 Alpha virt. eigenvalues --    2.85969   2.87716   2.88022   2.88585   2.89334
 Alpha virt. eigenvalues --    2.90218   2.90998   2.95457   2.95793   2.96845
 Alpha virt. eigenvalues --    2.98692   3.00134   3.00706   3.01963   3.04382
 Alpha virt. eigenvalues --    3.04523   3.08382   3.10285   3.11576   3.12770
 Alpha virt. eigenvalues --    3.13535   3.14457   3.14682   3.14964   3.15136
 Alpha virt. eigenvalues --    3.16548   3.17275   3.18641   3.19696   3.20506
 Alpha virt. eigenvalues --    3.20822   3.22137   3.24461   3.24733   3.25948
 Alpha virt. eigenvalues --    3.26653   3.28110   3.29295   3.29305   3.31641
 Alpha virt. eigenvalues --    3.31848   3.32255   3.32425   3.33183   3.33563
 Alpha virt. eigenvalues --    3.34500   3.38110   3.39474   3.39730   3.41583
 Alpha virt. eigenvalues --    3.42823   3.45589   3.45726   3.47073   3.49149
 Alpha virt. eigenvalues --    3.50147   3.53637   3.54307   3.54921   3.60430
 Alpha virt. eigenvalues --    3.61153   3.61322   3.63152   3.64309   3.65968
 Alpha virt. eigenvalues --    3.70227   3.70432   3.73969   3.75347   3.78567
 Alpha virt. eigenvalues --    3.78894   3.79542   3.83291   3.84153   3.86429
 Alpha virt. eigenvalues --    3.89669   3.90652   3.92290   3.93854   3.94662
 Alpha virt. eigenvalues --    3.95479   3.95726   3.96900   3.98320   3.99046
 Alpha virt. eigenvalues --    4.01588   4.04395   4.04478   4.06960   4.08666
 Alpha virt. eigenvalues --    4.09822   4.11877   4.12971   4.14147   4.15495
 Alpha virt. eigenvalues --    4.18629   4.21603   4.22433   4.26807   4.28629
 Alpha virt. eigenvalues --    4.28984   4.38257   4.42636   4.43928   4.47289
 Alpha virt. eigenvalues --    4.56751   4.57504   4.59144   4.63637   4.65570
 Alpha virt. eigenvalues --    4.74114   4.84494   4.95717   4.97814   5.01166
 Alpha virt. eigenvalues --    5.07824   5.10740   5.18501   5.22310   5.25740
 Alpha virt. eigenvalues --    5.33881   5.40039   5.42869   5.43666   5.48166
 Alpha virt. eigenvalues --    5.55536   6.82347   6.82388   6.87067   6.87107
 Alpha virt. eigenvalues --    6.87276   6.87328   6.87517   6.87549   6.87571
 Alpha virt. eigenvalues --    6.87664   6.88141   6.88231   6.88304   6.88664
 Alpha virt. eigenvalues --    6.88859   6.88912   6.89599   6.90259   6.97173
 Alpha virt. eigenvalues --    6.97840   6.99770   6.99910   7.00319   7.00691
 Alpha virt. eigenvalues --    7.05089   7.05293   7.06208   7.06533   7.12494
 Alpha virt. eigenvalues --    7.13045   7.33616   7.33825   7.34395   7.35131
 Alpha virt. eigenvalues --    7.37730   7.38217   7.48850   7.49643   7.55375
 Alpha virt. eigenvalues --    7.56182   7.56416   7.56610   8.28471   8.28802
 Alpha virt. eigenvalues --    8.30450   8.31072   8.32229   8.32654   8.45239
 Alpha virt. eigenvalues --    8.45301   8.45440   8.45613   8.52639   8.55661
 Alpha virt. eigenvalues --    8.67364   8.67785   8.74381   8.74800   8.75102
 Alpha virt. eigenvalues --    8.75293   8.84573   8.84954   8.90811   8.91442
 Alpha virt. eigenvalues --    8.97773   8.97931   8.98897   8.99024   9.04744
 Alpha virt. eigenvalues --    9.06162   9.09551   9.10678  22.05917  22.71060
 Alpha virt. eigenvalues --   22.78252  22.80873  22.87973  22.88904  23.08680
 Alpha virt. eigenvalues --   23.28610  34.46690  34.55639  34.80850  42.86246
 Alpha virt. eigenvalues --   57.35137  57.36205  57.37181  57.38456  57.41997
 Alpha virt. eigenvalues --   57.51023 117.57224
          Condensed to atoms (all electrons):
               1          2          3          4          5          6
     1  F    8.996597   0.329011  -0.043203  -0.048152  -0.074881   0.008164
     2  C    0.329011   4.129707   0.328973   0.345668   0.444514  -0.040485
     3  F   -0.043203   0.328973   8.995515  -0.047936  -0.073633   0.003928
     4  F   -0.048152   0.345668  -0.047936   9.000945  -0.080228   0.003199
     5  C   -0.074881   0.444514  -0.073633  -0.080228   5.210493   0.266555
     6  C    0.008164  -0.040485   0.003928   0.003199   0.266555   5.406359
     7  C    0.002080   0.001308  -0.000008  -0.000648   0.026937   0.348623
     8  I    0.000006  -0.000326   0.000009   0.000012   0.018963  -0.083436
     9  C   -0.000104   0.000500  -0.000148   0.000144  -0.087660   0.015604
    10  C   -0.000304   0.003530   0.001710  -0.001141  -0.003194  -0.087658
    11  C   -0.000001  -0.000245  -0.000069  -0.000018   0.003530   0.000500
    12  F   -0.000000  -0.000018   0.000000  -0.000000  -0.001141   0.000144
    13  F   -0.000000  -0.000001  -0.000000  -0.000000  -0.000304  -0.000104
    14  F   -0.000000  -0.000069   0.000001   0.000000   0.001710  -0.000148
    15  C    0.004689  -0.042329   0.007541   0.004367   0.371165  -0.028473
    16  H    0.006694  -0.004115   0.000150   0.000034  -0.027649   0.399165
    17  H   -0.000000   0.000072  -0.000001  -0.000000  -0.001649   0.010936
    18  H    0.000201  -0.005451   0.007052   0.000247  -0.020737   0.006637
               7          8          9         10         11         12
     1  F    0.002080   0.000006  -0.000104  -0.000304  -0.000001  -0.000000
     2  C    0.001308  -0.000326   0.000500   0.003530  -0.000245  -0.000018
     3  F   -0.000008   0.000009  -0.000148   0.001710  -0.000069   0.000000
     4  F   -0.000648   0.000012   0.000144  -0.001141  -0.000018  -0.000000
     5  C    0.026937   0.018963  -0.087660  -0.003194   0.003530  -0.001141
     6  C    0.348623  -0.083436   0.015604  -0.087658   0.000500   0.000144
     7  C    4.926088   0.334436   0.348623   0.026935   0.001308  -0.000648
     8  I    0.334436  24.865314  -0.083437   0.018963  -0.000326   0.000012
     9  C    0.348623  -0.083437   5.406358   0.266555  -0.040485   0.003198
    10  C    0.026935   0.018963   0.266555   5.210491   0.444514  -0.080227
    11  C    0.001308  -0.000326  -0.040485   0.444514   4.129703   0.345669
    12  F   -0.000648   0.000012   0.003198  -0.080227   0.345669   9.000950
    13  F    0.002080   0.000006   0.008165  -0.074880   0.329013  -0.048153
    14  F   -0.000008   0.000009   0.003928  -0.073630   0.328974  -0.047939
    15  C   -0.053425   0.002798  -0.028472   0.371165  -0.042328   0.004367
    16  H   -0.032872  -0.010510   0.010936  -0.001649   0.000072  -0.000000
    17  H   -0.032872  -0.010510   0.399165  -0.027648  -0.004115   0.000034
    18  H   -0.000532   0.000059   0.006638  -0.020738  -0.005451   0.000247
              13         14         15         16         17         18
     1  F   -0.000000  -0.000000   0.004689   0.006694  -0.000000   0.000201
     2  C   -0.000001  -0.000069  -0.042329  -0.004115   0.000072  -0.005451
     3  F   -0.000000   0.000001   0.007541   0.000150  -0.000001   0.007052
     4  F   -0.000000   0.000000   0.004367   0.000034  -0.000000   0.000247
     5  C   -0.000304   0.001710   0.371165  -0.027649  -0.001649  -0.020737
     6  C   -0.000104  -0.000148  -0.028473   0.399165   0.010936   0.006637
     7  C    0.002080  -0.000008  -0.053425  -0.032872  -0.032872  -0.000532
     8  I    0.000006   0.000009   0.002798  -0.010510  -0.010510   0.000059
     9  C    0.008165   0.003928  -0.028472   0.010936   0.399165   0.006638
    10  C   -0.074880  -0.073630   0.371165  -0.001649  -0.027648  -0.020738
    11  C    0.329013   0.328974  -0.042328   0.000072  -0.004115  -0.005451
    12  F   -0.048153  -0.047939   0.004367  -0.000000   0.000034   0.000247
    13  F    8.996595  -0.043205   0.004689  -0.000000   0.006694   0.000201
    14  F   -0.043205   8.995519   0.007541  -0.000001   0.000150   0.007052
    15  C    0.004689   0.007541   5.239382   0.006962   0.006961   0.387572
    16  H   -0.000000  -0.000001   0.006962   0.440924   0.000074  -0.000111
    17  H    0.006694   0.000150   0.006961   0.000074   0.440924  -0.000111
    18  H    0.000201   0.007052   0.387572  -0.000111  -0.000111   0.427967
 Mulliken charges:
               1
     1  F   -0.180796
     2  C    0.509755
     3  F   -0.179880
     4  F   -0.176492
     5  C    0.027209
     6  C   -0.229510
     7  C    0.102595
     8  I   -0.052043
     9  C   -0.229508
    10  C    0.027205
    11  C    0.509755
    12  F   -0.176494
    13  F   -0.180796
    14  F   -0.179882
    15  C   -0.224172
    16  H    0.211898
    17  H    0.211898
    18  H    0.209257
 Sum of Mulliken charges =  -0.00000
 Mulliken charges with hydrogens summed into heavy atoms:
               1
     1  F   -0.180796
     2  C    0.509755
     3  F   -0.179880
     4  F   -0.176492
     5  C    0.027209
     6  C   -0.017611
     7  C    0.102595
     8  I   -0.052043
     9  C   -0.017609
    10  C    0.027205
    11  C    0.509755
    12  F   -0.176494
    13  F   -0.180796
    14  F   -0.179882
    15  C   -0.014915
 Electronic spatial extent (au):  <R**2>=           4722.8848
 Charge=             -0.0000 electrons
 Dipole moment (field-independent basis, Debye):
    X=              1.5951    Y=             -0.0001    Z=              0.0000  Tot=              1.5951
 Quadrupole moment (field-independent basis, Debye-Ang):
   XX=           -103.6512   YY=           -111.1878   ZZ=           -106.1574
   XY=              0.0003   XZ=             -0.0000   YZ=              0.4545
 Traceless Quadrupole moment (field-independent basis, Debye-Ang):
   XX=              3.3476   YY=             -4.1890   ZZ=              0.8414
   XY=              0.0003   XZ=             -0.0000   YZ=              0.4545
 Octapole moment (field-independent basis, Debye-Ang**2):
  XXX=             97.2680  YYY=              0.0000  ZZZ=              0.0001  XYY=             52.5075
  XXY=             -0.0009  XXZ=              0.0001  XZZ=             25.6151  YZZ=              0.0002
  YYZ=              0.0001  XYZ=             -1.2520
 Hexadecapole moment (field-independent basis, Debye-Ang**3):
 XXXX=          -2950.7802 YYYY=          -2448.3309 ZZZZ=           -247.5380 XXXY=              0.0053
 XXXZ=             -0.0000 YYYX=              0.0030 YYYZ=             -2.9930 ZZZX=             -0.0001
 ZZZY=              5.3330 XXYY=           -960.0145 XXZZ=           -568.7824 YYZZ=           -449.9267
 XXYZ=              0.1517 YYXZ=             -0.0002 ZZXY=              0.0005
 N-N= 1.225415122811D+03 E-N=-5.220719758305D+03  KE= 1.015408627476D+03
 Calculating spin-rotation constants.
 Leave Link  601 at Tue Sep 17 11:15:58 2024, MaxMem=  1342177280 cpu:               4.0 elap:               4.0
 (Enter /groups/ReismanLab/Software/Gaussian16_RevC/Linux_Binary_AVX2-enabled-CPU/g16/l9999.exe)
 Unable to Open any file for archive entry.
 1\1\GINC-HPC-52-04\SP\RM062X\def2TZVP\C8H3F6I1\MANTIND\17-Sep-2024\0\\
 #p M062X/def2tzvp geom=check guess=read scf(xqc,tight) integral(grid=u
 ltrafine) scrf(SMD, solvent=1,4-Dioxane) nmr=giao\\spe\\0,1\F,0,1.5250
 542818,3.4636396592,-0.4293912546\C,0,2.052667598,2.5038802747,0.35873
 84945\F,0,3.3564447267,2.3751657091,0.0375505496\F,0,1.997475437,2.956
 9500957,1.6299829391\C,0,1.3147229378,1.1982324654,0.2131149757\C,0,-0
 .0506230888,1.2121558238,-0.0795867745\C,0,-0.7381127225,0.0029562655,
 -0.1511028372\I,0,-2.8249920299,0.007418061,-0.5950640653\C,0,-0.08600
 43849,-1.2091161087,0.0623624834\C,0,1.2802937123,-1.2010447545,0.3507
 921767\C,0,2.008262369,-2.5098303453,0.5170362496\F,0,2.4735052248,-2.
 9637613642,-0.6669712913\F,0,1.2016109829,-3.4667587173,1.0212774575\F
 ,0,3.068896735,-2.3861917675,1.3412531839\C,0,1.9872938397,-0.00288145
 45,0.4286969431\H,0,-0.5571552999,2.1533971457,-0.2518371382\H,0,-0.62
 26451007,-2.1481201687,0.0126859848\H,0,3.0463091742,-0.0051510595,0.6
 539961136\\Version=ES64L-G16RevC.02\State=1-A\HF=-1203.4360083\RMSD=3.
 704e-09\Dipole=-0.6138265,0.0013439,-0.1305815\Quadrupole=2.4090667,-3
 .1320759,0.7230092,0.0341391,0.3752189,-0.215967\PG=C01 [X(C8H3F6I1)]\
 \@
 The archive entry for this job was punched.


 IN THE LONG RUN, DIGGING FOR TRUTH HAS ALWAYS PROVED NOT ONLY 
 MORE INTERESTING BUT MORE PROFITABLE THAN DIGGING FOR GOLD.

                             -- GEORGE R. HARRISON
 Job cpu time:       0 days  0 hours 18 minutes 20.7 seconds.
 Elapsed time:       0 days  0 hours 18 minutes 24.3 seconds.
 File lengths (MBytes):  RWF=    320 Int=      0 D2E=      0 Chk=     32 Scr=     16
 Normal termination of Gaussian 16 at Tue Sep 17 11:15:58 2024.
