 Entering Gaussian System, Link 0=g16
 Input=smiles_00041_conf_2.gjf
 Output=smiles_00041_conf_2.log
 Initial command:
 /groups/ReismanLab/Software/Gaussian16_RevC/Linux_Binary_AVX2-enabled-CPU/g16/l1.exe "/central/groups/ReismanLab/DM/dft_final/smiles_00041/Gau-908826.inp" -scrdir="/central/groups/ReismanLab/DM/dft_final/smiles_00041/"
 Entering Link 1 = /groups/ReismanLab/Software/Gaussian16_RevC/Linux_Binary_AVX2-enabled-CPU/g16/l1.exe PID=    908829.
  
 Copyright (c) 1988-2021, Gaussian, Inc.  All Rights Reserved.
  
 This is part of the Gaussian(R) 16 program.  It is based on
 the Gaussian(R) 09 system (copyright 2009, Gaussian, Inc.),
 the Gaussian(R) 03 system (copyright 2003, Gaussian, Inc.),
 the Gaussian(R) 98 system (copyright 1998, Gaussian, Inc.),
 the Gaussian(R) 94 system (copyright 1995, Gaussian, Inc.),
 the Gaussian 92(TM) system (copyright 1992, Gaussian, Inc.),
 the Gaussian 90(TM) system (copyright 1990, Gaussian, Inc.),
 the Gaussian 88(TM) system (copyright 1988, Gaussian, Inc.),
 the Gaussian 86(TM) system (copyright 1986, Carnegie Mellon
 University), and the Gaussian 82(TM) system (copyright 1983,
 Carnegie Mellon University). Gaussian is a federally registered
 trademark of Gaussian, Inc.
  
 This software contains proprietary and confidential information,
 including trade secrets, belonging to Gaussian, Inc.
  
 This software is provided under written license and may be
 used, copied, transmitted, or stored only in accord with that
 written license.
  
 The following legend is applicable only to US Government
 contracts under FAR:
  
                    RESTRICTED RIGHTS LEGEND
  
 Use, reproduction and disclosure by the US Government is
 subject to restrictions as set forth in subparagraphs (a)
 and (c) of the Commercial Computer Software - Restricted
 Rights clause in FAR 52.227-19.
  
 Gaussian, Inc.
 340 Quinnipiac St., Bldg. 40, Wallingford CT 06492
  
  
 ---------------------------------------------------------------
 Warning -- This program may not be used in any manner that
 competes with the business of Gaussian, Inc. or will provide
 assistance to any competitor of Gaussian, Inc.  The licensee
 of this program is prohibited from giving any competitor of
 Gaussian, Inc. access to this program.  By using this program,
 the user acknowledges that Gaussian, Inc. is engaged in the
 business of creating and licensing software in the field of
 computational chemistry and represents and warrants to the
 licensee that it is not a competitor of Gaussian, Inc. and that
 it will not use this program in any manner prohibited above.
 ---------------------------------------------------------------
  

 Cite this work as:
 Gaussian 16, Revision C.02,
 M. J. Frisch, G. W. Trucks, H. B. Schlegel, G. E. Scuseria, 
 M. A. Robb, J. R. Cheeseman, G. Scalmani, V. Barone, 
 G. A. Petersson, H. Nakatsuji, X. Li, M. Caricato, A. V. Marenich, 
 J. Bloino, B. G. Janesko, R. Gomperts, B. Mennucci, H. P. Hratchian, 
 J. V. Ortiz, A. F. Izmaylov, J. L. Sonnenberg, D. Williams-Young, 
 F. Ding, F. Lipparini, F. Egidi, J. Goings, B. Peng, A. Petrone, 
 T. Henderson, D. Ranasinghe, V. G. Zakrzewski, J. Gao, N. Rega, 
 G. Zheng, W. Liang, M. Hada, M. Ehara, K. Toyota, R. Fukuda, 
 J. Hasegawa, M. Ishida, T. Nakajima, Y. Honda, O. Kitao, H. Nakai, 
 T. Vreven, K. Throssell, J. A. Montgomery, Jr., J. E. Peralta, 
 F. Ogliaro, M. J. Bearpark, J. J. Heyd, E. N. Brothers, K. N. Kudin, 
 V. N. Staroverov, T. A. Keith, R. Kobayashi, J. Normand, 
 K. Raghavachari, A. P. Rendell, J. C. Burant, S. S. Iyengar, 
 J. Tomasi, M. Cossi, J. M. Millam, M. Klene, C. Adamo, R. Cammi, 
 J. W. Ochterski, R. L. Martin, K. Morokuma, O. Farkas, 
 J. B. Foresman, and D. J. Fox, Gaussian, Inc., Wallingford CT, 2019.
 
 ******************************************
 Gaussian 16:  ES64L-G16RevC.02  7-Dec-2021
                17-Sep-2024 
 ******************************************
 %nprocshared=8
 Will use up to    8 processors via shared memory.
 %Mem=10GB
 %Chk=smiles_00041_conf_2.chk
 ----------------------------------------------------------------------
 #p B3LYP/6-31G(d,p) EmpiricalDispersion=GD3BJ opt freq scf(xqc,tight) 
 integral(grid=ultrafine)
 ----------------------------------------------------------------------
 1/18=20,19=15,26=4,38=1/1,3;
 2/9=110,12=2,17=6,18=5,40=1/2;
 3/5=1,6=6,7=101,11=2,25=1,30=1,71=1,74=-5,75=-5,124=41/1,2,3;
 4//1;
 5/5=2,8=3,13=1,32=2,38=5/2,8;
 6/7=2,8=2,9=2,10=2,28=1/1;
 7//1,2,3,16;
 1/18=20,19=15,26=4/3(2);
 2/9=110/2;
 99//99;
 2/9=110/2;
 3/5=1,6=6,7=101,11=2,25=1,30=1,71=1,74=-5,75=-5,124=41/1,2,3;
 4/5=5,16=3,69=1/1;
 5/5=2,8=3,13=1,32=2,38=5/2,8;
 7//1,2,3,16;
 1/18=20,19=15,26=4/3(-5);
 2/9=110/2;
 6/7=2,8=2,9=2,10=2,19=2,28=1/1;
 99/9=1/99;
 Leave Link    1 at Tue Sep 17 09:44:35 2024, MaxMem=  1342177280 cpu:               0.1 elap:               1.0
 (Enter /groups/ReismanLab/Software/Gaussian16_RevC/Linux_Binary_AVX2-enabled-CPU/g16/l101.exe)
 ----------------------------------
 opt-freq conformers_unique/conf_ac
 ----------------------------------
 Symbolic Z-matrix:
 Charge =  0 Multiplicity = 1
 C                    -0.47905   2.57893   0.57671 
 O                    -1.02421   1.76807  -0.45546 
 C                    -1.19593   0.44255  -0.20392 
 C                    -2.47828  -0.10206  -0.25991 
 C                    -2.664    -1.46114  -0.06844 
 C                    -1.55147  -2.24795   0.18093 
 N                    -0.32848  -1.75019   0.21163 
 C                    -0.15472  -0.4667    0.01662 
 Br                    1.66511   0.09416  -0.01102 
 H                     0.08991   2.0047    1.30748 
 H                     0.17642   3.30894   0.10377 
 H                    -1.29545   3.09738   1.09016 
 H                    -3.30707   0.55945  -0.46186 
 H                    -3.65041  -1.89442  -0.11021 
 H                    -1.62323  -3.3128    0.34921 
 
 ITRead=  0  0  0  0  0  0  0  0  0  0  0  0  0  0  0
 MicOpt= -1 -1 -1 -1 -1 -1 -1 -1 -1 -1 -1 -1 -1 -1 -1
 NAtoms=     15 NQM=       15 NQMF=       0 NMMI=      0 NMMIF=      0
                NMic=       0 NMicF=      0.
                    Isotopes and Nuclear Properties:
 (Nuclear quadrupole moments (NQMom) in fm**2, nuclear magnetic moments (NMagM)
  in nuclear magnetons)

  Atom         1           2           3           4           5           6           7           8           9          10
 IAtWgt=          12          16          12          12          12          12          14          12          79           1
 AtmWgt=  12.0000000  15.9949146  12.0000000  12.0000000  12.0000000  12.0000000  14.0030740  12.0000000  78.9183361   1.0078250
 NucSpn=           0           0           0           0           0           0           2           0           3           1
 AtZEff=  -0.0000000  -0.0000000  -0.0000000  -0.0000000  -0.0000000  -0.0000000  -0.0000000  -0.0000000  -0.0000000  -0.0000000
 NQMom=    0.0000000   0.0000000   0.0000000   0.0000000   0.0000000   0.0000000   2.0440000   0.0000000  31.3000000   0.0000000
 NMagM=    0.0000000   0.0000000   0.0000000   0.0000000   0.0000000   0.0000000   0.4037610   0.0000000   2.1063990   2.7928460
 AtZNuc=   6.0000000   8.0000000   6.0000000   6.0000000   6.0000000   6.0000000   7.0000000   6.0000000  35.0000000   1.0000000

  Atom        11          12          13          14          15
 IAtWgt=           1           1           1           1           1
 AtmWgt=   1.0078250   1.0078250   1.0078250   1.0078250   1.0078250
 NucSpn=           1           1           1           1           1
 AtZEff=  -0.0000000  -0.0000000  -0.0000000  -0.0000000  -0.0000000
 NQMom=    0.0000000   0.0000000   0.0000000   0.0000000   0.0000000
 NMagM=    2.7928460   2.7928460   2.7928460   2.7928460   2.7928460
 AtZNuc=   1.0000000   1.0000000   1.0000000   1.0000000   1.0000000
 Leave Link  101 at Tue Sep 17 09:44:36 2024, MaxMem=  1342177280 cpu:               0.2 elap:               0.2
 (Enter /groups/ReismanLab/Software/Gaussian16_RevC/Linux_Binary_AVX2-enabled-CPU/g16/l103.exe)

 GradGradGradGradGradGradGradGradGradGradGradGradGradGradGradGradGradGrad
 Berny optimization.
 Initialization pass.
                           ----------------------------
                           !    Initial Parameters    !
                           ! (Angstroms and Degrees)  !
 --------------------------                            --------------------------
 ! Name  Definition              Value          Derivative Info.                !
 --------------------------------------------------------------------------------
 ! R1    R(1,2)                  1.4213         estimate D2E/DX2                !
 ! R2    R(1,10)                 1.0897         estimate D2E/DX2                !
 ! R3    R(1,11)                 1.0891         estimate D2E/DX2                !
 ! R4    R(1,12)                 1.095          estimate D2E/DX2                !
 ! R5    R(2,3)                  1.3601         estimate D2E/DX2                !
 ! R6    R(3,4)                  1.3943         estimate D2E/DX2                !
 ! R7    R(3,8)                  1.3998         estimate D2E/DX2                !
 ! R8    R(4,5)                  1.385          estimate D2E/DX2                !
 ! R9    R(4,13)                 1.0795         estimate D2E/DX2                !
 ! R10   R(5,6)                  1.3853         estimate D2E/DX2                !
 ! R11   R(5,14)                 1.0782         estimate D2E/DX2                !
 ! R12   R(6,7)                  1.3208         estimate D2E/DX2                !
 ! R13   R(6,15)                 1.0805         estimate D2E/DX2                !
 ! R14   R(7,8)                  1.3098         estimate D2E/DX2                !
 ! R15   R(8,9)                  1.9045         estimate D2E/DX2                !
 ! A1    A(2,1,10)             112.7454         estimate D2E/DX2                !
 ! A2    A(2,1,11)             107.3303         estimate D2E/DX2                !
 ! A3    A(2,1,12)             108.9464         estimate D2E/DX2                !
 ! A4    A(10,1,11)            109.2798         estimate D2E/DX2                !
 ! A5    A(10,1,12)            108.925          estimate D2E/DX2                !
 ! A6    A(11,1,12)            109.5715         estimate D2E/DX2                !
 ! A7    A(1,2,3)              118.043          estimate D2E/DX2                !
 ! A8    A(2,3,4)              119.2985         estimate D2E/DX2                !
 ! A9    A(2,3,8)              124.6299         estimate D2E/DX2                !
 ! A10   A(4,3,8)              115.894          estimate D2E/DX2                !
 ! A11   A(3,4,5)              120.069          estimate D2E/DX2                !
 ! A12   A(3,4,13)             118.3122         estimate D2E/DX2                !
 ! A13   A(5,4,13)             121.6172         estimate D2E/DX2                !
 ! A14   A(4,5,6)              118.3297         estimate D2E/DX2                !
 ! A15   A(4,5,14)             120.7747         estimate D2E/DX2                !
 ! A16   A(6,5,14)             120.8955         estimate D2E/DX2                !
 ! A17   A(5,6,7)              122.2621         estimate D2E/DX2                !
 ! A18   A(5,6,15)             122.3086         estimate D2E/DX2                !
 ! A19   A(7,6,15)             115.4234         estimate D2E/DX2                !
 ! A20   A(6,7,8)              119.2537         estimate D2E/DX2                !
 ! A21   A(3,8,7)              124.1447         estimate D2E/DX2                !
 ! A22   A(3,8,9)              121.1431         estimate D2E/DX2                !
 ! A23   A(7,8,9)              114.6769         estimate D2E/DX2                !
 ! D1    D(10,1,2,3)            22.2307         estimate D2E/DX2                !
 ! D2    D(11,1,2,3)           142.6201         estimate D2E/DX2                !
 ! D3    D(12,1,2,3)           -98.8163         estimate D2E/DX2                !
 ! D4    D(1,2,3,4)            119.131          estimate D2E/DX2                !
 ! D5    D(1,2,3,8)            -65.9207         estimate D2E/DX2                !
 ! D6    D(2,3,4,5)            176.9724         estimate D2E/DX2                !
 ! D7    D(2,3,4,13)            -2.568          estimate D2E/DX2                !
 ! D8    D(8,3,4,5)              1.5921         estimate D2E/DX2                !
 ! D9    D(8,3,4,13)          -177.9483         estimate D2E/DX2                !
 ! D10   D(2,3,8,7)           -177.4982         estimate D2E/DX2                !
 ! D11   D(2,3,8,9)              0.2232         estimate D2E/DX2                !
 ! D12   D(4,3,8,7)             -2.395          estimate D2E/DX2                !
 ! D13   D(4,3,8,9)            175.3264         estimate D2E/DX2                !
 ! D14   D(3,4,5,6)              0.2066         estimate D2E/DX2                !
 ! D15   D(3,4,5,14)          -179.9436         estimate D2E/DX2                !
 ! D16   D(13,4,5,6)           179.7314         estimate D2E/DX2                !
 ! D17   D(13,4,5,14)           -0.4187         estimate D2E/DX2                !
 ! D18   D(4,5,6,7)             -1.5272         estimate D2E/DX2                !
 ! D19   D(4,5,6,15)           179.3911         estimate D2E/DX2                !
 ! D20   D(14,5,6,7)           178.6231         estimate D2E/DX2                !
 ! D21   D(14,5,6,15)           -0.4585         estimate D2E/DX2                !
 ! D22   D(5,6,7,8)              0.849          estimate D2E/DX2                !
 ! D23   D(15,6,7,8)           179.9897         estimate D2E/DX2                !
 ! D24   D(6,7,8,3)              1.2027         estimate D2E/DX2                !
 ! D25   D(6,7,8,9)           -176.6511         estimate D2E/DX2                !
 --------------------------------------------------------------------------------
 Trust Radius=3.00D-01 FncErr=1.00D-07 GrdErr=1.00D-06 EigMax=2.50D+02 EigMin=1.00D-04
 Number of steps in this run=     73 maximum allowed number of steps=    100.
 GradGradGradGradGradGradGradGradGradGradGradGradGradGradGradGradGradGrad

 Leave Link  103 at Tue Sep 17 09:44:36 2024, MaxMem=  1342177280 cpu:               0.1 elap:               0.0
 (Enter /groups/ReismanLab/Software/Gaussian16_RevC/Linux_Binary_AVX2-enabled-CPU/g16/l202.exe)
                          Input orientation:                          
 ---------------------------------------------------------------------
 Center     Atomic      Atomic             Coordinates (Angstroms)
 Number     Number       Type             X           Y           Z
 ---------------------------------------------------------------------
      1          6           0       -0.479046    2.578933    0.576712
      2          8           0       -1.024207    1.768066   -0.455464
      3          6           0       -1.195933    0.442545   -0.203915
      4          6           0       -2.478280   -0.102056   -0.259912
      5          6           0       -2.663999   -1.461140   -0.068443
      6          6           0       -1.551475   -2.247945    0.180931
      7          7           0       -0.328481   -1.750192    0.211630
      8          6           0       -0.154724   -0.466703    0.016617
      9         35           0        1.665106    0.094159   -0.011016
     10          1           0        0.089907    2.004699    1.307485
     11          1           0        0.176425    3.308944    0.103768
     12          1           0       -1.295448    3.097380    1.090164
     13          1           0       -3.307067    0.559447   -0.461861
     14          1           0       -3.650410   -1.894423   -0.110206
     15          1           0       -1.623233   -3.312798    0.349207
 ---------------------------------------------------------------------
                    Distance matrix (angstroms):
                    1          2          3          4          5
     1  C    0.000000
     2  O    1.421300   0.000000
     3  C    2.384840   1.360063   0.000000
     4  C    3.447402   2.376957   1.394325   0.000000
     5  C    4.638150   3.642317   2.407818   1.385013   0.000000
     6  C    4.960393   4.100165   2.741032   2.378687   1.385265
     7  N    4.347101   3.647902   2.394420   2.749608   2.369945
     8  C    3.113646   2.443983   1.399815   2.368195   2.700481
     9  Br   3.334204   3.198735   2.888620   4.155490   4.600370
    10  H    1.089716   2.098865   2.525478   3.672974   4.635646
    11  H    1.089144   2.031887   3.192848   4.337585   5.554401
    12  H    1.094957   2.056602   2.955113   3.668540   4.898510
    13  H    3.626936   2.583070   2.130044   1.079470   2.156637
    14  H    5.526330   4.519953   3.390377   2.146831   1.078186
    15  H    6.006115   5.178948   3.819834   3.378017   2.164778
                    6          7          8          9         10
     6  C    0.000000
     7  N    1.320763   0.000000
     8  C    2.269523   1.309796   0.000000
     9  Br   3.983552   2.724993   1.904498   0.000000
    10  H    4.695555   3.933848   2.798931   2.805327   0.000000
    11  H    5.819846   5.085413   3.791144   3.544601   1.776928
    12  H    5.428145   5.020539   3.893128   4.358534   1.777749
    13  H    3.372941   3.828837   3.349506   5.014205   4.093748
    14  H    2.148317   3.340597   3.778133   5.676178   5.585962
    15  H    1.080452   2.033973   3.219843   4.748714   5.668238
                   11         12         13         14         15
    11  H    0.000000
    12  H    1.784417   0.000000
    13  H    4.473744   3.591169   0.000000
    14  H    6.462622   5.648437   2.502603   0.000000
    15  H    6.866329   6.461180   4.299698   2.516405   0.000000
 Stoichiometry    C6H6BrNO
 Framework group  C1[X(C6H6BrNO)]
 Deg. of freedom    39
 Full point group                 C1      NOp   1
 Largest Abelian subgroup         C1      NOp   1
 Largest concise Abelian subgroup C1      NOp   1
                         Standard orientation:                         
 ---------------------------------------------------------------------
 Center     Atomic      Atomic             Coordinates (Angstroms)
 Number     Number       Type             X           Y           Z
 ---------------------------------------------------------------------
      1          6           0        0.779106    2.470087    0.543872
      2          8           0       -0.082050    1.961522   -0.466012
      3          6           0       -0.785278    0.829122   -0.195990
      4          6           0       -2.178857    0.870456   -0.215216
      5          6           0       -2.910404   -0.286575   -0.004550
      6          6           0       -2.222320   -1.466442    0.226566
      7          7           0       -0.902885   -1.525519    0.222440
      8          6           0       -0.213885   -0.432160    0.009342
      9         35           0        1.672378   -0.683393   -0.068127
     10          1           0        1.075098    1.710481    1.266969
     11          1           0        1.666933    2.859321    0.047389
     12          1           0        0.267919    3.282262    1.071121
     13          1           0       -2.660386    1.817875   -0.404378
     14          1           0       -3.988344   -0.267829   -0.017872
     15          1           0       -2.728033   -2.403819    0.408103
 ---------------------------------------------------------------------
 Rotational constants (GHZ):           1.7303282           0.9870638           0.6490390
 Leave Link  202 at Tue Sep 17 09:44:36 2024, MaxMem=  1342177280 cpu:               0.1 elap:               0.0
 (Enter /groups/ReismanLab/Software/Gaussian16_RevC/Linux_Binary_AVX2-enabled-CPU/g16/l301.exe)
 Standard basis: 6-31G(d,p) (6D, 7F)
 Ernie: Thresh=  0.10000D-02 Tol=  0.10000D-05 Strict=F.
 There are   180 symmetry adapted cartesian basis functions of A   symmetry.
 There are   180 symmetry adapted basis functions of A   symmetry.
   180 basis functions,   349 primitive gaussians,   180 cartesian basis functions
    46 alpha electrons       46 beta electrons
       nuclear repulsion energy       666.9114099562 Hartrees.
 IExCor=  402 DFT=T Ex+Corr=B3LYP ExCW=0 ScaHFX=  0.200000
 ScaDFX=  0.800000  0.720000  1.000000  0.810000 ScalE2=  1.000000  1.000000
 IRadAn=      5 IRanWt=     -1 IRanGd=            0 ICorTp=0 IEmpDi=141
 NAtoms=   15 NActive=   15 NUniq=   15 SFac= 1.00D+00 NAtFMM=   60 NAOKFM=F Big=F
 Integral buffers will be    131072 words long.
 Raffenetti 2 integral format.
 Two-electron integral symmetry is turned on.
 R6Disp:  Grimme-D3(BJ) Dispersion energy=       -0.0295703413 Hartrees.
 Nuclear repulsion after empirical dispersion term =      666.8818396149 Hartrees.
 Leave Link  301 at Tue Sep 17 09:44:36 2024, MaxMem=  1342177280 cpu:               0.1 elap:               0.1
 (Enter /groups/ReismanLab/Software/Gaussian16_RevC/Linux_Binary_AVX2-enabled-CPU/g16/l302.exe)
 NPDir=0 NMtPBC=     1 NCelOv=     1 NCel=       1 NClECP=     1 NCelD=      1
         NCelK=      1 NCelE2=     1 NClLst=     1 CellRange=     0.0.
 One-electron integrals computed using PRISM.
 One-electron integral symmetry used in STVInt
 NBasis=   180 RedAO= T EigKep=  6.81D-04  NBF=   180
 NBsUse=   180 1.00D-06 EigRej= -1.00D+00 NBFU=   180
 Precomputing XC quadrature grid using
 IXCGrd= 4 IRadAn=           5 IRanWt=          -1 IRanGd=           0 AccXCQ= 0.00D+00.
 Generated NRdTot=       0 NPtTot=           0 NUsed=           0 NTot=          32
 NSgBfM=   180   180   180   180   180 MxSgAt=    15 MxSgA2=    15.
 Leave Link  302 at Tue Sep 17 09:44:36 2024, MaxMem=  1342177280 cpu:               0.9 elap:               0.2
 (Enter /groups/ReismanLab/Software/Gaussian16_RevC/Linux_Binary_AVX2-enabled-CPU/g16/l303.exe)
 DipDrv:  MaxL=1.
 Leave Link  303 at Tue Sep 17 09:44:36 2024, MaxMem=  1342177280 cpu:               0.1 elap:               0.0
 (Enter /groups/ReismanLab/Software/Gaussian16_RevC/Linux_Binary_AVX2-enabled-CPU/g16/l401.exe)
 ExpMin= 1.43D-01 ExpMax= 5.74D+05 ExpMxC= 5.74D+03 IAcc=3 IRadAn=         5 AccDes= 0.00D+00
 Harris functional with IExCor=  402 and IRadAn=       5 diagonalized for initial guess.
 HarFok:  IExCor=  402 AccDes= 0.00D+00 IRadAn=         5 IDoV= 1 UseB2=F ITyADJ=14
 ICtDFT=  3500011 ScaDFX=  1.000000  1.000000  1.000000  1.000000
 FoFCou: FMM=F IPFlag=           0 FMFlag=      100000 FMFlg1=           0
         NFxFlg=           0 DoJE=T BraDBF=F KetDBF=T FulRan=T
         wScrn=  0.000000 ICntrl=       500 IOpCl=  0 I1Cent=   200000004 NGrid=           0
         NMat0=    1 NMatS0=      1 NMatT0=    0 NMatD0=    1 NMtDS0=    0 NMtDT0=    0
 Petite list used in FoFCou.
 Harris En= -2934.03610061506    
 JPrj=0 DoOrth=F DoCkMO=F.
 Leave Link  401 at Tue Sep 17 09:44:36 2024, MaxMem=  1342177280 cpu:               2.9 elap:               0.4
 (Enter /groups/ReismanLab/Software/Gaussian16_RevC/Linux_Binary_AVX2-enabled-CPU/g16/l502.exe)
 Integral symmetry usage will be decided dynamically.
 Closed shell SCF:
 Using DIIS extrapolation, IDIIS=  1040.
 NGot=  1342177280 LenX=  1342108742 LenY=  1342075901
 Requested convergence on RMS density matrix=1.00D-08 within  32 cycles.
 Requested convergence on MAX density matrix=1.00D-06.
 Requested convergence on             energy=1.00D-06.
 No special actions if energy rises.
 Fock matrices will be formed incrementally for  20 cycles.
 Integral accuracy reduced to 1.0D-05 until final iterations.

 Cycle   1  Pass 0  IDiag  1:
 FoFJK:  IHMeth= 1 ICntrl=       0 DoSepK=F KAlg= 0 I1Cent=           0 FoldK=F
 IRaf= 910000000 NMat=       1 IRICut=       1 DoRegI=T DoRafI=F ISym2E= 0 IDoP0=0 IntGTp=1.
 FoFCou: FMM=F IPFlag=           0 FMFlag=      100000 FMFlg1=           0
         NFxFlg=           0 DoJE=F BraDBF=F KetDBF=F FulRan=T
         wScrn=  0.000000 ICntrl=         0 IOpCl=  0 I1Cent=           0 NGrid=           0
         NMat0=    1 NMatS0=      1 NMatT0=    0 NMatD0=    1 NMtDS0=    0 NMtDT0=    0
 Symmetry not used in FoFCou.
 E= -2933.79379267875    
 DIIS: error= 1.80D-01 at cycle   1 NSaved=   1.
 NSaved= 1 IEnMin= 1 EnMin= -2933.79379267875     IErMin= 1 ErrMin= 1.80D-01
 ErrMax= 1.80D-01  0.00D+00 EMaxC= 1.00D-01 BMatC= 5.00D-01 BMatP= 5.00D-01
 IDIUse=3 WtCom= 0.00D+00 WtEn= 1.00D+00
 Coeff-Com:  0.100D+01
 Coeff-En:   0.100D+01
 Coeff:      0.100D+01
 Gap=     0.246 Goal=   None    Shift=    0.000
 GapD=    0.246 DampG=1.000 DampE=0.250 DampFc=0.2500 IDamp=-1.
 Damping current iteration by 2.50D-01
 RMSDP=5.36D-03 MaxDP=1.41D-01              OVMax= 1.59D-01

 Cycle   2  Pass 0  IDiag  1:
 RMSU=  1.29D-03    CP:  9.93D-01
 E= -2933.84581363554     Delta-E=       -0.052020956781 Rises=F Damp=T
 DIIS: error= 1.33D-01 at cycle   2 NSaved=   2.
 NSaved= 2 IEnMin= 2 EnMin= -2933.84581363554     IErMin= 2 ErrMin= 1.33D-01
 ErrMax= 1.33D-01  0.00D+00 EMaxC= 1.00D-01 BMatC= 2.34D-01 BMatP= 5.00D-01
 IDIUse=3 WtCom= 0.00D+00 WtEn= 1.00D+00
 Coeff-Com: -0.168D+01 0.268D+01
 Coeff-En:   0.000D+00 0.100D+01
 Coeff:      0.000D+00 0.100D+01
 Gap=     0.246 Goal=   None    Shift=    0.000
 RMSDP=2.94D-03 MaxDP=1.11D-01 DE=-5.20D-02 OVMax= 6.67D-02

 Cycle   3  Pass 0  IDiag  1:
 RMSU=  1.01D-03    CP:  9.70D-01  2.96D+00
 E= -2933.91453325386     Delta-E=       -0.068719618320 Rises=F Damp=F
 DIIS: error= 7.51D-03 at cycle   3 NSaved=   3.
 NSaved= 3 IEnMin= 3 EnMin= -2933.91453325386     IErMin= 3 ErrMin= 7.51D-03
 ErrMax= 7.51D-03  0.00D+00 EMaxC= 1.00D-01 BMatC= 2.91D-02 BMatP= 2.34D-01
 IDIUse=3 WtCom= 9.25D-01 WtEn= 7.51D-02
 Coeff-Com:  0.159D+01-0.205D+01 0.146D+01
 Coeff-En:   0.621D-01 0.000D+00 0.938D+00
 Coeff:      0.148D+01-0.189D+01 0.142D+01
 Gap=     0.217 Goal=   None    Shift=    0.000
 RMSDP=1.39D-03 MaxDP=2.84D-02 DE=-6.87D-02 OVMax= 3.88D-02

 Cycle   4  Pass 0  IDiag  1:
 RMSU=  7.91D-04    CP:  9.71D-01  2.10D+00  1.28D+00
 E= -2933.93534106959     Delta-E=       -0.020807815730 Rises=F Damp=F
 DIIS: error= 4.77D-03 at cycle   4 NSaved=   4.
 NSaved= 4 IEnMin= 4 EnMin= -2933.93534106959     IErMin= 4 ErrMin= 4.77D-03
 ErrMax= 4.77D-03  0.00D+00 EMaxC= 1.00D-01 BMatC= 7.42D-03 BMatP= 2.91D-02
 IDIUse=3 WtCom= 9.52D-01 WtEn= 4.77D-02
 Coeff-Com:  0.104D+01-0.136D+01 0.896D+00 0.430D+00
 Coeff-En:   0.000D+00 0.000D+00 0.659D-01 0.934D+00
 Coeff:      0.988D+00-0.130D+01 0.856D+00 0.454D+00
 Gap=     0.214 Goal=   None    Shift=    0.000
 RMSDP=6.12D-04 MaxDP=1.62D-02 DE=-2.08D-02 OVMax= 2.95D-02

 Cycle   5  Pass 0  IDiag  1:
 RMSU=  1.78D-04    CP:  9.71D-01  2.20D+00  1.35D+00  2.86D-01
 E= -2933.94284003971     Delta-E=       -0.007498970126 Rises=F Damp=F
 DIIS: error= 9.72D-04 at cycle   5 NSaved=   5.
 NSaved= 5 IEnMin= 5 EnMin= -2933.94284003971     IErMin= 5 ErrMin= 9.72D-04
 ErrMax= 9.72D-04  0.00D+00 EMaxC= 1.00D-01 BMatC= 3.25D-04 BMatP= 7.42D-03
 IDIUse=3 WtCom= 9.90D-01 WtEn= 9.72D-03
 Coeff-Com:  0.299D+00-0.394D+00 0.262D+00 0.226D+00 0.607D+00
 Coeff-En:   0.000D+00 0.000D+00 0.000D+00 0.000D+00 0.100D+01
 Coeff:      0.296D+00-0.390D+00 0.259D+00 0.224D+00 0.611D+00
 Gap=     0.211 Goal=   None    Shift=    0.000
 RMSDP=1.33D-04 MaxDP=3.79D-03 DE=-7.50D-03 OVMax= 6.98D-03

 Cycle   6  Pass 0  IDiag  1:
 RMSU=  5.24D-05    CP:  9.70D-01  2.20D+00  1.37D+00  4.00D-01  5.53D-01
 E= -2933.94317826936     Delta-E=       -0.000338229651 Rises=F Damp=F
 DIIS: error= 2.32D-04 at cycle   6 NSaved=   6.
 NSaved= 6 IEnMin= 6 EnMin= -2933.94317826936     IErMin= 6 ErrMin= 2.32D-04
 ErrMax= 2.32D-04  0.00D+00 EMaxC= 1.00D-01 BMatC= 2.41D-05 BMatP= 3.25D-04
 IDIUse=3 WtCom= 9.98D-01 WtEn= 2.32D-03
 Coeff-Com:  0.879D-01-0.116D+00 0.781D-01 0.913D-01 0.335D+00 0.524D+00
 Coeff-En:   0.000D+00 0.000D+00 0.000D+00 0.000D+00 0.000D+00 0.100D+01
 Coeff:      0.877D-01-0.116D+00 0.779D-01 0.911D-01 0.334D+00 0.525D+00
 Gap=     0.211 Goal=   None    Shift=    0.000
 RMSDP=2.62D-05 MaxDP=1.07D-03 DE=-3.38D-04 OVMax= 1.61D-03

 Cycle   7  Pass 0  IDiag  1:
 RMSU=  1.59D-05    CP:  9.71D-01  2.20D+00  1.37D+00  3.95D-01  6.10D-01
                    CP:  6.69D-01
 E= -2933.94319975409     Delta-E=       -0.000021484723 Rises=F Damp=F
 DIIS: error= 5.13D-05 at cycle   7 NSaved=   7.
 NSaved= 7 IEnMin= 7 EnMin= -2933.94319975409     IErMin= 7 ErrMin= 5.13D-05
 ErrMax= 5.13D-05  0.00D+00 EMaxC= 1.00D-01 BMatC= 1.10D-06 BMatP= 2.41D-05
 IDIUse=1 WtCom= 1.00D+00 WtEn= 0.00D+00
 Coeff-Com:  0.243D-01-0.322D-01 0.221D-01 0.310D-01 0.126D+00 0.251D+00
 Coeff-Com:  0.578D+00
 Coeff:      0.243D-01-0.322D-01 0.221D-01 0.310D-01 0.126D+00 0.251D+00
 Coeff:      0.578D+00
 Gap=     0.211 Goal=   None    Shift=    0.000
 RMSDP=8.86D-06 MaxDP=2.81D-04 DE=-2.15D-05 OVMax= 4.10D-04

 Initial convergence to 1.0D-05 achieved.  Increase integral accuracy.
 Cycle   8  Pass 1  IDiag  1:
 E= -2933.94321403415     Delta-E=       -0.000014280065 Rises=F Damp=F
 DIIS: error= 2.25D-05 at cycle   1 NSaved=   1.
 NSaved= 1 IEnMin= 1 EnMin= -2933.94321403415     IErMin= 1 ErrMin= 2.25D-05
 ErrMax= 2.25D-05  0.00D+00 EMaxC= 1.00D-01 BMatC= 1.85D-07 BMatP= 1.85D-07
 IDIUse=1 WtCom= 1.00D+00 WtEn= 0.00D+00
 Coeff-Com:  0.100D+01
 Coeff:      0.100D+01
 Gap=     0.211 Goal=   None    Shift=    0.000
 RMSDP=8.86D-06 MaxDP=2.81D-04 DE=-1.43D-05 OVMax= 3.63D-04

 Cycle   9  Pass 1  IDiag  1:
 RMSU=  8.81D-06    CP:  1.00D+00
 E= -2933.94321375498     Delta-E=        0.000000279169 Rises=F Damp=F
 DIIS: error= 3.11D-05 at cycle   2 NSaved=   2.
 NSaved= 2 IEnMin= 1 EnMin= -2933.94321403415     IErMin= 1 ErrMin= 2.25D-05
 ErrMax= 3.11D-05  0.00D+00 EMaxC= 1.00D-01 BMatC= 4.28D-07 BMatP= 1.85D-07
 IDIUse=1 WtCom= 1.00D+00 WtEn= 0.00D+00
 Coeff-Com:  0.614D+00 0.386D+00
 Coeff:      0.614D+00 0.386D+00
 Gap=     0.211 Goal=   None    Shift=    0.000
 RMSDP=4.62D-06 MaxDP=1.08D-04 DE= 2.79D-07 OVMax= 2.78D-04

 Cycle  10  Pass 1  IDiag  1:
 RMSU=  3.14D-06    CP:  1.00D+00  6.15D-01
 E= -2933.94321419308     Delta-E=       -0.000000438104 Rises=F Damp=F
 DIIS: error= 6.30D-06 at cycle   3 NSaved=   3.
 NSaved= 3 IEnMin= 3 EnMin= -2933.94321419308     IErMin= 3 ErrMin= 6.30D-06
 ErrMax= 6.30D-06  0.00D+00 EMaxC= 1.00D-01 BMatC= 1.27D-08 BMatP= 1.85D-07
 IDIUse=1 WtCom= 1.00D+00 WtEn= 0.00D+00
 Coeff-Com:  0.135D+00 0.168D+00 0.697D+00
 Coeff:      0.135D+00 0.168D+00 0.697D+00
 Gap=     0.211 Goal=   None    Shift=    0.000
 RMSDP=9.93D-07 MaxDP=3.40D-05 DE=-4.38D-07 OVMax= 4.81D-05

 Cycle  11  Pass 1  IDiag  1:
 RMSU=  7.87D-07    CP:  1.00D+00  6.58D-01  8.51D-01
 E= -2933.94321420086     Delta-E=       -0.000000007776 Rises=F Damp=F
 DIIS: error= 3.17D-06 at cycle   4 NSaved=   4.
 NSaved= 4 IEnMin= 4 EnMin= -2933.94321420086     IErMin= 4 ErrMin= 3.17D-06
 ErrMax= 3.17D-06  0.00D+00 EMaxC= 1.00D-01 BMatC= 5.29D-09 BMatP= 1.27D-08
 IDIUse=1 WtCom= 1.00D+00 WtEn= 0.00D+00
 Coeff-Com:  0.785D-02 0.618D-01 0.459D+00 0.471D+00
 Coeff:      0.785D-02 0.618D-01 0.459D+00 0.471D+00
 Gap=     0.211 Goal=   None    Shift=    0.000
 RMSDP=4.34D-07 MaxDP=1.66D-05 DE=-7.78D-09 OVMax= 2.09D-05

 Cycle  12  Pass 1  IDiag  1:
 RMSU=  1.53D-07    CP:  1.00D+00  6.59D-01  8.90D-01  5.08D-01
 E= -2933.94321420581     Delta-E=       -0.000000004945 Rises=F Damp=F
 DIIS: error= 5.10D-07 at cycle   5 NSaved=   5.
 NSaved= 5 IEnMin= 5 EnMin= -2933.94321420581     IErMin= 5 ErrMin= 5.10D-07
 ErrMax= 5.10D-07  0.00D+00 EMaxC= 1.00D-01 BMatC= 1.52D-10 BMatP= 5.29D-09
 IDIUse=1 WtCom= 1.00D+00 WtEn= 0.00D+00
 Coeff-Com: -0.184D-02 0.263D-01 0.216D+00 0.252D+00 0.508D+00
 Coeff:     -0.184D-02 0.263D-01 0.216D+00 0.252D+00 0.508D+00
 Gap=     0.211 Goal=   None    Shift=    0.000
 RMSDP=7.66D-08 MaxDP=2.24D-06 DE=-4.95D-09 OVMax= 3.04D-06

 Cycle  13  Pass 1  IDiag  1:
 RMSU=  4.26D-08    CP:  1.00D+00  6.61D-01  8.88D-01  5.23D-01  6.12D-01
 E= -2933.94321420597     Delta-E=       -0.000000000161 Rises=F Damp=F
 DIIS: error= 1.27D-07 at cycle   6 NSaved=   6.
 NSaved= 6 IEnMin= 6 EnMin= -2933.94321420597     IErMin= 6 ErrMin= 1.27D-07
 ErrMax= 1.27D-07  0.00D+00 EMaxC= 1.00D-01 BMatC= 7.52D-12 BMatP= 1.52D-10
 IDIUse=1 WtCom= 1.00D+00 WtEn= 0.00D+00
 Coeff-Com: -0.138D-02 0.945D-02 0.785D-01 0.964D-01 0.257D+00 0.560D+00
 Coeff:     -0.138D-02 0.945D-02 0.785D-01 0.964D-01 0.257D+00 0.560D+00
 Gap=     0.211 Goal=   None    Shift=    0.000
 RMSDP=1.65D-08 MaxDP=5.24D-07 DE=-1.61D-10 OVMax= 6.99D-07

 Cycle  14  Pass 1  IDiag  1:
 RMSU=  1.44D-08    CP:  1.00D+00  6.61D-01  8.89D-01  5.22D-01  6.43D-01
                    CP:  8.56D-01
 E= -2933.94321420595     Delta-E=        0.000000000018 Rises=F Damp=F
 DIIS: error= 3.39D-08 at cycle   7 NSaved=   7.
 NSaved= 7 IEnMin= 6 EnMin= -2933.94321420597     IErMin= 7 ErrMin= 3.39D-08
 ErrMax= 3.39D-08  0.00D+00 EMaxC= 1.00D-01 BMatC= 4.23D-13 BMatP= 7.52D-12
 IDIUse=1 WtCom= 1.00D+00 WtEn= 0.00D+00
 Coeff-Com: -0.278D-03 0.311D-03 0.131D-02 0.319D-02 0.347D-01 0.195D+00
 Coeff-Com:  0.766D+00
 Coeff:     -0.278D-03 0.311D-03 0.131D-02 0.319D-02 0.347D-01 0.195D+00
 Coeff:      0.766D+00
 Gap=     0.211 Goal=   None    Shift=    0.000
 RMSDP=6.46D-09 MaxDP=1.48D-07 DE= 1.82D-11 OVMax= 3.56D-07

 SCF Done:  E(RB3LYP) =  -2933.94321421     A.U. after   14 cycles
            NFock= 14  Conv=0.65D-08     -V/T= 2.0065
 KE= 2.915061067737D+03 PE=-8.310279401535D+03 EE= 1.794393279978D+03
 Leave Link  502 at Tue Sep 17 09:44:44 2024, MaxMem=  1342177280 cpu:              52.9 elap:               7.2
 (Enter /groups/ReismanLab/Software/Gaussian16_RevC/Linux_Binary_AVX2-enabled-CPU/g16/l508.exe)
 QCSCF skips out because SCF is already converged.
 Leave Link  508 at Tue Sep 17 09:44:44 2024, MaxMem=  1342177280 cpu:               0.1 elap:               0.0
 (Enter /groups/ReismanLab/Software/Gaussian16_RevC/Linux_Binary_AVX2-enabled-CPU/g16/l601.exe)
 Copying SCF densities to generalized density rwf, IOpCl= 0 IROHF=0.

 **********************************************************************

            Population analysis using the SCF Density.

 **********************************************************************

 Orbital symmetries:
       Occupied  (A) (A) (A) (A) (A) (A) (A) (A) (A) (A) (A) (A)
                 (A) (A) (A) (A) (A) (A) (A) (A) (A) (A) (A) (A)
                 (A) (A) (A) (A) (A) (A) (A) (A) (A) (A) (A) (A)
                 (A) (A) (A) (A) (A) (A) (A) (A) (A) (A)
       Virtual   (A) (A) (A) (A) (A) (A) (A) (A) (A) (A) (A) (A)
                 (A) (A) (A) (A) (A) (A) (A) (A) (A) (A) (A) (A)
                 (A) (A) (A) (A) (A) (A) (A) (A) (A) (A) (A) (A)
                 (A) (A) (A) (A) (A) (A) (A) (A) (A) (A) (A) (A)
                 (A) (A) (A) (A) (A) (A) (A) (A) (A) (A) (A) (A)
                 (A) (A) (A) (A) (A) (A) (A) (A) (A) (A) (A) (A)
                 (A) (A) (A) (A) (A) (A) (A) (A) (A) (A) (A) (A)
                 (A) (A) (A) (A) (A) (A) (A) (A) (A) (A) (A) (A)
                 (A) (A) (A) (A) (A) (A) (A) (A) (A) (A) (A) (A)
                 (A) (A) (A) (A) (A) (A) (A) (A) (A) (A) (A) (A)
                 (A) (A) (A) (A) (A) (A) (A) (A) (A) (A) (A) (A)
                 (A) (A)
 The electronic state is 1-A.
 Alpha  occ. eigenvalues -- -482.90806 -61.86986 -56.39072 -56.38678 -56.38665
 Alpha  occ. eigenvalues --  -19.18091 -14.34373 -10.27559 -10.26918 -10.24151
 Alpha  occ. eigenvalues --  -10.23096 -10.21556 -10.20866  -8.58108  -6.53482
 Alpha  occ. eigenvalues --   -6.52252  -6.52165  -2.65059  -2.64720  -2.64653
 Alpha  occ. eigenvalues --   -2.63671  -2.63670  -1.07223  -0.97020  -0.82055
 Alpha  occ. eigenvalues --   -0.80858  -0.74933  -0.70393  -0.64069  -0.62607
 Alpha  occ. eigenvalues --   -0.53966  -0.51745  -0.50447  -0.47486  -0.45200
 Alpha  occ. eigenvalues --   -0.43862  -0.41721  -0.41590  -0.38768  -0.36491
 Alpha  occ. eigenvalues --   -0.32016  -0.31169  -0.28487  -0.27957  -0.26364
 Alpha  occ. eigenvalues --   -0.24333
 Alpha virt. eigenvalues --   -0.03203  -0.01870   0.01532   0.09946   0.10867
 Alpha virt. eigenvalues --    0.12439   0.14435   0.14860   0.15927   0.16232
 Alpha virt. eigenvalues --    0.17543   0.23820   0.25270   0.27143   0.28408
 Alpha virt. eigenvalues --    0.33182   0.35612   0.40165   0.41773   0.44738
 Alpha virt. eigenvalues --    0.45686   0.47206   0.47744   0.49393   0.50389
 Alpha virt. eigenvalues --    0.51940   0.52572   0.52785   0.55589   0.57279
 Alpha virt. eigenvalues --    0.58143   0.58631   0.61185   0.62902   0.64610
 Alpha virt. eigenvalues --    0.65641   0.68060   0.70121   0.73239   0.76335
 Alpha virt. eigenvalues --    0.80462   0.80599   0.81960   0.83741   0.83805
 Alpha virt. eigenvalues --    0.86155   0.87710   0.88368   0.89461   0.91303
 Alpha virt. eigenvalues --    0.93638   0.96002   1.02192   1.03537   1.06046
 Alpha virt. eigenvalues --    1.08600   1.12907   1.16713   1.17523   1.20522
 Alpha virt. eigenvalues --    1.24063   1.30838   1.34314   1.38309   1.40022
 Alpha virt. eigenvalues --    1.41575   1.43342   1.47795   1.53567   1.55481
 Alpha virt. eigenvalues --    1.58981   1.67319   1.70201   1.72593   1.78142
 Alpha virt. eigenvalues --    1.81369   1.82885   1.86603   1.88858   1.89599
 Alpha virt. eigenvalues --    1.92016   1.94172   1.96586   1.97940   2.02538
 Alpha virt. eigenvalues --    2.03039   2.06419   2.06703   2.11480   2.14973
 Alpha virt. eigenvalues --    2.15902   2.24585   2.29548   2.31800   2.34161
 Alpha virt. eigenvalues --    2.35843   2.39533   2.42067   2.45458   2.47594
 Alpha virt. eigenvalues --    2.49807   2.51745   2.52671   2.54409   2.58202
 Alpha virt. eigenvalues --    2.63110   2.67184   2.70826   2.73669   2.78820
 Alpha virt. eigenvalues --    2.81688   2.86044   2.87989   2.96626   3.00947
 Alpha virt. eigenvalues --    3.07404   3.19142   3.22076   3.24853   3.30331
 Alpha virt. eigenvalues --    3.38555   3.42579   3.42696   3.78644   4.05541
 Alpha virt. eigenvalues --    4.10606   4.19068   4.27835   4.28798   4.42220
 Alpha virt. eigenvalues --    4.50594   4.74030   8.63634  73.31728
          Condensed to atoms (all electrons):
               1          2          3          4          5          6
     1  C    4.732071   0.243679  -0.030995   0.001080  -0.000144   0.000029
     2  O    0.243679   8.242646   0.258875  -0.063468   0.004904   0.000066
     3  C   -0.030995   0.258875   4.702760   0.516455  -0.014870  -0.038962
     4  C    0.001080  -0.063468   0.516455   4.931684   0.500836  -0.034839
     5  C   -0.000144   0.004904  -0.014870   0.500836   4.922112   0.500639
     6  C    0.000029   0.000066  -0.038962  -0.034839   0.500639   4.710379
     7  N    0.000066   0.003338  -0.013971  -0.051320  -0.030714   0.477000
     8  C   -0.009847  -0.061521   0.399971  -0.073119  -0.032557  -0.070080
     9  Br  -0.005139   0.001296  -0.073728   0.004711   0.000172   0.004997
    10  H    0.373666  -0.031105  -0.002903   0.000500   0.000010  -0.000008
    11  H    0.394616  -0.033687   0.001543  -0.000246   0.000010  -0.000001
    12  H    0.379613  -0.041458   0.001132   0.001318  -0.000058  -0.000004
    13  H   -0.000082  -0.001118  -0.038236   0.365340  -0.041806   0.005064
    14  H    0.000002  -0.000046   0.005102  -0.036296   0.359569  -0.034608
    15  H    0.000000   0.000005   0.001113   0.002960  -0.062539   0.387943
               7          8          9         10         11         12
     1  C    0.000066  -0.009847  -0.005139   0.373666   0.394616   0.379613
     2  O    0.003338  -0.061521   0.001296  -0.031105  -0.033687  -0.041458
     3  C   -0.013971   0.399971  -0.073728  -0.002903   0.001543   0.001132
     4  C   -0.051320  -0.073119   0.004711   0.000500  -0.000246   0.001318
     5  C   -0.030714  -0.032557   0.000172   0.000010   0.000010  -0.000058
     6  C    0.477000  -0.070080   0.004997  -0.000008  -0.000001  -0.000004
     7  N    6.770974   0.417162  -0.078285  -0.000592   0.000004   0.000016
     8  C    0.417162   4.924565   0.271722   0.004876   0.000665  -0.000112
     9  Br  -0.078285   0.271722  34.969581   0.003167   0.000038   0.000884
    10  H   -0.000592   0.004876   0.003167   0.599086  -0.029307  -0.039890
    11  H    0.000004   0.000665   0.000038  -0.029307   0.576999  -0.040446
    12  H    0.000016  -0.000112   0.000884  -0.039890  -0.040446   0.630321
    13  H   -0.000263   0.007136  -0.000154   0.000150  -0.000015  -0.000118
    14  H    0.005344   0.000167   0.000018  -0.000000  -0.000000   0.000000
    15  H   -0.052621   0.004524  -0.000196  -0.000000   0.000000   0.000000
              13         14         15
     1  C   -0.000082   0.000002   0.000000
     2  O   -0.001118  -0.000046   0.000005
     3  C   -0.038236   0.005102   0.001113
     4  C    0.365340  -0.036296   0.002960
     5  C   -0.041806   0.359569  -0.062539
     6  C    0.005064  -0.034608   0.387943
     7  N   -0.000263   0.005344  -0.052621
     8  C    0.007136   0.000167   0.004524
     9  Br  -0.000154   0.000018  -0.000196
    10  H    0.000150  -0.000000  -0.000000
    11  H   -0.000015  -0.000000   0.000000
    12  H   -0.000118   0.000000   0.000000
    13  H    0.597840  -0.006640  -0.000174
    14  H   -0.006640   0.608889  -0.001617
    15  H   -0.000174  -0.001617   0.612919
 Mulliken charges:
               1
     1  C   -0.078615
     2  O   -0.522406
     3  C    0.326714
     4  C   -0.065595
     5  C   -0.105563
     6  C    0.092385
     7  N   -0.446138
     8  C    0.216449
     9  Br  -0.099085
    10  H    0.122349
    11  H    0.129827
    12  H    0.108803
    13  H    0.113077
    14  H    0.100116
    15  H    0.107682
 Sum of Mulliken charges =  -0.00000
 Mulliken charges with hydrogens summed into heavy atoms:
               1
     1  C    0.282364
     2  O   -0.522406
     3  C    0.326714
     4  C    0.047482
     5  C   -0.005447
     6  C    0.200067
     7  N   -0.446138
     8  C    0.216449
     9  Br  -0.099085
 Electronic spatial extent (au):  <R**2>=           1624.3732
 Charge=              0.0000 electrons
 Dipole moment (field-independent basis, Debye):
    X=             -1.9117    Y=              1.9641    Z=              0.9520  Tot=              2.9015
 Quadrupole moment (field-independent basis, Debye-Ang):
   XX=            -54.4787   YY=            -62.9778   ZZ=            -65.3900
   XY=              2.5297   XZ=              0.5666   YZ=              2.6249
 Traceless Quadrupole moment (field-independent basis, Debye-Ang):
   XX=              6.4701   YY=             -2.0290   ZZ=             -4.4412
   XY=              2.5297   XZ=              0.5666   YZ=              2.6249
 Octapole moment (field-independent basis, Debye-Ang**2):
  XXX=             30.6829  YYY=             -1.5814  ZZZ=             -2.5968  XYY=             15.9625
  XXY=             -5.8955  XXZ=             -1.7073  XZZ=             20.5553  YZZ=             -4.2330
  YYZ=              4.7099  XYZ=              2.8435
 Hexadecapole moment (field-independent basis, Debye-Ang**3):
 XXXX=           -995.9494 YYYY=           -725.9436 ZZZZ=           -101.6869 XXXY=            -27.1271
 XXXZ=             -4.1237 YYYX=            -11.7954 YYYZ=             12.6366 ZZZX=             -2.6531
 ZZZY=              0.4302 XXYY=           -277.8655 XXZZ=           -214.6826 YYZZ=           -143.1346
 XXYZ=             -7.3781 YYXZ=             -2.1105 ZZXY=            -11.0061
 N-N= 6.668818396149D+02 E-N=-8.310279419078D+03  KE= 2.915061067737D+03
 No NMR shielding tensors so no spin-rotation constants.
 Leave Link  601 at Tue Sep 17 09:44:44 2024, MaxMem=  1342177280 cpu:               0.5 elap:               0.1
 (Enter /groups/ReismanLab/Software/Gaussian16_RevC/Linux_Binary_AVX2-enabled-CPU/g16/l701.exe)
 ... and contract with generalized density number  0.
 Compute integral first derivatives.
 R6Disp: Adding Grimme-D3(BJ) dispersion energy 1st derivatives to the gradient.
 Leave Link  701 at Tue Sep 17 09:44:44 2024, MaxMem=  1342177280 cpu:               0.5 elap:               0.1
 (Enter /groups/ReismanLab/Software/Gaussian16_RevC/Linux_Binary_AVX2-enabled-CPU/g16/l702.exe)
 L702 exits ... SP integral derivatives will be done elsewhere.
 Leave Link  702 at Tue Sep 17 09:44:44 2024, MaxMem=  1342177280 cpu:               0.1 elap:               0.0
 (Enter /groups/ReismanLab/Software/Gaussian16_RevC/Linux_Binary_AVX2-enabled-CPU/g16/l703.exe)
 Integral derivatives from FoFJK, PRISM(SPDF).
 Compute integral first derivatives, UseDBF=F ICtDFT=           0.
 Calling FoFJK, ICntrl=      2127 FMM=F ISym2X=0 I1Cent= 0 IOpClX= 0 NMat=1 NMatS=1 NMatT=0.
 FoFJK:  IHMeth= 1 ICntrl=    2127 DoSepK=F KAlg= 0 I1Cent=           0 FoldK=F
 IRaf=         0 NMat=       1 IRICut=       1 DoRegI=T DoRafI=F ISym2E= 0 IDoP0=0 IntGTp=1.
 FoFCou: FMM=F IPFlag=           0 FMFlag=      100000 FMFlg1=         800
         NFxFlg=           0 DoJE=F BraDBF=F KetDBF=F FulRan=T
         wScrn=  0.000000 ICntrl=      2127 IOpCl=  0 I1Cent=           0 NGrid=           0
         NMat0=    1 NMatS0=      1 NMatT0=    0 NMatD0=    1 NMtDS0=    0 NMtDT0=    0
 Symmetry not used in FoFCou.
 Leave Link  703 at Tue Sep 17 09:44:46 2024, MaxMem=  1342177280 cpu:              15.5 elap:               2.0
 (Enter /groups/ReismanLab/Software/Gaussian16_RevC/Linux_Binary_AVX2-enabled-CPU/g16/l716.exe)
 Dipole        =-7.52134525D-01 7.72739434D-01 3.74552803D-01
 ***** Axes restored to original set *****
 -------------------------------------------------------------------
 Center     Atomic                   Forces (Hartrees/Bohr)
 Number     Number              X              Y              Z
 -------------------------------------------------------------------
      1        6          -0.000920445    0.005179027    0.005514802
      2        8          -0.000564442   -0.006334793   -0.006348532
      3        6          -0.001963719    0.002928083   -0.002092137
      4        6          -0.000235085    0.004721875    0.000100422
      5        6          -0.004310663   -0.001019193   -0.000395596
      6        6          -0.007451087   -0.006893945    0.000521102
      7        7           0.013388842   -0.002361946    0.002110603
      8        6           0.003955520    0.000647451    0.000511492
      9       35           0.005551907    0.005878855   -0.000665214
     10        1           0.001669994   -0.001367674   -0.000259623
     11        1           0.001307767    0.001234692    0.000237862
     12        1          -0.000470782    0.001075851    0.000906570
     13        1          -0.002762521    0.002848147   -0.000443286
     14        1          -0.004182055   -0.002016582   -0.000075560
     15        1          -0.003013231   -0.004519849    0.000377092
 -------------------------------------------------------------------
 Cartesian Forces:  Max     0.013388842 RMS     0.003800342
 Leave Link  716 at Tue Sep 17 09:44:46 2024, MaxMem=  1342177280 cpu:               0.1 elap:               0.0
 (Enter /groups/ReismanLab/Software/Gaussian16_RevC/Linux_Binary_AVX2-enabled-CPU/g16/l103.exe)

 GradGradGradGradGradGradGradGradGradGradGradGradGradGradGradGradGradGrad
 Berny optimization.
 FormGI is forming the generalized inverse of G from B-inverse, IUseBI=4.
 Internal  Forces:  Max     0.019180730 RMS     0.004025698
 Search for a local minimum.
 Step number   1 out of a maximum of   73
 All quantities printed in internal units (Hartrees-Bohrs-Radians)
 RMS Force = .40257D-02 SwitMx=.10000D-02 MixMth= 1
 Mixed Optimization -- RFO/linear search
 Second derivative matrix not updated -- first step.
 ITU=  0
     Eigenvalues ---    0.01410   0.02143   0.02196   0.02220   0.02225
     Eigenvalues ---    0.02285   0.02308   0.02339   0.02431   0.02686
     Eigenvalues ---    0.10086   0.10585   0.15999   0.15999   0.16000
     Eigenvalues ---    0.16000   0.16000   0.16000   0.18033   0.22082
     Eigenvalues ---    0.23317   0.24895   0.24909   0.24990   0.25000
     Eigenvalues ---    0.34246   0.34845   0.34912   0.35940   0.36058
     Eigenvalues ---    0.36214   0.42265   0.42813   0.44821   0.46901
     Eigenvalues ---    0.47807   0.52935   0.59687   0.62830
 RFO step:  Lambda=-2.66379750D-03 EMin= 1.41002387D-02
 Linear search not attempted -- first point.
 Iteration  1 RMS(Cart)=  0.02591249 RMS(Int)=  0.00033279
 Iteration  2 RMS(Cart)=  0.00048205 RMS(Int)=  0.00004287
 Iteration  3 RMS(Cart)=  0.00000015 RMS(Int)=  0.00004286
 ITry= 1 IFail=0 DXMaxC= 8.88D-02 DCOld= 1.00D+10 DXMaxT= 3.00D-01 DXLimC= 3.00D+00 Rises=F
 Variable       Old X    -DE/DX   Delta X   Delta X   Delta X     New X
                                 (Linear)    (Quad)   (Total)
    R1        2.68587   0.00875   0.00000   0.02056   0.02056   2.70643
    R2        2.05927   0.00142   0.00000   0.00404   0.00404   2.06330
    R3        2.05818   0.00151   0.00000   0.00430   0.00430   2.06248
    R4        2.06917   0.00128   0.00000   0.00372   0.00372   2.07289
    R5        2.57015  -0.00009   0.00000  -0.00016  -0.00016   2.56999
    R6        2.63489   0.00369   0.00000   0.00636   0.00636   2.64125
    R7        2.64527   0.00627   0.00000   0.01305   0.01307   2.65833
    R8        2.61730   0.00715   0.00000   0.01395   0.01394   2.63123
    R9        2.03990   0.00395   0.00000   0.01087   0.01087   2.05077
   R10        2.61777   0.00827   0.00000   0.01780   0.01778   2.63555
   R11        2.03748   0.00464   0.00000   0.01272   0.01272   2.05019
   R12        2.49588   0.01918   0.00000   0.03209   0.03208   2.52796
   R13        2.04176   0.00471   0.00000   0.01302   0.01302   2.05478
   R14        2.47516   0.01044   0.00000   0.01671   0.01672   2.49188
   R15        3.59898   0.00705   0.00000   0.03850   0.03850   3.63748
    A1        1.96778  -0.00204   0.00000  -0.01337  -0.01337   1.95441
    A2        1.87327   0.00124   0.00000   0.00679   0.00675   1.88002
    A3        1.90147   0.00159   0.00000   0.01143   0.01141   1.91289
    A4        1.90729  -0.00090   0.00000  -0.00876  -0.00878   1.89851
    A5        1.90110   0.00069   0.00000   0.00571   0.00573   1.90683
    A6        1.91238  -0.00057   0.00000  -0.00167  -0.00173   1.91066
    A7        2.06024  -0.00052   0.00000  -0.00205  -0.00205   2.05818
    A8        2.08215  -0.00205   0.00000  -0.00528  -0.00541   2.07675
    A9        2.17520  -0.00248   0.00000  -0.00694  -0.00707   2.16814
   A10        2.02273   0.00458   0.00000   0.01427   0.01419   2.03692
   A11        2.09560   0.00053   0.00000  -0.00299  -0.00299   2.09261
   A12        2.06494  -0.00076   0.00000  -0.00155  -0.00155   2.06339
   A13        2.12262   0.00023   0.00000   0.00456   0.00456   2.12718
   A14        2.06524  -0.00027   0.00000  -0.00190  -0.00193   2.06331
   A15        2.10792   0.00032   0.00000   0.00208   0.00209   2.11001
   A16        2.11002  -0.00005   0.00000  -0.00019  -0.00017   2.10985
   A17        2.13388  -0.00036   0.00000   0.00267   0.00264   2.13652
   A18        2.13469  -0.00260   0.00000  -0.01840  -0.01840   2.11629
   A19        2.01452   0.00296   0.00000   0.01582   0.01582   2.03034
   A20        2.08137  -0.00271   0.00000  -0.00468  -0.00467   2.07670
   A21        2.16673  -0.00177   0.00000  -0.00685  -0.00683   2.15991
   A22        2.11435  -0.00635   0.00000  -0.02512  -0.02514   2.08921
   A23        2.00149   0.00811   0.00000   0.03213   0.03212   2.03361
    D1        0.38800   0.00128   0.00000   0.04024   0.04021   0.42821
    D2        2.48919  -0.00024   0.00000   0.02576   0.02573   2.51492
    D3       -1.72467   0.00063   0.00000   0.03378   0.03384  -1.69083
    D4        2.07923  -0.00136   0.00000  -0.04991  -0.04980   2.02943
    D5       -1.15053  -0.00038   0.00000  -0.02004  -0.02016  -1.17069
    D6        3.08875   0.00031   0.00000   0.01215   0.01217   3.10092
    D7       -0.04482   0.00021   0.00000   0.00909   0.00912  -0.03570
    D8        0.02779  -0.00026   0.00000  -0.01420  -0.01429   0.01350
    D9       -3.10578  -0.00036   0.00000  -0.01727  -0.01734  -3.12312
   D10       -3.09793  -0.00036   0.00000  -0.01521  -0.01525  -3.11317
   D11        0.00389  -0.00015   0.00000  -0.00939  -0.00944  -0.00554
   D12       -0.04180   0.00029   0.00000   0.01289   0.01291  -0.02889
   D13        3.06002   0.00051   0.00000   0.01872   0.01871   3.07874
   D14        0.00361   0.00017   0.00000   0.00605   0.00603   0.00964
   D15       -3.14061   0.00006   0.00000   0.00218   0.00217  -3.13843
   D16        3.13691   0.00026   0.00000   0.00919   0.00916  -3.13712
   D17       -0.00731   0.00015   0.00000   0.00531   0.00531  -0.00200
   D18       -0.02665   0.00015   0.00000   0.00554   0.00553  -0.02112
   D19        3.13097  -0.00003   0.00000  -0.00086  -0.00082   3.13014
   D20        3.11756   0.00026   0.00000   0.00942   0.00939   3.12695
   D21       -0.00800   0.00008   0.00000   0.00301   0.00303  -0.00497
   D22        0.01482  -0.00019   0.00000  -0.00758  -0.00758   0.00724
   D23        3.14141  -0.00007   0.00000  -0.00187  -0.00181   3.13960
   D24        0.02099  -0.00013   0.00000  -0.00233  -0.00226   0.01873
   D25       -3.08314  -0.00006   0.00000  -0.00670  -0.00675  -3.08990
         Item               Value     Threshold  Converged?
 Maximum Force            0.019181     0.000450     NO 
 RMS     Force            0.004026     0.000300     NO 
 Maximum Displacement     0.088761     0.001800     NO 
 RMS     Displacement     0.026012     0.001200     NO 
 Predicted change in Energy=-1.353038D-03
 Lowest energy point so far.  Saving SCF results.
 GradGradGradGradGradGradGradGradGradGradGradGradGradGradGradGradGradGrad

 Leave Link  103 at Tue Sep 17 09:44:46 2024, MaxMem=  1342177280 cpu:               0.1 elap:               0.0
 (Enter /groups/ReismanLab/Software/Gaussian16_RevC/Linux_Binary_AVX2-enabled-CPU/g16/l202.exe)
                          Input orientation:                          
 ---------------------------------------------------------------------
 Center     Atomic      Atomic             Coordinates (Angstroms)
 Number     Number       Type             X           Y           Z
 ---------------------------------------------------------------------
      1          6           0       -0.488174    2.576004    0.579912
      2          8           0       -1.002106    1.757900   -0.477311
      3          6           0       -1.180344    0.432880   -0.228127
      4          6           0       -2.473543   -0.095888   -0.267904
      5          6           0       -2.672678   -1.458766   -0.063799
      6          6           0       -1.557654   -2.257655    0.188411
      7          7           0       -0.314201   -1.765124    0.216420
      8          6           0       -0.132595   -0.476069    0.006232
      9         35           0        1.690377    0.141129   -0.024984
     10          1           0        0.089066    1.995327    1.302236
     11          1           0        0.164279    3.327213    0.131377
     12          1           0       -1.317945    3.073866    1.096500
     13          1           0       -3.298863    0.580796   -0.464508
     14          1           0       -3.669117   -1.886827   -0.094057
     15          1           0       -1.657368   -3.325869    0.365300
 ---------------------------------------------------------------------
                    Distance matrix (angstroms):
                    1          2          3          4          5
     1  C    0.000000
     2  O    1.432181   0.000000
     3  C    2.392699   1.359978   0.000000
     4  C    3.435039   2.376028   1.397692   0.000000
     5  C    4.633119   3.648115   2.415034   1.392389   0.000000
     6  C    4.966017   4.108102   2.748608   2.391718   1.394674
     7  N    4.359792   3.655978   2.403965   2.771945   2.394743
     8  C    3.125811   2.445502   1.406730   2.387409   2.724448
     9  Br   3.322740   3.173013   2.892650   4.177729   4.647303
    10  H    1.091853   2.100908   2.528765   3.661350   4.628611
    11  H    1.091418   2.047852   3.211607   4.339948   5.567047
    12  H    1.096928   2.075670   2.957766   3.639279   4.870970
    13  H    3.601617   2.580859   2.136792   1.085223   2.170827
    14  H    5.521729   4.532534   3.404850   2.160343   1.084916
    15  H    6.020396   5.194619   3.835087   3.391144   2.168191
                    6          7          8          9         10
     6  C    0.000000
     7  N    1.337739   0.000000
     8  C    2.288674   1.318644   0.000000
     9  Br   4.043440   2.776762   1.924873   0.000000
    10  H    4.694694   3.934795   2.799386   2.786352   0.000000
    11  H    5.844575   5.115474   3.816903   3.536178   1.774961
    12  H    5.413613   5.019748   3.898177   4.348411   1.784728
    13  H    3.393364   3.856840   3.371026   5.027823   4.074353
    14  H    2.162309   3.371449   3.808843   5.730755   5.580743
    15  H    1.087342   2.064507   3.251956   4.835265   5.678293
                   11         12         13         14         15
    11  H    0.000000
    12  H    1.786795   0.000000
    13  H    4.459960   3.546291   0.000000
    14  H    6.475489   5.617287   2.522595   0.000000
    15  H    6.901928   6.450308   4.317999   2.515747   0.000000
 Stoichiometry    C6H6BrNO
 Framework group  C1[X(C6H6BrNO)]
 Deg. of freedom    39
 Full point group                 C1      NOp   1
 RotChk:  IX=0 Diff= 1.68D-02
 Largest Abelian subgroup         C1      NOp   1
 Largest concise Abelian subgroup C1      NOp   1
                         Standard orientation:                         
 ---------------------------------------------------------------------
 Center     Atomic      Atomic             Coordinates (Angstroms)
 Number     Number       Type             X           Y           Z
 ---------------------------------------------------------------------
      1          6           0        0.776036    2.454556    0.562947
      2          8           0       -0.061221    1.936908   -0.477334
      3          6           0       -0.783606    0.815022   -0.214519
      4          6           0       -2.179235    0.890346   -0.223889
      5          6           0       -2.937673   -0.256736   -0.005429
      6          6           0       -2.266296   -1.456288    0.230031
      7          7           0       -0.931375   -1.543064    0.228926
      8          6           0       -0.220484   -0.455199    0.005302
      9         35           0        1.690160   -0.677081   -0.067784
     10          1           0        1.064968    1.681413    1.277727
     11          1           0        1.677200    2.855300    0.095506
     12          1           0        0.250352    3.258553    1.092565
     13          1           0       -2.639881    1.855407   -0.408740
     14          1           0       -4.021853   -0.217348   -0.012101
     15          1           0       -2.809452   -2.379506    0.417017
 ---------------------------------------------------------------------
 Rotational constants (GHZ):           1.7421841           0.9667061           0.6429362
 Leave Link  202 at Tue Sep 17 09:44:46 2024, MaxMem=  1342177280 cpu:               0.0 elap:               0.0
 (Enter /groups/ReismanLab/Software/Gaussian16_RevC/Linux_Binary_AVX2-enabled-CPU/g16/l301.exe)
 Standard basis: 6-31G(d,p) (6D, 7F)
 Ernie: Thresh=  0.10000D-02 Tol=  0.10000D-05 Strict=F.
 There are   180 symmetry adapted cartesian basis functions of A   symmetry.
 There are   180 symmetry adapted basis functions of A   symmetry.
   180 basis functions,   349 primitive gaussians,   180 cartesian basis functions
    46 alpha electrons       46 beta electrons
       nuclear repulsion energy       663.4706536735 Hartrees.
 IExCor=  402 DFT=T Ex+Corr=B3LYP ExCW=0 ScaHFX=  0.200000
 ScaDFX=  0.800000  0.720000  1.000000  0.810000 ScalE2=  1.000000  1.000000
 IRadAn=      5 IRanWt=     -1 IRanGd=            0 ICorTp=0 IEmpDi=141
 NAtoms=   15 NActive=   15 NUniq=   15 SFac= 1.00D+00 NAtFMM=   60 NAOKFM=F Big=F
 Integral buffers will be    131072 words long.
 Raffenetti 2 integral format.
 Two-electron integral symmetry is turned on.
 R6Disp:  Grimme-D3(BJ) Dispersion energy=       -0.0295233304 Hartrees.
 Nuclear repulsion after empirical dispersion term =      663.4411303431 Hartrees.
 Leave Link  301 at Tue Sep 17 09:44:46 2024, MaxMem=  1342177280 cpu:               0.1 elap:               0.1
 (Enter /groups/ReismanLab/Software/Gaussian16_RevC/Linux_Binary_AVX2-enabled-CPU/g16/l302.exe)
 NPDir=0 NMtPBC=     1 NCelOv=     1 NCel=       1 NClECP=     1 NCelD=      1
         NCelK=      1 NCelE2=     1 NClLst=     1 CellRange=     0.0.
 One-electron integrals computed using PRISM.
 One-electron integral symmetry used in STVInt
 NBasis=   180 RedAO= T EigKep=  7.12D-04  NBF=   180
 NBsUse=   180 1.00D-06 EigRej= -1.00D+00 NBFU=   180
 Precomputing XC quadrature grid using
 IXCGrd= 4 IRadAn=           5 IRanWt=          -1 IRanGd=           0 AccXCQ= 0.00D+00.
 Generated NRdTot=       0 NPtTot=           0 NUsed=           0 NTot=          32
 NSgBfM=   180   180   180   180   180 MxSgAt=    15 MxSgA2=    15.
 Leave Link  302 at Tue Sep 17 09:44:47 2024, MaxMem=  1342177280 cpu:               1.1 elap:               0.2
 (Enter /groups/ReismanLab/Software/Gaussian16_RevC/Linux_Binary_AVX2-enabled-CPU/g16/l303.exe)
 DipDrv:  MaxL=1.
 Leave Link  303 at Tue Sep 17 09:44:47 2024, MaxMem=  1342177280 cpu:               0.1 elap:               0.0
 (Enter /groups/ReismanLab/Software/Gaussian16_RevC/Linux_Binary_AVX2-enabled-CPU/g16/l401.exe)
 Initial guess from the checkpoint file:  "smiles_00041_conf_2.chk"
 B after Tr=     0.000000    0.000000   -0.000000
         Rot=    0.999997   -0.000416    0.001168    0.001975 Ang=  -0.27 deg.
 Guess basis will be translated and rotated to current coordinates.
 JPrj=2 DoOrth=T DoCkMO=T.
 Generating alternative initial guess.
 ExpMin= 1.43D-01 ExpMax= 5.74D+05 ExpMxC= 5.74D+03 IAcc=3 IRadAn=         5 AccDes= 0.00D+00
 Harris functional with IExCor=  402 and IRadAn=       5 diagonalized for initial guess.
 HarFok:  IExCor=  402 AccDes= 0.00D+00 IRadAn=         5 IDoV= 1 UseB2=F ITyADJ=14
 ICtDFT=  3500011 ScaDFX=  1.000000  1.000000  1.000000  1.000000
 FoFCou: FMM=F IPFlag=           0 FMFlag=      100000 FMFlg1=           0
         NFxFlg=           0 DoJE=T BraDBF=F KetDBF=T FulRan=T
         wScrn=  0.000000 ICntrl=       500 IOpCl=  0 I1Cent=   200000004 NGrid=           0
         NMat0=    1 NMatS0=      1 NMatT0=    0 NMatD0=    1 NMtDS0=    0 NMtDT0=    0
 Petite list used in FoFCou.
 Harris En= -2934.03365107330    
 Leave Link  401 at Tue Sep 17 09:44:47 2024, MaxMem=  1342177280 cpu:               3.2 elap:               0.5
 (Enter /groups/ReismanLab/Software/Gaussian16_RevC/Linux_Binary_AVX2-enabled-CPU/g16/l502.exe)
 Integral symmetry usage will be decided dynamically.
 Closed shell SCF:
 Using DIIS extrapolation, IDIIS=  1040.
 NGot=  1342177280 LenX=  1342108742 LenY=  1342075901
 Requested convergence on RMS density matrix=1.00D-08 within  32 cycles.
 Requested convergence on MAX density matrix=1.00D-06.
 Requested convergence on             energy=1.00D-06.
 No special actions if energy rises.
 Fock matrices will be formed incrementally for  20 cycles.
 Integral accuracy reduced to 1.0D-05 until final iterations.

 Cycle   1  Pass 0  IDiag  1:
 FoFJK:  IHMeth= 1 ICntrl=       0 DoSepK=F KAlg= 0 I1Cent=           0 FoldK=F
 IRaf= 910000000 NMat=       1 IRICut=       1 DoRegI=T DoRafI=F ISym2E= 0 IDoP0=0 IntGTp=1.
 FoFCou: FMM=F IPFlag=           0 FMFlag=      100000 FMFlg1=           0
         NFxFlg=           0 DoJE=F BraDBF=F KetDBF=F FulRan=T
         wScrn=  0.000000 ICntrl=         0 IOpCl=  0 I1Cent=           0 NGrid=           0
         NMat0=    1 NMatS0=      1 NMatT0=    0 NMatD0=    1 NMtDS0=    0 NMtDT0=    0
 Symmetry not used in FoFCou.
 E= -2933.94303090622    
 DIIS: error= 2.67D-03 at cycle   1 NSaved=   1.
 NSaved= 1 IEnMin= 1 EnMin= -2933.94303090622     IErMin= 1 ErrMin= 2.67D-03
 ErrMax= 2.67D-03  0.00D+00 EMaxC= 1.00D-01 BMatC= 3.22D-03 BMatP= 3.22D-03
 IDIUse=3 WtCom= 9.73D-01 WtEn= 2.67D-02
 Coeff-Com:  0.100D+01
 Coeff-En:   0.100D+01
 Coeff:      0.100D+01
 Gap=     1.658 Goal=   None    Shift=    0.000
 GapD=    1.658 DampG=2.000 DampE=1.000 DampFc=2.0000 IDamp=-1.
 RMSDP=3.47D-04 MaxDP=4.99D-03              OVMax= 1.09D-02

 Cycle   2  Pass 0  IDiag  1:
 RMSU=  3.47D-04    CP:  1.00D+00
 E= -2933.94444530852     Delta-E=       -0.001414402298 Rises=F Damp=F
 DIIS: error= 3.73D-04 at cycle   2 NSaved=   2.
 NSaved= 2 IEnMin= 2 EnMin= -2933.94444530852     IErMin= 2 ErrMin= 3.73D-04
 ErrMax= 3.73D-04  0.00D+00 EMaxC= 1.00D-01 BMatC= 5.64D-05 BMatP= 3.22D-03
 IDIUse=3 WtCom= 9.96D-01 WtEn= 3.73D-03
 Coeff-Com:  0.151D-01 0.985D+00
 Coeff-En:   0.000D+00 0.100D+01
 Coeff:      0.151D-01 0.985D+00
 Gap=     0.209 Goal=   None    Shift=    0.000
 RMSDP=1.16D-04 MaxDP=3.24D-03 DE=-1.41D-03 OVMax= 4.49D-03

 Cycle   3  Pass 0  IDiag  1:
 RMSU=  1.15D-04    CP:  1.00D+00  1.04D+00
 E= -2933.94438920768     Delta-E=        0.000056100834 Rises=F Damp=F
 DIIS: error= 4.64D-04 at cycle   3 NSaved=   3.
 NSaved= 3 IEnMin= 2 EnMin= -2933.94444530852     IErMin= 2 ErrMin= 3.73D-04
 ErrMax= 4.64D-04  0.00D+00 EMaxC= 1.00D-01 BMatC= 1.13D-04 BMatP= 5.64D-05
 IDIUse=3 WtCom= 3.17D-01 WtEn= 6.83D-01
 Coeff-Com: -0.772D-02 0.595D+00 0.413D+00
 Coeff-En:   0.000D+00 0.641D+00 0.359D+00
 Coeff:     -0.245D-02 0.626D+00 0.376D+00
 Gap=     0.210 Goal=   None    Shift=    0.000
 RMSDP=6.77D-05 MaxDP=2.09D-03 DE= 5.61D-05 OVMax= 2.90D-03

 Cycle   4  Pass 0  IDiag  1:
 RMSU=  2.66D-05    CP:  1.00D+00  1.05D+00  4.62D-01
 E= -2933.94450844397     Delta-E=       -0.000119236289 Rises=F Damp=F
 DIIS: error= 6.83D-05 at cycle   4 NSaved=   4.
 NSaved= 4 IEnMin= 4 EnMin= -2933.94450844397     IErMin= 4 ErrMin= 6.83D-05
 ErrMax= 6.83D-05  0.00D+00 EMaxC= 1.00D-01 BMatC= 2.90D-06 BMatP= 5.64D-05
 IDIUse=1 WtCom= 1.00D+00 WtEn= 0.00D+00
 Coeff-Com: -0.503D-02 0.258D+00 0.185D+00 0.562D+00
 Coeff:     -0.503D-02 0.258D+00 0.185D+00 0.562D+00
 Gap=     0.210 Goal=   None    Shift=    0.000
 RMSDP=1.48D-05 MaxDP=3.76D-04 DE=-1.19D-04 OVMax= 8.44D-04

 Cycle   5  Pass 0  IDiag  1:
 RMSU=  1.18D-05    CP:  1.00D+00  1.06D+00  4.54D-01  6.72D-01
 E= -2933.94451073811     Delta-E=       -0.000002294139 Rises=F Damp=F
 DIIS: error= 3.23D-05 at cycle   5 NSaved=   5.
 NSaved= 5 IEnMin= 5 EnMin= -2933.94451073811     IErMin= 5 ErrMin= 3.23D-05
 ErrMax= 3.23D-05  0.00D+00 EMaxC= 1.00D-01 BMatC= 6.46D-07 BMatP= 2.90D-06
 IDIUse=1 WtCom= 1.00D+00 WtEn= 0.00D+00
 Coeff-Com: -0.137D-02 0.374D-01 0.326D-01 0.320D+00 0.612D+00
 Coeff:     -0.137D-02 0.374D-01 0.326D-01 0.320D+00 0.612D+00
 Gap=     0.210 Goal=   None    Shift=    0.000
 RMSDP=6.03D-06 MaxDP=1.66D-04 DE=-2.29D-06 OVMax= 3.38D-04

 Initial convergence to 1.0D-05 achieved.  Increase integral accuracy.
 Cycle   6  Pass 1  IDiag  1:
 E= -2933.94452237161     Delta-E=       -0.000011633503 Rises=F Damp=F
 DIIS: error= 2.96D-05 at cycle   1 NSaved=   1.
 NSaved= 1 IEnMin= 1 EnMin= -2933.94452237161     IErMin= 1 ErrMin= 2.96D-05
 ErrMax= 2.96D-05  0.00D+00 EMaxC= 1.00D-01 BMatC= 1.50D-07 BMatP= 1.50D-07
 IDIUse=1 WtCom= 1.00D+00 WtEn= 0.00D+00
 Coeff-Com:  0.100D+01
 Coeff:      0.100D+01
 Gap=     0.210 Goal=   None    Shift=    0.000
 RMSDP=6.03D-06 MaxDP=1.66D-04 DE=-1.16D-05 OVMax= 2.26D-04

 Cycle   7  Pass 1  IDiag  1:
 RMSU=  8.09D-06    CP:  1.00D+00
 E= -2933.94452228310     Delta-E=        0.000000088517 Rises=F Damp=F
 DIIS: error= 2.24D-05 at cycle   2 NSaved=   2.
 NSaved= 2 IEnMin= 1 EnMin= -2933.94452237161     IErMin= 2 ErrMin= 2.24D-05
 ErrMax= 2.24D-05  0.00D+00 EMaxC= 1.00D-01 BMatC= 2.22D-07 BMatP= 1.50D-07
 IDIUse=1 WtCom= 1.00D+00 WtEn= 0.00D+00
 Coeff-Com:  0.558D+00 0.442D+00
 Coeff:      0.558D+00 0.442D+00
 Gap=     0.210 Goal=   None    Shift=    0.000
 RMSDP=3.34D-06 MaxDP=1.25D-04 DE= 8.85D-08 OVMax= 1.86D-04

 Cycle   8  Pass 1  IDiag  1:
 RMSU=  2.95D-06    CP:  1.00D+00  8.05D-01
 E= -2933.94452247034     Delta-E=       -0.000000187241 Rises=F Damp=F
 DIIS: error= 6.16D-06 at cycle   3 NSaved=   3.
 NSaved= 3 IEnMin= 3 EnMin= -2933.94452247034     IErMin= 3 ErrMin= 6.16D-06
 ErrMax= 6.16D-06  0.00D+00 EMaxC= 1.00D-01 BMatC= 1.97D-08 BMatP= 1.50D-07
 IDIUse=1 WtCom= 1.00D+00 WtEn= 0.00D+00
 Coeff-Com:  0.681D-01 0.233D+00 0.699D+00
 Coeff:      0.681D-01 0.233D+00 0.699D+00
 Gap=     0.210 Goal=   None    Shift=    0.000
 RMSDP=1.04D-06 MaxDP=3.33D-05 DE=-1.87D-07 OVMax= 5.80D-05

 Cycle   9  Pass 1  IDiag  1:
 RMSU=  7.06D-07    CP:  1.00D+00  8.57D-01  7.83D-01
 E= -2933.94452248530     Delta-E=       -0.000000014966 Rises=F Damp=F
 DIIS: error= 2.61D-06 at cycle   4 NSaved=   4.
 NSaved= 4 IEnMin= 4 EnMin= -2933.94452248530     IErMin= 4 ErrMin= 2.61D-06
 ErrMax= 2.61D-06  0.00D+00 EMaxC= 1.00D-01 BMatC= 4.07D-09 BMatP= 1.97D-08
 IDIUse=1 WtCom= 1.00D+00 WtEn= 0.00D+00
 Coeff-Com:  0.388D-02 0.116D+00 0.444D+00 0.436D+00
 Coeff:      0.388D-02 0.116D+00 0.444D+00 0.436D+00
 Gap=     0.210 Goal=   None    Shift=    0.000
 RMSDP=4.22D-07 MaxDP=1.34D-05 DE=-1.50D-08 OVMax= 2.53D-05

 Cycle  10  Pass 1  IDiag  1:
 RMSU=  1.72D-07    CP:  1.00D+00  8.54D-01  8.11D-01  4.67D-01
 E= -2933.94452248939     Delta-E=       -0.000000004084 Rises=F Damp=F
 DIIS: error= 5.03D-07 at cycle   5 NSaved=   5.
 NSaved= 5 IEnMin= 5 EnMin= -2933.94452248939     IErMin= 5 ErrMin= 5.03D-07
 ErrMax= 5.03D-07  0.00D+00 EMaxC= 1.00D-01 BMatC= 1.79D-10 BMatP= 4.07D-09
 IDIUse=1 WtCom= 1.00D+00 WtEn= 0.00D+00
 Coeff-Com: -0.200D-02 0.532D-01 0.215D+00 0.255D+00 0.479D+00
 Coeff:     -0.200D-02 0.532D-01 0.215D+00 0.255D+00 0.479D+00
 Gap=     0.210 Goal=   None    Shift=    0.000
 RMSDP=8.65D-08 MaxDP=2.45D-06 DE=-4.08D-09 OVMax= 4.73D-06

 Cycle  11  Pass 1  IDiag  1:
 RMSU=  3.27D-08    CP:  1.00D+00  8.56D-01  8.06D-01  4.92D-01  5.66D-01
 E= -2933.94452248957     Delta-E=       -0.000000000181 Rises=F Damp=F
 DIIS: error= 9.37D-08 at cycle   6 NSaved=   6.
 NSaved= 6 IEnMin= 6 EnMin= -2933.94452248957     IErMin= 6 ErrMin= 9.37D-08
 ErrMax= 9.37D-08  0.00D+00 EMaxC= 1.00D-01 BMatC= 3.07D-12 BMatP= 1.79D-10
 IDIUse=1 WtCom= 1.00D+00 WtEn= 0.00D+00
 Coeff-Com: -0.105D-02 0.206D-01 0.843D-01 0.104D+00 0.215D+00 0.577D+00
 Coeff:     -0.105D-02 0.206D-01 0.843D-01 0.104D+00 0.215D+00 0.577D+00
 Gap=     0.210 Goal=   None    Shift=    0.000
 RMSDP=1.14D-08 MaxDP=3.46D-07 DE=-1.81D-10 OVMax= 3.45D-07

 Cycle  12  Pass 1  IDiag  1:
 RMSU=  1.08D-08    CP:  1.00D+00  8.57D-01  8.07D-01  4.89D-01  5.64D-01
                    CP:  9.37D-01
 E= -2933.94452248956     Delta-E=        0.000000000011 Rises=F Damp=F
 DIIS: error= 2.65D-08 at cycle   7 NSaved=   7.
 NSaved= 7 IEnMin= 6 EnMin= -2933.94452248957     IErMin= 7 ErrMin= 2.65D-08
 ErrMax= 2.65D-08  0.00D+00 EMaxC= 1.00D-01 BMatC= 3.73D-13 BMatP= 3.07D-12
 IDIUse=1 WtCom= 1.00D+00 WtEn= 0.00D+00
 Coeff-Com: -0.123D-03 0.282D-04 0.537D-03 0.245D-02 0.104D-01 0.253D+00
 Coeff-Com:  0.734D+00
 Coeff:     -0.123D-03 0.282D-04 0.537D-03 0.245D-02 0.104D-01 0.253D+00
 Coeff:      0.734D+00
 Gap=     0.210 Goal=   None    Shift=    0.000
 RMSDP=4.39D-09 MaxDP=1.20D-07 DE= 1.14D-11 OVMax= 1.95D-07

 SCF Done:  E(RB3LYP) =  -2933.94452249     A.U. after   12 cycles
            NFock= 12  Conv=0.44D-08     -V/T= 2.0066
 KE= 2.914829467222D+03 PE=-8.303212041625D+03 EE= 1.790996921570D+03
 Leave Link  502 at Tue Sep 17 09:44:54 2024, MaxMem=  1342177280 cpu:              47.4 elap:               6.7
 (Enter /groups/ReismanLab/Software/Gaussian16_RevC/Linux_Binary_AVX2-enabled-CPU/g16/l508.exe)
 QCSCF skips out because SCF is already converged.
 Leave Link  508 at Tue Sep 17 09:44:54 2024, MaxMem=  1342177280 cpu:               0.1 elap:               0.0
 (Enter /groups/ReismanLab/Software/Gaussian16_RevC/Linux_Binary_AVX2-enabled-CPU/g16/l701.exe)
 ... and contract with generalized density number  0.
 Compute integral first derivatives.
 R6Disp: Adding Grimme-D3(BJ) dispersion energy 1st derivatives to the gradient.
 Leave Link  701 at Tue Sep 17 09:44:54 2024, MaxMem=  1342177280 cpu:               0.8 elap:               0.2
 (Enter /groups/ReismanLab/Software/Gaussian16_RevC/Linux_Binary_AVX2-enabled-CPU/g16/l702.exe)
 L702 exits ... SP integral derivatives will be done elsewhere.
 Leave Link  702 at Tue Sep 17 09:44:54 2024, MaxMem=  1342177280 cpu:               0.1 elap:               0.0
 (Enter /groups/ReismanLab/Software/Gaussian16_RevC/Linux_Binary_AVX2-enabled-CPU/g16/l703.exe)
 Integral derivatives from FoFJK, PRISM(SPDF).
 Compute integral first derivatives, UseDBF=F ICtDFT=           0.
 Calling FoFJK, ICntrl=      2127 FMM=F ISym2X=0 I1Cent= 0 IOpClX= 0 NMat=1 NMatS=1 NMatT=0.
 FoFJK:  IHMeth= 1 ICntrl=    2127 DoSepK=F KAlg= 0 I1Cent=           0 FoldK=F
 IRaf=         0 NMat=       1 IRICut=       1 DoRegI=T DoRafI=F ISym2E= 0 IDoP0=0 IntGTp=1.
 FoFCou: FMM=F IPFlag=           0 FMFlag=      100000 FMFlg1=         800
         NFxFlg=           0 DoJE=F BraDBF=F KetDBF=F FulRan=T
         wScrn=  0.000000 ICntrl=      2127 IOpCl=  0 I1Cent=           0 NGrid=           0
         NMat0=    1 NMatS0=      1 NMatT0=    0 NMatD0=    1 NMtDS0=    0 NMtDT0=    0
 Symmetry not used in FoFCou.
 Leave Link  703 at Tue Sep 17 09:44:56 2024, MaxMem=  1342177280 cpu:              15.4 elap:               2.0
 (Enter /groups/ReismanLab/Software/Gaussian16_RevC/Linux_Binary_AVX2-enabled-CPU/g16/l716.exe)
 Dipole        =-7.66692361D-01 8.04132140D-01 3.86509033D-01
 ***** Axes restored to original set *****
 -------------------------------------------------------------------
 Center     Atomic                   Forces (Hartrees/Bohr)
 Number     Number              X              Y              Z
 -------------------------------------------------------------------
      1        6          -0.000572349    0.001179904    0.003535777
      2        8           0.001758334   -0.000475010   -0.003111899
      3        6          -0.001559019    0.001299151    0.001352543
      4        6           0.000638143    0.000670254    0.000213493
      5        6           0.001312125   -0.000574350    0.000002023
      6        6          -0.002374691    0.001264555   -0.000239526
      7        7           0.003355325    0.001894080   -0.000246450
      8        6          -0.001728338   -0.004293482    0.000297114
      9       35          -0.001528631   -0.000332523   -0.000246360
     10        1           0.000293032   -0.000065830   -0.000471769
     11        1          -0.000395617   -0.000333850   -0.000630666
     12        1          -0.000207760   -0.000615717   -0.000554508
     13        1           0.000350197    0.000056144    0.000112962
     14        1           0.000332927   -0.000218634    0.000113080
     15        1           0.000326321    0.000545309   -0.000125814
 -------------------------------------------------------------------
 Cartesian Forces:  Max     0.004293482 RMS     0.001372601
 Leave Link  716 at Tue Sep 17 09:44:56 2024, MaxMem=  1342177280 cpu:               0.1 elap:               0.0
 (Enter /groups/ReismanLab/Software/Gaussian16_RevC/Linux_Binary_AVX2-enabled-CPU/g16/l103.exe)

 GradGradGradGradGradGradGradGradGradGradGradGradGradGradGradGradGradGrad
 Berny optimization.
 Using GEDIIS/GDIIS optimizer.
 FormGI is forming the generalized inverse of G from B-inverse, IUseBI=4.
 Internal  Forces:  Max     0.003266188 RMS     0.000844483
 Search for a local minimum.
 Step number   2 out of a maximum of   73
 All quantities printed in internal units (Hartrees-Bohrs-Radians)
 RMS Force = .84448D-03 SwitMx=.10000D-02 MixMth= 2
 Mixed Optimization -- En-DIIS/RFO-DIIS
 Update second derivatives using D2CorX and points    1    2
 DE= -1.31D-03 DEPred=-1.35D-03 R= 9.67D-01
 TightC=F SS=  1.41D+00  RLast= 1.26D-01 DXNew= 5.0454D-01 3.7747D-01
 Trust test= 9.67D-01 RLast= 1.26D-01 DXMaxT set to 3.77D-01
 ITU=  1  0
 Use linear search instead of GDIIS.
     Eigenvalues ---    0.01356   0.02059   0.02145   0.02218   0.02232
     Eigenvalues ---    0.02285   0.02309   0.02364   0.02436   0.02684
     Eigenvalues ---    0.10093   0.10541   0.15791   0.16000   0.16000
     Eigenvalues ---    0.16000   0.16000   0.16292   0.18754   0.22087
     Eigenvalues ---    0.22575   0.24116   0.24955   0.24987   0.26600
     Eigenvalues ---    0.34274   0.34854   0.34935   0.36000   0.36135
     Eigenvalues ---    0.36510   0.41511   0.42840   0.44910   0.46809
     Eigenvalues ---    0.48542   0.52935   0.59266   0.67110
 RFO step:  Lambda=-3.77486546D-04 EMin= 1.35588509D-02
 Quartic linear search produced a step of -0.00392.
 Iteration  1 RMS(Cart)=  0.03209454 RMS(Int)=  0.00054377
 Iteration  2 RMS(Cart)=  0.00087278 RMS(Int)=  0.00001091
 Iteration  3 RMS(Cart)=  0.00000080 RMS(Int)=  0.00001091
 ITry= 1 IFail=0 DXMaxC= 1.02D-01 DCOld= 1.00D+10 DXMaxT= 3.77D-01 DXLimC= 3.00D+00 Rises=F
 Variable       Old X    -DE/DX   Delta X   Delta X   Delta X     New X
                                 (Linear)    (Quad)   (Total)
    R1        2.70643   0.00116  -0.00008   0.00559   0.00551   2.71194
    R2        2.06330  -0.00012  -0.00002   0.00021   0.00020   2.06350
    R3        2.06248  -0.00021  -0.00002   0.00001  -0.00001   2.06248
    R4        2.07289  -0.00038  -0.00001  -0.00060  -0.00061   2.07228
    R5        2.56999   0.00004   0.00000   0.00005   0.00005   2.57004
    R6        2.64125  -0.00170  -0.00002  -0.00266  -0.00268   2.63857
    R7        2.65833   0.00039  -0.00005   0.00262   0.00258   2.66091
    R8        2.63123  -0.00007  -0.00005   0.00192   0.00186   2.63310
    R9        2.05077  -0.00025  -0.00004   0.00082   0.00078   2.05155
   R10        2.63555  -0.00134  -0.00007  -0.00027  -0.00034   2.63521
   R11        2.05019  -0.00022  -0.00005   0.00116   0.00111   2.05130
   R12        2.52796   0.00051  -0.00013   0.00523   0.00510   2.53306
   R13        2.05478  -0.00059  -0.00005   0.00019   0.00014   2.05492
   R14        2.49188  -0.00327  -0.00007  -0.00279  -0.00285   2.48902
   R15        3.63748  -0.00155  -0.00015  -0.00318  -0.00334   3.63415
    A1        1.95441   0.00006   0.00005  -0.00117  -0.00113   1.95328
    A2        1.88002  -0.00105  -0.00003  -0.00602  -0.00606   1.87396
    A3        1.91289  -0.00084  -0.00004  -0.00343  -0.00348   1.90941
    A4        1.89851   0.00041   0.00003   0.00103   0.00106   1.89957
    A5        1.90683   0.00074  -0.00002   0.00621   0.00619   1.91302
    A6        1.91066   0.00068   0.00001   0.00337   0.00336   1.91402
    A7        2.05818  -0.00145   0.00001  -0.00606  -0.00606   2.05213
    A8        2.07675   0.00014   0.00002  -0.00042  -0.00041   2.07634
    A9        2.16814   0.00044   0.00003   0.00055   0.00057   2.16870
   A10        2.03692  -0.00060  -0.00006  -0.00044  -0.00049   2.03643
   A11        2.09261  -0.00068   0.00001  -0.00299  -0.00298   2.08963
   A12        2.06339   0.00007   0.00001  -0.00058  -0.00058   2.06281
   A13        2.12718   0.00061  -0.00002   0.00358   0.00356   2.13074
   A14        2.06331   0.00033   0.00001   0.00160   0.00159   2.06490
   A15        2.11001   0.00019  -0.00001   0.00155   0.00155   2.11156
   A16        2.10985  -0.00052   0.00000  -0.00316  -0.00316   2.10669
   A17        2.13652   0.00073  -0.00001   0.00354   0.00352   2.14004
   A18        2.11629  -0.00009   0.00007  -0.00246  -0.00238   2.11391
   A19        2.03034  -0.00064  -0.00006  -0.00112  -0.00118   2.02916
   A20        2.07670  -0.00199   0.00002  -0.00914  -0.00911   2.06759
   A21        2.15991   0.00220   0.00003   0.00741   0.00743   2.16734
   A22        2.08921  -0.00151   0.00010  -0.00946  -0.00939   2.07982
   A23        2.03361  -0.00070  -0.00013   0.00172   0.00156   2.03517
    D1        0.42821   0.00068  -0.00016   0.04192   0.04176   0.46996
    D2        2.51492   0.00055  -0.00010   0.03861   0.03851   2.55343
    D3       -1.69083   0.00029  -0.00013   0.03720   0.03708  -1.65375
    D4        2.02943  -0.00130   0.00019  -0.06432  -0.06413   1.96530
[...]
 AX will form     3 AO Fock derivatives at one time.
      3 vectors produced by pass  1 Test12= 4.39D-13 3.33D-08 XBig12= 7.50D-02 1.31D-01.
      3 vectors produced by pass  2 Test12= 4.39D-13 3.33D-08 XBig12= 1.18D-03 1.72D-02.
      3 vectors produced by pass  3 Test12= 4.39D-13 3.33D-08 XBig12= 2.00D-05 1.35D-03.
      3 vectors produced by pass  4 Test12= 4.39D-13 3.33D-08 XBig12= 2.73D-07 1.18D-04.
      3 vectors produced by pass  5 Test12= 4.39D-13 3.33D-08 XBig12= 2.90D-09 2.16D-05.
      3 vectors produced by pass  6 Test12= 4.39D-13 3.33D-08 XBig12= 2.29D-11 1.80D-06.
      3 vectors produced by pass  7 Test12= 4.39D-13 3.33D-08 XBig12= 2.61D-13 1.24D-07.
 InvSVY:  IOpt=1 It=  1 EMax= 4.44D-16
 Solved reduced A of dimension    24 with     3 vectors.
 Calculating GIAO nuclear magnetic shielding tensors.
 SCF GIAO Magnetic shielding tensor (ppm):
      1  C    Isotropic =   122.4040   Anisotropy =    90.6115
   XX=   108.2082   YX=    21.5999   ZX=    23.7489
   XY=    21.1817   YY=   117.5529   ZY=    34.8037
   XZ=    24.5287   YZ=    40.4308   ZZ=   141.4509
   Eigenvalues:    88.6768    95.7236   182.8117
      2  O    Isotropic =   254.5835   Anisotropy =    98.7934
   XX=   226.0674   YX=    18.2292   ZX=   -41.2199
   XY=    22.0792   YY=   252.8472   ZY=   -34.8437
   XZ=   -25.9638   YZ=   -28.1953   ZZ=   284.8359
   Eigenvalues:   209.8032   233.5016   320.4458
      3  C    Isotropic =     7.3563   Anisotropy =   162.8659
   XX=    -7.9436   YX=   -31.2471   ZX=     7.2574
   XY=   -47.0048   YY=   -77.1965   ZY=    37.7790
   XZ=    12.6184   YZ=    44.2095   ZZ=   107.2091
   Eigenvalues:  -103.0151     9.1505   115.9336
      4  C    Isotropic =    29.7650   Anisotropy =   205.3830
   XX=    -7.0986   YX=    27.1806   ZX=    -5.4530
   XY=    36.8551   YY=   -62.7331   ZY=    44.3636
   XZ=    -6.2906   YZ=    38.9310   ZZ=   159.1266
   Eigenvalues:   -84.0614     6.6693   166.6869
      5  C    Isotropic =    40.3324   Anisotropy =   203.0144
   XX=   -87.6098   YX=    -0.9834   ZX=     2.6288
   XY=    20.8389   YY=    38.6073   ZY=    28.0884
   XZ=    -1.5655   YZ=    27.5736   ZZ=   169.9996
   Eigenvalues:   -88.3965    33.7183   175.6753
      6  C    Isotropic =    16.6740   Anisotropy =   192.4561
   XX=   -43.1885   YX=   -68.8815   ZX=    16.7515
   XY=   -45.2063   YY=   -43.7495   ZY=    39.2478
   XZ=    11.9518   YZ=    38.3573   ZZ=   136.9600
   Eigenvalues:  -106.3914    11.4353   144.9781
      7  N    Isotropic =  -143.5980   Anisotropy =   571.7096
   XX=  -397.7756   YX=   -97.3850   ZX=    31.0396
   XY=   -90.9173   YY=  -250.2498   ZY=    99.4682
   XZ=    26.8975   YZ=    98.8327   ZZ=   217.2313
   Eigenvalues:  -451.1003  -217.2355   237.5417
      8  C    Isotropic =     9.5553   Anisotropy =    99.1935
   XX=   -83.5185   YX=    43.4826   ZX=    -5.7045
   XY=   -29.2838   YY=    36.9718   ZY=     6.9059
   XZ=     7.4189   YZ=     1.4874   ZZ=    75.2126
   Eigenvalues:   -83.9377    36.9193    75.6843
      9  Br   Isotropic =  2012.9644   Anisotropy =  1270.3700
   XX=  2829.8645   YX=  -264.6085   ZX=     0.8400
   XY=  -118.9123   YY=  1533.9724   ZY=    41.5471
   XZ=   -86.5230   YZ=    83.8109   ZZ=  1675.0564
   Eigenvalues:  1489.2084  1689.8070  2859.8778
     10  H    Isotropic =    27.4501   Anisotropy =     6.9652
   XX=    26.4561   YX=    -2.6932   ZX=     2.1874
   XY=     0.0744   YY=    29.1692   ZY=     3.7725
   XZ=     5.7022   YZ=     3.2884   ZZ=    26.7250
   Eigenvalues:    21.1530    29.1037    32.0936
     11  H    Isotropic =    27.8760   Anisotropy =     8.9345
   XX=    27.1528   YX=     3.5241   ZX=     0.1719
   XY=     3.2829   YY=    31.5094   ZY=     0.0778
   XZ=     2.2117   YZ=     3.2221   ZZ=    24.9659
   Eigenvalues:    24.4345    25.3613    33.8324
     12  H    Isotropic =    28.5362   Anisotropy =     8.7921
   XX=    26.8636   YX=    -0.5852   ZX=     0.6858
   XY=    -1.4705   YY=    29.0436   ZY=     4.0087
   XZ=    -1.1933   YZ=     5.8096   ZZ=    29.7012
   Eigenvalues:    24.3172    26.8937    34.3976
     13  H    Isotropic =    23.5916   Anisotropy =     7.9280
   XX=    28.1218   YX=     1.7846   ZX=    -0.0941
   XY=     2.8692   YY=    21.7057   ZY=    -0.0920
   XZ=     0.2062   YZ=    -0.3688   ZZ=    20.9472
   Eigenvalues:    20.7125    21.1853    28.8769
     14  H    Isotropic =    23.8329   Anisotropy =     5.8904
   XX=    22.4082   YX=     0.7043   ZX=    -0.1396
   XY=     1.5583   YY=    27.3085   ZY=    -1.1262
   XZ=    -0.1683   YZ=    -1.0605   ZZ=    21.7821
   Eigenvalues:    21.5677    22.1712    27.7599
     15  H    Isotropic =    22.7520   Anisotropy =     6.3581
   XX=    24.8513   YX=    -2.3353   ZX=     0.3935
   XY=    -2.6088   YY=    23.8829   ZY=    -0.8348
   XZ=     0.4451   YZ=    -0.9221   ZZ=    19.5219
   Eigenvalues:    19.3507    21.9146    26.9907
 End of Minotr F.D. properties file   721 does not exist.
 End of Minotr F.D. properties file   722 does not exist.
 End of Minotr F.D. properties file   788 does not exist.
 Leave Link 1002 at Tue Sep 17 10:20:40 2024, MaxMem=  1342177280 cpu:             482.4 elap:             484.0
 (Enter /groups/ReismanLab/Software/Gaussian16_RevC/Linux_Binary_AVX2-enabled-CPU/g16/l601.exe)
 Copying SCF densities to generalized density rwf, IOpCl= 0 IROHF=0.

 **********************************************************************

            Population analysis using the SCF Density.

 **********************************************************************

 Orbital symmetries:
       Occupied  (A) (A) (A) (A) (A) (A) (A) (A) (A) (A) (A) (A)
                 (A) (A) (A) (A) (A) (A) (A) (A) (A) (A) (A) (A)
                 (A) (A) (A) (A) (A) (A) (A) (A) (A) (A) (A) (A)
                 (A) (A) (A) (A) (A) (A) (A) (A) (A) (A)
       Virtual   (A) (A) (A) (A) (A) (A) (A) (A) (A) (A) (A) (A)
                 (A) (A) (A) (A) (A) (A) (A) (A) (A) (A) (A) (A)
                 (A) (A) (A) (A) (A) (A) (A) (A) (A) (A) (A) (A)
                 (A) (A) (A) (A) (A) (A) (A) (A) (A) (A) (A) (A)
                 (A) (A) (A) (A) (A) (A) (A) (A) (A) (A) (A) (A)
                 (A) (A) (A) (A) (A) (A) (A) (A) (A) (A) (A) (A)
                 (A) (A) (A) (A) (A) (A) (A) (A) (A) (A) (A) (A)
                 (A) (A) (A) (A) (A) (A) (A) (A) (A) (A) (A) (A)
                 (A) (A) (A) (A) (A) (A) (A) (A) (A) (A) (A) (A)
                 (A) (A) (A) (A) (A) (A) (A) (A) (A) (A) (A) (A)
                 (A) (A) (A) (A) (A) (A) (A) (A) (A) (A) (A) (A)
                 (A) (A) (A) (A) (A) (A) (A) (A) (A) (A) (A) (A)
                 (A) (A) (A) (A) (A) (A) (A) (A) (A) (A) (A) (A)
                 (A) (A) (A) (A) (A) (A) (A) (A) (A) (A) (A) (A)
                 (A) (A) (A) (A) (A) (A) (A) (A) (A) (A) (A) (A)
                 (A) (A) (A) (A) (A) (A) (A) (A) (A) (A) (A) (A)
                 (A) (A) (A) (A) (A) (A) (A) (A) (A) (A) (A) (A)
                 (A) (A) (A) (A) (A) (A) (A) (A) (A) (A) (A) (A)
                 (A) (A) (A) (A) (A) (A) (A) (A) (A) (A) (A) (A)
                 (A) (A) (A) (A) (A) (A) (A) (A) (A) (A) (A) (A)
                 (A) (A) (A) (A) (A) (A) (A) (A) (A) (A) (A) (A)
                 (A) (A) (A) (A) (A) (A) (A) (A) (A) (A) (A) (A)
                 (A) (A) (A) (A) (A) (A) (A) (A) (A) (A) (A) (A)
                 (A) (A) (A) (A) (A) (A) (A) (A) (A) (A)
 The electronic state is 1-A.
 Alpha  occ. eigenvalues -- -485.37483 -63.35973 -57.17916 -57.17686 -57.17668
 Alpha  occ. eigenvalues --  -19.65695 -14.76945 -10.63778 -10.62282 -10.58855
 Alpha  occ. eigenvalues --  -10.58813 -10.57044 -10.56229  -9.02620  -6.85024
 Alpha  occ. eigenvalues --   -6.84171  -6.84111  -2.88401  -2.88103  -2.88041
 Alpha  occ. eigenvalues --   -2.87248  -2.87246  -1.19289  -1.07782  -0.91869
 Alpha  occ. eigenvalues --   -0.90473  -0.84087  -0.79176  -0.72495  -0.70849
 Alpha  occ. eigenvalues --   -0.61232  -0.59197  -0.57382  -0.55060  -0.52070
 Alpha  occ. eigenvalues --   -0.50287  -0.48887  -0.48419  -0.45013  -0.43075
 Alpha  occ. eigenvalues --   -0.38848  -0.37677  -0.35168  -0.34818  -0.33676
 Alpha  occ. eigenvalues --   -0.30507
 Alpha virt. eigenvalues --   -0.00987   0.00463   0.03880   0.08178   0.09665
 Alpha virt. eigenvalues --    0.11499   0.11834   0.13824   0.14237   0.15152
 Alpha virt. eigenvalues --    0.15306   0.17103   0.19188   0.20702   0.21640
 Alpha virt. eigenvalues --    0.22088   0.23157   0.24421   0.25168   0.26466
 Alpha virt. eigenvalues --    0.27728   0.28327   0.29328   0.30600   0.31269
 Alpha virt. eigenvalues --    0.31908   0.32644   0.34258   0.35475   0.35985
 Alpha virt. eigenvalues --    0.36841   0.37667   0.38507   0.39152   0.40412
 Alpha virt. eigenvalues --    0.41441   0.42017   0.42656   0.45168   0.45643
 Alpha virt. eigenvalues --    0.46600   0.48720   0.48981   0.49795   0.51006
 Alpha virt. eigenvalues --    0.52124   0.52896   0.54651   0.56314   0.57357
 Alpha virt. eigenvalues --    0.58249   0.59097   0.61806   0.62748   0.65209
 Alpha virt. eigenvalues --    0.65711   0.66310   0.68409   0.69704   0.71661
 Alpha virt. eigenvalues --    0.74473   0.75050   0.76476   0.77747   0.79645
 Alpha virt. eigenvalues --    0.80337   0.82376   0.85177   0.85377   0.89474
 Alpha virt. eigenvalues --    0.91447   0.93146   0.94717   0.95896   0.96365
 Alpha virt. eigenvalues --    1.01255   1.03709   1.05946   1.07336   1.08659
 Alpha virt. eigenvalues --    1.10206   1.11286   1.15821   1.16694   1.20728
 Alpha virt. eigenvalues --    1.22788   1.23316   1.24367   1.25498   1.30007
 Alpha virt. eigenvalues --    1.33093   1.34263   1.34946   1.37438   1.40349
 Alpha virt. eigenvalues --    1.41832   1.44884   1.45108   1.46246   1.48836
 Alpha virt. eigenvalues --    1.49533   1.51972   1.53710   1.54106   1.54990
 Alpha virt. eigenvalues --    1.56708   1.57078   1.57807   1.58073   1.58843
 Alpha virt. eigenvalues --    1.60432   1.61361   1.63114   1.65556   1.66079
 Alpha virt. eigenvalues --    1.66363   1.68307   1.69122   1.71025   1.71346
 Alpha virt. eigenvalues --    1.73635   1.74250   1.76869   1.77511   1.79463
 Alpha virt. eigenvalues --    1.82860   1.84033   1.86504   1.88181   1.89668
 Alpha virt. eigenvalues --    1.91531   1.93377   1.95957   1.98891   2.01965
 Alpha virt. eigenvalues --    2.02386   2.04040   2.08658   2.10813   2.13651
 Alpha virt. eigenvalues --    2.14626   2.16454   2.17599   2.20480   2.22009
 Alpha virt. eigenvalues --    2.25780   2.28519   2.30248   2.32653   2.33749
 Alpha virt. eigenvalues --    2.37235   2.40217   2.41943   2.46463   2.47578
 Alpha virt. eigenvalues --    2.50493   2.51956   2.53810   2.55724   2.58254
 Alpha virt. eigenvalues --    2.59655   2.61690   2.63367   2.65759   2.68025
 Alpha virt. eigenvalues --    2.68301   2.69706   2.69901   2.74468   2.75682
 Alpha virt. eigenvalues --    2.77721   2.80016   2.80876   2.83045   2.86833
 Alpha virt. eigenvalues --    2.87867   2.91259   2.92577   2.95260   2.96700
 Alpha virt. eigenvalues --    3.00537   3.04581   3.05171   3.06017   3.08147
 Alpha virt. eigenvalues --    3.10298   3.10747   3.12666   3.13538   3.15023
 Alpha virt. eigenvalues --    3.15182   3.18312   3.18878   3.20703   3.22022
 Alpha virt. eigenvalues --    3.25450   3.27479   3.30390   3.31135   3.32505
 Alpha virt. eigenvalues --    3.33769   3.35226   3.36876   3.38483   3.39798
 Alpha virt. eigenvalues --    3.42525   3.43949   3.45459   3.48202   3.48932
 Alpha virt. eigenvalues --    3.54062   3.54613   3.56085   3.58011   3.60087
 Alpha virt. eigenvalues --    3.62975   3.73109   3.74769   3.76368   3.79496
 Alpha virt. eigenvalues --    3.81630   3.86021   3.89124   3.96329   4.00451
 Alpha virt. eigenvalues --    4.02012   4.05386   4.08316   4.09923   4.11684
 Alpha virt. eigenvalues --    4.13792   4.17263   4.17773   4.20815   4.23843
 Alpha virt. eigenvalues --    4.24536   4.29158   4.30671   4.32892   4.35001
 Alpha virt. eigenvalues --    4.36802   4.40673   4.42469   4.45564   4.49421
 Alpha virt. eigenvalues --    4.50804   4.58624   4.69043   4.72989   4.78393
 Alpha virt. eigenvalues --    4.82823   4.89107   4.89263   4.94601   4.97075
 Alpha virt. eigenvalues --    4.99488   5.01980   5.18931   5.23290   5.26634
 Alpha virt. eigenvalues --    5.29641   5.40512   5.42335   5.50196   5.58282
 Alpha virt. eigenvalues --    5.70248   5.77678   5.84004   5.99559   6.12037
 Alpha virt. eigenvalues --    6.24374   6.34532   6.67913   6.73757   6.99594
 Alpha virt. eigenvalues --    7.16097   7.17548   7.82761  22.39630  22.44219
 Alpha virt. eigenvalues --   22.70255  22.83127  22.93102  23.19126  32.54271
 Alpha virt. eigenvalues --   44.33554
          Condensed to atoms (all electrons):
               1          2          3          4          5          6
     1  C    4.908251   0.220447  -0.086443  -0.004749  -0.001119   0.000742
     2  O    0.220447   8.024099   0.274198  -0.041156   0.012446  -0.000461
     3  C   -0.086443   0.274198   5.122146   0.436453  -0.068203  -0.029375
     4  C   -0.004749  -0.041156   0.436453   5.005115   0.435525  -0.037309
     5  C   -0.001119   0.012446  -0.068203   0.435525   5.039449   0.510008
     6  C    0.000742  -0.000461  -0.029375  -0.037309   0.510008   4.815528
     7  N    0.000278   0.005901  -0.036391  -0.049159  -0.067033   0.499370
     8  C    0.004491  -0.067775   0.381069  -0.007295  -0.015189  -0.105984
     9  Br  -0.013778   0.002608  -0.088958   0.005316   0.002997  -0.000068
    10  H    0.414876  -0.047150  -0.016092   0.009135   0.000048   0.000170
    11  H    0.406998  -0.030128   0.002223  -0.000893   0.000128  -0.000022
    12  H    0.398618  -0.039076   0.022259  -0.006458  -0.001583  -0.000099
    13  H   -0.001073   0.003911  -0.047507   0.421640  -0.032387   0.003993
    14  H    0.000019  -0.000201   0.009292  -0.038847   0.403532  -0.029608
    15  H   -0.000002   0.000023  -0.000158   0.003680  -0.058523   0.427715
               7          8          9         10         11         12
     1  C    0.000278   0.004491  -0.013778   0.414876   0.406998   0.398618
     2  O    0.005901  -0.067775   0.002608  -0.047150  -0.030128  -0.039076
     3  C   -0.036391   0.381069  -0.088958  -0.016092   0.002223   0.022259
     4  C   -0.049159  -0.007295   0.005316   0.009135  -0.000893  -0.006458
     5  C   -0.067033  -0.015189   0.002997   0.000048   0.000128  -0.001583
     6  C    0.499370  -0.105984  -0.000068   0.000170  -0.000022  -0.000099
     7  N    6.450594   0.519309  -0.072194  -0.000673   0.000023   0.000026
     8  C    0.519309   4.812083   0.330946   0.010526  -0.001011  -0.003560
     9  Br  -0.072194   0.330946  34.930186  -0.001359   0.000586   0.001287
    10  H   -0.000673   0.010526  -0.001359   0.545345  -0.024418  -0.044028
    11  H    0.000023  -0.001011   0.000586  -0.024418   0.513325  -0.024651
    12  H    0.000026  -0.003560   0.001287  -0.044028  -0.024651   0.552302
    13  H   -0.001908   0.008006  -0.000453   0.000589  -0.000384  -0.000179
    14  H    0.006388  -0.000999   0.000114  -0.000014  -0.000001   0.000045
    15  H   -0.031241   0.004959  -0.000543  -0.000003  -0.000000   0.000004
              13         14         15
     1  C   -0.001073   0.000019  -0.000002
     2  O    0.003911  -0.000201   0.000023
     3  C   -0.047507   0.009292  -0.000158
     4  C    0.421640  -0.038847   0.003680
     5  C   -0.032387   0.403532  -0.058523
     6  C    0.003993  -0.029608   0.427715
     7  N   -0.001908   0.006388  -0.031241
     8  C    0.008006  -0.000999   0.004959
     9  Br  -0.000453   0.000114  -0.000543
    10  H    0.000589  -0.000014  -0.000003
    11  H   -0.000384  -0.000001  -0.000000
    12  H   -0.000179   0.000045   0.000004
    13  H    0.469833  -0.004338  -0.000144
    14  H   -0.004338   0.485995  -0.000286
    15  H   -0.000144  -0.000286   0.485181
 Mulliken charges:
               1
     1  C   -0.247555
     2  O   -0.317689
     3  C    0.125486
     4  C   -0.130999
     5  C   -0.160095
     6  C   -0.054601
     7  N   -0.223289
     8  C    0.130422
     9  Br  -0.096688
    10  H    0.153046
    11  H    0.158225
    12  H    0.145092
    13  H    0.180399
    14  H    0.168908
    15  H    0.169338
 Sum of Mulliken charges =   0.00000
 Mulliken charges with hydrogens summed into heavy atoms:
               1
     1  C    0.208808
     2  O   -0.317689
     3  C    0.125486
     4  C    0.049400
     5  C    0.008813
     6  C    0.114737
     7  N   -0.223289
     8  C    0.130422
     9  Br  -0.096688
 Electronic spatial extent (au):  <R**2>=           1637.9918
 Charge=             -0.0000 electrons
 Dipole moment (field-independent basis, Debye):
    X=             -2.9934    Y=              2.4316    Z=              1.1027  Tot=              4.0111
 Quadrupole moment (field-independent basis, Debye-Ang):
   XX=            -53.9386   YY=            -62.6485   ZZ=            -67.3253
   XY=              2.4275   XZ=              0.5652   YZ=              3.0595
 Traceless Quadrupole moment (field-independent basis, Debye-Ang):
   XX=              7.3656   YY=             -1.3444   ZZ=             -6.0212
   XY=              2.4275   XZ=              0.5652   YZ=              3.0595
 Octapole moment (field-independent basis, Debye-Ang**2):
  XXX=             21.5546  YYY=              8.3241  ZZZ=             -2.3130  XYY=             12.7061
  XXY=             -6.7453  XXZ=             -0.7906  XZZ=             21.6314  YZZ=             -3.1816
  YYZ=              6.0664  XYZ=              3.5533
 Hexadecapole moment (field-independent basis, Debye-Ang**3):
 XXXX=           -977.9512 YYYY=           -728.8503 ZZZZ=           -118.2834 XXXY=            -20.8011
 XXXZ=             -3.2537 YYYX=             -1.8825 YYYZ=             12.0109 ZZZX=             -2.4367
 ZZZY=              1.2863 XXYY=           -280.6333 XXZZ=           -222.4457 YYZZ=           -151.3125
 XXYZ=             -9.3380 YYXZ=             -3.5026 ZZXY=            -11.7261
 N-N= 6.635461614412D+02 E-N=-8.324008707670D+03  KE= 2.931178705655D+03
 Calculating spin-rotation constants.
 Leave Link  601 at Tue Sep 17 10:20:43 2024, MaxMem=  1342177280 cpu:               2.8 elap:               2.8
 (Enter /groups/ReismanLab/Software/Gaussian16_RevC/Linux_Binary_AVX2-enabled-CPU/g16/l9999.exe)
 Unable to Open any file for archive entry.
 1\1\GINC-HPC-82-26\SP\RM062X\def2TZVP\C6H6Br1N1O1\MANTIND\17-Sep-2024\
 0\\#p M062X/def2tzvp geom=check guess=read scf(xqc,tight) integral(gri
 d=ultrafine) scrf(SMD, solvent=1,4-Dioxane) nmr=giao\\spe\\0,1\C,0,-0.
 5351246746,2.5438096996,0.5814311055\O,0,-0.7999073926,1.7179899508,-0
 .5607793788\C,0,-1.084084017,0.414941345,-0.2731255825\C,0,-2.40315309
 95,-0.0345526117,-0.2935517943\C,0,-2.6734480714,-1.3804882653,-0.0485
 741566\C,0,-1.6048525871,-2.2318756574,0.2171986598\N,0,-0.3307945351,
 -1.8140130115,0.2363351187\C,0,-0.0904158835,-0.5430993395,-0.00262363
 12\Br,0,1.7475582093,0.0112299158,-0.0052818171\H,0,0.3351110348,2.180
 5334759,1.1361439926\H,0,-0.3285299947,3.5411290249,0.1918437682\H,0,-
 1.408950445,2.5802032827,1.2430741703\H,0,-3.1906068299,0.6795919855,-
 0.5109938915\H,0,-3.6899784465,-1.758452016,-0.0623756384\H,0,-1.76368
 80283,-3.2880315653,0.4169769644\\Version=ES64L-G16RevC.02\State=1-A\H
 F=-2936.3897757\RMSD=2.395e-09\Dipole=-1.4500978,0.4796141,0.3969708\Q
 uadrupole=3.4814838,1.0387837,-4.5202675,3.4416297,-0.2473874,2.323635
 2\PG=C01 [X(C6H6Br1N1O1)]\\@
 The archive entry for this job was punched.


 ANYONE WHO IS NOT SHOCKED BY QUANTUM THEORY HAS
 NOT UNDERSTOOD IT. -- NIELS BOHR(1885-1962)
 Job cpu time:       0 days  0 hours  8 minutes 52.1 seconds.
 Elapsed time:       0 days  0 hours  8 minutes 54.6 seconds.
 File lengths (MBytes):  RWF=    216 Int=      0 D2E=      0 Chk=     24 Scr=     16
 Normal termination of Gaussian 16 at Tue Sep 17 10:20:43 2024.
