 Entering Gaussian System, Link 0=g16
 Input=smiles_00023_conf_0.gjf
 Output=smiles_00023_conf_0.log
 Initial command:
 /groups/ReismanLab/Software/Gaussian16_RevC/Linux_Binary_AVX2-enabled-CPU/g16/l1.exe "/central/groups/ReismanLab/DM/dft_final/smiles_00023/Gau-868250.inp" -scrdir="/central/groups/ReismanLab/DM/dft_final/smiles_00023/"
 Entering Link 1 = /groups/ReismanLab/Software/Gaussian16_RevC/Linux_Binary_AVX2-enabled-CPU/g16/l1.exe PID=    868256.
  
 Copyright (c) 1988-2021, Gaussian, Inc.  All Rights Reserved.
  
 This is part of the Gaussian(R) 16 program.  It is based on
 the Gaussian(R) 09 system (copyright 2009, Gaussian, Inc.),
 the Gaussian(R) 03 system (copyright 2003, Gaussian, Inc.),
 the Gaussian(R) 98 system (copyright 1998, Gaussian, Inc.),
 the Gaussian(R) 94 system (copyright 1995, Gaussian, Inc.),
 the Gaussian 92(TM) system (copyright 1992, Gaussian, Inc.),
 the Gaussian 90(TM) system (copyright 1990, Gaussian, Inc.),
 the Gaussian 88(TM) system (copyright 1988, Gaussian, Inc.),
 the Gaussian 86(TM) system (copyright 1986, Carnegie Mellon
 University), and the Gaussian 82(TM) system (copyright 1983,
 Carnegie Mellon University). Gaussian is a federally registered
 trademark of Gaussian, Inc.
  
 This software contains proprietary and confidential information,
 including trade secrets, belonging to Gaussian, Inc.
  
 This software is provided under written license and may be
 used, copied, transmitted, or stored only in accord with that
 written license.
  
 The following legend is applicable only to US Government
 contracts under FAR:
  
                    RESTRICTED RIGHTS LEGEND
  
 Use, reproduction and disclosure by the US Government is
 subject to restrictions as set forth in subparagraphs (a)
 and (c) of the Commercial Computer Software - Restricted
 Rights clause in FAR 52.227-19.
  
 Gaussian, Inc.
 340 Quinnipiac St., Bldg. 40, Wallingford CT 06492
  
  
 ---------------------------------------------------------------
 Warning -- This program may not be used in any manner that
 competes with the business of Gaussian, Inc. or will provide
 assistance to any competitor of Gaussian, Inc.  The licensee
 of this program is prohibited from giving any competitor of
 Gaussian, Inc. access to this program.  By using this program,
 the user acknowledges that Gaussian, Inc. is engaged in the
 business of creating and licensing software in the field of
 computational chemistry and represents and warrants to the
 licensee that it is not a competitor of Gaussian, Inc. and that
 it will not use this program in any manner prohibited above.
 ---------------------------------------------------------------
  

 Cite this work as:
 Gaussian 16, Revision C.02,
 M. J. Frisch, G. W. Trucks, H. B. Schlegel, G. E. Scuseria, 
 M. A. Robb, J. R. Cheeseman, G. Scalmani, V. Barone, 
 G. A. Petersson, H. Nakatsuji, X. Li, M. Caricato, A. V. Marenich, 
 J. Bloino, B. G. Janesko, R. Gomperts, B. Mennucci, H. P. Hratchian, 
 J. V. Ortiz, A. F. Izmaylov, J. L. Sonnenberg, D. Williams-Young, 
 F. Ding, F. Lipparini, F. Egidi, J. Goings, B. Peng, A. Petrone, 
 T. Henderson, D. Ranasinghe, V. G. Zakrzewski, J. Gao, N. Rega, 
 G. Zheng, W. Liang, M. Hada, M. Ehara, K. Toyota, R. Fukuda, 
 J. Hasegawa, M. Ishida, T. Nakajima, Y. Honda, O. Kitao, H. Nakai, 
 T. Vreven, K. Throssell, J. A. Montgomery, Jr., J. E. Peralta, 
 F. Ogliaro, M. J. Bearpark, J. J. Heyd, E. N. Brothers, K. N. Kudin, 
 V. N. Staroverov, T. A. Keith, R. Kobayashi, J. Normand, 
 K. Raghavachari, A. P. Rendell, J. C. Burant, S. S. Iyengar, 
 J. Tomasi, M. Cossi, J. M. Millam, M. Klene, C. Adamo, R. Cammi, 
 J. W. Ochterski, R. L. Martin, K. Morokuma, O. Farkas, 
 J. B. Foresman, and D. J. Fox, Gaussian, Inc., Wallingford CT, 2019.
 
 ******************************************
 Gaussian 16:  ES64L-G16RevC.02  7-Dec-2021
                17-Sep-2024 
 ******************************************
 %nprocshared=8
 Will use up to    8 processors via shared memory.
 %Mem=10GB
 %Chk=smiles_00023_conf_0.chk
 ----------------------------------------------------------------------
 #p B3LYP/6-31G(d,p) EmpiricalDispersion=GD3BJ opt freq scf(xqc,tight) 
 integral(grid=ultrafine)
 ----------------------------------------------------------------------
 1/18=20,19=15,26=4,38=1/1,3;
 2/9=110,12=2,17=6,18=5,40=1/2;
 3/5=1,6=6,7=101,11=2,25=1,30=1,71=1,74=-5,75=-5,124=41/1,2,3;
 4//1;
 5/5=2,8=3,13=1,32=2,38=5/2,8;
 6/7=2,8=2,9=2,10=2,28=1/1;
 7//1,2,3,16;
 1/18=20,19=15,26=4/3(2);
 2/9=110/2;
 99//99;
 2/9=110/2;
 3/5=1,6=6,7=101,11=2,25=1,30=1,71=1,74=-5,75=-5,124=41/1,2,3;
 4/5=5,16=3,69=1/1;
 5/5=2,8=3,13=1,32=2,38=5/2,8;
 7//1,2,3,16;
 1/18=20,19=15,26=4/3(-5);
 2/9=110/2;
 6/7=2,8=2,9=2,10=2,19=2,28=1/1;
 99/9=1/99;
 Leave Link    1 at Tue Sep 17 09:52:15 2024, MaxMem=  1342177280 cpu:               0.1 elap:               1.0
 (Enter /groups/ReismanLab/Software/Gaussian16_RevC/Linux_Binary_AVX2-enabled-CPU/g16/l101.exe)
 ----------------------------------
 opt-freq conformers_unique/conf_aa
 ----------------------------------
 Symbolic Z-matrix:
 Charge =  0 Multiplicity = 1
 Br                    3.48902  -1.12094  -0.00017 
 C                     2.23573   0.31374   0.00017 
 C                     2.69864   1.61926   0.00138 
 C                     1.78156   2.65895   0.0014 
 C                     0.4251    2.39856   0.00044 
 C                    -0.02689   1.07867  -0.00043 
 C                    -1.44692   0.81396  -0.00088 
 N                    -2.40362   1.69166  -0.00186 
 N                    -3.56443   1.01957  -0.00156 
 C                    -3.27569  -0.24626  -0.00014 
 C                    -4.1992   -1.3696    0.00105 
 C                    -5.50449  -1.22387  -0.74262 
 C                    -5.50459  -1.22215   0.74428 
 O                    -1.94008  -0.45235   0.0003 
 C                     0.88459   0.02524  -0.00066 
 H                     3.75917   1.81822   0.00206 
 H                     2.13613   3.67808   0.0021 
 H                    -0.30284   3.19334   0.00052 
 H                    -3.70508  -2.3321    0.00236 
 H                    -5.87646  -2.09125  -1.26568 
 H                    -5.6723   -0.28528  -1.24629 
 H                    -5.87641  -2.08854   1.26917 
 H                    -5.67258  -0.28251   1.24593 
 H                     0.53705  -0.9965   -0.00153 
 
 ITRead=  0  0  0  0  0  0  0  0  0  0  0  0  0  0  0  0  0  0  0  0
 ITRead=  0  0  0  0
 MicOpt= -1 -1 -1 -1 -1 -1 -1 -1 -1 -1 -1 -1 -1 -1 -1 -1 -1 -1 -1 -1
 MicOpt= -1 -1 -1 -1
 NAtoms=     24 NQM=       24 NQMF=       0 NMMI=      0 NMMIF=      0
                NMic=       0 NMicF=      0.
                    Isotopes and Nuclear Properties:
 (Nuclear quadrupole moments (NQMom) in fm**2, nuclear magnetic moments (NMagM)
  in nuclear magnetons)

  Atom         1           2           3           4           5           6           7           8           9          10
 IAtWgt=          79          12          12          12          12          12          12          14          14          12
 AtmWgt=  78.9183361  12.0000000  12.0000000  12.0000000  12.0000000  12.0000000  12.0000000  14.0030740  14.0030740  12.0000000
 NucSpn=           3           0           0           0           0           0           0           2           2           0
 AtZEff=  -0.0000000  -0.0000000  -0.0000000  -0.0000000  -0.0000000  -0.0000000  -0.0000000  -0.0000000  -0.0000000  -0.0000000
 NQMom=   31.3000000   0.0000000   0.0000000   0.0000000   0.0000000   0.0000000   0.0000000   2.0440000   2.0440000   0.0000000
 NMagM=    2.1063990   0.0000000   0.0000000   0.0000000   0.0000000   0.0000000   0.0000000   0.4037610   0.4037610   0.0000000
 AtZNuc=  35.0000000   6.0000000   6.0000000   6.0000000   6.0000000   6.0000000   6.0000000   7.0000000   7.0000000   6.0000000

  Atom        11          12          13          14          15          16          17          18          19          20
 IAtWgt=          12          12          12          16          12           1           1           1           1           1
 AtmWgt=  12.0000000  12.0000000  12.0000000  15.9949146  12.0000000   1.0078250   1.0078250   1.0078250   1.0078250   1.0078250
 NucSpn=           0           0           0           0           0           1           1           1           1           1
 AtZEff=  -0.0000000  -0.0000000  -0.0000000  -0.0000000  -0.0000000  -0.0000000  -0.0000000  -0.0000000  -0.0000000  -0.0000000
 NQMom=    0.0000000   0.0000000   0.0000000   0.0000000   0.0000000   0.0000000   0.0000000   0.0000000   0.0000000   0.0000000
 NMagM=    0.0000000   0.0000000   0.0000000   0.0000000   0.0000000   2.7928460   2.7928460   2.7928460   2.7928460   2.7928460
 AtZNuc=   6.0000000   6.0000000   6.0000000   8.0000000   6.0000000   1.0000000   1.0000000   1.0000000   1.0000000   1.0000000

  Atom        21          22          23          24
 IAtWgt=           1           1           1           1
 AtmWgt=   1.0078250   1.0078250   1.0078250   1.0078250
 NucSpn=           1           1           1           1
 AtZEff=  -0.0000000  -0.0000000  -0.0000000  -0.0000000
 NQMom=    0.0000000   0.0000000   0.0000000   0.0000000
 NMagM=    2.7928460   2.7928460   2.7928460   2.7928460
 AtZNuc=   1.0000000   1.0000000   1.0000000   1.0000000
 Leave Link  101 at Tue Sep 17 09:52:15 2024, MaxMem=  1342177280 cpu:               0.2 elap:               0.2
 (Enter /groups/ReismanLab/Software/Gaussian16_RevC/Linux_Binary_AVX2-enabled-CPU/g16/l103.exe)

 GradGradGradGradGradGradGradGradGradGradGradGradGradGradGradGradGradGrad
 Berny optimization.
 Initialization pass.
                           ----------------------------
                           !    Initial Parameters    !
                           ! (Angstroms and Degrees)  !
 --------------------------                            --------------------------
 ! Name  Definition              Value          Derivative Info.                !
 --------------------------------------------------------------------------------
 ! R1    R(1,2)                  1.905          estimate D2E/DX2                !
 ! R2    R(2,3)                  1.3852         estimate D2E/DX2                !
 ! R3    R(2,15)                 1.3816         estimate D2E/DX2                !
 ! R4    R(3,4)                  1.3864         estimate D2E/DX2                !
 ! R5    R(3,16)                 1.079          estimate D2E/DX2                !
 ! R6    R(4,5)                  1.3812         estimate D2E/DX2                !
 ! R7    R(4,17)                 1.0791         estimate D2E/DX2                !
 ! R8    R(5,6)                  1.3951         estimate D2E/DX2                !
 ! R9    R(5,18)                 1.0778         estimate D2E/DX2                !
 ! R10   R(6,7)                  1.4445         estimate D2E/DX2                !
 ! R11   R(6,15)                 1.393          estimate D2E/DX2                !
 ! R12   R(7,8)                  1.2983         estimate D2E/DX2                !
 ! R13   R(7,14)                 1.359          estimate D2E/DX2                !
 ! R14   R(8,9)                  1.3413         estimate D2E/DX2                !
 ! R15   R(9,10)                 1.2983         estimate D2E/DX2                !
 ! R16   R(10,11)                1.4542         estimate D2E/DX2                !
 ! R17   R(10,14)                1.3514         estimate D2E/DX2                !
 ! R18   R(11,12)                1.5093         estimate D2E/DX2                !
 ! R19   R(11,13)                1.5094         estimate D2E/DX2                !
 ! R20   R(11,19)                1.0819         estimate D2E/DX2                !
 ! R21   R(12,13)                1.4869         estimate D2E/DX2                !
 ! R22   R(12,20)                1.079          estimate D2E/DX2                !
 ! R23   R(12,21)                1.0783         estimate D2E/DX2                !
 ! R24   R(13,22)                1.0791         estimate D2E/DX2                !
 ! R25   R(13,23)                1.0783         estimate D2E/DX2                !
 ! R26   R(15,24)                1.0792         estimate D2E/DX2                !
 ! A1    A(1,2,3)              119.337          estimate D2E/DX2                !
 ! A2    A(1,2,15)             119.0863         estimate D2E/DX2                !
 ! A3    A(3,2,15)             121.5766         estimate D2E/DX2                !
 ! A4    A(2,3,4)              119.0618         estimate D2E/DX2                !
 ! A5    A(2,3,16)             120.1492         estimate D2E/DX2                !
 ! A6    A(4,3,16)             120.789          estimate D2E/DX2                !
 ! A7    A(3,4,5)              120.5484         estimate D2E/DX2                !
 ! A8    A(3,4,17)             119.4018         estimate D2E/DX2                !
 ! A9    A(5,4,17)             120.0497         estimate D2E/DX2                !
 ! A10   A(4,5,6)              119.7697         estimate D2E/DX2                !
 ! A11   A(4,5,18)             121.6207         estimate D2E/DX2                !
 ! A12   A(6,5,18)             118.6097         estimate D2E/DX2                !
 ! A13   A(5,6,7)              119.4629         estimate D2E/DX2                !
 ! A14   A(5,6,15)             120.2283         estimate D2E/DX2                !
 ! A15   A(7,6,15)             120.3087         estimate D2E/DX2                !
 ! A16   A(6,7,8)              126.9065         estimate D2E/DX2                !
 ! A17   A(6,7,14)             121.8379         estimate D2E/DX2                !
 ! A18   A(8,7,14)             111.2556         estimate D2E/DX2                !
 ! A19   A(7,8,9)              107.3956         estimate D2E/DX2                !
 ! A20   A(8,9,10)             107.2209         estimate D2E/DX2                !
 ! A21   A(9,10,11)            127.7269         estimate D2E/DX2                !
 ! A22   A(9,10,14)            111.6213         estimate D2E/DX2                !
 ! A23   A(11,10,14)           120.6518         estimate D2E/DX2                !
 ! A24   A(10,11,12)           118.3084         estimate D2E/DX2                !
 ! A25   A(10,11,13)           118.305          estimate D2E/DX2                !
 ! A26   A(10,11,19)           113.4015         estimate D2E/DX2                !
 ! A27   A(12,11,19)           118.7812         estimate D2E/DX2                !
 ! A28   A(13,11,19)           118.7701         estimate D2E/DX2                !
 ! A29   A(11,12,20)           117.3452         estimate D2E/DX2                !
 ! A30   A(11,12,21)           116.6646         estimate D2E/DX2                !
 ! A31   A(13,12,20)           119.0556         estimate D2E/DX2                !
 ! A32   A(13,12,21)           117.7795         estimate D2E/DX2                !
 ! A33   A(20,12,21)           114.8102         estimate D2E/DX2                !
 ! A34   A(11,13,22)           117.3285         estimate D2E/DX2                !
 ! A35   A(11,13,23)           116.6758         estimate D2E/DX2                !
 ! A36   A(12,13,22)           119.0464         estimate D2E/DX2                !
 ! A37   A(12,13,23)           117.7901         estimate D2E/DX2                !
 ! A38   A(22,13,23)           114.8135         estimate D2E/DX2                !
 ! A39   A(7,14,10)            102.5065         estimate D2E/DX2                !
 ! A40   A(2,15,6)             118.8151         estimate D2E/DX2                !
 ! A41   A(2,15,24)            120.8386         estimate D2E/DX2                !
 ! A42   A(6,15,24)            120.3463         estimate D2E/DX2                !
 ! D1    D(1,2,3,4)            179.9898         estimate D2E/DX2                !
 ! D2    D(1,2,3,16)             0.0033         estimate D2E/DX2                !
 ! D3    D(15,2,3,4)            -0.0164         estimate D2E/DX2                !
 ! D4    D(15,2,3,16)          179.9971         estimate D2E/DX2                !
 ! D5    D(1,2,15,6)          -179.999          estimate D2E/DX2                !
 ! D6    D(1,2,15,24)           -0.0019         estimate D2E/DX2                !
 ! D7    D(3,2,15,6)             0.0071         estimate D2E/DX2                !
 ! D8    D(3,2,15,24)         -179.9958         estimate D2E/DX2                !
 ! D9    D(2,3,4,5)              0.0095         estimate D2E/DX2                !
 ! D10   D(2,3,4,17)          -179.9859         estimate D2E/DX2                !
 ! D11   D(16,3,4,5)           179.9959         estimate D2E/DX2                !
 ! D12   D(16,3,4,17)            0.0005         estimate D2E/DX2                !
 ! D13   D(3,4,5,6)              0.0063         estimate D2E/DX2                !
 ! D14   D(3,4,5,18)           179.9956         estimate D2E/DX2                !
 ! D15   D(17,4,5,6)          -179.9984         estimate D2E/DX2                !
 ! D16   D(17,4,5,18)           -0.009          estimate D2E/DX2                !
 ! D17   D(4,5,6,7)            179.9749         estimate D2E/DX2                !
 ! D18   D(4,5,6,15)            -0.0156         estimate D2E/DX2                !
 ! D19   D(18,5,6,7)            -0.0148         estimate D2E/DX2                !
 ! D20   D(18,5,6,15)          179.9947         estimate D2E/DX2                !
 ! D21   D(5,6,7,8)              0.0719         estimate D2E/DX2                !
 ! D22   D(5,6,7,14)          -179.8996         estimate D2E/DX2                !
 ! D23   D(15,6,7,8)          -179.9376         estimate D2E/DX2                !
 ! D24   D(15,6,7,14)            0.0909         estimate D2E/DX2                !
 ! D25   D(5,6,15,2)             0.009          estimate D2E/DX2                !
 ! D26   D(5,6,15,24)         -179.9882         estimate D2E/DX2                !
 ! D27   D(7,6,15,2)          -179.9814         estimate D2E/DX2                !
 ! D28   D(7,6,15,24)            0.0214         estimate D2E/DX2                !
 ! D29   D(6,7,8,9)           -179.9834         estimate D2E/DX2                !
 ! D30   D(14,7,8,9)            -0.0093         estimate D2E/DX2                !
 ! D31   D(6,7,14,10)          179.978          estimate D2E/DX2                !
 ! D32   D(8,7,14,10)            0.0024         estimate D2E/DX2                !
 ! D33   D(7,8,9,10)             0.0126         estimate D2E/DX2                !
 ! D34   D(8,9,10,11)          179.9837         estimate D2E/DX2                !
 ! D35   D(8,9,10,14)           -0.0116         estimate D2E/DX2                !
 ! D36   D(9,10,11,12)          34.0174         estimate D2E/DX2                !
 ! D37   D(9,10,11,13)         -34.0198         estimate D2E/DX2                !
 ! D38   D(9,10,11,19)        -179.9879         estimate D2E/DX2                !
 ! D39   D(14,10,11,12)       -145.9878         estimate D2E/DX2                !
 ! D40   D(14,10,11,13)        145.975          estimate D2E/DX2                !
 ! D41   D(14,10,11,19)          0.007          estimate D2E/DX2                !
 ! D42   D(9,10,14,7)            0.0058         estimate D2E/DX2                !
 ! D43   D(11,10,14,7)        -179.9898         estimate D2E/DX2                !
 ! D44   D(10,11,12,20)        142.6473         estimate D2E/DX2                !
 ! D45   D(10,11,12,21)          0.6191         estimate D2E/DX2                !
 ! D46   D(19,11,12,20)         -1.5067         estimate D2E/DX2                !
 ! D47   D(19,11,12,21)       -143.5349         estimate D2E/DX2                !
 ! D48   D(10,11,13,22)       -142.6466         estimate D2E/DX2                !
 ! D49   D(10,11,13,23)         -0.6203         estimate D2E/DX2                !
 ! D50   D(19,11,13,22)          1.4832         estimate D2E/DX2                !
 ! D51   D(19,11,13,23)        143.5094         estimate D2E/DX2                !
 ! D52   D(20,12,13,22)          0.0176         estimate D2E/DX2                !
 ! D53   D(20,12,13,23)       -146.6313         estimate D2E/DX2                !
 ! D54   D(21,12,13,22)        146.6569         estimate D2E/DX2                !
 ! D55   D(21,12,13,23)          0.008          estimate D2E/DX2                !
 --------------------------------------------------------------------------------
 Trust Radius=3.00D-01 FncErr=1.00D-07 GrdErr=1.00D-06 EigMax=2.50D+02 EigMin=1.00D-04
 Number of steps in this run=    133 maximum allowed number of steps=    144.
 GradGradGradGradGradGradGradGradGradGradGradGradGradGradGradGradGradGrad

 Leave Link  103 at Tue Sep 17 09:52:15 2024, MaxMem=  1342177280 cpu:               0.1 elap:               0.0
 (Enter /groups/ReismanLab/Software/Gaussian16_RevC/Linux_Binary_AVX2-enabled-CPU/g16/l202.exe)
                          Input orientation:                          
 ---------------------------------------------------------------------
 Center     Atomic      Atomic             Coordinates (Angstroms)
 Number     Number       Type             X           Y           Z
 ---------------------------------------------------------------------
      1         35           0        3.489022   -1.120941   -0.000168
      2          6           0        2.235729    0.313743    0.000173
      3          6           0        2.698639    1.619255    0.001376
      4          6           0        1.781558    2.658945    0.001402
      5          6           0        0.425097    2.398563    0.000442
      6          6           0       -0.026894    1.078667   -0.000429
      7          6           0       -1.446917    0.813956   -0.000879
      8          7           0       -2.403624    1.691665   -0.001862
      9          7           0       -3.564430    1.019573   -0.001565
     10          6           0       -3.275693   -0.246260   -0.000136
     11          6           0       -4.199197   -1.369602    0.001045
     12          6           0       -5.504494   -1.223866   -0.742615
     13          6           0       -5.504590   -1.222147    0.744280
     14          8           0       -1.940082   -0.452353    0.000295
     15          6           0        0.884589    0.025241   -0.000663
     16          1           0        3.759167    1.818218    0.002058
     17          1           0        2.136130    3.678077    0.002105
     18          1           0       -0.302845    3.193338    0.000516
     19          1           0       -3.705079   -2.332095    0.002362
     20          1           0       -5.876464   -2.091248   -1.265676
     21          1           0       -5.672304   -0.285279   -1.246288
     22          1           0       -5.876409   -2.088543    1.269168
     23          1           0       -5.672580   -0.282515    1.245934
     24          1           0        0.537047   -0.996504   -0.001529
 ---------------------------------------------------------------------
                    Distance matrix (angstroms):
                    1          2          3          4          5
     1  Br   0.000000
     2  C    1.905009   0.000000
     3  C    2.851908   1.385153   0.000000
     4  C    4.147647   2.388775   1.386360   0.000000
     5  C    4.666320   2.761316   2.403397   1.381227   0.000000
     6  C    4.147281   2.388425   2.778627   2.401621   1.395142
     7  C    5.301634   3.716463   4.223049   3.718473   2.452634
     8  N    6.529474   4.839657   5.102778   4.295509   2.915712
     9  N    7.371091   5.842948   6.291714   5.591703   4.221130
    10  C    6.821029   5.539799   6.258817   5.832324   4.548729
    11  C    7.692239   6.651460   7.517540   7.211007   5.965162
    12  C    9.024697   7.926350   8.713682   8.289532   6.988145
    13  C    9.024938   7.926235   8.713119   8.288709   6.987419
    14  O    5.470117   4.245504   5.080285   4.850854   3.704294
    15  C    2.845489   1.381599   2.414884   2.782258   2.417393
    16  H    2.951549   2.141101   1.079030   2.148897   3.384202
    17  H    4.986070   3.365809   2.134283   1.079051   2.136537
    18  H    5.743801   3.838805   3.389195   2.151816   1.077760
    19  H    7.295340   6.503358   7.524678   7.417120   6.279927
    20  H    9.500281   8.555351   9.428979   9.100282   7.840352
    21  H    9.283375   8.028044   8.675057   8.110811   6.777584
    22  H    9.500462   8.555005   9.427964   9.098919   7.839181
    23  H    9.283894   8.028001   8.674270   8.109576   6.776510
    24  H    2.954597   2.145290   3.393330   3.861493   3.396912
                    6          7          8          9         10
     6  C    0.000000
     7  C    1.444485   0.000000
     8  N    2.454509   1.298330   0.000000
     9  N    3.538030   2.127473   1.341334   0.000000
    10  C    3.508579   2.113878   2.125102   1.298347   0.000000
    11  C    4.837575   3.513257   3.549005   2.472062   1.454220
    12  C    5.988038   4.600742   4.320234   3.057126   2.544512
    13  C    5.987778   4.600618   4.320071   3.057092   2.544503
    14  O    2.450370   1.358953   2.193556   2.192048   1.351418
    15  C    1.393021   2.461299   3.686369   4.558779   4.169131
    16  H    3.857615   5.302061   6.164091   7.367015   7.331529
    17  H    3.381658   4.587092   4.955322   6.289995   6.684927
    18  H    2.132600   2.640143   2.582305   3.919591   4.546279
    19  H    5.016209   3.872589   4.229000   3.354620   2.129574
    20  H    6.772494   5.446174   5.288503   4.076847   3.430682
    21  H    5.939964   4.540183   4.017608   2.774006   2.701512
    22  H    6.771995   5.445909   5.288262   4.076811   3.430578
    23  H    5.939697   4.540156   4.017518   2.774163   2.701680
    24  H    2.150434   2.685867   3.984194   4.570195   3.885853
                   11         12         13         14         15
    11  C    0.000000
    12  C    1.509328   0.000000
    13  C    1.509368   1.486896   0.000000
    14  O    2.438225   3.721852   3.721802   0.000000
    15  C    5.271666   6.552186   6.552291   2.864762   0.000000
    16  H    8.573082   9.778764   9.778134   6.134895   3.387916
    17  H    8.100334   9.108390   9.107338   5.803099   3.861292
    18  H    6.000164   6.864480   6.863515   3.996449   3.383318
    19  H    1.081919   2.240772   2.240685   2.578497   5.159660
    20  H    2.222292   1.079030   2.221160   4.447894   7.196639
    21  H    2.213966   1.078328   2.206403   3.938447   6.681381
    22  H    2.222173   2.221094   1.079073   4.447676   7.196641
    23  H    2.214128   2.206519   1.078326   3.938528   6.681705
    24  H    4.750917   6.091069   6.091676   2.536192   1.079235
                   16         17         18         19         20
    16  H    0.000000
    17  H    2.468466   0.000000
    18  H    4.288460   2.486679   0.000000
    19  H    8.540495   8.381043   6.488883   0.000000
    20  H   10.475517   9.954598   7.784299   2.526033   0.000000
    21  H    9.743496   8.845242   6.518159   3.101381   1.817576
    22  H   10.474381   9.952895   7.782824   2.525627   2.534845
    23  H    9.742594   8.843604   6.516645   3.101341   3.101818
    24  H    4.278403   4.940525   4.273195   4.447409   6.627945
                   21         22         23         24
    21  H    0.000000
    22  H    3.101764   0.000000
    23  H    2.492224   1.817642   0.000000
    24  H    6.372701   6.628698   6.373806   0.000000
 Stoichiometry    C11H9BrN2O
 Framework group  C1[X(C11H9BrN2O)]
 Deg. of freedom    66
 Full point group                 C1      NOp   1
 Largest Abelian subgroup         C1      NOp   1
 Largest concise Abelian subgroup C1      NOp   1
                         Standard orientation:                         
 ---------------------------------------------------------------------
 Center     Atomic      Atomic             Coordinates (Angstroms)
 Number     Number       Type             X           Y           Z
 ---------------------------------------------------------------------
      1         35           0        3.648247   -1.309613   -0.000207
      2          6           0        2.452385    0.173281    0.000134
      3          6           0        2.966313    1.459565    0.001337
      4          6           0        2.090858    2.534540    0.001363
      5          6           0        0.725200    2.327741    0.000403
      6          6           0        0.221617    1.026655   -0.000468
      7          6           0       -1.207723    0.818033   -0.000918
      8          7           0       -2.129149    1.732711   -0.001901
      9          7           0       -3.315504    1.106821   -0.001604
     10          6           0       -3.076806   -0.169394   -0.000175
     11          6           0       -4.043802   -1.255522    0.001007
     12          6           0       -5.342353   -1.058531   -0.742654
     13          6           0       -5.342381   -1.056809    0.744241
     14          8           0       -1.750340   -0.427888    0.000256
     15          6           0        1.090938   -0.061825   -0.000701
     16          1           0        4.033848    1.616638    0.002019
     17          1           0        2.485261    3.538928    0.002066
     18          1           0        0.029100    3.150547    0.000477
     19          1           0       -3.587944   -2.236715    0.002323
     20          1           0       -5.748169   -1.910602   -1.265715
     21          1           0       -5.473097   -0.114067   -1.246327
     22          1           0       -5.748008   -1.907901    1.269129
     23          1           0       -5.473263   -0.111294    1.245896
     24          1           0        0.703455   -1.069102   -0.001568
 ---------------------------------------------------------------------
 Rotational constants (GHZ):           1.0378322           0.1833381           0.1577224
 Leave Link  202 at Tue Sep 17 09:52:15 2024, MaxMem=  1342177280 cpu:               0.0 elap:               0.0
 (Enter /groups/ReismanLab/Software/Gaussian16_RevC/Linux_Binary_AVX2-enabled-CPU/g16/l301.exe)
 Standard basis: 6-31G(d,p) (6D, 7F)
 Ernie: Thresh=  0.10000D-02 Tol=  0.10000D-05 Strict=F.
 There are   285 symmetry adapted cartesian basis functions of A   symmetry.
 There are   285 symmetry adapted basis functions of A   symmetry.
   285 basis functions,   538 primitive gaussians,   285 cartesian basis functions
    66 alpha electrons       66 beta electrons
       nuclear repulsion energy      1179.0414435918 Hartrees.
 IExCor=  402 DFT=T Ex+Corr=B3LYP ExCW=0 ScaHFX=  0.200000
 ScaDFX=  0.800000  0.720000  1.000000  0.810000 ScalE2=  1.000000  1.000000
 IRadAn=      5 IRanWt=     -1 IRanGd=            0 ICorTp=0 IEmpDi=141
 NAtoms=   24 NActive=   24 NUniq=   24 SFac= 1.00D+00 NAtFMM=   60 NAOKFM=F Big=F
 Integral buffers will be    131072 words long.
 Raffenetti 2 integral format.
 Two-electron integral symmetry is turned on.
 R6Disp:  Grimme-D3(BJ) Dispersion energy=       -0.0487455634 Hartrees.
 Nuclear repulsion after empirical dispersion term =     1178.9926980284 Hartrees.
 Leave Link  301 at Tue Sep 17 09:52:16 2024, MaxMem=  1342177280 cpu:               0.1 elap:               0.0
 (Enter /groups/ReismanLab/Software/Gaussian16_RevC/Linux_Binary_AVX2-enabled-CPU/g16/l302.exe)
 NPDir=0 NMtPBC=     1 NCelOv=     1 NCel=       1 NClECP=     1 NCelD=      1
         NCelK=      1 NCelE2=     1 NClLst=     1 CellRange=     0.0.
 One-electron integrals computed using PRISM.
 One-electron integral symmetry used in STVInt
 NBasis=   285 RedAO= T EigKep=  4.17D-04  NBF=   285
 NBsUse=   285 1.00D-06 EigRej= -1.00D+00 NBFU=   285
 Precomputing XC quadrature grid using
 IXCGrd= 4 IRadAn=           5 IRanWt=          -1 IRanGd=           0 AccXCQ= 0.00D+00.
 Generated NRdTot=       0 NPtTot=           0 NUsed=           0 NTot=          32
 NSgBfM=   279   279   279   279   279 MxSgAt=    24 MxSgA2=    24.
 Leave Link  302 at Tue Sep 17 09:52:16 2024, MaxMem=  1342177280 cpu:               1.3 elap:               0.2
 (Enter /groups/ReismanLab/Software/Gaussian16_RevC/Linux_Binary_AVX2-enabled-CPU/g16/l303.exe)
 DipDrv:  MaxL=1.
 Leave Link  303 at Tue Sep 17 09:52:16 2024, MaxMem=  1342177280 cpu:               0.1 elap:               0.0
 (Enter /groups/ReismanLab/Software/Gaussian16_RevC/Linux_Binary_AVX2-enabled-CPU/g16/l401.exe)
 ExpMin= 1.43D-01 ExpMax= 5.74D+05 ExpMxC= 5.74D+03 IAcc=3 IRadAn=         5 AccDes= 0.00D+00
 Harris functional with IExCor=  402 and IRadAn=       5 diagonalized for initial guess.
 HarFok:  IExCor=  402 AccDes= 0.00D+00 IRadAn=         5 IDoV= 1 UseB2=F ITyADJ=14
 ICtDFT=  3500011 ScaDFX=  1.000000  1.000000  1.000000  1.000000
 FoFCou: FMM=F IPFlag=           0 FMFlag=      100000 FMFlg1=           0
         NFxFlg=           0 DoJE=T BraDBF=F KetDBF=T FulRan=T
         wScrn=  0.000000 ICntrl=       500 IOpCl=  0 I1Cent=   200000004 NGrid=           0
         NMat0=    1 NMatS0=      1 NMatT0=    0 NMatD0=    1 NMtDS0=    0 NMtDT0=    0
 Petite list used in FoFCou.
 Harris En= -3181.11210136516    
 JPrj=0 DoOrth=F DoCkMO=F.
 Leave Link  401 at Tue Sep 17 09:52:17 2024, MaxMem=  1342177280 cpu:               7.1 elap:               0.9
 (Enter /groups/ReismanLab/Software/Gaussian16_RevC/Linux_Binary_AVX2-enabled-CPU/g16/l502.exe)
 Integral symmetry usage will be decided dynamically.
 Closed shell SCF:
 Using DIIS extrapolation, IDIIS=  1040.
 NGot=  1342177280 LenX=  1342008998 LenY=  1341927332
 Requested convergence on RMS density matrix=1.00D-08 within  32 cycles.
 Requested convergence on MAX density matrix=1.00D-06.
 Requested convergence on             energy=1.00D-06.
 No special actions if energy rises.
 Fock matrices will be formed incrementally for  20 cycles.
 Integral accuracy reduced to 1.0D-05 until final iterations.

 Cycle   1  Pass 0  IDiag  1:
 FoFJK:  IHMeth= 1 ICntrl=       0 DoSepK=F KAlg= 0 I1Cent=           0 FoldK=F
 IRaf= 760000000 NMat=       1 IRICut=       1 DoRegI=T DoRafI=F ISym2E= 0 IDoP0=0 IntGTp=1.
 FoFCou: FMM=F IPFlag=           0 FMFlag=      100000 FMFlg1=           0
         NFxFlg=           0 DoJE=F BraDBF=F KetDBF=F FulRan=T
         wScrn=  0.000000 ICntrl=         0 IOpCl=  0 I1Cent=           0 NGrid=           0
         NMat0=    1 NMatS0=      1 NMatT0=    0 NMatD0=    1 NMtDS0=    0 NMtDT0=    0
 Symmetry not used in FoFCou.
 E= -3180.75128671846    
 DIIS: error= 1.86D-01 at cycle   1 NSaved=   1.
 NSaved= 1 IEnMin= 1 EnMin= -3180.75128671846     IErMin= 1 ErrMin= 1.86D-01
 ErrMax= 1.86D-01  0.00D+00 EMaxC= 1.00D-01 BMatC= 6.28D-01 BMatP= 6.28D-01
 IDIUse=3 WtCom= 0.00D+00 WtEn= 1.00D+00
 Coeff-Com:  0.100D+01
 Coeff-En:   0.100D+01
 Coeff:      0.100D+01
 Gap=     0.217 Goal=   None    Shift=    0.000
 GapD=    0.217 DampG=1.000 DampE=0.250 DampFc=0.2500 IDamp=-1.
 Damping current iteration by 2.50D-01
 RMSDP=4.54D-03 MaxDP=1.41D-01              OVMax= 1.84D-01

 Cycle   2  Pass 0  IDiag  1:
 RMSU=  1.10D-03    CP:  9.91D-01
 E= -3180.85166375468     Delta-E=       -0.100377036224 Rises=F Damp=T
 DIIS: error= 1.37D-01 at cycle   2 NSaved=   2.
 NSaved= 2 IEnMin= 2 EnMin= -3180.85166375468     IErMin= 2 ErrMin= 1.37D-01
 ErrMax= 1.37D-01  0.00D+00 EMaxC= 1.00D-01 BMatC= 2.64D-01 BMatP= 6.28D-01
 IDIUse=3 WtCom= 0.00D+00 WtEn= 1.00D+00
 Coeff-Com: -0.128D+01 0.228D+01
 Coeff-En:   0.000D+00 0.100D+01
 Coeff:      0.000D+00 0.100D+01
 Gap=     0.183 Goal=   None    Shift=    0.000
 RMSDP=2.32D-03 MaxDP=1.11D-01 DE=-1.00D-01 OVMax= 8.41D-02

 Cycle   3  Pass 0  IDiag  1:
 RMSU=  8.98D-04    CP:  9.66D-01  2.80D+00
 E= -3180.97527171949     Delta-E=       -0.123607964808 Rises=F Damp=F
 DIIS: error= 1.22D-02 at cycle   3 NSaved=   3.
 NSaved= 3 IEnMin= 3 EnMin= -3180.97527171949     IErMin= 3 ErrMin= 1.22D-02
 ErrMax= 1.22D-02  0.00D+00 EMaxC= 1.00D-01 BMatC= 5.84D-02 BMatP= 2.64D-01
 IDIUse=3 WtCom= 8.78D-01 WtEn= 1.22D-01
 Coeff-Com:  0.121D+01-0.149D+01 0.128D+01
 Coeff-En:   0.112D+00 0.000D+00 0.888D+00
 Coeff:      0.107D+01-0.131D+01 0.123D+01
 Gap=     0.179 Goal=   None    Shift=    0.000
 RMSDP=1.19D-03 MaxDP=3.43D-02 DE=-1.24D-01 OVMax= 5.26D-02

 Cycle   4  Pass 0  IDiag  1:
 RMSU=  7.53D-04    CP:  9.68D-01  1.97D+00  1.17D+00
 E= -3181.01776634755     Delta-E=       -0.042494628055 Rises=F Damp=F
 DIIS: error= 1.07D-02 at cycle   4 NSaved=   4.
 NSaved= 4 IEnMin= 4 EnMin= -3181.01776634755     IErMin= 4 ErrMin= 1.07D-02
 ErrMax= 1.07D-02  0.00D+00 EMaxC= 1.00D-01 BMatC= 1.78D-02 BMatP= 5.84D-02
 IDIUse=3 WtCom= 8.93D-01 WtEn= 1.07D-01
 Coeff-Com:  0.828D+00-0.108D+01 0.815D+00 0.435D+00
 Coeff-En:   0.000D+00 0.000D+00 0.119D+00 0.881D+00
 Coeff:      0.740D+00-0.963D+00 0.741D+00 0.482D+00
 Gap=     0.181 Goal=   None    Shift=    0.000
 RMSDP=5.95D-04 MaxDP=2.50D-02 DE=-4.25D-02 OVMax= 4.55D-02

 Cycle   5  Pass 0  IDiag  1:
 RMSU=  2.22D-04    CP:  9.68D-01  2.04D+00  1.25D+00  2.82D-01
 E= -3181.03248833259     Delta-E=       -0.014721985046 Rises=F Damp=F
 DIIS: error= 3.63D-03 at cycle   5 NSaved=   5.
 NSaved= 5 IEnMin= 5 EnMin= -3181.03248833259     IErMin= 5 ErrMin= 3.63D-03
 ErrMax= 3.63D-03  0.00D+00 EMaxC= 1.00D-01 BMatC= 2.10D-03 BMatP= 1.78D-02
 IDIUse=3 WtCom= 9.64D-01 WtEn= 3.63D-02
 Coeff-Com:  0.268D+00-0.350D+00 0.284D+00 0.295D+00 0.504D+00
 Coeff-En:   0.000D+00 0.000D+00 0.000D+00 0.110D+00 0.890D+00
 Coeff:      0.258D+00-0.338D+00 0.273D+00 0.289D+00 0.518D+00
 Gap=     0.179 Goal=   None    Shift=    0.000
 RMSDP=1.91D-04 MaxDP=9.84D-03 DE=-1.47D-02 OVMax= 1.81D-02

 Cycle   6  Pass 0  IDiag  1:
 RMSU=  6.54D-05    CP:  9.68D-01  2.06D+00  1.25D+00  4.16D-01  3.38D-01
 E= -3181.03434850579     Delta-E=       -0.001860173193 Rises=F Damp=F
 DIIS: error= 6.22D-04 at cycle   6 NSaved=   6.
 NSaved= 6 IEnMin= 6 EnMin= -3181.03434850579     IErMin= 6 ErrMin= 6.22D-04
 ErrMax= 6.22D-04  0.00D+00 EMaxC= 1.00D-01 BMatC= 8.18D-05 BMatP= 2.10D-03
 IDIUse=3 WtCom= 9.94D-01 WtEn= 6.22D-03
 Coeff-Com:  0.727D-01-0.956D-01 0.803D-01 0.119D+00 0.286D+00 0.538D+00
 Coeff-En:   0.000D+00 0.000D+00 0.000D+00 0.000D+00 0.000D+00 0.100D+01
 Coeff:      0.722D-01-0.950D-01 0.798D-01 0.118D+00 0.284D+00 0.541D+00
 Gap=     0.179 Goal=   None    Shift=    0.000
 RMSDP=4.69D-05 MaxDP=2.28D-03 DE=-1.86D-03 OVMax= 5.14D-03

 Cycle   7  Pass 0  IDiag  1:
 RMSU=  2.07D-05    CP:  9.68D-01  2.06D+00  1.25D+00  4.20D-01  4.57D-01
                    CP:  5.04D-01
 E= -3181.03442218399     Delta-E=       -0.000073678205 Rises=F Damp=F
 DIIS: error= 1.74D-04 at cycle   7 NSaved=   7.
 NSaved= 7 IEnMin= 7 EnMin= -3181.03442218399     IErMin= 7 ErrMin= 1.74D-04
 ErrMax= 1.74D-04  0.00D+00 EMaxC= 1.00D-01 BMatC= 1.10D-05 BMatP= 8.18D-05
 IDIUse=3 WtCom= 9.98D-01 WtEn= 1.74D-03
 Coeff-Com:  0.230D-01-0.304D-01 0.262D-01 0.493D-01 0.133D+00 0.339D+00
 Coeff-Com:  0.460D+00
 Coeff-En:   0.000D+00 0.000D+00 0.000D+00 0.000D+00 0.000D+00 0.829D-01
 Coeff-En:   0.917D+00
 Coeff:      0.230D-01-0.303D-01 0.262D-01 0.492D-01 0.133D+00 0.338D+00
 Coeff:      0.461D+00
 Gap=     0.179 Goal=   None    Shift=    0.000
 RMSDP=1.37D-05 MaxDP=5.62D-04 DE=-7.37D-05 OVMax= 1.05D-03

 Cycle   8  Pass 0  IDiag  1:
 RMSU=  6.08D-06    CP:  9.68D-01  2.06D+00  1.25D+00  4.21D-01  4.58D-01
                    CP:  5.67D-01  4.47D-01
 E= -3181.03443336793     Delta-E=       -0.000011183936 Rises=F Damp=F
 DIIS: error= 4.33D-05 at cycle   8 NSaved=   8.
 NSaved= 8 IEnMin= 8 EnMin= -3181.03443336793     IErMin= 8 ErrMin= 4.33D-05
 ErrMax= 4.33D-05  0.00D+00 EMaxC= 1.00D-01 BMatC= 6.01D-07 BMatP= 1.10D-05
 IDIUse=1 WtCom= 1.00D+00 WtEn= 0.00D+00
 Coeff-Com:  0.458D-02-0.607D-02 0.543D-02 0.140D-01 0.413D-01 0.128D+00
 Coeff-Com:  0.247D+00 0.566D+00
 Coeff:      0.458D-02-0.607D-02 0.543D-02 0.140D-01 0.413D-01 0.128D+00
 Coeff:      0.247D+00 0.566D+00
 Gap=     0.179 Goal=   None    Shift=    0.000
 RMSDP=3.71D-06 MaxDP=1.82D-04 DE=-1.12D-05 OVMax= 3.08D-04

 Initial convergence to 1.0D-05 achieved.  Increase integral accuracy.
 Cycle   9  Pass 1  IDiag  1:
 E= -3181.03444325580     Delta-E=       -0.000009887876 Rises=F Damp=F
 DIIS: error= 4.81D-05 at cycle   1 NSaved=   1.
 NSaved= 1 IEnMin= 1 EnMin= -3181.03444325580     IErMin= 1 ErrMin= 4.81D-05
 ErrMax= 4.81D-05  0.00D+00 EMaxC= 1.00D-01 BMatC= 4.78D-07 BMatP= 4.78D-07
 IDIUse=1 WtCom= 1.00D+00 WtEn= 0.00D+00
 Coeff-Com:  0.100D+01
 Coeff:      0.100D+01
 Gap=     0.179 Goal=   None    Shift=    0.000
 RMSDP=3.71D-06 MaxDP=1.82D-04 DE=-9.89D-06 OVMax= 2.76D-04

 Cycle  10  Pass 1  IDiag  1:
 RMSU=  2.78D-05    CP:  1.00D+00
 E= -3181.03444335859     Delta-E=       -0.000000102783 Rises=F Damp=F
 DIIS: error= 2.58D-05 at cycle   2 NSaved=   2.
 NSaved= 2 IEnMin= 2 EnMin= -3181.03444335859     IErMin= 2 ErrMin= 2.58D-05
 ErrMax= 2.58D-05  0.00D+00 EMaxC= 1.00D-01 BMatC= 2.87D-07 BMatP= 4.78D-07
 IDIUse=1 WtCom= 1.00D+00 WtEn= 0.00D+00
 Coeff-Com:  0.410D+00 0.590D+00
 Coeff:      0.410D+00 0.590D+00
 Gap=     0.179 Goal=   None    Shift=    0.000
 RMSDP=3.23D-06 MaxDP=1.68D-04 DE=-1.03D-07 OVMax= 3.09D-04

 Cycle  11  Pass 1  IDiag  1:
 RMSU=  3.23D-06    CP:  1.00D+00  9.95D-01
 E= -3181.03444348292     Delta-E=       -0.000000124336 Rises=F Damp=F
 DIIS: error= 2.21D-05 at cycle   3 NSaved=   3.
 NSaved= 3 IEnMin= 3 EnMin= -3181.03444348292     IErMin= 3 ErrMin= 2.21D-05
 ErrMax= 2.21D-05  0.00D+00 EMaxC= 1.00D-01 BMatC= 1.54D-07 BMatP= 2.87D-07
 IDIUse=1 WtCom= 1.00D+00 WtEn= 0.00D+00
 Coeff-Com:  0.134D-01 0.421D+00 0.566D+00
 Coeff:      0.134D-01 0.421D+00 0.566D+00
 Gap=     0.179 Goal=   None    Shift=    0.000
 RMSDP=1.55D-06 MaxDP=5.74D-05 DE=-1.24D-07 OVMax= 1.33D-04

 Cycle  12  Pass 1  IDiag  1:
 RMSU=  4.44D-07    CP:  1.00D+00  1.01D+00  5.50D-01
 E= -3181.03444363386     Delta-E=       -0.000000150934 Rises=F Damp=F
 DIIS: error= 3.87D-06 at cycle   4 NSaved=   4.
 NSaved= 4 IEnMin= 4 EnMin= -3181.03444363386     IErMin= 4 ErrMin= 3.87D-06
 ErrMax= 3.87D-06  0.00D+00 EMaxC= 1.00D-01 BMatC= 6.69D-09 BMatP= 1.54D-07
 IDIUse=1 WtCom= 1.00D+00 WtEn= 0.00D+00
 Coeff-Com: -0.241D-02 0.248D+00 0.355D+00 0.399D+00
 Coeff:     -0.241D-02 0.248D+00 0.355D+00 0.399D+00
 Gap=     0.179 Goal=   None    Shift=    0.000
 RMSDP=2.99D-07 MaxDP=1.27D-05 DE=-1.51D-07 OVMax= 2.62D-05

 Cycle  13  Pass 1  IDiag  1:
 RMSU=  1.04D-07    CP:  1.00D+00  1.01D+00  5.80D-01  4.09D-01
 E= -3181.03444364055     Delta-E=       -0.000000006693 Rises=F Damp=F
 DIIS: error= 5.95D-07 at cycle   5 NSaved=   5.
 NSaved= 5 IEnMin= 5 EnMin= -3181.03444364055     IErMin= 5 ErrMin= 5.95D-07
 ErrMax= 5.95D-07  0.00D+00 EMaxC= 1.00D-01 BMatC= 1.22D-10 BMatP= 6.69D-09
 IDIUse=1 WtCom= 1.00D+00 WtEn= 0.00D+00
 Coeff-Com: -0.174D-02 0.127D+00 0.182D+00 0.224D+00 0.468D+00
 Coeff:     -0.174D-02 0.127D+00 0.182D+00 0.224D+00 0.468D+00
 Gap=     0.179 Goal=   None    Shift=    0.000
 RMSDP=5.16D-08 MaxDP=2.17D-06 DE=-6.69D-09 OVMax= 4.46D-06

 Cycle  14  Pass 1  IDiag  1:
 RMSU=  2.85D-08    CP:  1.00D+00  1.01D+00  5.79D-01  4.33D-01  6.02D-01
 E= -3181.03444364059     Delta-E=       -0.000000000041 Rises=F Damp=F
 DIIS: error= 8.49D-08 at cycle   6 NSaved=   6.
 NSaved= 6 IEnMin= 6 EnMin= -3181.03444364059     IErMin= 6 ErrMin= 8.49D-08
 ErrMax= 8.49D-08  0.00D+00 EMaxC= 1.00D-01 BMatC= 3.22D-12 BMatP= 1.22D-10
 IDIUse=1 WtCom= 1.00D+00 WtEn= 0.00D+00
 Coeff-Com: -0.664D-03 0.447D-01 0.641D-01 0.807D-01 0.214D+00 0.597D+00
 Coeff:     -0.664D-03 0.447D-01 0.641D-01 0.807D-01 0.214D+00 0.597D+00
 Gap=     0.179 Goal=   None    Shift=    0.000
 RMSDP=8.57D-09 MaxDP=3.98D-07 DE=-4.09D-11 OVMax= 5.73D-07

 SCF Done:  E(RB3LYP) =  -3181.03444364     A.U. after   14 cycles
            NFock= 14  Conv=0.86D-08     -V/T= 2.0066
 KE= 3.160088688397D+03 PE=-9.906825082571D+03 EE= 2.386709252505D+03
 Leave Link  502 at Tue Sep 17 09:52:33 2024, MaxMem=  1342177280 cpu:             120.8 elap:              15.9
 (Enter /groups/ReismanLab/Software/Gaussian16_RevC/Linux_Binary_AVX2-enabled-CPU/g16/l508.exe)
 QCSCF skips out because SCF is already converged.
 Leave Link  508 at Tue Sep 17 09:52:33 2024, MaxMem=  1342177280 cpu:               0.0 elap:               0.0
 (Enter /groups/ReismanLab/Software/Gaussian16_RevC/Linux_Binary_AVX2-enabled-CPU/g16/l601.exe)
 Copying SCF densities to generalized density rwf, IOpCl= 0 IROHF=0.

 **********************************************************************

            Population analysis using the SCF Density.

 **********************************************************************

 Orbital symmetries:
       Occupied  (A) (A) (A) (A) (A) (A) (A) (A) (A) (A) (A) (A)
                 (A) (A) (A) (A) (A) (A) (A) (A) (A) (A) (A) (A)
                 (A) (A) (A) (A) (A) (A) (A) (A) (A) (A) (A) (A)
                 (A) (A) (A) (A) (A) (A) (A) (A) (A) (A) (A) (A)
                 (A) (A) (A) (A) (A) (A) (A) (A) (A) (A) (A) (A)
                 (A) (A) (A) (A) (A) (A)
       Virtual   (A) (A) (A) (A) (A) (A) (A) (A) (A) (A) (A) (A)
                 (A) (A) (A) (A) (A) (A) (A) (A) (A) (A) (A) (A)
                 (A) (A) (A) (A) (A) (A) (A) (A) (A) (A) (A) (A)
                 (A) (A) (A) (A) (A) (A) (A) (A) (A) (A) (A) (A)
                 (A) (A) (A) (A) (A) (A) (A) (A) (A) (A) (A) (A)
                 (A) (A) (A) (A) (A) (A) (A) (A) (A) (A) (A) (A)
                 (A) (A) (A) (A) (A) (A) (A) (A) (A) (A) (A) (A)
                 (A) (A) (A) (A) (A) (A) (A) (A) (A) (A) (A) (A)
                 (A) (A) (A) (A) (A) (A) (A) (A) (A) (A) (A) (A)
                 (A) (A) (A) (A) (A) (A) (A) (A) (A) (A) (A) (A)
                 (A) (A) (A) (A) (A) (A) (A) (A) (A) (A) (A) (A)
                 (A) (A) (A) (A) (A) (A) (A) (A) (A) (A) (A) (A)
                 (A) (A) (A) (A) (A) (A) (A) (A) (A) (A) (A) (A)
                 (A) (A) (A) (A) (A) (A) (A) (A) (A) (A) (A) (A)
                 (A) (A) (A) (A) (A) (A) (A) (A) (A) (A) (A) (A)
                 (A) (A) (A) (A) (A) (A) (A) (A) (A) (A) (A) (A)
                 (A) (A) (A) (A) (A) (A) (A) (A) (A) (A) (A) (A)
                 (A) (A) (A) (A) (A) (A) (A) (A) (A) (A) (A) (A)
                 (A) (A) (A)
 The electronic state is 1-A.
 Alpha  occ. eigenvalues -- -482.91521 -61.87692 -56.39828 -56.39416 -56.39405
 Alpha  occ. eigenvalues --  -19.24699 -14.35591 -14.35170 -10.28705 -10.28395
 Alpha  occ. eigenvalues --  -10.25409 -10.22456 -10.22279 -10.21240 -10.21007
 Alpha  occ. eigenvalues --  -10.20762 -10.20471 -10.20452 -10.20442  -8.58835
 Alpha  occ. eigenvalues --   -6.54233  -6.52957  -6.52929  -2.65806  -2.65441
 Alpha  occ. eigenvalues --   -2.65421  -2.64402  -2.64402  -1.17338  -0.99628
 Alpha  occ. eigenvalues --   -0.89976  -0.88858  -0.84091  -0.80583  -0.77310
 Alpha  occ. eigenvalues --   -0.73453  -0.69011  -0.66854  -0.62385  -0.61724
 Alpha  occ. eigenvalues --   -0.60076  -0.58858  -0.54236  -0.52472  -0.50629
 Alpha  occ. eigenvalues --   -0.49991  -0.48550  -0.47550  -0.46033  -0.43829
 Alpha  occ. eigenvalues --   -0.42637  -0.40424  -0.40371  -0.38157  -0.37894
 Alpha  occ. eigenvalues --   -0.36209  -0.35360  -0.34916  -0.32906  -0.32250
 Alpha  occ. eigenvalues --   -0.32085  -0.29121  -0.29057  -0.26755  -0.25463
 Alpha  occ. eigenvalues --   -0.23244
 Alpha virt. eigenvalues --   -0.05372  -0.01971   0.00385   0.01203   0.05712
 Alpha virt. eigenvalues --    0.08058   0.10744   0.11561   0.13656   0.14297
 Alpha virt. eigenvalues --    0.15228   0.15892   0.16028   0.16489   0.17607
 Alpha virt. eigenvalues --    0.18102   0.19999   0.22206   0.22950   0.24492
 Alpha virt. eigenvalues --    0.25922   0.26271   0.27669   0.28958   0.30023
 Alpha virt. eigenvalues --    0.31032   0.33510   0.34337   0.37573   0.42339
 Alpha virt. eigenvalues --    0.43673   0.44957   0.45841   0.45980   0.47759
 Alpha virt. eigenvalues --    0.48037   0.48193   0.50962   0.51773   0.52919
 Alpha virt. eigenvalues --    0.52936   0.53707   0.54157   0.54957   0.55755
 Alpha virt. eigenvalues --    0.56787   0.57596   0.58348   0.58703   0.59916
 Alpha virt. eigenvalues --    0.60681   0.61261   0.62027   0.62264   0.63871
 Alpha virt. eigenvalues --    0.64751   0.66809   0.67615   0.68806   0.69067
 Alpha virt. eigenvalues --    0.72093   0.73197   0.74389   0.74436   0.76641
 Alpha virt. eigenvalues --    0.76739   0.78189   0.78724   0.79997   0.81156
 Alpha virt. eigenvalues --    0.82264   0.83100   0.84202   0.85449   0.86529
 Alpha virt. eigenvalues --    0.86657   0.89336   0.90045   0.93506   0.93703
 Alpha virt. eigenvalues --    0.95338   0.95995   0.96638   0.98998   1.01787
 Alpha virt. eigenvalues --    1.03508   1.04118   1.05283   1.12340   1.15025
 Alpha virt. eigenvalues --    1.16808   1.18887   1.20898   1.22512   1.23302
 Alpha virt. eigenvalues --    1.25793   1.28050   1.28405   1.32818   1.34285
 Alpha virt. eigenvalues --    1.35034   1.36455   1.38813   1.39683   1.39799
 Alpha virt. eigenvalues --    1.41159   1.43318   1.43559   1.45406   1.48765
 Alpha virt. eigenvalues --    1.52850   1.54446   1.55920   1.58092   1.59388
 Alpha virt. eigenvalues --    1.64007   1.70479   1.72313   1.74322   1.75802
 Alpha virt. eigenvalues --    1.76935   1.77488   1.80337   1.82183   1.84087
 Alpha virt. eigenvalues --    1.86341   1.88300   1.89502   1.91639   1.93464
 Alpha virt. eigenvalues --    1.95669   1.96716   1.96802   1.99905   2.00508
 Alpha virt. eigenvalues --    2.04071   2.06020   2.08022   2.08179   2.09174
 Alpha virt. eigenvalues --    2.09339   2.11015   2.13674   2.15751   2.20122
 Alpha virt. eigenvalues --    2.21325   2.22977   2.23401   2.28208   2.28313
 Alpha virt. eigenvalues --    2.29891   2.31567   2.32375   2.33066   2.35426
 Alpha virt. eigenvalues --    2.36822   2.37676   2.38330   2.41222   2.42140
 Alpha virt. eigenvalues --    2.45575   2.45755   2.47425   2.50395   2.51436
 Alpha virt. eigenvalues --    2.52399   2.52883   2.53988   2.59158   2.59529
 Alpha virt. eigenvalues --    2.60977   2.63118   2.64289   2.68600   2.69251
 Alpha virt. eigenvalues --    2.69971   2.71647   2.72771   2.76360   2.77662
 Alpha virt. eigenvalues --    2.81238   2.81261   2.84748   2.84842   2.90444
 Alpha virt. eigenvalues --    2.92072   2.95415   2.96669   3.00921   3.07873
 Alpha virt. eigenvalues --    3.14869   3.19234   3.21847   3.24779   3.28228
 Alpha virt. eigenvalues --    3.34194   3.38876   3.39787   3.40367   3.46931
 Alpha virt. eigenvalues --    3.53255   3.58852   3.82851   3.84938   4.09198
 Alpha virt. eigenvalues --    4.10507   4.13537   4.18394   4.20919   4.26099
 Alpha virt. eigenvalues --    4.37957   4.38187   4.48956   4.54452   4.56413
 Alpha virt. eigenvalues --    4.74627   4.83172   8.60343  72.82427
          Condensed to atoms (all electrons):
               1          2          3          4          5          6
     1  Br  34.980225   0.258400  -0.060381   0.005557   0.000483   0.005409
     2  C    0.258400   4.826095   0.529276  -0.018895  -0.037090  -0.006611
     3  C   -0.060381   0.529276   4.878241   0.510881  -0.042734  -0.036670
     4  C    0.005557  -0.018895   0.510881   4.854451   0.504423  -0.010475
     5  C    0.000483  -0.037090  -0.042734   0.504423   4.923257   0.527502
     6  C    0.005409  -0.006611  -0.036670  -0.010475   0.527502   4.843020
     7  C   -0.000209   0.004785   0.001287   0.006560  -0.040056   0.329998
     8  N    0.000000  -0.000170   0.000008   0.000502  -0.010508  -0.068110
     9  N   -0.000000   0.000003   0.000000  -0.000003  -0.000090   0.010077
    10  C   -0.000000   0.000003   0.000001   0.000004   0.000194   0.001145
    11  C   -0.000000  -0.000000   0.000000  -0.000000  -0.000003  -0.000514
    12  C    0.000000  -0.000000   0.000000   0.000000  -0.000000   0.000003
    13  C    0.000000  -0.000000   0.000000   0.000000  -0.000000   0.000003
    14  O   -0.000001   0.000267   0.000003  -0.000069   0.004127  -0.035952
    15  C   -0.058616   0.480827  -0.045480  -0.047476  -0.084942   0.458096
    16  H   -0.003445  -0.042947   0.373569  -0.039969   0.005014   0.000169
    17  H   -0.000155   0.004127  -0.038802   0.368232  -0.033611   0.003036
    18  H    0.000008   0.000400   0.004503  -0.040412   0.370327  -0.034597
    19  H    0.000000   0.000000   0.000000  -0.000000   0.000000   0.000010
    20  H    0.000000  -0.000000  -0.000000  -0.000000   0.000000  -0.000000
    21  H    0.000000  -0.000000  -0.000000   0.000000  -0.000000  -0.000001
    22  H    0.000000  -0.000000  -0.000000  -0.000000   0.000000  -0.000000
    23  H    0.000000  -0.000000  -0.000000   0.000000  -0.000000  -0.000001
    24  H   -0.002894  -0.042271   0.005373  -0.000058   0.005468  -0.040221
               7          8          9         10         11         12
     1  Br  -0.000209   0.000000  -0.000000  -0.000000  -0.000000   0.000000
     2  C    0.004785  -0.000170   0.000003   0.000003  -0.000000  -0.000000
     3  C    0.001287   0.000008   0.000000   0.000001   0.000000   0.000000
     4  C    0.006560   0.000502  -0.000003   0.000004  -0.000000   0.000000
     5  C   -0.040056  -0.010508  -0.000090   0.000194  -0.000003  -0.000000
     6  C    0.329998  -0.068110   0.010077   0.001145  -0.000514   0.000003
     7  C    4.737266   0.404653  -0.088343  -0.063403   0.000200   0.000137
     8  N    0.404653   6.914011   0.265609  -0.086916   0.010191   0.000011
     9  N   -0.088343   0.265609   6.885382   0.435602  -0.079199  -0.004652
    10  C   -0.063403  -0.086916   0.435602   4.519059   0.414126  -0.024993
    11  C    0.000200   0.010191  -0.079199   0.414126   5.046716   0.268846
    12  C    0.000137   0.000011  -0.004652  -0.024993   0.268846   4.989167
    13  C    0.000137   0.000011  -0.004655  -0.025010   0.268846   0.267124
    14  O    0.286149  -0.106025  -0.091651   0.301901  -0.042099   0.001456
    15  C   -0.036253   0.006420   0.000018   0.000266   0.000004  -0.000000
    16  H    0.000001   0.000000   0.000000  -0.000000  -0.000000   0.000000
    17  H   -0.000273  -0.000002   0.000000  -0.000000   0.000000  -0.000000
    18  H   -0.014222   0.014639  -0.000200   0.000061  -0.000001  -0.000000
    19  H    0.000196  -0.000183   0.004505  -0.015164   0.373090  -0.027058
    20  H   -0.000004  -0.000001   0.000155   0.001955  -0.020380   0.386986
    21  H    0.000016  -0.000142   0.007648  -0.006941  -0.026146   0.397781
    22  H   -0.000004  -0.000001   0.000155   0.001956  -0.020389  -0.022872
    23  H    0.000016  -0.000142   0.007646  -0.006935  -0.026144  -0.021930
    24  H   -0.011862   0.000247   0.000046   0.000070  -0.000015  -0.000000
              13         14         15         16         17         18
     1  Br   0.000000  -0.000001  -0.058616  -0.003445  -0.000155   0.000008
     2  C   -0.000000   0.000267   0.480827  -0.042947   0.004127   0.000400
     3  C    0.000000   0.000003  -0.045480   0.373569  -0.038802   0.004503
     4  C    0.000000  -0.000069  -0.047476  -0.039969   0.368232  -0.040412
     5  C   -0.000000   0.004127  -0.084942   0.005014  -0.033611   0.370327
     6  C    0.000003  -0.035952   0.458096   0.000169   0.003036  -0.034597
     7  C    0.000137   0.286149  -0.036253   0.000001  -0.000273  -0.014222
     8  N    0.000011  -0.106025   0.006420   0.000000  -0.000002   0.014639
     9  N   -0.004655  -0.091651   0.000018   0.000000   0.000000  -0.000200
    10  C   -0.025010   0.301901   0.000266  -0.000000  -0.000000   0.000061
    11  C    0.268846  -0.042099   0.000004  -0.000000   0.000000  -0.000001
    12  C    0.267124   0.001456  -0.000000   0.000000  -0.000000  -0.000000
    13  C    4.989196   0.001455  -0.000000   0.000000  -0.000000  -0.000000
    14  O    0.001455   8.159696  -0.006833   0.000000   0.000000   0.000185
    15  C   -0.000000  -0.006833   5.060310   0.005849   0.001279   0.005752
    16  H    0.000000   0.000000   0.005849   0.596911  -0.006176  -0.000147
    17  H   -0.000000   0.000000   0.001279  -0.006176   0.604016  -0.005041
    18  H   -0.000000   0.000185   0.005752  -0.000147  -0.005041   0.570009
    19  H   -0.027063  -0.003381  -0.000002   0.000000   0.000000   0.000000
    20  H   -0.022866  -0.000014   0.000000  -0.000000   0.000000  -0.000000
    21  H   -0.021936   0.000131   0.000000  -0.000000  -0.000000  -0.000000
    22  H    0.386983  -0.000014   0.000000  -0.000000   0.000000  -0.000000
    23  H    0.397781   0.000131   0.000000  -0.000000  -0.000000  -0.000000
    24  H   -0.000000   0.007773   0.372002  -0.000147   0.000018  -0.000149
              19         20         21         22         23         24
     1  Br   0.000000   0.000000   0.000000   0.000000   0.000000  -0.002894
     2  C    0.000000  -0.000000  -0.000000  -0.000000  -0.000000  -0.042271
     3  C    0.000000  -0.000000  -0.000000  -0.000000  -0.000000   0.005373
     4  C   -0.000000  -0.000000   0.000000  -0.000000   0.000000  -0.000058
     5  C    0.000000   0.000000  -0.000000   0.000000  -0.000000   0.005468
     6  C    0.000010  -0.000000  -0.000001  -0.000000  -0.000001  -0.040221
     7  C    0.000196  -0.000004   0.000016  -0.000004   0.000016  -0.011862
     8  N   -0.000183  -0.000001  -0.000142  -0.000001  -0.000142   0.000247
     9  N    0.004505   0.000155   0.007648   0.000155   0.007646   0.000046
    10  C   -0.015164   0.001955  -0.006941   0.001956  -0.006935   0.000070
    11  C    0.373090  -0.020380  -0.026146  -0.020389  -0.026144  -0.000015
    12  C   -0.027058   0.386986   0.397781  -0.022872  -0.021930  -0.000000
    13  C   -0.027063  -0.022866  -0.021936   0.386983   0.397781  -0.000000
    14  O   -0.003381  -0.000014   0.000131  -0.000014   0.000131   0.007773
    15  C   -0.000002   0.000000   0.000000   0.000000   0.000000   0.372002
    16  H    0.000000  -0.000000  -0.000000  -0.000000  -0.000000  -0.000147
    17  H    0.000000   0.000000  -0.000000   0.000000  -0.000000   0.000018
    18  H    0.000000  -0.000000  -0.000000  -0.000000  -0.000000  -0.000149
    19  H    0.583743  -0.005391   0.002185  -0.005394   0.002184   0.000024
    20  H   -0.005391   0.569828  -0.027515  -0.006764   0.002267  -0.000000
    21  H    0.002185  -0.027515   0.531136   0.002269  -0.005789  -0.000000
    22  H   -0.005394  -0.006764   0.002269   0.569850  -0.027513  -0.000000
    23  H    0.002184   0.002267  -0.005789  -0.027513   0.531130  -0.000000
    24  H    0.000024  -0.000000  -0.000000  -0.000000  -0.000000   0.584431
 Mulliken charges:
               1
     1  Br  -0.124383
     2  C    0.043800
     3  C   -0.079075
     4  C   -0.093253
     5  C   -0.091761
     6  C    0.054683
     7  C    0.483227
     8  N   -0.344102
     9  N   -0.348055
    10  C    0.553019
    11  C   -0.167128
    12  C   -0.210005
    13  C   -0.210004
    14  O   -0.477236
    15  C   -0.111222
    16  H    0.111317
    17  H    0.103349
    18  H    0.128883
    19  H    0.117697
    20  H    0.121744
    21  H    0.147303
    22  H    0.121737
    23  H    0.147298
    24  H    0.122165
 Sum of Mulliken charges =  -0.00000
 Mulliken charges with hydrogens summed into heavy atoms:
               1
     1  Br  -0.124383
     2  C    0.043800
     3  C    0.032242
     4  C    0.010097
     5  C    0.037123
     6  C    0.054683
     7  C    0.483227
     8  N   -0.344102
     9  N   -0.348055
    10  C    0.553019
    11  C   -0.049432
    12  C    0.059043
    13  C    0.059030
    14  O   -0.477236
    15  C    0.010943
 Electronic spatial extent (au):  <R**2>=           6113.1800
 Charge=             -0.0000 electrons
 Dipole moment (field-independent basis, Debye):
    X=             -0.3732    Y=             -1.6564    Z=              0.0045  Tot=              1.6979
 Quadrupole moment (field-independent basis, Debye-Ang):
   XX=            -91.4437   YY=            -94.1766   ZZ=            -98.6107
   XY=             17.4850   XZ=             -0.0099   YZ=              0.0115
 Traceless Quadrupole moment (field-independent basis, Debye-Ang):
   XX=              3.3000   YY=              0.5671   ZZ=             -3.8670
   XY=             17.4850   XZ=             -0.0099   YZ=              0.0115
 Octapole moment (field-independent basis, Debye-Ang**2):
  XXX=             67.1893  YYY=            -45.1451  ZZZ=             -0.0110  XYY=             50.6904
  XXY=            -50.7954  XXZ=              0.0680  XZZ=             22.8357  YZZ=            -17.4652
  YYZ=              0.0345  XYZ=             -0.0006
 Hexadecapole moment (field-independent basis, Debye-Ang**3):
 XXXX=          -5785.8941 YYYY=          -1109.3760 ZZZZ=           -159.6814 XXXY=             93.5357
 XXXZ=             -0.1412 YYYX=            -58.8662 YYYZ=              0.0736 ZZZX=             -0.0245
 ZZZY=             -0.0149 XXYY=          -1135.5727 XXZZ=          -1017.2994 YYZZ=           -232.7138
 XXYZ=              0.0899 YYXZ=             -0.0454 ZZXY=            -51.7382
 N-N= 1.178992698028D+03 E-N=-9.906825053465D+03  KE= 3.160088688397D+03
 No NMR shielding tensors so no spin-rotation constants.
 Leave Link  601 at Tue Sep 17 09:52:33 2024, MaxMem=  1342177280 cpu:               0.7 elap:               0.1
 (Enter /groups/ReismanLab/Software/Gaussian16_RevC/Linux_Binary_AVX2-enabled-CPU/g16/l701.exe)
 ... and contract with generalized density number  0.
 Compute integral first derivatives.
 R6Disp: Adding Grimme-D3(BJ) dispersion energy 1st derivatives to the gradient.
 Leave Link  701 at Tue Sep 17 09:52:33 2024, MaxMem=  1342177280 cpu:               0.7 elap:               0.1
 (Enter /groups/ReismanLab/Software/Gaussian16_RevC/Linux_Binary_AVX2-enabled-CPU/g16/l702.exe)
 L702 exits ... SP integral derivatives will be done elsewhere.
 Leave Link  702 at Tue Sep 17 09:52:33 2024, MaxMem=  1342177280 cpu:               0.0 elap:               0.0
 (Enter /groups/ReismanLab/Software/Gaussian16_RevC/Linux_Binary_AVX2-enabled-CPU/g16/l703.exe)
 Integral derivatives from FoFJK, PRISM(SPDF).
 Compute integral first derivatives, UseDBF=F ICtDFT=           0.
 Calling FoFJK, ICntrl=      2127 FMM=F ISym2X=0 I1Cent= 0 IOpClX= 0 NMat=1 NMatS=1 NMatT=0.
 FoFJK:  IHMeth= 1 ICntrl=    2127 DoSepK=F KAlg= 0 I1Cent=           0 FoldK=F
 IRaf=         0 NMat=       1 IRICut=       1 DoRegI=T DoRafI=F ISym2E= 0 IDoP0=0 IntGTp=1.
 FoFCou: FMM=F IPFlag=           0 FMFlag=      100000 FMFlg1=         800
         NFxFlg=           0 DoJE=F BraDBF=F KetDBF=F FulRan=T
         wScrn=  0.000000 ICntrl=      2127 IOpCl=  0 I1Cent=           0 NGrid=           0
         NMat0=    1 NMatS0=      1 NMatT0=    0 NMatD0=    1 NMtDS0=    0 NMtDT0=    0
 Symmetry not used in FoFCou.
 Leave Link  703 at Tue Sep 17 09:52:38 2024, MaxMem=  1342177280 cpu:              39.9 elap:               5.1
 (Enter /groups/ReismanLab/Software/Gaussian16_RevC/Linux_Binary_AVX2-enabled-CPU/g16/l716.exe)
 Dipole        =-1.46819331D-01-6.51684735D-01 1.76508345D-03
 ***** Axes restored to original set *****
 -------------------------------------------------------------------
 Center     Atomic                   Forces (Hartrees/Bohr)
 Number     Number              X              Y              Z
 -------------------------------------------------------------------
      1       35           0.001771787   -0.001822592   -0.000000756
      2        6           0.004135987   -0.004447906    0.000012157
      3        6           0.007308271   -0.000305257   -0.000015922
      4        6           0.000238546    0.004028417   -0.000007895
      5        6          -0.004326516    0.003449879    0.000008274
      6        6          -0.000646697   -0.005226563    0.000001547
      7        6           0.005242021    0.009493963    0.000012729
      8        7           0.022015014    0.021469034   -0.000041990
      9        7          -0.030596932   -0.008811153    0.000025721
     10        6          -0.009827353   -0.001400011   -0.000018805
     11        6           0.007644402   -0.004269709    0.000018304
     12        6          -0.003850909   -0.000879794   -0.003680222
     13        6          -0.003849679   -0.000929443    0.003688173
     14        8           0.006657404   -0.008735317    0.000006544
     15        6          -0.001343056   -0.004878648   -0.000005333
     16        1           0.003259973    0.000260188    0.000005558
     17        1           0.001156412    0.004175734    0.000007834
     18        1          -0.002400224    0.003456435    0.000000733
     19        1          -0.000932056   -0.002609850   -0.000006121
     20        1          -0.001098758   -0.003980865   -0.001663996
     21        1           0.000399807    0.004218650   -0.001686381
     22        1          -0.001098592   -0.003945080    0.001666350
     23        1           0.000402983    0.004224993    0.001670183
     24        1          -0.000261835   -0.002535105    0.000003315
 -------------------------------------------------------------------
 Cartesian Forces:  Max     0.030596932 RMS     0.006203381
 Leave Link  716 at Tue Sep 17 09:52:38 2024, MaxMem=  1342177280 cpu:               0.1 elap:               0.0
 (Enter /groups/ReismanLab/Software/Gaussian16_RevC/Linux_Binary_AVX2-enabled-CPU/g16/l103.exe)

 GradGradGradGradGradGradGradGradGradGradGradGradGradGradGradGradGradGrad
 Berny optimization.
 FormGI is forming the generalized inverse of G from B-inverse, IUseBI=4.
 Internal  Forces:  Max     0.035363887 RMS     0.004703001
 Search for a local minimum.
 Step number   1 out of a maximum of  133
 All quantities printed in internal units (Hartrees-Bohrs-Radians)
 RMS Force = .47030D-02 SwitMx=.10000D-02 MixMth= 1
 Mixed Optimization -- RFO/linear search
 Second derivative matrix not updated -- first step.
 ITU=  0
     Eigenvalues ---    0.01372   0.01500   0.01859   0.01971   0.02029
     Eigenvalues ---    0.02062   0.02183   0.02241   0.02257   0.02277
     Eigenvalues ---    0.02287   0.02295   0.02308   0.02312   0.02514
     Eigenvalues ---    0.02690   0.02732   0.03200   0.03200   0.03621
     Eigenvalues ---    0.03951   0.10514   0.10570   0.11190   0.16000
     Eigenvalues ---    0.16000   0.16000   0.16000   0.16000   0.16833
     Eigenvalues ---    0.17223   0.18008   0.22000   0.23485   0.23503
     Eigenvalues ---    0.25000   0.25000   0.25000   0.25000   0.25000
     Eigenvalues ---    0.25000   0.27025   0.27716   0.32343   0.35763
     Eigenvalues ---    0.36087   0.36107   0.36109   0.36112   0.36112
     Eigenvalues ---    0.36197   0.36197   0.36266   0.37697   0.38977
     Eigenvalues ---    0.42945   0.43597   0.47070   0.47445   0.48271
     Eigenvalues ---    0.48846   0.49572   0.50826   0.55902   0.62082
     Eigenvalues ---    0.67269
 RFO step:  Lambda=-5.72920097D-03 EMin= 1.37152323D-02
 Linear search not attempted -- first point.
 Iteration  1 RMS(Cart)=  0.04424752 RMS(Int)=  0.00028307
 Iteration  2 RMS(Cart)=  0.00104268 RMS(Int)=  0.00000962
 Iteration  3 RMS(Cart)=  0.00000045 RMS(Int)=  0.00000961
 ITry= 1 IFail=0 DXMaxC= 1.33D-01 DCOld= 1.00D+10 DXMaxT= 3.00D-01 DXLimC= 3.00D+00 Rises=F
 Variable       Old X    -DE/DX   Delta X   Delta X   Delta X     New X
                                 (Linear)    (Quad)   (Total)
    R1        3.59995   0.00254   0.00000   0.01366   0.01366   3.61361
    R2        2.61756   0.00765   0.00000   0.01572   0.01572   2.63328
    R3        2.61084   0.00878   0.00000   0.01769   0.01769   2.62853
    R4        2.61984   0.01043   0.00000   0.02160   0.02160   2.64144
    R5        2.03907   0.00325   0.00000   0.00886   0.00886   2.04794
    R6        2.61014   0.00911   0.00000   0.01851   0.01851   2.62865
    R7        2.03911   0.00432   0.00000   0.01179   0.01179   2.05090
    R8        2.63644   0.00830   0.00000   0.01764   0.01764   2.65407
    R9        2.03667   0.00417   0.00000   0.01132   0.01132   2.04799
   R10        2.72968   0.00804   0.00000   0.02032   0.02032   2.75000
   R11        2.63243   0.00969   0.00000   0.02035   0.02035   2.65278
   R12        2.45349   0.00896   0.00000   0.01357   0.01357   2.46706
   R13        2.56805   0.01083   0.00000   0.01855   0.01855   2.58660
   R14        2.53475   0.03536   0.00000   0.06341   0.06341   2.59817
   R15        2.45352   0.00859   0.00000   0.01309   0.01310   2.46662
   R16        2.74808   0.00782   0.00000   0.02045   0.02045   2.76852
   R17        2.55381   0.01190   0.00000   0.02002   0.02002   2.57383
   R18        2.85222   0.00504   0.00000   0.01570   0.01571   2.86792
   R19        2.85229   0.00503   0.00000   0.01567   0.01568   2.86797
   R20        2.04453   0.00190   0.00000   0.00522   0.00522   2.04975
   R21        2.80983   0.00466   0.00000   0.01367   0.01366   2.82348
   R22        2.03907   0.00439   0.00000   0.01195   0.01195   2.05103
   R23        2.03775   0.00440   0.00000   0.01196   0.01196   2.04971
   R24        2.03915   0.00436   0.00000   0.01188   0.01188   2.05103
   R25        2.03774   0.00440   0.00000   0.01196   0.01196   2.04970
   R26        2.03946   0.00248   0.00000   0.00678   0.00678   2.04624
    A1        2.08282  -0.00018   0.00000  -0.00060  -0.00060   2.08222
    A2        2.07845   0.00031   0.00000   0.00130   0.00130   2.07975
    A3        2.12191  -0.00013   0.00000  -0.00070  -0.00070   2.12121
    A4        2.07802  -0.00082   0.00000  -0.00344  -0.00344   2.07458
    A5        2.09700   0.00006   0.00000  -0.00041  -0.00041   2.09659
    A6        2.10817   0.00076   0.00000   0.00385   0.00385   2.11201
    A7        2.10397   0.00095   0.00000   0.00450   0.00450   2.10847
    A8        2.08396  -0.00019   0.00000  -0.00053  -0.00053   2.08343
    A9        2.09526  -0.00076   0.00000  -0.00397  -0.00397   2.09129
   A10        2.09037  -0.00041   0.00000  -0.00176  -0.00176   2.08862
   A11        2.12268  -0.00037   0.00000  -0.00259  -0.00259   2.12009
   A12        2.07013   0.00078   0.00000   0.00435   0.00435   2.07448
   A13        2.08502  -0.00047   0.00000  -0.00168  -0.00168   2.08335
   A14        2.09838  -0.00070   0.00000  -0.00306  -0.00306   2.09532
   A15        2.09978   0.00117   0.00000   0.00474   0.00474   2.10452
   A16        2.21494   0.00751   0.00000   0.03043   0.03043   2.24537
   A17        2.12647  -0.00562   0.00000  -0.02092  -0.02092   2.10555
   A18        1.94178  -0.00188   0.00000  -0.00951  -0.00952   1.93226
   A19        1.87441  -0.00200   0.00000  -0.00102  -0.00102   1.87339
   A20        1.87136  -0.00225   0.00000  -0.00175  -0.00174   1.86962
   A21        2.22925   0.00528   0.00000   0.02158   0.02158   2.25084
   A22        1.94816  -0.00192   0.00000  -0.00940  -0.00939   1.93876
   A23        2.10577  -0.00336   0.00000  -0.01219  -0.01219   2.09358
   A24        2.06487   0.00061   0.00000   0.00227   0.00227   2.06714
   A25        2.06481   0.00062   0.00000   0.00232   0.00232   2.06713
   A26        1.97923   0.00095   0.00000   0.00882   0.00883   1.98806
   A27        2.07312  -0.00136   0.00000  -0.00942  -0.00944   2.06369
   A28        2.07293  -0.00137   0.00000  -0.00931  -0.00933   2.06360
   A29        2.04806   0.00023   0.00000  -0.00213  -0.00214   2.04592
   A30        2.03618  -0.00109   0.00000  -0.00985  -0.00985   2.02633
   A31        2.07791  -0.00057   0.00000  -0.00145  -0.00145   2.07646
   A32        2.05564   0.00021   0.00000   0.00283   0.00281   2.05845
   A33        2.00382   0.00070   0.00000   0.00579   0.00574   2.00956
   A34        2.04777   0.00024   0.00000  -0.00201  -0.00202   2.04575
   A35        2.03638  -0.00110   0.00000  -0.00990  -0.00991   2.02647
   A36        2.07775  -0.00056   0.00000  -0.00141  -0.00141   2.07635
   A37        2.05582   0.00020   0.00000   0.00275   0.00273   2.05855
   A38        2.00387   0.00070   0.00000   0.00576   0.00572   2.00959
   A39        1.78908   0.00805   0.00000   0.02168   0.02167   1.81075
   A40        2.07371   0.00111   0.00000   0.00445   0.00445   2.07817
   A41        2.10903  -0.00114   0.00000  -0.00572  -0.00572   2.10331
   A42        2.10044   0.00002   0.00000   0.00127   0.00127   2.10171
    D1        3.14141   0.00000   0.00000   0.00011   0.00011   3.14153
    D2        0.00006  -0.00000   0.00000  -0.00012  -0.00012  -0.00006
    D3       -0.00029   0.00001   0.00000   0.00026   0.00026  -0.00003
    D4        3.14154   0.00000   0.00000   0.00002   0.00002   3.14157
    D5       -3.14158   0.00000   0.00000   0.00001   0.00001  -3.14157
    D6       -0.00003   0.00000   0.00000   0.00003   0.00003  -0.00000
    D7        0.00012  -0.00000   0.00000  -0.00014  -0.00014  -0.00001
    D8       -3.14152  -0.00000   0.00000  -0.00011  -0.00011   3.14155
    D9        0.00017  -0.00000   0.00000  -0.00012  -0.00012   0.00004
   D10       -3.14135  -0.00001   0.00000  -0.00021  -0.00021  -3.14156
   D11        3.14152   0.00000   0.00000   0.00011   0.00011  -3.14155
   D12        0.00001   0.00000   0.00000   0.00002   0.00002   0.00003
   D13        0.00011  -0.00000   0.00000  -0.00013  -0.00013  -0.00002
   D14        3.14152   0.00000   0.00000   0.00007   0.00007   3.14159
   D15       -3.14156  -0.00000   0.00000  -0.00004  -0.00004   3.14159
   D16       -0.00016   0.00000   0.00000   0.00016   0.00016   0.00000
   D17        3.14115   0.00001   0.00000   0.00038   0.00038   3.14154
   D18       -0.00027   0.00001   0.00000   0.00025   0.00025  -0.00002
   D19       -0.00026   0.00001   0.00000   0.00019   0.00019  -0.00007
   D20        3.14150   0.00000   0.00000   0.00006   0.00006   3.14156
   D21        0.00126  -0.00000   0.00000  -0.00014  -0.00013   0.00112
   D22       -3.13984  -0.00002   0.00000  -0.00067  -0.00067  -3.14051
   D23       -3.14050   0.00000   0.00000  -0.00000  -0.00000  -3.14051
   D24        0.00159  -0.00001   0.00000  -0.00054  -0.00054   0.00105
   D25        0.00016  -0.00000   0.00000  -0.00012  -0.00012   0.00004
   D26       -3.14139  -0.00000   0.00000  -0.00014  -0.00014  -3.14153
   D27       -3.14127  -0.00001   0.00000  -0.00025  -0.00025  -3.14152
   D28        0.00037  -0.00001   0.00000  -0.00027  -0.00028   0.00010
   D29       -3.14130   0.00000   0.00000  -0.00011  -0.00012  -3.14142
   D30       -0.00016   0.00001   0.00000   0.00037   0.00037   0.00020
   D31        3.14121   0.00001   0.00000   0.00035   0.00034   3.14155
   D32        0.00004  -0.00000   0.00000  -0.00012  -0.00012  -0.00008
   D33        0.00022  -0.00001   0.00000  -0.00047  -0.00047  -0.00025
   D34        3.14131   0.00001   0.00000   0.00036   0.00035  -3.14152
   D35       -0.00020   0.00001   0.00000   0.00042   0.00041   0.00021
   D36        0.59371   0.00015   0.00000   0.00046   0.00045   0.59417
   D37       -0.59376  -0.00015   0.00000  -0.00036  -0.00035  -0.59411
   D38       -3.14138  -0.00000   0.00000  -0.00009  -0.00009  -3.14147
   D39       -2.54797   0.00015   0.00000   0.00039   0.00039  -2.54758
   D40        2.54774  -0.00015   0.00000  -0.00042  -0.00042   2.54733
   D41        0.00012  -0.00000   0.00000  -0.00015  -0.00015  -0.00003
   D42        0.00010  -0.00001   0.00000  -0.00019  -0.00019  -0.00009
   D43       -3.14141  -0.00000   0.00000  -0.00014  -0.00014  -3.14156
   D44        2.48967   0.00033   0.00000  -0.00080  -0.00080   2.48886
   D45        0.01080   0.00031   0.00000   0.00620   0.00618   0.01699
   D46       -0.02630  -0.00034   0.00000  -0.00671  -0.00668  -0.03298
   D47       -2.50516  -0.00037   0.00000   0.00029   0.00030  -2.50486
   D48       -2.48965  -0.00033   0.00000   0.00073   0.00073  -2.48893
   D49       -0.01083  -0.00031   0.00000  -0.00623  -0.00621  -0.01703
   D50        0.02589   0.00035   0.00000   0.00690   0.00686   0.03275
   D51        2.50471   0.00037   0.00000  -0.00006  -0.00007   2.50464
   D52        0.00031  -0.00001   0.00000  -0.00013  -0.00013   0.00018
   D53       -2.55920  -0.00084   0.00000  -0.01489  -0.01491  -2.57411
   D54        2.55965   0.00084   0.00000   0.01473   0.01475   2.57440
   D55        0.00014  -0.00000   0.00000  -0.00003  -0.00003   0.00011
         Item               Value     Threshold  Converged?
 Maximum Force            0.035364     0.000450     NO 
 RMS     Force            0.004703     0.000300     NO 
 Maximum Displacement     0.132962     0.001800     NO 
 RMS     Displacement     0.044733     0.001200     NO 
 Predicted change in Energy=-2.904296D-03
 Lowest energy point so far.  Saving SCF results.
 GradGradGradGradGradGradGradGradGradGradGradGradGradGradGradGradGradGrad

 Leave Link  103 at Tue Sep 17 09:52:38 2024, MaxMem=  1342177280 cpu:               0.1 elap:               0.0
 (Enter /groups/ReismanLab/Software/Gaussian16_RevC/Linux_Binary_AVX2-enabled-CPU/g16/l202.exe)
                          Input orientation:                          
 ---------------------------------------------------------------------
 Center     Atomic      Atomic             Coordinates (Angstroms)
 Number     Number       Type             X           Y           Z
 ---------------------------------------------------------------------
      1         35           0        3.466737   -1.170742    0.000238
      2          6           0        2.240135    0.296263    0.000364
      3          6           0        2.734909    1.598938    0.000772
      4          6           0        1.830129    2.664393    0.000782
      5          6           0        0.458312    2.434057    0.000444
      6          6           0       -0.025217    1.115441    0.000067
      7          6           0       -1.461617    0.882042   -0.000213
      8          7           0       -2.429960    1.757638   -0.001308
      9          7           0       -3.614091    1.058954   -0.000871
     10          6           0       -3.311125   -0.210677    0.000155
     11          6           0       -4.205324   -1.371172    0.000902
     12          6           0       -5.522245   -1.269299   -0.746474
     13          6           0       -5.522541   -1.268111    0.747648
     14          8           0       -1.961275   -0.392267    0.000695
     15          6           0        0.873537    0.037078    0.000004
     16          1           0        3.804298    1.774602    0.001071
     17          1           0        2.206490    3.682334    0.001067
     18          1           0       -0.252743    3.251929    0.000456
     19          1           0       -3.688143   -2.324615    0.001842
     20          1           0       -5.864941   -2.155205   -1.271571
     21          1           0       -5.710644   -0.330201   -1.255475
     22          1           0       -5.865313   -2.153300    1.273910
     23          1           0       -5.711236   -0.328285    1.255183
     24          1           0        0.507249   -0.981909   -0.000345
 ---------------------------------------------------------------------
                    Distance matrix (angstroms):
                    1          2          3          4          5
     1  Br   0.000000
     2  C    1.912238   0.000000
     3  C    2.864733   1.393471   0.000000
     4  C    4.169742   2.403362   1.397792   0.000000
     5  C    4.695232   2.782995   2.424937   1.391020   0.000000
     6  C    4.173772   2.408916   2.802153   2.416932   1.404475
     7  C    5.338783   3.747814   4.257320   3.743310   2.468781
     8  N    6.583802   4.893405   5.167307   4.355521   2.966422
     9  N    7.423589   5.903700   6.371922   5.676000   4.298300
    10  C    6.845520   5.574359   6.311041   5.890545   4.604701
    11  C    7.674679   6.657649   7.549065   7.260336   6.019076
    12  C    9.020482   7.953823   8.773012   8.371960   7.073881
    13  C    9.020822   7.953920   8.772871   8.371628   7.073540
    14  O    5.483552   4.257455   5.100886   4.870104   3.720552
    15  C    2.860685   1.390960   2.429838   2.796043   2.432678
    16  H    2.964624   2.152229   1.083721   2.165426   3.410352
    17  H    5.014037   3.386238   2.149364   1.085288   2.148097
    18  H    5.778802   3.866576   3.414447   2.164152   1.083750
    19  H    7.247326   6.481782   7.526610   7.439189   6.311739
    20  H    9.469260   8.562697   9.469417   9.168506   7.915989
    21  H    9.300948   8.073690   8.753690   8.210300   6.875643
[...]
 Alpha virt. eigenvalues --    0.19233   0.20559   0.22012   0.22110   0.22910
 Alpha virt. eigenvalues --    0.23250   0.23291   0.24031   0.24613   0.24971
 Alpha virt. eigenvalues --    0.24979   0.26610   0.26749   0.27008   0.27799
 Alpha virt. eigenvalues --    0.28552   0.29508   0.29738   0.30589   0.31243
 Alpha virt. eigenvalues --    0.31638   0.32256   0.32859   0.33236   0.33567
 Alpha virt. eigenvalues --    0.35188   0.36112   0.36149   0.36939   0.38700
 Alpha virt. eigenvalues --    0.38843   0.39544   0.39830   0.40666   0.41129
 Alpha virt. eigenvalues --    0.41598   0.42932   0.43353   0.44363   0.44782
 Alpha virt. eigenvalues --    0.45323   0.45933   0.46413   0.46496   0.47048
 Alpha virt. eigenvalues --    0.47675   0.47852   0.49014   0.49196   0.50132
 Alpha virt. eigenvalues --    0.50891   0.52576   0.52955   0.53050   0.54064
 Alpha virt. eigenvalues --    0.54576   0.55482   0.55599   0.56038   0.57303
 Alpha virt. eigenvalues --    0.57320   0.58866   0.58994   0.60501   0.62185
 Alpha virt. eigenvalues --    0.62962   0.64529   0.65196   0.66460   0.66797
 Alpha virt. eigenvalues --    0.67928   0.68544   0.68704   0.69617   0.70404
 Alpha virt. eigenvalues --    0.72637   0.74489   0.76363   0.76771   0.77590
 Alpha virt. eigenvalues --    0.78133   0.79879   0.80666   0.81157   0.81430
 Alpha virt. eigenvalues --    0.83628   0.85373   0.85737   0.87961   0.88649
 Alpha virt. eigenvalues --    0.88663   0.90340   0.91630   0.92043   0.93831
 Alpha virt. eigenvalues --    0.93862   0.94840   0.96520   0.96784   0.97854
 Alpha virt. eigenvalues --    0.99615   1.01156   1.01543   1.02449   1.03705
 Alpha virt. eigenvalues --    1.05730   1.07004   1.07493   1.08229   1.08937
 Alpha virt. eigenvalues --    1.09365   1.11405   1.13698   1.14299   1.15536
 Alpha virt. eigenvalues --    1.15691   1.18029   1.18288   1.21225   1.21225
 Alpha virt. eigenvalues --    1.21846   1.22776   1.23205   1.23250   1.25471
 Alpha virt. eigenvalues --    1.26269   1.26557   1.29018   1.29207   1.30936
 Alpha virt. eigenvalues --    1.32951   1.34751   1.36920   1.38298   1.38603
 Alpha virt. eigenvalues --    1.40413   1.41434   1.41757   1.42270   1.45303
 Alpha virt. eigenvalues --    1.45431   1.46247   1.47645   1.48329   1.48743
 Alpha virt. eigenvalues --    1.49822   1.50202   1.52113   1.52760   1.53448
 Alpha virt. eigenvalues --    1.55403   1.56234   1.57446   1.57484   1.58538
 Alpha virt. eigenvalues --    1.59158   1.59873   1.61113   1.62239   1.64538
 Alpha virt. eigenvalues --    1.65531   1.65844   1.65915   1.66377   1.67108
 Alpha virt. eigenvalues --    1.69210   1.70423   1.70881   1.72211   1.72605
 Alpha virt. eigenvalues --    1.73033   1.73484   1.73830   1.75562   1.75597
 Alpha virt. eigenvalues --    1.77774   1.78727   1.78767   1.81100   1.81998
 Alpha virt. eigenvalues --    1.83865   1.84622   1.86483   1.87371   1.88939
 Alpha virt. eigenvalues --    1.89045   1.89595   1.90800   1.91319   1.93773
 Alpha virt. eigenvalues --    1.93799   1.95675   1.97960   1.98261   1.99532
 Alpha virt. eigenvalues --    2.01307   2.03598   2.04276   2.05424   2.07292
 Alpha virt. eigenvalues --    2.09639   2.12317   2.13244   2.15216   2.16118
 Alpha virt. eigenvalues --    2.16443   2.16942   2.19730   2.21370   2.23574
 Alpha virt. eigenvalues --    2.24268   2.26975   2.29012   2.29327   2.31052
 Alpha virt. eigenvalues --    2.31491   2.37204   2.38167   2.38286   2.39365
 Alpha virt. eigenvalues --    2.41744   2.42058   2.42085   2.45464   2.45927
 Alpha virt. eigenvalues --    2.46071   2.48520   2.50372   2.50512   2.51715
 Alpha virt. eigenvalues --    2.52196   2.52841   2.56753   2.58503   2.59495
 Alpha virt. eigenvalues --    2.60378   2.60776   2.62199   2.62251   2.63293
 Alpha virt. eigenvalues --    2.63946   2.65508   2.66037   2.66845   2.68489
 Alpha virt. eigenvalues --    2.69305   2.69694   2.71918   2.72850   2.73662
 Alpha virt. eigenvalues --    2.74274   2.75627   2.75916   2.76984   2.79906
 Alpha virt. eigenvalues --    2.80164   2.80990   2.81540   2.83129   2.83535
 Alpha virt. eigenvalues --    2.85146   2.87849   2.90538   2.91573   2.91801
 Alpha virt. eigenvalues --    2.92460   2.93205   2.94938   2.95399   2.96974
 Alpha virt. eigenvalues --    2.98947   2.99885   3.00406   3.01090   3.03435
 Alpha virt. eigenvalues --    3.04477   3.05518   3.06853   3.07972   3.08128
 Alpha virt. eigenvalues --    3.09145   3.10182   3.11641   3.11751   3.13147
 Alpha virt. eigenvalues --    3.14247   3.14456   3.16261   3.16569   3.17283
 Alpha virt. eigenvalues --    3.18554   3.18855   3.20194   3.20462   3.22692
 Alpha virt. eigenvalues --    3.23974   3.24210   3.26884   3.27208   3.28003
 Alpha virt. eigenvalues --    3.29178   3.30587   3.31219   3.32251   3.34687
 Alpha virt. eigenvalues --    3.35819   3.36587   3.37375   3.37907   3.39477
 Alpha virt. eigenvalues --    3.40207   3.41555   3.41798   3.41831   3.42306
 Alpha virt. eigenvalues --    3.45302   3.46503   3.50038   3.50328   3.51605
 Alpha virt. eigenvalues --    3.51647   3.52614   3.53936   3.55824   3.57168
 Alpha virt. eigenvalues --    3.58699   3.60148   3.62157   3.62475   3.64412
 Alpha virt. eigenvalues --    3.66564   3.68425   3.69387   3.71147   3.73654
 Alpha virt. eigenvalues --    3.74667   3.76689   3.76850   3.78322   3.81263
 Alpha virt. eigenvalues --    3.84170   3.86224   3.88970   3.91115   3.93360
 Alpha virt. eigenvalues --    3.94025   3.95942   3.97948   3.98532   3.99341
 Alpha virt. eigenvalues --    4.00895   4.01198   4.03552   4.05016   4.05822
 Alpha virt. eigenvalues --    4.07524   4.10363   4.10930   4.12567   4.13533
 Alpha virt. eigenvalues --    4.13625   4.14084   4.16099   4.16285   4.17609
 Alpha virt. eigenvalues --    4.19153   4.19417   4.22741   4.23561   4.25298
 Alpha virt. eigenvalues --    4.26635   4.26954   4.30344   4.33926   4.34144
 Alpha virt. eigenvalues --    4.39792   4.43504   4.43664   4.44749   4.51091
 Alpha virt. eigenvalues --    4.51912   4.52940   4.54399   4.56971   4.57660
 Alpha virt. eigenvalues --    4.59550   4.66156   4.67191   4.70468   4.71603
 Alpha virt. eigenvalues --    4.74020   4.75786   4.78411   4.80507   4.81087
 Alpha virt. eigenvalues --    4.82866   4.83587   4.84934   4.88499   4.90006
 Alpha virt. eigenvalues --    4.95626   5.00721   5.00899   5.09792   5.10654
 Alpha virt. eigenvalues --    5.13876   5.15203   5.15248   5.17969   5.25005
 Alpha virt. eigenvalues --    5.28571   5.29760   5.31313   5.35261   5.44638
 Alpha virt. eigenvalues --    5.45563   5.46468   5.47085   5.51552   5.56301
 Alpha virt. eigenvalues --    5.65328   5.69936   5.78923   5.83261   5.86684
 Alpha virt. eigenvalues --    5.95199   6.03171   6.32653   6.61349   6.64230
 Alpha virt. eigenvalues --    6.76963   6.81898   6.84814   7.28302   7.36387
 Alpha virt. eigenvalues --    7.85946  22.30413  22.48849  22.51834  22.69237
 Alpha virt. eigenvalues --   22.70769  22.75207  22.84129  22.94848  23.11948
 Alpha virt. eigenvalues --   23.26781  23.71392  32.27302  32.48953  44.32759
          Condensed to atoms (all electrons):
               1          2          3          4          5          6
     1  Br  34.909736   0.373129  -0.098535   0.020984  -0.002426   0.018380
     2  C    0.373129   4.879184   0.427400   0.006713  -0.046652  -0.006346
     3  C   -0.098535   0.427400   5.094446   0.407967  -0.001965  -0.078756
     4  C    0.020984   0.006713   0.407967   4.992917   0.465874  -0.014929
     5  C   -0.002426  -0.046652  -0.001965   0.465874   5.077633   0.422959
     6  C    0.018380  -0.006346  -0.078756  -0.014929   0.422959   5.124425
     7  C   -0.002787  -0.013563   0.002568  -0.005472  -0.073928   0.287403
     8  N    0.000007  -0.000259   0.000298  -0.001444   0.012089  -0.079873
     9  N   -0.000001   0.000059   0.000012  -0.000036  -0.000553   0.013210
    10  C   -0.000010  -0.000398   0.000058  -0.000173   0.002772  -0.023662
    11  C   -0.000002  -0.000030  -0.000001  -0.000003  -0.000098  -0.004312
    12  C   -0.000000   0.000000  -0.000000   0.000000  -0.000011   0.000074
    13  C   -0.000000   0.000000  -0.000000   0.000000  -0.000011   0.000073
    14  O   -0.000007   0.000668   0.000198  -0.000421   0.007972  -0.061800
    15  C   -0.102947   0.399557   0.003549  -0.071364  -0.056579   0.409665
    16  H   -0.006599  -0.044907   0.419343  -0.034135   0.003453  -0.000693
    17  H   -0.000231   0.002703  -0.031345   0.412541  -0.030925   0.005110
    18  H    0.000034  -0.000366   0.003936  -0.030250   0.406373  -0.029673
    19  H    0.000001   0.000005   0.000001  -0.000001   0.000025   0.000081
    20  H    0.000000  -0.000000  -0.000000   0.000000  -0.000000   0.000000
    21  H    0.000000  -0.000000  -0.000000   0.000000  -0.000001   0.000011
    22  H    0.000000  -0.000000  -0.000000   0.000000  -0.000000   0.000000
    23  H    0.000000  -0.000000  -0.000000   0.000000  -0.000001   0.000011
    24  H   -0.005467  -0.038283   0.010553  -0.003291   0.007964  -0.027240
               7          8          9         10         11         12
     1  Br  -0.002787   0.000007  -0.000001  -0.000010  -0.000002  -0.000000
     2  C   -0.013563  -0.000259   0.000059  -0.000398  -0.000030   0.000000
     3  C    0.002568   0.000298   0.000012   0.000058  -0.000001  -0.000000
     4  C   -0.005472  -0.001444  -0.000036  -0.000173  -0.000003   0.000000
     5  C   -0.073928   0.012089  -0.000553   0.002772  -0.000098  -0.000011
     6  C    0.287403  -0.079873   0.013210  -0.023662  -0.004312   0.000074
     7  C    4.862899   0.616939  -0.093792  -0.111627  -0.007493   0.001323
     8  N    0.616939   6.555035   0.232881  -0.087554   0.004706   0.000481
     9  N   -0.093792   0.232881   6.629638   0.565475  -0.055080  -0.004360
    10  C   -0.111627  -0.087554   0.565475   4.802274   0.289280  -0.025784
    11  C   -0.007493   0.004706  -0.055080   0.289280   5.378500   0.196860
    12  C    0.001323   0.000481  -0.004360  -0.025784   0.196860   5.163844
    13  C    0.001322   0.000482  -0.004360  -0.025786   0.196870   0.159759
    14  O    0.313236  -0.073967  -0.077465   0.332159  -0.029274   0.001561
    15  C   -0.076048   0.006297   0.000674  -0.001305  -0.000315   0.000015
    16  H    0.000442  -0.000001   0.000000   0.000001   0.000000  -0.000000
    17  H    0.000178  -0.000055  -0.000000   0.000000   0.000000   0.000000
    18  H   -0.007580   0.016763  -0.000504   0.000204  -0.000017  -0.000001
    19  H    0.000637  -0.000654   0.004210  -0.040656   0.428442  -0.028558
    20  H    0.000015  -0.000007   0.000383   0.005530  -0.039294   0.425588
    21  H    0.000604  -0.000474   0.007854   0.002915  -0.039343   0.427035
    22  H    0.000015  -0.000007   0.000383   0.005530  -0.039294  -0.026796
    23  H    0.000604  -0.000474   0.007854   0.002914  -0.039340  -0.032337
    24  H    0.002535   0.000470   0.000172   0.001202   0.000056   0.000001
              13         14         15         16         17         18
     1  Br  -0.000000  -0.000007  -0.102947  -0.006599  -0.000231   0.000034
     2  C    0.000000   0.000668   0.399557  -0.044907   0.002703  -0.000366
     3  C   -0.000000   0.000198   0.003549   0.419343  -0.031345   0.003936
     4  C    0.000000  -0.000421  -0.071364  -0.034135   0.412541  -0.030250
     5  C   -0.000011   0.007972  -0.056579   0.003453  -0.030925   0.406373
     6  C    0.000073  -0.061800   0.409665  -0.000693   0.005110  -0.029673
     7  C    0.001322   0.313236  -0.076048   0.000442   0.000178  -0.007580
     8  N    0.000482  -0.073967   0.006297  -0.000001  -0.000055   0.016763
     9  N   -0.004360  -0.077465   0.000674   0.000000  -0.000000  -0.000504
    10  C   -0.025786   0.332159  -0.001305   0.000001   0.000000   0.000204
    11  C    0.196870  -0.029274  -0.000315   0.000000   0.000000  -0.000017
    12  C    0.159759   0.001561   0.000015  -0.000000   0.000000  -0.000001
    13  C    5.163844   0.001562   0.000015  -0.000000   0.000000  -0.000001
    14  O    0.001562   7.825443   0.012217  -0.000000   0.000002   0.000511
    15  C    0.000015   0.012217   5.291298   0.011640   0.000596   0.006614
    16  H   -0.000000  -0.000000   0.011640   0.470864  -0.003112  -0.000144
    17  H    0.000000   0.000002   0.000596  -0.003112   0.474458  -0.003105
    18  H   -0.000001   0.000511   0.006614  -0.000144  -0.003105   0.447465
    19  H   -0.028561   0.001117   0.000051   0.000000  -0.000000   0.000001
    20  H   -0.026797   0.000023   0.000000  -0.000000   0.000000  -0.000000
    21  H   -0.032336   0.000387   0.000001  -0.000000   0.000000  -0.000000
    22  H    0.425587   0.000023   0.000000  -0.000000   0.000000  -0.000000
    23  H    0.427032   0.000387   0.000001  -0.000000   0.000000  -0.000000
    24  H    0.000001   0.010651   0.394968   0.000001   0.000046  -0.000153
              19         20         21         22         23         24
     1  Br   0.000001   0.000000   0.000000   0.000000   0.000000  -0.005467
     2  C    0.000005  -0.000000  -0.000000  -0.000000  -0.000000  -0.038283
     3  C    0.000001  -0.000000  -0.000000  -0.000000  -0.000000   0.010553
     4  C   -0.000001   0.000000   0.000000   0.000000   0.000000  -0.003291
     5  C    0.000025  -0.000000  -0.000001  -0.000000  -0.000001   0.007964
     6  C    0.000081   0.000000   0.000011   0.000000   0.000011  -0.027240
     7  C    0.000637   0.000015   0.000604   0.000015   0.000604   0.002535
     8  N   -0.000654  -0.000007  -0.000474  -0.000007  -0.000474   0.000470
     9  N    0.004210   0.000383   0.007854   0.000383   0.007854   0.000172
    10  C   -0.040656   0.005530   0.002915   0.005530   0.002914   0.001202
    11  C    0.428442  -0.039294  -0.039343  -0.039294  -0.039340   0.000056
    12  C   -0.028558   0.425588   0.427035  -0.026796  -0.032337   0.000001
    13  C   -0.028561  -0.026797  -0.032336   0.425587   0.427032   0.000001
    14  O    0.001117   0.000023   0.000387   0.000023   0.000387   0.010651
    15  C    0.000051   0.000000   0.000001   0.000000   0.000001   0.394968
    16  H    0.000000  -0.000000  -0.000000  -0.000000  -0.000000   0.000001
    17  H   -0.000000   0.000000   0.000000   0.000000   0.000000   0.000046
    18  H    0.000001  -0.000000  -0.000000  -0.000000  -0.000000  -0.000153
    19  H    0.507733  -0.005998   0.002267  -0.005997   0.002267   0.000135
    20  H   -0.005998   0.497772  -0.012458  -0.004227   0.000825  -0.000000
    21  H    0.002267  -0.012458   0.473202   0.000825  -0.003872  -0.000000
    22  H   -0.005997  -0.004227   0.000825   0.497774  -0.012458  -0.000000
    23  H    0.002267   0.000825  -0.003872  -0.012458   0.473207  -0.000000
    24  H    0.000135  -0.000000  -0.000000  -0.000000  -0.000000   0.452803
 Mulliken charges:
               1
     1  Br  -0.103258
     2  C    0.061385
     3  C   -0.159727
     4  C   -0.145478
     5  C   -0.193961
     6  C    0.045883
     7  C    0.301571
     8  N   -0.201679
     9  N   -0.226655
    10  C    0.306644
    11  C   -0.240818
    12  C   -0.258693
    13  C   -0.258694
    14  O   -0.265181
    15  C   -0.228599
    16  H    0.183846
    17  H    0.173140
    18  H    0.189894
    19  H    0.163455
    20  H    0.158644
    21  H    0.173383
    22  H    0.158643
    23  H    0.173379
    24  H    0.192876
 Sum of Mulliken charges =  -0.00000
 Mulliken charges with hydrogens summed into heavy atoms:
               1
     1  Br  -0.103258
     2  C    0.061385
     3  C    0.024120
     4  C    0.027661
     5  C   -0.004068
     6  C    0.045883
     7  C    0.301571
     8  N   -0.201679
     9  N   -0.226655
    10  C    0.306644
    11  C   -0.077363
    12  C    0.073334
    13  C    0.073329
    14  O   -0.265181
    15  C   -0.035723
 Electronic spatial extent (au):  <R**2>=           6136.7031
 Charge=              0.0000 electrons
 Dipole moment (field-independent basis, Debye):
    X=             -0.0203    Y=             -1.9753    Z=              0.0014  Tot=              1.9754
 Quadrupole moment (field-independent basis, Debye-Ang):
   XX=            -92.0760   YY=            -94.8129   ZZ=           -101.3147
   XY=             21.8913   XZ=             -0.0067   YZ=              0.0024
 Traceless Quadrupole moment (field-independent basis, Debye-Ang):
   XX=              3.9919   YY=              1.2550   ZZ=             -5.2469
   XY=             21.8913   XZ=             -0.0067   YZ=              0.0024
 Octapole moment (field-independent basis, Debye-Ang**2):
  XXX=             68.2420  YYY=            -46.9856  ZZZ=              0.0117  XYY=             52.7255
  XXY=            -58.1421  XXZ=              0.0290  XZZ=             21.8383  YZZ=            -19.9699
  YYZ=              0.0120  XYZ=             -0.0093
 Hexadecapole moment (field-independent basis, Debye-Ang**3):
 XXXX=          -5851.7881 YYYY=          -1168.2593 ZZZZ=           -174.6207 XXXY=            168.5579
 XXXZ=             -0.2380 YYYX=            -25.0860 YYYZ=              0.0889 ZZZX=             -0.1245
 ZZZY=              0.0926 XXYY=          -1148.7716 XXZZ=          -1036.4234 YYZZ=           -251.3912
 XXYZ=              0.0503 YYXZ=             -0.0725 ZZXY=            -50.6445
 N-N= 1.172238858725D+03 E-N=-9.914076029295D+03  KE= 3.176847546498D+03
 Calculating spin-rotation constants.
 Leave Link  601 at Tue Sep 17 11:17:50 2024, MaxMem=  1342177280 cpu:               6.3 elap:               6.3
 (Enter /groups/ReismanLab/Software/Gaussian16_RevC/Linux_Binary_AVX2-enabled-CPU/g16/l9999.exe)
 Unable to Open any file for archive entry.
 1\1\GINC-HPC-52-36\SP\RM062X\def2TZVP\C11H9Br1N2O1\MANTIND\17-Sep-2024
 \0\\#p M062X/def2tzvp geom=check guess=read scf(xqc,tight) integral(gr
 id=ultrafine) scrf(SMD, solvent=1,4-Dioxane) nmr=giao\\spe\\0,1\Br,0,3
 .433364231,-1.1878816302,0.0008253896\C,0,2.2204668507,0.2880412431,0.
 0005677397\C,0,2.7269053167,1.5855233011,0.0004791597\C,0,1.83174286,2
 .6576980327,0.0002927359\C,0,0.4592669042,2.4371560583,0.0001991842\C,
 0,-0.0340441287,1.1233412686,0.0002748673\C,0,-1.4727345672,0.90361678
 79,0.0001478972\N,0,-2.4296347961,1.7831223147,-0.0002774165\N,0,-3.62
 90077932,1.0709364544,-0.0003279004\C,0,-3.3112341269,-0.1894615593,0.
 0003509291\C,0,-4.1879724189,-1.3609243746,0.0007159679\C,0,-5.5097818
 016,-1.2778082682,-0.7469968524\C,0,-5.5100601141,-1.2771446119,0.7478
 622265\O,0,-1.9592138283,-0.3792854746,0.0006510015\C,0,0.8529678689,0
 .0382241939,0.0004647886\H,0,3.7974394086,1.7515919993,0.0005559886\H,
 0,2.2155727267,3.6726688371,0.0002326072\H,0,-0.2434923483,3.262039170
 4,0.0000626815\H,0,-3.6611729629,-2.3081899301,0.0012370601\H,0,-5.834
 5169678,-2.1701893867,-1.2716449245\H,0,-5.7118344259,-0.3397705648,-1
 .2523206976\H,0,-5.8349800156,-2.1690676022,1.2731749424\H,0,-5.712313
 5925,-0.3386652174,1.2522842014\H,0,0.4796467271,-0.9776838258,0.00053
 279\\Version=ES64L-G16RevC.02\State=1-A\HF=-3183.4587558\RMSD=3.143e-0
 9\Dipole=0.0183789,-0.7769759,0.0005683\Quadrupole=1.8628433,2.038078,
 -3.9009212,16.3071992,-0.0050039,0.0016041\PG=C01 [X(C11H9Br1N2O1)]\\@
 The archive entry for this job was punched.


 PENOTUS DIED A HUNDRED YEARS OLD WANTING BUT TWO...
 AND HE USED TO SAY BEFORE HE DIED, HAVING SPENT HIS
 WHOLE LIFE IN VAINLY SEARCHING AFTER THE PHILOSOPHER'S
 STONE, THAT IF HE HAD A MORTAL ENEMY HE DID NOT DARE
 TO ENCOUNTER OPENLY, HE WOULD ADVISE HIM ABOVE ALL
 THINGS TO GIVE HIMSELF UP TO THE STUDY AND PRACTICE
 OF ALCHEMY.  --  NICOLAS LEMERY, M.D.
 "A COURSE OF CHYMISTRY", WALTER KETTILBY, LONDON, 1686
 Job cpu time:       0 days  0 hours 21 minutes 36.5 seconds.
 Elapsed time:       0 days  0 hours 21 minutes 41.0 seconds.
 File lengths (MBytes):  RWF=    360 Int=      0 D2E=      0 Chk=     40 Scr=     16
 Normal termination of Gaussian 16 at Tue Sep 17 11:17:51 2024.
