 Entering Gaussian System, Link 0=g16
 Input=smiles_00017_conf_5.gjf
 Output=smiles_00017_conf_5.log
 Initial command:
 /groups/ReismanLab/Software/Gaussian16_RevC/Linux_Binary_AVX2-enabled-CPU/g16/l1.exe "/central/groups/ReismanLab/DM/dft_final/smiles_00017/Gau-948744.inp" -scrdir="/central/groups/ReismanLab/DM/dft_final/smiles_00017/"
 Entering Link 1 = /groups/ReismanLab/Software/Gaussian16_RevC/Linux_Binary_AVX2-enabled-CPU/g16/l1.exe PID=    948749.
  
 Copyright (c) 1988-2021, Gaussian, Inc.  All Rights Reserved.
  
 This is part of the Gaussian(R) 16 program.  It is based on
 the Gaussian(R) 09 system (copyright 2009, Gaussian, Inc.),
 the Gaussian(R) 03 system (copyright 2003, Gaussian, Inc.),
 the Gaussian(R) 98 system (copyright 1998, Gaussian, Inc.),
 the Gaussian(R) 94 system (copyright 1995, Gaussian, Inc.),
 the Gaussian 92(TM) system (copyright 1992, Gaussian, Inc.),
 the Gaussian 90(TM) system (copyright 1990, Gaussian, Inc.),
 the Gaussian 88(TM) system (copyright 1988, Gaussian, Inc.),
 the Gaussian 86(TM) system (copyright 1986, Carnegie Mellon
 University), and the Gaussian 82(TM) system (copyright 1983,
 Carnegie Mellon University). Gaussian is a federally registered
 trademark of Gaussian, Inc.
  
 This software contains proprietary and confidential information,
 including trade secrets, belonging to Gaussian, Inc.
  
 This software is provided under written license and may be
 used, copied, transmitted, or stored only in accord with that
 written license.
  
 The following legend is applicable only to US Government
 contracts under FAR:
  
                    RESTRICTED RIGHTS LEGEND
  
 Use, reproduction and disclosure by the US Government is
 subject to restrictions as set forth in subparagraphs (a)
 and (c) of the Commercial Computer Software - Restricted
 Rights clause in FAR 52.227-19.
  
 Gaussian, Inc.
 340 Quinnipiac St., Bldg. 40, Wallingford CT 06492
  
  
 ---------------------------------------------------------------
 Warning -- This program may not be used in any manner that
 competes with the business of Gaussian, Inc. or will provide
 assistance to any competitor of Gaussian, Inc.  The licensee
 of this program is prohibited from giving any competitor of
 Gaussian, Inc. access to this program.  By using this program,
 the user acknowledges that Gaussian, Inc. is engaged in the
 business of creating and licensing software in the field of
 computational chemistry and represents and warrants to the
 licensee that it is not a competitor of Gaussian, Inc. and that
 it will not use this program in any manner prohibited above.
 ---------------------------------------------------------------
  

 Cite this work as:
 Gaussian 16, Revision C.02,
 M. J. Frisch, G. W. Trucks, H. B. Schlegel, G. E. Scuseria, 
 M. A. Robb, J. R. Cheeseman, G. Scalmani, V. Barone, 
 G. A. Petersson, H. Nakatsuji, X. Li, M. Caricato, A. V. Marenich, 
 J. Bloino, B. G. Janesko, R. Gomperts, B. Mennucci, H. P. Hratchian, 
 J. V. Ortiz, A. F. Izmaylov, J. L. Sonnenberg, D. Williams-Young, 
 F. Ding, F. Lipparini, F. Egidi, J. Goings, B. Peng, A. Petrone, 
 T. Henderson, D. Ranasinghe, V. G. Zakrzewski, J. Gao, N. Rega, 
 G. Zheng, W. Liang, M. Hada, M. Ehara, K. Toyota, R. Fukuda, 
 J. Hasegawa, M. Ishida, T. Nakajima, Y. Honda, O. Kitao, H. Nakai, 
 T. Vreven, K. Throssell, J. A. Montgomery, Jr., J. E. Peralta, 
 F. Ogliaro, M. J. Bearpark, J. J. Heyd, E. N. Brothers, K. N. Kudin, 
 V. N. Staroverov, T. A. Keith, R. Kobayashi, J. Normand, 
 K. Raghavachari, A. P. Rendell, J. C. Burant, S. S. Iyengar, 
 J. Tomasi, M. Cossi, J. M. Millam, M. Klene, C. Adamo, R. Cammi, 
 J. W. Ochterski, R. L. Martin, K. Morokuma, O. Farkas, 
 J. B. Foresman, and D. J. Fox, Gaussian, Inc., Wallingford CT, 2019.
 
 ******************************************
 Gaussian 16:  ES64L-G16RevC.02  7-Dec-2021
                17-Sep-2024 
 ******************************************
 %nprocshared=8
 Will use up to    8 processors via shared memory.
 %Mem=10GB
 %Chk=smiles_00017_conf_5.chk
 ----------------------------------------------------------------------
 #p B3LYP/6-31G(d,p) EmpiricalDispersion=GD3BJ opt freq scf(xqc,tight) 
 integral(grid=ultrafine)
 ----------------------------------------------------------------------
 1/18=20,19=15,26=4,38=1/1,3;
 2/9=110,12=2,17=6,18=5,40=1/2;
 3/5=1,6=6,7=101,11=2,25=1,30=1,71=1,74=-5,75=-5,124=41/1,2,3;
 4//1;
 5/5=2,8=3,13=1,32=2,38=5/2,8;
 6/7=2,8=2,9=2,10=2,28=1/1;
 7//1,2,3,16;
 1/18=20,19=15,26=4/3(2);
 2/9=110/2;
 99//99;
 2/9=110/2;
 3/5=1,6=6,7=101,11=2,25=1,30=1,71=1,74=-5,75=-5,124=41/1,2,3;
 4/5=5,16=3,69=1/1;
 5/5=2,8=3,13=1,32=2,38=5/2,8;
 7//1,2,3,16;
 1/18=20,19=15,26=4/3(-5);
 2/9=110/2;
 6/7=2,8=2,9=2,10=2,19=2,28=1/1;
 99/9=1/99;
 Leave Link    1 at Tue Sep 17 09:52:46 2024, MaxMem=  1342177280 cpu:               0.0 elap:               0.7
 (Enter /groups/ReismanLab/Software/Gaussian16_RevC/Linux_Binary_AVX2-enabled-CPU/g16/l101.exe)
 ----------------------------------
 opt-freq conformers_unique/conf_af
 ----------------------------------
 Symbolic Z-matrix:
 Charge =  0 Multiplicity = 1
 C                     2.09346   0.97226  -1.47998 
 C                     2.47734   0.64311  -0.03958 
 C                     3.64992  -0.33671   0.01403 
 O                     1.34067   0.22687   0.71906 
 C                     0.51288  -0.74674   0.24244 
 C                     0.88452  -2.0727    0.04309 
 C                    -0.0464   -3.00931  -0.37202 
 C                    -1.36588  -2.64876  -0.58188 
 C                    -1.7628   -1.33976  -0.3703 
 C                    -0.82586  -0.40775   0.031 
 Br                   -1.33857   1.39783   0.31777 
 H                     1.28037   1.69448  -1.49804 
 H                     1.77438   0.07178  -2.00377 
 H                     2.9482    1.39531  -2.00006 
 H                     2.76698   1.56407   0.4805 
 H                     4.56005   0.18283  -0.27469 
 H                     3.50322  -1.16836  -0.67119 
 H                     3.77574  -0.71718   1.02508 
 H                     1.90144  -2.37427   0.2332 
 H                     0.26414  -4.03227  -0.52259 
 H                    -2.08871  -3.38261  -0.90289 
 H                    -2.7882   -1.03958  -0.52206 
 
 ITRead=  0  0  0  0  0  0  0  0  0  0  0  0  0  0  0  0  0  0  0  0
 ITRead=  0  0
 MicOpt= -1 -1 -1 -1 -1 -1 -1 -1 -1 -1 -1 -1 -1 -1 -1 -1 -1 -1 -1 -1
 MicOpt= -1 -1
 NAtoms=     22 NQM=       22 NQMF=       0 NMMI=      0 NMMIF=      0
                NMic=       0 NMicF=      0.
                    Isotopes and Nuclear Properties:
 (Nuclear quadrupole moments (NQMom) in fm**2, nuclear magnetic moments (NMagM)
  in nuclear magnetons)

  Atom         1           2           3           4           5           6           7           8           9          10
 IAtWgt=          12          12          12          16          12          12          12          12          12          12
 AtmWgt=  12.0000000  12.0000000  12.0000000  15.9949146  12.0000000  12.0000000  12.0000000  12.0000000  12.0000000  12.0000000
 NucSpn=           0           0           0           0           0           0           0           0           0           0
 AtZEff=  -0.0000000  -0.0000000  -0.0000000  -0.0000000  -0.0000000  -0.0000000  -0.0000000  -0.0000000  -0.0000000  -0.0000000
 NQMom=    0.0000000   0.0000000   0.0000000   0.0000000   0.0000000   0.0000000   0.0000000   0.0000000   0.0000000   0.0000000
 NMagM=    0.0000000   0.0000000   0.0000000   0.0000000   0.0000000   0.0000000   0.0000000   0.0000000   0.0000000   0.0000000
 AtZNuc=   6.0000000   6.0000000   6.0000000   8.0000000   6.0000000   6.0000000   6.0000000   6.0000000   6.0000000   6.0000000

  Atom        11          12          13          14          15          16          17          18          19          20
 IAtWgt=          79           1           1           1           1           1           1           1           1           1
 AtmWgt=  78.9183361   1.0078250   1.0078250   1.0078250   1.0078250   1.0078250   1.0078250   1.0078250   1.0078250   1.0078250
 NucSpn=           3           1           1           1           1           1           1           1           1           1
 AtZEff=  -0.0000000  -0.0000000  -0.0000000  -0.0000000  -0.0000000  -0.0000000  -0.0000000  -0.0000000  -0.0000000  -0.0000000
 NQMom=   31.3000000   0.0000000   0.0000000   0.0000000   0.0000000   0.0000000   0.0000000   0.0000000   0.0000000   0.0000000
 NMagM=    2.1063990   2.7928460   2.7928460   2.7928460   2.7928460   2.7928460   2.7928460   2.7928460   2.7928460   2.7928460
 AtZNuc=  35.0000000   1.0000000   1.0000000   1.0000000   1.0000000   1.0000000   1.0000000   1.0000000   1.0000000   1.0000000

  Atom        21          22
 IAtWgt=           1           1
 AtmWgt=   1.0078250   1.0078250
 NucSpn=           1           1
 AtZEff=  -0.0000000  -0.0000000
 NQMom=    0.0000000   0.0000000
 NMagM=    2.7928460   2.7928460
 AtZNuc=   1.0000000   1.0000000
 Leave Link  101 at Tue Sep 17 09:52:46 2024, MaxMem=  1342177280 cpu:               0.2 elap:               0.3
 (Enter /groups/ReismanLab/Software/Gaussian16_RevC/Linux_Binary_AVX2-enabled-CPU/g16/l103.exe)

 GradGradGradGradGradGradGradGradGradGradGradGradGradGradGradGradGradGrad
 Berny optimization.
 Initialization pass.
                           ----------------------------
                           !    Initial Parameters    !
                           ! (Angstroms and Degrees)  !
 --------------------------                            --------------------------
 ! Name  Definition              Value          Derivative Info.                !
 --------------------------------------------------------------------------------
 ! R1    R(1,2)                  1.5266         estimate D2E/DX2                !
 ! R2    R(1,12)                 1.0877         estimate D2E/DX2                !
 ! R3    R(1,13)                 1.0895         estimate D2E/DX2                !
 ! R4    R(1,14)                 1.0863         estimate D2E/DX2                !
 ! R5    R(2,3)                  1.529          estimate D2E/DX2                !
 ! R6    R(2,4)                  1.4286         estimate D2E/DX2                !
 ! R7    R(2,15)                 1.0966         estimate D2E/DX2                !
 ! R8    R(3,16)                 1.087          estimate D2E/DX2                !
 ! R9    R(3,17)                 1.0875         estimate D2E/DX2                !
 ! R10   R(3,18)                 1.0876         estimate D2E/DX2                !
 ! R11   R(4,5)                  1.3639         estimate D2E/DX2                !
 ! R12   R(5,6)                  1.3914         estimate D2E/DX2                !
 ! R13   R(5,10)                 1.3971         estimate D2E/DX2                !
 ! R14   R(6,7)                  1.3843         estimate D2E/DX2                !
 ! R15   R(6,19)                 1.0776         estimate D2E/DX2                !
 ! R16   R(7,8)                  1.3839         estimate D2E/DX2                !
 ! R17   R(7,20)                 1.0796         estimate D2E/DX2                !
 ! R18   R(8,9)                  1.3841         estimate D2E/DX2                !
 ! R19   R(8,21)                 1.0789         estimate D2E/DX2                !
 ! R20   R(9,10)                 1.3811         estimate D2E/DX2                !
 ! R21   R(9,22)                 1.0792         estimate D2E/DX2                !
 ! R22   R(10,11)                1.8988         estimate D2E/DX2                !
 ! A1    A(2,1,12)             110.2926         estimate D2E/DX2                !
 ! A2    A(2,1,13)             110.4296         estimate D2E/DX2                !
 ! A3    A(2,1,14)             109.7456         estimate D2E/DX2                !
 ! A4    A(12,1,13)            108.7769         estimate D2E/DX2                !
 ! A5    A(12,1,14)            108.7634         estimate D2E/DX2                !
 ! A6    A(13,1,14)            108.7926         estimate D2E/DX2                !
 ! A7    A(1,2,3)              111.3517         estimate D2E/DX2                !
 ! A8    A(1,2,4)              111.3339         estimate D2E/DX2                !
 ! A9    A(1,2,15)             109.4406         estimate D2E/DX2                !
 ! A10   A(3,2,4)              113.8821         estimate D2E/DX2                !
 ! A11   A(3,2,15)             108.6026         estimate D2E/DX2                !
 ! A12   A(4,2,15)             101.7128         estimate D2E/DX2                !
 ! A13   A(2,3,16)             109.056          estimate D2E/DX2                !
 ! A14   A(2,3,17)             111.3773         estimate D2E/DX2                !
 ! A15   A(2,3,18)             110.2117         estimate D2E/DX2                !
 ! A16   A(16,3,17)            108.1254         estimate D2E/DX2                !
 ! A17   A(16,3,18)            108.4972         estimate D2E/DX2                !
 ! A18   A(17,3,18)            109.5017         estimate D2E/DX2                !
 ! A19   A(2,4,5)              120.3528         estimate D2E/DX2                !
 ! A20   A(4,5,6)              124.625          estimate D2E/DX2                !
 ! A21   A(4,5,10)             117.4682         estimate D2E/DX2                !
 ! A22   A(6,5,10)             117.7416         estimate D2E/DX2                !
 ! A23   A(5,6,7)              120.5391         estimate D2E/DX2                !
 ! A24   A(5,6,19)             119.5694         estimate D2E/DX2                !
 ! A25   A(7,6,19)             119.8801         estimate D2E/DX2                !
 ! A26   A(6,7,8)              120.6912         estimate D2E/DX2                !
 ! A27   A(6,7,20)             119.3077         estimate D2E/DX2                !
 ! A28   A(8,7,20)             119.9984         estimate D2E/DX2                !
 ! A29   A(7,8,9)              119.7779         estimate D2E/DX2                !
 ! A30   A(7,8,21)             120.4443         estimate D2E/DX2                !
 ! A31   A(9,8,21)             119.7765         estimate D2E/DX2                !
 ! A32   A(8,9,10)             119.2139         estimate D2E/DX2                !
 ! A33   A(8,9,22)             120.934          estimate D2E/DX2                !
 ! A34   A(10,9,22)            119.8503         estimate D2E/DX2                !
 ! A35   A(5,10,9)             122.0251         estimate D2E/DX2                !
 ! A36   A(5,10,11)            117.8152         estimate D2E/DX2                !
 ! A37   A(9,10,11)            120.1595         estimate D2E/DX2                !
 ! D1    D(12,1,2,3)          -178.1508         estimate D2E/DX2                !
 ! D2    D(12,1,2,4)            53.5804         estimate D2E/DX2                !
 ! D3    D(12,1,2,15)          -58.0716         estimate D2E/DX2                !
 ! D4    D(13,1,2,3)            61.5875         estimate D2E/DX2                !
 ! D5    D(13,1,2,4)           -66.6813         estimate D2E/DX2                !
 ! D6    D(13,1,2,15)         -178.3333         estimate D2E/DX2                !
 ! D7    D(14,1,2,3)           -58.3427         estimate D2E/DX2                !
 ! D8    D(14,1,2,4)           173.3885         estimate D2E/DX2                !
 ! D9    D(14,1,2,15)           61.7365         estimate D2E/DX2                !
 ! D10   D(1,2,3,16)            72.6859         estimate D2E/DX2                !
 ! D11   D(1,2,3,17)           -46.5668         estimate D2E/DX2                !
 ! D12   D(1,2,3,18)          -168.3116         estimate D2E/DX2                !
 ! D13   D(4,2,3,16)          -160.4244         estimate D2E/DX2                !
 ! D14   D(4,2,3,17)            80.3229         estimate D2E/DX2                !
 ! D15   D(4,2,3,18)           -41.4219         estimate D2E/DX2                !
 ! D16   D(15,2,3,16)          -47.8872         estimate D2E/DX2                !
 ! D17   D(15,2,3,17)         -167.1399         estimate D2E/DX2                !
 ! D18   D(15,2,3,18)           71.1153         estimate D2E/DX2                !
 ! D19   D(1,2,4,5)             50.4089         estimate D2E/DX2                !
 ! D20   D(3,2,4,5)            -76.4901         estimate D2E/DX2                !
 ! D21   D(15,2,4,5)           166.8889         estimate D2E/DX2                !
 ! D22   D(2,4,5,6)             65.181          estimate D2E/DX2                !
 ! D23   D(2,4,5,10)          -119.6094         estimate D2E/DX2                !
 ! D24   D(4,5,6,7)            176.2346         estimate D2E/DX2                !
 ! D25   D(4,5,6,19)            -2.5323         estimate D2E/DX2                !
 ! D26   D(10,5,6,7)             1.0369         estimate D2E/DX2                !
 ! D27   D(10,5,6,19)         -177.73           estimate D2E/DX2                !
 ! D28   D(4,5,10,9)          -175.9406         estimate D2E/DX2                !
 ! D29   D(4,5,10,11)            3.9064         estimate D2E/DX2                !
 ! D30   D(6,5,10,9)            -0.3937         estimate D2E/DX2                !
 ! D31   D(6,5,10,11)          179.4532         estimate D2E/DX2                !
 ! D32   D(5,6,7,8)             -0.7336         estimate D2E/DX2                !
 ! D33   D(5,6,7,20)           179.8687         estimate D2E/DX2                !
 ! D34   D(19,6,7,8)           178.0295         estimate D2E/DX2                !
 ! D35   D(19,6,7,20)           -1.3682         estimate D2E/DX2                !
 ! D36   D(6,7,8,9)             -0.2513         estimate D2E/DX2                !
 ! D37   D(6,7,8,21)          -179.836          estimate D2E/DX2                !
 ! D38   D(20,7,8,9)           179.1422         estimate D2E/DX2                !
 ! D39   D(20,7,8,21)           -0.4424         estimate D2E/DX2                !
 ! D40   D(7,8,9,10)             0.8862         estimate D2E/DX2                !
 ! D41   D(7,8,9,22)          -179.6011         estimate D2E/DX2                !
 ! D42   D(21,8,9,10)         -179.5263         estimate D2E/DX2                !
 ! D43   D(21,8,9,22)           -0.0136         estimate D2E/DX2                !
 ! D44   D(8,9,10,5)            -0.5648         estimate D2E/DX2                !
 ! D45   D(8,9,10,11)          179.5918         estimate D2E/DX2                !
 ! D46   D(22,9,10,5)          179.9172         estimate D2E/DX2                !
 ! D47   D(22,9,10,11)           0.0738         estimate D2E/DX2                !
 --------------------------------------------------------------------------------
 Trust Radius=3.00D-01 FncErr=1.00D-07 GrdErr=1.00D-06 EigMax=2.50D+02 EigMin=1.00D-04
 Number of steps in this run=    116 maximum allowed number of steps=    132.
 GradGradGradGradGradGradGradGradGradGradGradGradGradGradGradGradGradGrad

 Leave Link  103 at Tue Sep 17 09:52:46 2024, MaxMem=  1342177280 cpu:               0.0 elap:               0.0
 (Enter /groups/ReismanLab/Software/Gaussian16_RevC/Linux_Binary_AVX2-enabled-CPU/g16/l202.exe)
                          Input orientation:                          
 ---------------------------------------------------------------------
 Center     Atomic      Atomic             Coordinates (Angstroms)
 Number     Number       Type             X           Y           Z
 ---------------------------------------------------------------------
      1          6           0        2.093461    0.972260   -1.479983
      2          6           0        2.477343    0.643113   -0.039576
      3          6           0        3.649924   -0.336715    0.014031
      4          8           0        1.340671    0.226871    0.719055
      5          6           0        0.512878   -0.746738    0.242435
      6          6           0        0.884523   -2.072701    0.043092
      7          6           0       -0.046396   -3.009311   -0.372016
      8          6           0       -1.365883   -2.648759   -0.581883
      9          6           0       -1.762796   -1.339764   -0.370304
     10          6           0       -0.825861   -0.407755    0.030996
     11         35           0       -1.338570    1.397834    0.317766
     12          1           0        1.280365    1.694478   -1.498044
     13          1           0        1.774384    0.071777   -2.003769
     14          1           0        2.948198    1.395311   -2.000065
     15          1           0        2.766983    1.564072    0.480499
     16          1           0        4.560049    0.182831   -0.274688
     17          1           0        3.503217   -1.168364   -0.671193
     18          1           0        3.775742   -0.717177    1.025084
     19          1           0        1.901444   -2.374274    0.233199
     20          1           0        0.264143   -4.032272   -0.522593
     21          1           0       -2.088710   -3.382606   -0.902888
     22          1           0       -2.788196   -1.039579   -0.522057
 ---------------------------------------------------------------------
                    Distance matrix (angstroms):
                    1          2          3          4          5
     1  C    0.000000
     2  C    1.526590   0.000000
     3  C    2.523504   1.529014   0.000000
     4  O    2.440915   1.428567   2.479383   0.000000
     5  C    2.901710   2.422878   3.171962   1.363936   0.000000
     6  C    3.612904   3.149533   3.265262   2.439882   1.391415
     7  C    4.653975   4.451963   4.577618   3.686090   2.410306
     8  C    5.087772   5.089294   5.555086   4.157778   2.797665
     9  C    4.631151   4.692544   5.518276   3.643152   2.430190
    10  C    3.565100   3.467054   4.476381   2.360092   1.397082
    11  Br   3.897672   3.906211   5.290178   2.951358   2.834206
    12  H    1.087681   2.159920   3.467986   2.659519   3.094809
    13  H    1.089509   2.163014   2.784965   2.761509   2.703109
    14  H    1.086293   2.151981   2.747528   3.367939   3.943090
    15  H    2.155774   1.096601   2.147130   1.969615   3.236897
    16  H    2.856570   2.145879   1.087020   3.369549   4.184627
    17  H    2.687718   2.175502   1.087518   2.925077   3.155093
    18  H    3.458270   2.160956   1.087571   2.629535   3.355547
    19  H    3.764459   3.083941   2.693857   2.704898   2.139409
    20  H    5.413717   5.195266   5.040696   4.565183   3.382583
    21  H    6.065348   6.148217   6.561259   5.236380   3.876574
    22  H    5.366162   5.548887   6.498523   4.493528   3.401073
                    6          7          8          9         10
     6  C    0.000000
     7  C    1.384255   0.000000
     8  C    2.405569   1.383867   0.000000
     9  C    2.777840   2.394456   1.384115   0.000000
    10  C    2.386966   2.745557   2.385235   1.381134   0.000000
    11  Br   4.130641   4.644183   4.145483   2.854444   1.898751
    12  H    4.089429   5.015363   5.167755   4.442889   3.345674
    13  H    3.095202   3.933314   4.391396   4.143948   3.336389
    14  H    4.523312   5.569455   6.080875   5.685967   4.649707
    15  H    4.118385   5.436701   5.996431   5.447479   4.122946
    16  H    4.324106   5.605227   6.574872   6.504291   5.426809
    17  H    2.861046   4.009781   5.089959   5.277387   4.451125
    18  H    3.340794   4.670600   5.722732   5.745444   4.717913
    19  H    1.077596   2.136267   3.378627   3.855007   3.368423
    20  H    2.131851   1.079609   2.138833   3.373614   3.825140
    21  H    3.383910   2.142947   1.078914   2.136134   3.364026
    22  H    3.856890   3.379324   2.148491   1.079159   2.134439
                   11         12         13         14         15
    11  Br   0.000000
    12  H    3.200623   0.000000
    13  H    4.103466   1.770020   0.000000
    14  H    4.873266   1.767256   1.769066   0.000000
    15  H    4.112138   2.478239   3.063296   2.492893   0.000000
    16  H    6.051523   3.812873   3.280546   2.654260   2.386046
    17  H    5.568331   3.717610   2.510493   2.940472   3.055265
    18  H    5.579405   4.290590   3.715082   3.781396   2.553089
    19  H    4.973292   4.465164   3.317128   4.504768   4.039911
    20  H    5.723717   5.897447   4.617134   6.232634   6.212042
    21  H    4.990522   6.122227   5.297943   7.028707   7.068319
    22  H    2.957651   4.998081   4.924198   6.404640   6.216440
                   16         17         18         19         20
    16  H    0.000000
    17  H    1.760635   0.000000
    18  H    1.764811   1.776287   0.000000
    19  H    3.723562   2.199505   2.624128   0.000000
    20  H    6.023566   4.326159   5.071142   2.449680   0.000000
    21  H    7.570533   6.018821   6.724090   4.269514   2.470346
    22  H    7.453333   6.294499   6.751509   4.934019   4.274692
                   21         22
    21  H    0.000000
    22  H    2.474690   0.000000
 Stoichiometry    C9H11BrO
 Framework group  C1[X(C9H11BrO)]
 Deg. of freedom    60
 Full point group                 C1      NOp   1
 Largest Abelian subgroup         C1      NOp   1
 Largest concise Abelian subgroup C1      NOp   1
                         Standard orientation:                         
 ---------------------------------------------------------------------
 Center     Atomic      Atomic             Coordinates (Angstroms)
 Number     Number       Type             X           Y           Z
 ---------------------------------------------------------------------
      1          6           0        1.862854   -1.245069    1.410849
      2          6           0        2.174086   -1.125337   -0.078875
      3          6           0        3.481498   -0.368625   -0.315392
      4          8           0        1.060953   -0.596629   -0.801514
      5          6           0        0.444497    0.544530   -0.379547
      6          6           0        1.041522    1.800999   -0.349821
      7          6           0        0.312558    2.917499    0.021933
      8          6           0       -1.025891    2.808090    0.356108
      9          6           0       -1.646026    1.571384    0.314074
     10          6           0       -0.909253    0.459696   -0.044877
     11         35           0       -1.730027   -1.251600   -0.100115
     12          1           0        0.947738   -1.813583    1.560529
     13          1           0        1.738655   -0.257528    1.853983
     14          1           0        2.677858   -1.755401    1.916183
     15          1           0        2.266328   -2.127606   -0.514171
     16          1           0        4.316101   -1.005156   -0.032762
     17          1           0        3.529025    0.537579    0.283966
     18          1           0        3.582960   -0.113625   -1.367766
     19          1           0        2.074544    1.905848   -0.638068
     20          1           0        0.796309    3.882492    0.040108
     21          1           0       -1.590946    3.681363    0.642746
     22          1           0       -2.690345    1.465665    0.564685
 ---------------------------------------------------------------------
 Rotational constants (GHZ):           0.9534112           0.7198611           0.4503744
 Leave Link  202 at Tue Sep 17 09:52:46 2024, MaxMem=  1342177280 cpu:               0.0 elap:               0.0
 (Enter /groups/ReismanLab/Software/Gaussian16_RevC/Linux_Binary_AVX2-enabled-CPU/g16/l301.exe)
 Standard basis: 6-31G(d,p) (6D, 7F)
 Ernie: Thresh=  0.10000D-02 Tol=  0.10000D-05 Strict=F.
 There are   235 symmetry adapted cartesian basis functions of A   symmetry.
 There are   235 symmetry adapted basis functions of A   symmetry.
   235 basis functions,   440 primitive gaussians,   235 cartesian basis functions
    54 alpha electrons       54 beta electrons
       nuclear repulsion energy       892.4456147276 Hartrees.
 IExCor=  402 DFT=T Ex+Corr=B3LYP ExCW=0 ScaHFX=  0.200000
 ScaDFX=  0.800000  0.720000  1.000000  0.810000 ScalE2=  1.000000  1.000000
 IRadAn=      5 IRanWt=     -1 IRanGd=            0 ICorTp=0 IEmpDi=141
 NAtoms=   22 NActive=   22 NUniq=   22 SFac= 1.00D+00 NAtFMM=   60 NAOKFM=F Big=F
 Integral buffers will be    131072 words long.
 Raffenetti 2 integral format.
 Two-electron integral symmetry is turned on.
 R6Disp:  Grimme-D3(BJ) Dispersion energy=       -0.0444271632 Hartrees.
 Nuclear repulsion after empirical dispersion term =      892.4011875644 Hartrees.
 Leave Link  301 at Tue Sep 17 09:52:46 2024, MaxMem=  1342177280 cpu:               0.1 elap:               0.0
 (Enter /groups/ReismanLab/Software/Gaussian16_RevC/Linux_Binary_AVX2-enabled-CPU/g16/l302.exe)
 NPDir=0 NMtPBC=     1 NCelOv=     1 NCel=       1 NClECP=     1 NCelD=      1
         NCelK=      1 NCelE2=     1 NClLst=     1 CellRange=     0.0.
 One-electron integrals computed using PRISM.
 One-electron integral symmetry used in STVInt
 NBasis=   235 RedAO= T EigKep=  3.94D-04  NBF=   235
 NBsUse=   235 1.00D-06 EigRej= -1.00D+00 NBFU=   235
 Precomputing XC quadrature grid using
 IXCGrd= 4 IRadAn=           5 IRanWt=          -1 IRanGd=           0 AccXCQ= 0.00D+00.
 Generated NRdTot=       0 NPtTot=           0 NUsed=           0 NTot=          32
 NSgBfM=   234   234   234   234   234 MxSgAt=    22 MxSgA2=    22.
 Leave Link  302 at Tue Sep 17 09:52:46 2024, MaxMem=  1342177280 cpu:               0.9 elap:               0.2
 (Enter /groups/ReismanLab/Software/Gaussian16_RevC/Linux_Binary_AVX2-enabled-CPU/g16/l303.exe)
 DipDrv:  MaxL=1.
 Leave Link  303 at Tue Sep 17 09:52:46 2024, MaxMem=  1342177280 cpu:               0.1 elap:               0.0
 (Enter /groups/ReismanLab/Software/Gaussian16_RevC/Linux_Binary_AVX2-enabled-CPU/g16/l401.exe)
 ExpMin= 1.43D-01 ExpMax= 5.74D+05 ExpMxC= 5.74D+03 IAcc=3 IRadAn=         5 AccDes= 0.00D+00
 Harris functional with IExCor=  402 and IRadAn=       5 diagonalized for initial guess.
 HarFok:  IExCor=  402 AccDes= 0.00D+00 IRadAn=         5 IDoV= 1 UseB2=F ITyADJ=14
 ICtDFT=  3500011 ScaDFX=  1.000000  1.000000  1.000000  1.000000
 FoFCou: FMM=F IPFlag=           0 FMFlag=      100000 FMFlg1=           0
         NFxFlg=           0 DoJE=T BraDBF=F KetDBF=T FulRan=T
         wScrn=  0.000000 ICntrl=       500 IOpCl=  0 I1Cent=   200000004 NGrid=           0
         NMat0=    1 NMatS0=      1 NMatT0=    0 NMatD0=    1 NMtDS0=    0 NMtDT0=    0
 Petite list used in FoFCou.
 Harris En= -2996.71723676216    
 JPrj=0 DoOrth=F DoCkMO=F.
 Leave Link  401 at Tue Sep 17 09:52:47 2024, MaxMem=  1342177280 cpu:               5.8 elap:               0.8
 (Enter /groups/ReismanLab/Software/Gaussian16_RevC/Linux_Binary_AVX2-enabled-CPU/g16/l502.exe)
 Integral symmetry usage will be decided dynamically.
 Closed shell SCF:
 Using DIIS extrapolation, IDIIS=  1040.
 NGot=  1342177280 LenX=  1342061866 LenY=  1342006200
 Requested convergence on RMS density matrix=1.00D-08 within  32 cycles.
 Requested convergence on MAX density matrix=1.00D-06.
 Requested convergence on             energy=1.00D-06.
 No special actions if energy rises.
 Fock matrices will be formed incrementally for  20 cycles.
 Integral accuracy reduced to 1.0D-05 until final iterations.

 Cycle   1  Pass 0  IDiag  1:
 FoFJK:  IHMeth= 1 ICntrl=       0 DoSepK=F KAlg= 0 I1Cent=           0 FoldK=F
 IRaf= 890000000 NMat=       1 IRICut=       1 DoRegI=T DoRafI=F ISym2E= 0 IDoP0=0 IntGTp=1.
 FoFCou: FMM=F IPFlag=           0 FMFlag=      100000 FMFlg1=           0
         NFxFlg=           0 DoJE=F BraDBF=F KetDBF=F FulRan=T
         wScrn=  0.000000 ICntrl=         0 IOpCl=  0 I1Cent=           0 NGrid=           0
         NMat0=    1 NMatS0=      1 NMatT0=    0 NMatD0=    1 NMtDS0=    0 NMtDT0=    0
 Symmetry not used in FoFCou.
 E= -2996.27342228211    
 DIIS: error= 1.45D-01 at cycle   1 NSaved=   1.
 NSaved= 1 IEnMin= 1 EnMin= -2996.27342228211     IErMin= 1 ErrMin= 1.45D-01
 ErrMax= 1.45D-01  0.00D+00 EMaxC= 1.00D-01 BMatC= 6.27D-01 BMatP= 6.27D-01
 IDIUse=3 WtCom= 0.00D+00 WtEn= 1.00D+00
 Coeff-Com:  0.100D+01
 Coeff-En:   0.100D+01
 Coeff:      0.100D+01
 Gap=     0.273 Goal=   None    Shift=    0.000
 GapD=    0.273 DampG=1.000 DampE=0.250 DampFc=0.2500 IDamp=-1.
 Damping current iteration by 2.50D-01
 RMSDP=5.05D-03 MaxDP=1.43D-01              OVMax= 1.56D-01

 Cycle   2  Pass 0  IDiag  1:
 RMSU=  1.22D-03    CP:  9.92D-01
 E= -2996.37798157887     Delta-E=       -0.104559296764 Rises=F Damp=T
 DIIS: error= 1.07D-01 at cycle   2 NSaved=   2.
 NSaved= 2 IEnMin= 2 EnMin= -2996.37798157887     IErMin= 2 ErrMin= 1.07D-01
 ErrMax= 1.07D-01  0.00D+00 EMaxC= 1.00D-01 BMatC= 2.64D-01 BMatP= 6.27D-01
 IDIUse=3 WtCom= 0.00D+00 WtEn= 1.00D+00
 Coeff-Com: -0.140D+01 0.240D+01
 Coeff-En:   0.000D+00 0.100D+01
 Coeff:      0.000D+00 0.100D+01
 Gap=     0.231 Goal=   None    Shift=    0.000
 RMSDP=2.67D-03 MaxDP=1.11D-01 DE=-1.05D-01 OVMax= 6.20D-02

 Cycle   3  Pass 0  IDiag  1:
 RMSU=  8.29D-04    CP:  9.69D-01  2.94D+00
 E= -2996.49651937869     Delta-E=       -0.118537799813 Rises=F Damp=F
 DIIS: error= 1.24D-02 at cycle   3 NSaved=   3.
 NSaved= 3 IEnMin= 3 EnMin= -2996.49651937869     IErMin= 3 ErrMin= 1.24D-02
 ErrMax= 1.24D-02  0.00D+00 EMaxC= 1.00D-01 BMatC= 6.43D-02 BMatP= 2.64D-01
 IDIUse=3 WtCom= 8.76D-01 WtEn= 1.24D-01
 EnCoef did   100 forward-backward iterations
 Coeff-Com:  0.199D+01-0.259D+01 0.160D+01
 Coeff-En:   0.131D+00 0.165D-02 0.868D+00
 Coeff:      0.176D+01-0.227D+01 0.151D+01
 Gap=     0.231 Goal=   None    Shift=    0.000
 RMSDP=1.33D-03 MaxDP=3.84D-02 DE=-1.19D-01 OVMax= 4.50D-02

 Cycle   4  Pass 0  IDiag  1:
 RMSU=  5.73D-04    CP:  9.70D-01  1.98D+00  1.33D+00
 E= -2996.55655423837     Delta-E=       -0.060034859681 Rises=F Damp=F
 DIIS: error= 3.20D-03 at cycle   4 NSaved=   4.
 NSaved= 4 IEnMin= 4 EnMin= -2996.55655423837     IErMin= 4 ErrMin= 3.20D-03
 ErrMax= 3.20D-03  0.00D+00 EMaxC= 1.00D-01 BMatC= 5.81D-03 BMatP= 6.43D-02
 IDIUse=3 WtCom= 9.68D-01 WtEn= 3.20D-02
 Coeff-Com:  0.107D+01-0.141D+01 0.877D+00 0.461D+00
 Coeff-En:   0.000D+00 0.000D+00 0.000D+00 0.100D+01
 Coeff:      0.104D+01-0.137D+01 0.849D+00 0.478D+00
 Gap=     0.220 Goal=   None    Shift=    0.000
 RMSDP=4.74D-04 MaxDP=1.35D-02 DE=-6.00D-02 OVMax= 3.53D-02

 Cycle   5  Pass 0  IDiag  1:
 RMSU=  1.66D-04    CP:  9.70D-01  2.09D+00  1.42D+00  2.71D-01
 E= -2996.56198173209     Delta-E=       -0.005427493724 Rises=F Damp=F
 DIIS: error= 1.19D-03 at cycle   5 NSaved=   5.
 NSaved= 5 IEnMin= 5 EnMin= -2996.56198173209     IErMin= 5 ErrMin= 1.19D-03
 ErrMax= 1.19D-03  0.00D+00 EMaxC= 1.00D-01 BMatC= 5.41D-04 BMatP= 5.81D-03
 IDIUse=3 WtCom= 9.88D-01 WtEn= 1.19D-02
 Coeff-Com:  0.193D+00-0.254D+00 0.178D+00 0.257D+00 0.627D+00
 Coeff-En:   0.000D+00 0.000D+00 0.000D+00 0.638D-01 0.936D+00
 Coeff:      0.191D+00-0.251D+00 0.175D+00 0.254D+00 0.630D+00
 Gap=     0.220 Goal=   None    Shift=    0.000
 RMSDP=1.39D-04 MaxDP=3.43D-03 DE=-5.43D-03 OVMax= 9.49D-03

 Cycle   6  Pass 0  IDiag  1:
 RMSU=  6.05D-05    CP:  9.70D-01  2.08D+00  1.42D+00  4.35D-01  5.03D-01
 E= -2996.56251268263     Delta-E=       -0.000530950538 Rises=F Damp=F
 DIIS: error= 2.68D-04 at cycle   6 NSaved=   6.
 NSaved= 6 IEnMin= 6 EnMin= -2996.56251268263     IErMin= 6 ErrMin= 2.68D-04
 ErrMax= 2.68D-04  0.00D+00 EMaxC= 1.00D-01 BMatC= 4.83D-05 BMatP= 5.41D-04
 IDIUse=3 WtCom= 9.97D-01 WtEn= 2.68D-03
 Coeff-Com:  0.510D-01-0.671D-01 0.536D-01 0.120D+00 0.356D+00 0.487D+00
 Coeff-En:   0.000D+00 0.000D+00 0.000D+00 0.000D+00 0.000D+00 0.100D+01
 Coeff:      0.508D-01-0.669D-01 0.535D-01 0.119D+00 0.355D+00 0.488D+00
 Gap=     0.220 Goal=   None    Shift=    0.000
 RMSDP=3.84D-05 MaxDP=1.44D-03 DE=-5.31D-04 OVMax= 1.74D-03

 Cycle   7  Pass 0  IDiag  1:
 RMSU=  1.80D-05    CP:  9.70D-01  2.09D+00  1.41D+00  4.30D-01  5.91D-01
                    CP:  5.38D-01
 E= -2996.56256100873     Delta-E=       -0.000048326106 Rises=F Damp=F
 DIIS: error= 8.08D-05 at cycle   7 NSaved=   7.
 NSaved= 7 IEnMin= 7 EnMin= -2996.56256100873     IErMin= 7 ErrMin= 8.08D-05
 ErrMax= 8.08D-05  0.00D+00 EMaxC= 1.00D-01 BMatC= 3.23D-06 BMatP= 4.83D-05
 IDIUse=1 WtCom= 1.00D+00 WtEn= 0.00D+00
 Coeff-Com:  0.157D-01-0.207D-01 0.182D-01 0.483D-01 0.152D+00 0.274D+00
 Coeff-Com:  0.512D+00
 Coeff:      0.157D-01-0.207D-01 0.182D-01 0.483D-01 0.152D+00 0.274D+00
 Coeff:      0.512D+00
 Gap=     0.220 Goal=   None    Shift=    0.000
 RMSDP=9.87D-06 MaxDP=4.48D-04 DE=-4.83D-05 OVMax= 7.36D-04

 Initial convergence to 1.0D-05 achieved.  Increase integral accuracy.
 Cycle   8  Pass 1  IDiag  1:
 E= -2996.56255540607     Delta-E=        0.000005602666 Rises=F Damp=F
 DIIS: error= 5.16D-05 at cycle   1 NSaved=   1.
 NSaved= 1 IEnMin= 1 EnMin= -2996.56255540607     IErMin= 1 ErrMin= 5.16D-05
 ErrMax= 5.16D-05  0.00D+00 EMaxC= 1.00D-01 BMatC= 4.39D-07 BMatP= 4.39D-07
 IDIUse=1 WtCom= 1.00D+00 WtEn= 0.00D+00
 Coeff-Com:  0.100D+01
 Coeff:      0.100D+01
 Gap=     0.220 Goal=   None    Shift=    0.000
 RMSDP=9.87D-06 MaxDP=4.48D-04 DE= 5.60D-06 OVMax= 6.24D-04

 Cycle   9  Pass 1  IDiag  1:
 RMSU=  1.26D-05    CP:  1.00D+00
 E= -2996.56255485832     Delta-E=        0.000000547751 Rises=F Damp=F
 DIIS: error= 4.18D-05 at cycle   2 NSaved=   2.
 NSaved= 2 IEnMin= 1 EnMin= -2996.56255540607     IErMin= 2 ErrMin= 4.18D-05
 ErrMax= 4.18D-05  0.00D+00 EMaxC= 1.00D-01 BMatC= 8.73D-07 BMatP= 4.39D-07
 IDIUse=1 WtCom= 1.00D+00 WtEn= 0.00D+00
 Coeff-Com:  0.596D+00 0.404D+00
 Coeff:      0.596D+00 0.404D+00
 Gap=     0.220 Goal=   None    Shift=    0.000
 RMSDP=5.02D-06 MaxDP=1.91D-04 DE= 5.48D-07 OVMax= 4.50D-04

 Cycle  10  Pass 1  IDiag  1:
 RMSU=  4.15D-06    CP:  1.00D+00  7.76D-01
 E= -2996.56255575564     Delta-E=       -0.000000897324 Rises=F Damp=F
 DIIS: error= 1.04D-05 at cycle   3 NSaved=   3.
 NSaved= 3 IEnMin= 3 EnMin= -2996.56255575564     IErMin= 3 ErrMin= 1.04D-05
 ErrMax= 1.04D-05  0.00D+00 EMaxC= 1.00D-01 BMatC= 4.08D-08 BMatP= 4.39D-07
 IDIUse=1 WtCom= 1.00D+00 WtEn= 0.00D+00
 Coeff-Com:  0.118D+00 0.191D+00 0.691D+00
 Coeff:      0.118D+00 0.191D+00 0.691D+00
 Gap=     0.220 Goal=   None    Shift=    0.000
 RMSDP=1.29D-06 MaxDP=4.79D-05 DE=-8.97D-07 OVMax= 7.94D-05

 Cycle  11  Pass 1  IDiag  1:
 RMSU=  1.03D-06    CP:  1.00D+00  8.10D-01  8.44D-01
 E= -2996.56255578986     Delta-E=       -0.000000034220 Rises=F Damp=F
 DIIS: error= 3.92D-06 at cycle   4 NSaved=   4.
 NSaved= 4 IEnMin= 4 EnMin= -2996.56255578986     IErMin= 4 ErrMin= 3.92D-06
 ErrMax= 3.92D-06  0.00D+00 EMaxC= 1.00D-01 BMatC= 1.05D-08 BMatP= 4.08D-08
 IDIUse=1 WtCom= 1.00D+00 WtEn= 0.00D+00
 Coeff-Com:  0.779D-03 0.687D-01 0.422D+00 0.508D+00
 Coeff:      0.779D-03 0.687D-01 0.422D+00 0.508D+00
 Gap=     0.220 Goal=   None    Shift=    0.000
 RMSDP=5.29D-07 MaxDP=1.84D-05 DE=-3.42D-08 OVMax= 2.11D-05

 Cycle  12  Pass 1  IDiag  1:
 RMSU=  1.46D-07    CP:  1.00D+00  8.13D-01  8.60D-01  5.14D-01
 E= -2996.56255580066     Delta-E=       -0.000000010796 Rises=F Damp=F
 DIIS: error= 6.77D-07 at cycle   5 NSaved=   5.
 NSaved= 5 IEnMin= 5 EnMin= -2996.56255580066     IErMin= 5 ErrMin= 6.77D-07
 ErrMax= 6.77D-07  0.00D+00 EMaxC= 1.00D-01 BMatC= 2.36D-10 BMatP= 1.05D-08
 IDIUse=1 WtCom= 1.00D+00 WtEn= 0.00D+00
 Coeff-Com: -0.185D-02 0.349D-01 0.224D+00 0.287D+00 0.456D+00
 Coeff:     -0.185D-02 0.349D-01 0.224D+00 0.287D+00 0.456D+00
 Gap=     0.220 Goal=   None    Shift=    0.000
 RMSDP=8.50D-08 MaxDP=2.90D-06 DE=-1.08D-08 OVMax= 5.87D-06

 Cycle  13  Pass 1  IDiag  1:
 RMSU=  5.53D-08    CP:  1.00D+00  8.14D-01  8.61D-01  5.29D-01  5.73D-01
 E= -2996.56255580085     Delta-E=       -0.000000000197 Rises=F Damp=F
 DIIS: error= 1.68D-07 at cycle   6 NSaved=   6.
 NSaved= 6 IEnMin= 6 EnMin= -2996.56255580085     IErMin= 6 ErrMin= 1.68D-07
 ErrMax= 1.68D-07  0.00D+00 EMaxC= 1.00D-01 BMatC= 1.56D-11 BMatP= 2.36D-10
 IDIUse=1 WtCom= 1.00D+00 WtEn= 0.00D+00
 Coeff-Com: -0.100D-02 0.125D-01 0.823D-01 0.108D+00 0.251D+00 0.547D+00
 Coeff:     -0.100D-02 0.125D-01 0.823D-01 0.108D+00 0.251D+00 0.547D+00
 Gap=     0.220 Goal=   None    Shift=    0.000
 RMSDP=2.25D-08 MaxDP=7.29D-07 DE=-1.97D-10 OVMax= 1.81D-06

 Cycle  14  Pass 1  IDiag  1:
 RMSU=  1.44D-08    CP:  1.00D+00  8.14D-01  8.61D-01  5.29D-01  6.35D-01
                    CP:  7.34D-01
 E= -2996.56255580083     Delta-E=        0.000000000024 Rises=F Damp=F
 DIIS: error= 4.83D-08 at cycle   7 NSaved=   7.
 NSaved= 7 IEnMin= 6 EnMin= -2996.56255580085     IErMin= 7 ErrMin= 4.83D-08
 ErrMax= 4.83D-08  0.00D+00 EMaxC= 1.00D-01 BMatC= 1.22D-12 BMatP= 1.56D-11
 IDIUse=1 WtCom= 1.00D+00 WtEn= 0.00D+00
 Coeff-Com: -0.363D-03 0.329D-02 0.227D-01 0.310D-01 0.893D-01 0.283D+00
 Coeff-Com:  0.571D+00
 Coeff:     -0.363D-03 0.329D-02 0.227D-01 0.310D-01 0.893D-01 0.283D+00
 Coeff:      0.571D+00
 Gap=     0.220 Goal=   None    Shift=    0.000
 RMSDP=6.36D-09 MaxDP=1.92D-07 DE= 2.36D-11 OVMax= 4.89D-07

 SCF Done:  E(RB3LYP) =  -2996.56255580     A.U. after   14 cycles
            NFock= 14  Conv=0.64D-08     -V/T= 2.0066
 KE= 2.977023037016D+03 PE=-8.904984040765D+03 EE= 2.038997260384D+03
 Leave Link  502 at Tue Sep 17 09:53:01 2024, MaxMem=  1342177280 cpu:             104.9 elap:              13.8
 (Enter /groups/ReismanLab/Software/Gaussian16_RevC/Linux_Binary_AVX2-enabled-CPU/g16/l508.exe)
 QCSCF skips out because SCF is already converged.
 Leave Link  508 at Tue Sep 17 09:53:01 2024, MaxMem=  1342177280 cpu:               0.0 elap:               0.0
 (Enter /groups/ReismanLab/Software/Gaussian16_RevC/Linux_Binary_AVX2-enabled-CPU/g16/l601.exe)
 Copying SCF densities to generalized density rwf, IOpCl= 0 IROHF=0.

 **********************************************************************

            Population analysis using the SCF Density.

 **********************************************************************

 Orbital symmetries:
       Occupied  (A) (A) (A) (A) (A) (A) (A) (A) (A) (A) (A) (A)
                 (A) (A) (A) (A) (A) (A) (A) (A) (A) (A) (A) (A)
                 (A) (A) (A) (A) (A) (A) (A) (A) (A) (A) (A) (A)
                 (A) (A) (A) (A) (A) (A) (A) (A) (A) (A) (A) (A)
                 (A) (A) (A) (A) (A) (A)
       Virtual   (A) (A) (A) (A) (A) (A) (A) (A) (A) (A) (A) (A)
                 (A) (A) (A) (A) (A) (A) (A) (A) (A) (A) (A) (A)
                 (A) (A) (A) (A) (A) (A) (A) (A) (A) (A) (A) (A)
                 (A) (A) (A) (A) (A) (A) (A) (A) (A) (A) (A) (A)
                 (A) (A) (A) (A) (A) (A) (A) (A) (A) (A) (A) (A)
                 (A) (A) (A) (A) (A) (A) (A) (A) (A) (A) (A) (A)
                 (A) (A) (A) (A) (A) (A) (A) (A) (A) (A) (A) (A)
                 (A) (A) (A) (A) (A) (A) (A) (A) (A) (A) (A) (A)
                 (A) (A) (A) (A) (A) (A) (A) (A) (A) (A) (A) (A)
                 (A) (A) (A) (A) (A) (A) (A) (A) (A) (A) (A) (A)
                 (A) (A) (A) (A) (A) (A) (A) (A) (A) (A) (A) (A)
                 (A) (A) (A) (A) (A) (A) (A) (A) (A) (A) (A) (A)
                 (A) (A) (A) (A) (A) (A) (A) (A) (A) (A) (A) (A)
                 (A) (A) (A) (A) (A) (A) (A) (A) (A) (A) (A) (A)
                 (A) (A) (A) (A) (A) (A) (A) (A) (A) (A) (A) (A)
                 (A)
 The electronic state is 1-A.
 Alpha  occ. eigenvalues -- -482.90333 -61.86464 -56.38572 -56.38155 -56.38144
 Alpha  occ. eigenvalues --  -19.16389 -10.25227 -10.24613 -10.23657 -10.19864
 Alpha  occ. eigenvalues --  -10.19537 -10.19421 -10.19294 -10.18022 -10.17565
 Alpha  occ. eigenvalues --   -8.57541  -6.52932  -6.51668  -6.51592  -2.64503
 Alpha  occ. eigenvalues --   -2.64152  -2.64094  -2.63084  -2.63083  -1.05816
 Alpha  occ. eigenvalues --   -0.87172  -0.80083  -0.78955  -0.74845  -0.71796
 Alpha  occ. eigenvalues --   -0.69577  -0.63798  -0.60859  -0.57693  -0.51223
 Alpha  occ. eigenvalues --   -0.49454  -0.48357  -0.47139  -0.44876  -0.43243
 Alpha  occ. eigenvalues --   -0.42099  -0.41399  -0.39967  -0.38734  -0.37738
 Alpha  occ. eigenvalues --   -0.36718  -0.36329  -0.34848  -0.32563  -0.30776
 Alpha  occ. eigenvalues --   -0.29009  -0.26824  -0.24844  -0.22963
 Alpha virt. eigenvalues --   -0.00972  -0.00240   0.01729   0.09206   0.10423
 Alpha virt. eigenvalues --    0.12400   0.13537   0.13929   0.15747   0.16091
 Alpha virt. eigenvalues --    0.16704   0.16980   0.17767   0.19062   0.19287
 Alpha virt. eigenvalues --    0.20355   0.21980   0.26142   0.27027   0.28110
 Alpha virt. eigenvalues --    0.29289   0.29930   0.33673   0.35678   0.43166
 Alpha virt. eigenvalues --    0.44016   0.46445   0.47192   0.47237   0.48428
 Alpha virt. eigenvalues --    0.49200   0.50169   0.51914   0.52928   0.53534
 Alpha virt. eigenvalues --    0.54688   0.55444   0.57560   0.58462   0.59968
 Alpha virt. eigenvalues --    0.60221   0.60405   0.61088   0.62431   0.63820
 Alpha virt. eigenvalues --    0.65336   0.67315   0.68324   0.71257   0.73235
 Alpha virt. eigenvalues --    0.74548   0.77262   0.78914   0.79877   0.81418
 Alpha virt. eigenvalues --    0.82412   0.83204   0.86689   0.86918   0.88553
 Alpha virt. eigenvalues --    0.88658   0.89518   0.90056   0.91183   0.91526
 Alpha virt. eigenvalues --    0.94836   0.96896   0.98058   0.99439   1.01132
 Alpha virt. eigenvalues --    1.04345   1.06449   1.10886   1.12142   1.14976
 Alpha virt. eigenvalues --    1.19636   1.22251   1.22441   1.26693   1.29925
 Alpha virt. eigenvalues --    1.31878   1.33871   1.37381   1.40155   1.40935
 Alpha virt. eigenvalues --    1.43114   1.45732   1.49287   1.53802   1.56694
 Alpha virt. eigenvalues --    1.60763   1.61330   1.66818   1.68497   1.71775
 Alpha virt. eigenvalues --    1.77128   1.78555   1.81919   1.82093   1.82576
 Alpha virt. eigenvalues --    1.86534   1.87897   1.91120   1.93665   1.94759
 Alpha virt. eigenvalues --    1.95120   1.98790   1.99817   2.00619   2.03566
 Alpha virt. eigenvalues --    2.04774   2.05410   2.06424   2.06955   2.09372
 Alpha virt. eigenvalues --    2.10656   2.11633   2.12445   2.13866   2.20152
 Alpha virt. eigenvalues --    2.24079   2.28243   2.29086   2.29843   2.33647
 Alpha virt. eigenvalues --    2.35047   2.37017   2.38904   2.39361   2.40586
 Alpha virt. eigenvalues --    2.41321   2.46154   2.47302   2.51667   2.53476
 Alpha virt. eigenvalues --    2.54497   2.57518   2.58034   2.59665   2.62711
 Alpha virt. eigenvalues --    2.64863   2.69197   2.70576   2.71170   2.72185
 Alpha virt. eigenvalues --    2.74546   2.78986   2.80965   2.84668   2.90198
 Alpha virt. eigenvalues --    2.90804   2.91696   2.97339   3.03130   3.04449
 Alpha virt. eigenvalues --    3.11865   3.20014   3.21790   3.24936   3.25745
 Alpha virt. eigenvalues --    3.33208   3.34971   3.36079   3.43550   3.47788
 Alpha virt. eigenvalues --    3.48878   3.49396   3.53258   3.85524   4.11419
 Alpha virt. eigenvalues --    4.13699   4.15845   4.29367   4.36674   4.41235
 Alpha virt. eigenvalues --    4.52710   4.55140   4.67265   4.83283   8.64587
 Alpha virt. eigenvalues --   73.38234
          Condensed to atoms (all electrons):
               1          2          3          4          5          6
     1  C    5.016247   0.362004  -0.067624  -0.048821  -0.000698  -0.002111
     2  C    0.362004   4.657303   0.358040   0.251312  -0.030937  -0.002640
     3  C   -0.067624   0.358040   5.038960  -0.050143  -0.008353   0.000874
     4  O   -0.048821   0.251312  -0.050143   8.294705   0.267285  -0.061589
     5  C   -0.000698  -0.030937  -0.008353   0.267285   4.637647   0.485443
     6  C   -0.002111  -0.002640   0.000874  -0.061589   0.485443   4.990841
     7  C   -0.000177   0.000109  -0.000059   0.004100  -0.011323   0.504716
     8  C    0.000020   0.000017  -0.000002  -0.000004  -0.042654  -0.031111
     9  C   -0.000051  -0.000079   0.000015   0.004426  -0.018984  -0.047460
    10  C    0.001716  -0.001620  -0.000553  -0.079218   0.466072  -0.075901
    11  Br  -0.003999   0.001274   0.000083  -0.002515  -0.061450   0.007506
    12  H    0.377966  -0.026532   0.005593   0.000794  -0.001139   0.000243
    13  H    0.382835  -0.030286  -0.009365  -0.005032   0.006804   0.001382
    14  H    0.368176  -0.026569  -0.000601   0.003376   0.000014  -0.000012
    15  H   -0.046758   0.405960  -0.055268  -0.043830   0.003583  -0.000240
    16  H    0.000838  -0.022665   0.361739   0.003097   0.000195   0.000023
    17  H   -0.008850  -0.030942   0.378810  -0.000492   0.001385  -0.000667
    18  H    0.005795  -0.028722   0.374263   0.001759   0.000009  -0.000828
    19  H    0.000428  -0.000701   0.000678  -0.004456  -0.036957   0.363303
    20  H   -0.000002  -0.000001   0.000004  -0.000057   0.003659  -0.036098
    21  H    0.000000   0.000000   0.000000   0.000002   0.000807   0.004852
    22  H   -0.000001   0.000001  -0.000000  -0.000054   0.004762   0.000303
               7          8          9         10         11         12
     1  C   -0.000177   0.000020  -0.000051   0.001716  -0.003999   0.377966
     2  C    0.000109   0.000017  -0.000079  -0.001620   0.001274  -0.026532
     3  C   -0.000059  -0.000002   0.000015  -0.000553   0.000083   0.005593
     4  O    0.004100  -0.000004   0.004426  -0.079218  -0.002515   0.000794
     5  C   -0.011323  -0.042654  -0.018984   0.466072  -0.061450  -0.001139
     6  C    0.504716  -0.031111  -0.047460  -0.075901   0.007506   0.000243
     7  C    4.827062   0.545358  -0.031323  -0.037173  -0.000055   0.000005
     8  C    0.545358   4.821858   0.518728  -0.030349   0.005793  -0.000005
     9  C   -0.031323   0.518728   4.889507   0.512726  -0.066044   0.000018
    10  C   -0.037173  -0.030349   0.512726   4.997830   0.256270  -0.000915
    11  Br  -0.000055   0.005793  -0.066044   0.256270  34.981934   0.006969
    12  H    0.000005  -0.000005   0.000018  -0.000915   0.006969   0.568238
    13  H    0.000205  -0.000042  -0.000067   0.000111  -0.000084  -0.030155
    14  H    0.000000  -0.000000   0.000003   0.000008   0.000062  -0.025491
    15  H    0.000009  -0.000000   0.000009   0.000071   0.000066  -0.004852
    16  H   -0.000001   0.000000  -0.000000   0.000014   0.000000  -0.000115
    17  H    0.000297  -0.000008   0.000001  -0.000021  -0.000007   0.000056
    18  H    0.000006   0.000002  -0.000003   0.000010   0.000003  -0.000219
    19  H   -0.040351   0.004839   0.000527   0.005742  -0.000161  -0.000016
    20  H    0.367418  -0.040535   0.004855   0.000765   0.000009   0.000000
    21  H   -0.040252   0.370090  -0.039149   0.004470  -0.000158   0.000000
    22  H    0.005009  -0.039790   0.368791  -0.038853  -0.003316  -0.000000
              13         14         15         16         17         18
     1  C    0.382835   0.368176  -0.046758   0.000838  -0.008850   0.005795
     2  C   -0.030286  -0.026569   0.405960  -0.022665  -0.030942  -0.028722
     3  C   -0.009365  -0.000601  -0.055268   0.361739   0.378810   0.374263
     4  O   -0.005032   0.003376  -0.043830   0.003097  -0.000492   0.001759
     5  C    0.006804   0.000014   0.003583   0.000195   0.001385   0.000009
     6  C    0.001382  -0.000012  -0.000240   0.000023  -0.000667  -0.000828
     7  C    0.000205   0.000000   0.000009  -0.000001   0.000297   0.000006
     8  C   -0.000042  -0.000000  -0.000000   0.000000  -0.000008   0.000002
     9  C   -0.000067   0.000003   0.000009  -0.000000   0.000001  -0.000003
    10  C    0.000111   0.000008   0.000071   0.000014  -0.000021   0.000010
    11  Br  -0.000084   0.000062   0.000066   0.000000  -0.000007   0.000003
    12  H   -0.030155  -0.025491  -0.004852  -0.000115   0.000056  -0.000219
    13  H    0.587016  -0.029734   0.005408  -0.000044   0.006049   0.000022
    14  H   -0.029734   0.606326  -0.001821   0.001188  -0.000090  -0.000059
    15  H    0.005408  -0.001821   0.632665  -0.004380   0.005758  -0.002601
    16  H   -0.000044   0.001188  -0.004380   0.606594  -0.029004  -0.025328
    17  H    0.006049  -0.000090   0.005758  -0.029004   0.602003  -0.033282
    18  H    0.000022  -0.000059  -0.002601  -0.025328  -0.033282   0.588991
    19  H   -0.000168  -0.000009  -0.000075   0.000073   0.001163   0.002196
    20  H   -0.000002   0.000000  -0.000000  -0.000000  -0.000010  -0.000002
    21  H   -0.000000  -0.000000   0.000000  -0.000000   0.000000   0.000000
    22  H   -0.000002  -0.000000  -0.000000   0.000000  -0.000000   0.000000
              19         20         21         22
     1  C    0.000428  -0.000002   0.000000  -0.000001
     2  C   -0.000701  -0.000001   0.000000   0.000001
     3  C    0.000678   0.000004   0.000000  -0.000000
     4  O   -0.004456  -0.000057   0.000002  -0.000054
     5  C   -0.036957   0.003659   0.000807   0.004762
     6  C    0.363303  -0.036098   0.004852   0.000303
     7  C   -0.040351   0.367418  -0.040252   0.005009
     8  C    0.004839  -0.040535   0.370090  -0.039790
     9  C    0.000527   0.004855  -0.039149   0.368791
    10  C    0.005742   0.000765   0.004470  -0.038853
    11  Br  -0.000161   0.000009  -0.000158  -0.003316
    12  H   -0.000016   0.000000   0.000000  -0.000000
    13  H   -0.000168  -0.000002  -0.000000  -0.000002
    14  H   -0.000009   0.000000  -0.000000  -0.000000
    15  H   -0.000075  -0.000000   0.000000  -0.000000
    16  H    0.000073  -0.000000  -0.000000   0.000000
    17  H    0.001163  -0.000010   0.000000  -0.000000
    18  H    0.002196  -0.000002   0.000000   0.000000
    19  H    0.614862  -0.006874  -0.000200   0.000016
    20  H   -0.006874   0.623059  -0.006171  -0.000199
    21  H   -0.000200  -0.006171   0.621444  -0.006347
    22  H    0.000016  -0.000199  -0.006347   0.601866
 Mulliken charges:
               1
     1  C   -0.336934
     2  C    0.165675
     3  C   -0.327092
     4  O   -0.534646
     5  C    0.334830
     6  C   -0.100829
     7  C   -0.093581
     8  C   -0.082202
     9  C   -0.096446
    10  C    0.018798
    11  Br  -0.122181
    12  H    0.129557
    13  H    0.115153
    14  H    0.105232
    15  H    0.106298
    16  H    0.107776
    17  H    0.107851
    18  H    0.117989
    19  H    0.096142
    20  H    0.090182
    21  H    0.090612
    22  H    0.107816
 Sum of Mulliken charges =  -0.00000
 Mulliken charges with hydrogens summed into heavy atoms:
               1
     1  C    0.013008
     2  C    0.271973
     3  C    0.006523
     4  O   -0.534646
     5  C    0.334830
     6  C   -0.004687
     7  C   -0.003399
     8  C    0.008410
     9  C    0.011370
    10  C    0.018798
    11  Br  -0.122181
 Electronic spatial extent (au):  <R**2>=           2444.2445
 Charge=             -0.0000 electrons
 Dipole moment (field-independent basis, Debye):
    X=              1.8447    Y=              1.2810    Z=              1.0203  Tot=              2.4668
 Quadrupole moment (field-independent basis, Debye-Ang):
   XX=            -71.1810   YY=            -71.2803   ZZ=            -80.4543
   XY=             -2.7273   XZ=             -0.6883   YZ=             -0.0720
 Traceless Quadrupole moment (field-independent basis, Debye-Ang):
   XX=              3.1242   YY=              3.0249   ZZ=             -6.1491
   XY=             -2.7273   XZ=             -0.6883   YZ=             -0.0720
 Octapole moment (field-independent basis, Debye-Ang**2):
  XXX=            -38.5801  YYY=            -31.2657  ZZZ=             -6.2532  XYY=            -15.2934
  XXY=            -14.1213  XXZ=             -0.0329  XZZ=            -15.0760  YZZ=            -17.9067
  YYZ=              1.7244  XYZ=             -4.4524
 Hexadecapole moment (field-independent basis, Debye-Ang**3):
 XXXX=          -1527.1370 YYYY=          -1134.3716 ZZZZ=           -245.2089 XXXY=             37.4855
 XXXZ=             -6.2096 YYYX=             65.9177 YYYZ=             21.3623 ZZZX=              1.7878
 ZZZY=              4.4171 XXYY=           -430.7641 XXZZ=           -302.4719 YYZZ=           -257.6340
 XXYZ=              4.3747 YYXZ=             -7.7208 ZZXY=             21.2581
 N-N= 8.924011875644D+02 E-N=-8.904984040935D+03  KE= 2.977023037016D+03
 No NMR shielding tensors so no spin-rotation constants.
 Leave Link  601 at Tue Sep 17 09:53:01 2024, MaxMem=  1342177280 cpu:               0.4 elap:               0.1
 (Enter /groups/ReismanLab/Software/Gaussian16_RevC/Linux_Binary_AVX2-enabled-CPU/g16/l701.exe)
 ... and contract with generalized density number  0.
 Compute integral first derivatives.
 R6Disp: Adding Grimme-D3(BJ) dispersion energy 1st derivatives to the gradient.
 Leave Link  701 at Tue Sep 17 09:53:01 2024, MaxMem=  1342177280 cpu:               0.5 elap:               0.1
 (Enter /groups/ReismanLab/Software/Gaussian16_RevC/Linux_Binary_AVX2-enabled-CPU/g16/l702.exe)
 L702 exits ... SP integral derivatives will be done elsewhere.
 Leave Link  702 at Tue Sep 17 09:53:01 2024, MaxMem=  1342177280 cpu:               0.0 elap:               0.0
 (Enter /groups/ReismanLab/Software/Gaussian16_RevC/Linux_Binary_AVX2-enabled-CPU/g16/l703.exe)
 Integral derivatives from FoFJK, PRISM(SPDF).
 Compute integral first derivatives, UseDBF=F ICtDFT=           0.
 Calling FoFJK, ICntrl=      2127 FMM=F ISym2X=0 I1Cent= 0 IOpClX= 0 NMat=1 NMatS=1 NMatT=0.
 FoFJK:  IHMeth= 1 ICntrl=    2127 DoSepK=F KAlg= 0 I1Cent=           0 FoldK=F
 IRaf=         0 NMat=       1 IRICut=       1 DoRegI=T DoRafI=F ISym2E= 0 IDoP0=0 IntGTp=1.
 FoFCou: FMM=F IPFlag=           0 FMFlag=      100000 FMFlg1=         800
         NFxFlg=           0 DoJE=F BraDBF=F KetDBF=F FulRan=T
         wScrn=  0.000000 ICntrl=      2127 IOpCl=  0 I1Cent=           0 NGrid=           0
         NMat0=    1 NMatS0=      1 NMatT0=    0 NMatD0=    1 NMtDS0=    0 NMtDT0=    0
 Symmetry not used in FoFCou.
 Leave Link  703 at Tue Sep 17 09:53:06 2024, MaxMem=  1342177280 cpu:              35.6 elap:               4.5
 (Enter /groups/ReismanLab/Software/Gaussian16_RevC/Linux_Binary_AVX2-enabled-CPU/g16/l716.exe)
 Dipole        = 7.25773072D-01 5.03998315D-01 4.01415281D-01
 ***** Axes restored to original set *****
 -------------------------------------------------------------------
 Center     Atomic                   Forces (Hartrees/Bohr)
 Number     Number              X              Y              Z
 -------------------------------------------------------------------
      1        6          -0.001280347    0.001695330    0.005380345
      2        6           0.006811360    0.004763945   -0.007743422
      3        6          -0.004682769    0.002825235    0.002877057
      4        8          -0.002478354   -0.008104246    0.007412725
      5        6          -0.000881807    0.005070422    0.002250185
      6        6           0.007531186    0.000282675    0.001572110
      7        6           0.001623621   -0.006148353   -0.001530594
      8        6          -0.004006259   -0.004502536   -0.001748166
      9        6          -0.005341271    0.001916541   -0.001058581
     10        6           0.001085988    0.008377687    0.001616350
     11       35          -0.003390348    0.003754658   -0.000916336
     12        1          -0.003358531    0.001609716   -0.000295706
     13        1          -0.000602001   -0.002048124   -0.002178393
     14        1           0.003724572    0.001340448   -0.003293864
     15        1           0.000409442   -0.000898846   -0.001204439
     16        1           0.004459491    0.001385311   -0.001730036
     17        1           0.000236282   -0.003479271   -0.001821178
     18        1           0.001362408   -0.001853480    0.003393847
     19        1           0.003452564   -0.000427958    0.001090542
     20        1           0.001336213   -0.003948107   -0.000549418
     21        1          -0.003021270   -0.003004697   -0.001187174
     22        1          -0.002990171    0.001393648   -0.000335853
 -------------------------------------------------------------------
 Cartesian Forces:  Max     0.008377687 RMS     0.003492424
 Leave Link  716 at Tue Sep 17 09:53:06 2024, MaxMem=  1342177280 cpu:               0.0 elap:               0.0
 (Enter /groups/ReismanLab/Software/Gaussian16_RevC/Linux_Binary_AVX2-enabled-CPU/g16/l103.exe)

 GradGradGradGradGradGradGradGradGradGradGradGradGradGradGradGradGradGrad
 Berny optimization.
 FormGI is forming the generalized inverse of G from B-inverse, IUseBI=4.
 Internal  Forces:  Max     0.010823650 RMS     0.003176133
 Search for a local minimum.
 Step number   1 out of a maximum of  116
 All quantities printed in internal units (Hartrees-Bohrs-Radians)
 RMS Force = .31761D-02 SwitMx=.10000D-02 MixMth= 1
 Mixed Optimization -- RFO/linear search
 Second derivative matrix not updated -- first step.
 ITU=  0
     Eigenvalues ---    0.00382   0.00414   0.01314   0.02169   0.02171
     Eigenvalues ---    0.02202   0.02235   0.02251   0.02283   0.02299
     Eigenvalues ---    0.02301   0.02308   0.02321   0.03909   0.04738
     Eigenvalues ---    0.05538   0.05674   0.05745   0.05811   0.07462
     Eigenvalues ---    0.15996   0.15999   0.15999   0.16000   0.16000
     Eigenvalues ---    0.16000   0.16000   0.16000   0.16000   0.16000
     Eigenvalues ---    0.17301   0.18312   0.20544   0.21999   0.22489
     Eigenvalues ---    0.24471   0.24909   0.25000   0.25000   0.29515
     Eigenvalues ---    0.29741   0.34061   0.34869   0.35082   0.35095
     Eigenvalues ---    0.35101   0.35159   0.35245   0.36042   0.36096
     Eigenvalues ---    0.36126   0.36286   0.41196   0.42988   0.43511
     Eigenvalues ---    0.46995   0.47712   0.48364   0.48699   0.52160
 RFO step:  Lambda=-3.88322604D-03 EMin= 3.82154111D-03
 Linear search not attempted -- first point.
 Iteration  1 RMS(Cart)=  0.09666715 RMS(Int)=  0.00233967
 Iteration  2 RMS(Cart)=  0.00518921 RMS(Int)=  0.00009278
 Iteration  3 RMS(Cart)=  0.00001128 RMS(Int)=  0.00009257
 Iteration  4 RMS(Cart)=  0.00000000 RMS(Int)=  0.00009257
 ITry= 1 IFail=0 DXMaxC= 3.73D-01 DCOld= 1.00D+10 DXMaxT= 3.00D-01 DXLimC= 3.00D+00 Rises=F
 Variable       Old X    -DE/DX   Delta X   Delta X   Delta X     New X
                                 (Linear)    (Quad)   (Total)
    R1        2.88484   0.00130   0.00000   0.00433   0.00433   2.88917
    R2        2.05542   0.00358   0.00000   0.01010   0.01010   2.06552
    R3        2.05887   0.00292   0.00000   0.00827   0.00827   2.06714
    R4        2.05280   0.00503   0.00000   0.01412   0.01412   2.06691
    R5        2.88942   0.00187   0.00000   0.00625   0.00625   2.89567
    R6        2.69960   0.01070   0.00000   0.02573   0.02573   2.72533
    R7        2.07228  -0.00122   0.00000  -0.00353  -0.00353   2.06874
    R8        2.05417   0.00485   0.00000   0.01366   0.01366   2.06783
    R9        2.05511   0.00378   0.00000   0.01064   0.01064   2.06575
   R10        2.05521   0.00396   0.00000   0.01117   0.01117   2.06638
   R11        2.57746   0.00110   0.00000   0.00210   0.00210   2.57956
   R12        2.62939   0.00826   0.00000   0.01720   0.01722   2.64661
   R13        2.64010   0.00958   0.00000   0.02034   0.02037   2.66048
   R14        2.61586   0.01008   0.00000   0.02074   0.02072   2.63658
   R15        2.03636   0.00357   0.00000   0.00973   0.00973   2.04610
   R16        2.61513   0.00984   0.00000   0.02040   0.02037   2.63550
   R17        2.04017   0.00420   0.00000   0.01153   0.01153   2.05170
   R18        2.61560   0.01082   0.00000   0.02241   0.02240   2.63800
   R19        2.03885   0.00442   0.00000   0.01211   0.01211   2.05096
   R20        2.60996   0.00984   0.00000   0.01992   0.01995   2.62991
   R21        2.03932   0.00328   0.00000   0.00898   0.00898   2.04830
   R22        3.58812   0.00435   0.00000   0.02325   0.02325   3.61137
    A1        1.92497   0.00011   0.00000   0.00175   0.00173   1.92670
    A2        1.92736   0.00070   0.00000   0.00200   0.00200   1.92936
    A3        1.91542   0.00104   0.00000   0.00754   0.00752   1.92294
    A4        1.89852  -0.00070   0.00000  -0.00654  -0.00654   1.89198
    A5        1.89828  -0.00005   0.00000   0.00415   0.00411   1.90239
    A6        1.89879  -0.00115   0.00000  -0.00913  -0.00913   1.88966
    A7        1.94345   0.00441   0.00000   0.02323   0.02325   1.96671
    A8        1.94314  -0.00159   0.00000  -0.00404  -0.00410   1.93904
    A9        1.91010  -0.00159   0.00000  -0.01244  -0.01239   1.89771
   A10        1.98762  -0.00172   0.00000  -0.00479  -0.00486   1.98276
   A11        1.89547  -0.00123   0.00000  -0.00855  -0.00848   1.88699
   A12        1.77522   0.00131   0.00000   0.00349   0.00343   1.77866
   A13        1.90339   0.00094   0.00000   0.00588   0.00586   1.90924
   A14        1.94390   0.00099   0.00000   0.00552   0.00551   1.94941
   A15        1.92356   0.00109   0.00000   0.00703   0.00701   1.93057
   A16        1.88714  -0.00107   0.00000  -0.00726  -0.00727   1.87987
   A17        1.89363  -0.00087   0.00000  -0.00422  -0.00425   1.88939
   A18        1.91117  -0.00116   0.00000  -0.00742  -0.00743   1.90373
   A19        2.10055  -0.00030   0.00000  -0.00118  -0.00118   2.09937
   A20        2.17512  -0.00625   0.00000  -0.02352  -0.02372   2.15139
   A21        2.05021   0.00433   0.00000   0.01832   0.01815   2.06836
   A22        2.05498   0.00198   0.00000   0.00747   0.00739   2.06237
   A23        2.10380   0.00042   0.00000   0.00131   0.00132   2.10512
   A24        2.08688  -0.00090   0.00000  -0.00493  -0.00494   2.08194
   A25        2.09230   0.00048   0.00000   0.00346   0.00344   2.09574
   A26        2.10646  -0.00104   0.00000  -0.00421  -0.00425   2.10221
   A27        2.08231   0.00038   0.00000   0.00124   0.00126   2.08357
   A28        2.09437   0.00066   0.00000   0.00296   0.00297   2.09734
   A29        2.09052  -0.00029   0.00000  -0.00046  -0.00050   2.09002
   A30        2.10215   0.00019   0.00000   0.00054   0.00054   2.10269
   A31        2.09049   0.00010   0.00000  -0.00002  -0.00002   2.09048
   A32        2.08067   0.00155   0.00000   0.00709   0.00712   2.08780
   A33        2.11070  -0.00025   0.00000  -0.00039  -0.00041   2.11029
   A34        2.09178  -0.00129   0.00000  -0.00673  -0.00675   2.08503
   A35        2.12974  -0.00259   0.00000  -0.01089  -0.01094   2.11880
   A36        2.05626   0.00590   0.00000   0.02361   0.02343   2.07969
   A37        2.09718  -0.00330   0.00000  -0.01265  -0.01282   2.08436
    D1       -3.10932  -0.00057   0.00000  -0.01917  -0.01915  -3.12847
    D2        0.93515  -0.00053   0.00000  -0.02819  -0.02821   0.90695
    D3       -1.01354  -0.00035   0.00000  -0.02325  -0.02330  -1.03684
    D4        1.07490  -0.00022   0.00000  -0.01343  -0.01340   1.06150
    D5       -1.16381  -0.00018   0.00000  -0.02246  -0.02246  -1.18627
    D6       -3.11250  -0.00001   0.00000  -0.01752  -0.01755  -3.13005
    D7       -1.01827   0.00010   0.00000  -0.00818  -0.00814  -1.02641
    D8        3.02620   0.00014   0.00000  -0.01721  -0.01720   3.00900
    D9        1.07750   0.00032   0.00000  -0.01227  -0.01229   1.06522
   D10        1.26861  -0.00039   0.00000  -0.03765  -0.03767   1.23094
   D11       -0.81274  -0.00028   0.00000  -0.03583  -0.03584  -0.84859
   D12       -2.93759  -0.00022   0.00000  -0.03499  -0.03500  -2.97259
   D13       -2.79993  -0.00025   0.00000  -0.02744  -0.02744  -2.82737
   D14        1.40190  -0.00013   0.00000  -0.02562  -0.02562   1.37628
   D15       -0.72295  -0.00008   0.00000  -0.02478  -0.02477  -0.74772
   D16       -0.83579  -0.00035   0.00000  -0.03108  -0.03108  -0.86686
   D17       -2.91714  -0.00024   0.00000  -0.02927  -0.02925  -2.94639
   D18        1.24120  -0.00019   0.00000  -0.02843  -0.02841   1.21279
   D19        0.87980   0.00172   0.00000   0.01434   0.01432   0.89412
   D20       -1.33500  -0.00155   0.00000  -0.01006  -0.01004  -1.34504
   D21        2.91276  -0.00010   0.00000   0.00014   0.00013   2.91289
   D22        1.13762   0.00277   0.00000   0.11073   0.11079   1.24841
   D23       -2.08758   0.00374   0.00000   0.14392   0.14386  -1.94372
   D24        3.07587   0.00064   0.00000   0.01665   0.01639   3.09226
   D25       -0.04420   0.00081   0.00000   0.02518   0.02491  -0.01929
   D26        0.01810  -0.00043   0.00000  -0.01708  -0.01706   0.00104
   D27       -3.10197  -0.00026   0.00000  -0.00856  -0.00854  -3.11051
   D28       -3.07074  -0.00016   0.00000  -0.01510  -0.01561  -3.08635
   D29        0.06818   0.00059   0.00000   0.01510   0.01498   0.08316
   D30       -0.00687   0.00032   0.00000   0.01417   0.01419   0.00732
   D31        3.13205   0.00108   0.00000   0.04437   0.04478  -3.10636
   D32       -0.01280   0.00019   0.00000   0.00587   0.00574  -0.00707
   D33        3.13930   0.00020   0.00000   0.00747   0.00742  -3.13646
   D34        3.10720   0.00000   0.00000  -0.00279  -0.00295   3.10425
   D35       -0.02388   0.00001   0.00000  -0.00118  -0.00127  -0.02515
   D36       -0.00439   0.00023   0.00000   0.00921   0.00919   0.00481
   D37       -3.13873  -0.00001   0.00000   0.00012   0.00017  -3.13856
   D38        3.12662   0.00022   0.00000   0.00759   0.00748   3.13411
   D39       -0.00772  -0.00002   0.00000  -0.00151  -0.00154  -0.00926
   D40        0.01547  -0.00033   0.00000  -0.01213  -0.01203   0.00344
   D41       -3.13463  -0.00040   0.00000  -0.01607  -0.01600   3.13255
   D42       -3.13332  -0.00010   0.00000  -0.00309  -0.00307  -3.13640
   D43       -0.00024  -0.00016   0.00000  -0.00704  -0.00704  -0.00728
   D44       -0.00986   0.00006   0.00000   0.00034   0.00025  -0.00960
   D45        3.13447  -0.00073   0.00000  -0.03061  -0.03047   3.10400
   D46        3.14015   0.00012   0.00000   0.00421   0.00413  -3.13890
   D47        0.00129  -0.00067   0.00000  -0.02674  -0.02659  -0.02530
         Item               Value     Threshold  Converged?
 Maximum Force            0.010824     0.000450     NO 
 RMS     Force            0.003176     0.000300     NO 
 Maximum Displacement     0.373455     0.001800     NO 
 RMS     Displacement     0.099608     0.001200     NO 
 Predicted change in Energy=-2.057056D-03
 Lowest energy point so far.  Saving SCF results.
 GradGradGradGradGradGradGradGradGradGradGradGradGradGradGradGradGradGrad

 Leave Link  103 at Tue Sep 17 09:53:06 2024, MaxMem=  1342177280 cpu:               0.1 elap:               0.0
 (Enter /groups/ReismanLab/Software/Gaussian16_RevC/Linux_Binary_AVX2-enabled-CPU/g16/l202.exe)
                          Input orientation:                          
 ---------------------------------------------------------------------
 Center     Atomic      Atomic             Coordinates (Angstroms)
 Number     Number       Type             X           Y           Z
 ---------------------------------------------------------------------
      1          6           0        2.031842    1.043017   -1.423445
      2          6           0        2.492135    0.630013   -0.025220
      3          6           0        3.666037   -0.354363   -0.056269
      4          8           0        1.380596    0.178130    0.774887
      5          6           0        0.526963   -0.771956    0.293227
      6          6           0        0.881081   -2.118874    0.145292
      7          6           0       -0.053969   -3.054859   -0.297707
      8          6           0       -1.359949   -2.664207   -0.592398
      9          6           0       -1.731993   -1.326455   -0.448437
     10          6           0       -0.793636   -0.394243   -0.015694
     11         35           0       -1.291767    1.445741    0.120142
     12          1           0        1.204122    1.753815   -1.357444
     13          1           0        1.693321    0.170346   -1.989515
     14          1           0        2.857274    1.507473   -1.970492
     15          1           0        2.812504    1.524831    0.518012
     16          1           0        4.567706    0.165990   -0.393317
     17          1           0        3.481660   -1.181432   -0.746873
     18          1           0        3.856472   -0.758012    0.941980
     19          1           0        1.883567   -2.434612    0.405434
     20          1           0        0.240873   -4.094692   -0.400603
     21          1           0       -2.088427   -3.392433   -0.934347
     22          1           0       -2.739497   -1.000684   -0.680113
 ---------------------------------------------------------------------
                    Distance matrix (angstroms):
                    1          2          3          4          5
     1  C    0.000000
     2  C    1.528881   0.000000
     3  C    2.548026   1.532321   0.000000
     4  O    2.450472   1.442181   2.489500   0.000000
     5  C    2.916462   2.434918   3.185957   1.365045   0.000000
     6  C    3.712511   3.190760   3.303044   2.433542   1.400526
     7  C    4.733970   4.487224   4.603196   3.696032   2.428648
     8  C    5.092975   5.100209   5.557279   4.178389   2.815205
     9  C    4.553184   4.674413   5.498863   3.667221   2.441396
    10  C    3.468545   3.441727   4.460037   2.383257   1.407864
    11  Br   3.686627   3.873558   5.277435   3.029365   2.873310
    12  H    1.093028   2.167194   3.492635   2.657209   3.092374
    13  H    1.093885   2.169759   2.811471   2.782045   2.731160
    14  H    1.093763   2.165028   2.790122   3.388928   3.968698
    15  H    2.147285   1.094730   2.142356   1.982410   3.247993
    16  H    2.874187   2.158428   1.094247   3.394483   4.204604
    17  H    2.740054   2.186613   1.093148   2.928930   3.159069
    18  H    3.488297   2.173363   1.093480   2.652215   3.392154
    19  H    3.932008   3.154005   2.778093   2.686242   2.148812
    20  H    5.536229   5.247088   5.083343   4.575779   3.406439
    21  H    6.073635   6.163451   6.566182   5.263508   3.900526
    22  H    5.243561   5.518880   6.468213   4.525682   3.416060
                    6          7          8          9         10
     6  C    0.000000
     7  C    1.395219   0.000000
     8  C    2.421527   1.394645   0.000000
     9  C    2.794387   2.413683   1.395967   0.000000
    10  C    2.409345   2.775881   2.409571   1.391689   0.000000
    11  Br   4.174731   4.686378   4.171814   2.863939   1.911054
    12  H    4.166568   5.082241   5.165140   4.351451   3.225754
    13  H    3.233831   4.039454   4.394211   4.043280   3.224855
    14  H    4.640287   5.664663   6.089912   5.604388   4.557072
    15  H    4.140760   5.464030   6.015847   5.451267   4.119701
    16  H    4.370573   5.634083   6.571662   6.474306   5.403745
    17  H    2.904783   4.026431   5.065931   5.224201   4.408225
    18  H    3.367433   4.701476   5.761852   5.786824   4.761615
    19  H    1.082748   2.152477   3.401291   3.876775   3.392325
    20  H    2.147493   1.085713   2.155389   3.399651   3.861565
    21  H    3.406692   2.158306   1.085321   2.152074   3.392573
    22  H    3.878173   3.402636   2.162905   1.083912   2.143734
                   11         12         13         14         15
    11  Br   0.000000
    12  H    2.916784   0.000000
    13  H    3.871438   1.773753   0.000000
    14  H    4.646407   1.780287   1.772866   0.000000
    15  H    4.124269   2.481262   3.061844   2.488966   0.000000
    16  H    6.019537   3.842451   3.287850   2.685635   2.399521
    17  H    5.517187   3.765057   2.563127   3.019489   3.061300
    18  H    5.660063   4.316433   3.759619   3.822736   2.545779
    19  H    5.022079   4.594813   3.543696   4.704589   4.068511
    20  H    5.772050   6.004034   4.777531   6.379213   6.247894
    21  H    5.015430   6.124031   5.301735   7.038653   7.092810
    22  H    2.953189   4.857795   4.768200   6.267358   6.215983
                   16         17         18         19         20
    16  H    0.000000
    17  H    1.766365   0.000000
    18  H    1.772753   1.781009   0.000000
    19  H    3.821745   2.334988   2.644092   0.000000
    20  H    6.072475   4.371463   5.099855   2.470629   0.000000
    21  H    7.566981   5.995793   6.767762   4.299903   2.490720
    22  H    7.405309   6.224140   6.796829   4.960573   4.305069
                   21         22
    21  H    0.000000
    22  H    2.491785   0.000000
 Stoichiometry    C9H11BrO
 Framework group  C1[X(C9H11BrO)]
 Deg. of freedom    60
 Full point group                 C1      NOp   1
 RotChk:  IX=0 Diff= 1.08D-01
 Largest Abelian subgroup         C1      NOp   1
 Largest concise Abelian subgroup C1      NOp   1
                         Standard orientation:                         
 ---------------------------------------------------------------------
 Center     Atomic      Atomic             Coordinates (Angstroms)
 Number     Number       Type             X           Y           Z
 ---------------------------------------------------------------------
      1          6           0        1.658381   -1.415337    1.333902
      2          6           0        2.141919   -1.164070   -0.094570
      3          6           0        3.484663   -0.427383   -0.142946
      4          8           0        1.112318   -0.540742   -0.889094
      5          6           0        0.475906    0.578568   -0.435800
      6          6           0        1.089124    1.835762   -0.365815
      7          6           0        0.368834    2.955393    0.051612
      8          6           0       -0.977241    2.840963    0.398057
      9          6           0       -1.606123    1.596427    0.332012
     10          6           0       -0.881509    0.480314   -0.075450
     11         35           0       -1.731043   -1.231285   -0.104554
     12          1           0        0.706866   -1.953154    1.324831
     13          1           0        1.514900   -0.468581    1.862723
     14          1           0        2.396385   -2.006635    1.883479
     15          1           0        2.264094   -2.127944   -0.599007
     16          1           0        4.279408   -1.097864    0.197954
     17          1           0        3.487732    0.450266    0.508739
     18          1           0        3.715473   -0.114439   -1.164949
     19          1           0        2.124302    1.937606   -0.666442
     20          1           0        0.862898    3.921256    0.093819
     21          1           0       -1.538702    3.712138    0.720138
     22          1           0       -2.649137    1.484441    0.604856
 ---------------------------------------------------------------------
 Rotational constants (GHZ):           0.9339774           0.7311413           0.4498590
 Leave Link  202 at Tue Sep 17 09:53:06 2024, MaxMem=  1342177280 cpu:               0.0 elap:               0.0
 (Enter /groups/ReismanLab/Software/Gaussian16_RevC/Linux_Binary_AVX2-enabled-CPU/g16/l301.exe)
 Standard basis: 6-31G(d,p) (6D, 7F)
 Ernie: Thresh=  0.10000D-02 Tol=  0.10000D-05 Strict=F.
 There are   235 symmetry adapted cartesian basis functions of A   symmetry.
 There are   235 symmetry adapted basis functions of A   symmetry.
   235 basis functions,   440 primitive gaussians,   235 cartesian basis functions
    54 alpha electrons       54 beta electrons
       nuclear repulsion energy       889.6563236850 Hartrees.
 IExCor=  402 DFT=T Ex+Corr=B3LYP ExCW=0 ScaHFX=  0.200000
 ScaDFX=  0.800000  0.720000  1.000000  0.810000 ScalE2=  1.000000  1.000000
 IRadAn=      5 IRanWt=     -1 IRanGd=            0 ICorTp=0 IEmpDi=141
 NAtoms=   22 NActive=   22 NUniq=   22 SFac= 1.00D+00 NAtFMM=   60 NAOKFM=F Big=F
 Integral buffers will be    131072 words long.
 Raffenetti 2 integral format.
 Two-electron integral symmetry is turned on.
 R6Disp:  Grimme-D3(BJ) Dispersion energy=       -0.0444749658 Hartrees.
 Nuclear repulsion after empirical dispersion term =      889.6118487192 Hartrees.
 Leave Link  301 at Tue Sep 17 09:53:06 2024, MaxMem=  1342177280 cpu:               0.1 elap:               0.0
 (Enter /groups/ReismanLab/Software/Gaussian16_RevC/Linux_Binary_AVX2-enabled-CPU/g16/l302.exe)
 NPDir=0 NMtPBC=     1 NCelOv=     1 NCel=       1 NClECP=     1 NCelD=      1
         NCelK=      1 NCelE2=     1 NClLst=     1 CellRange=     0.0.
 One-electron integrals computed using PRISM.
 One-electron integral symmetry used in STVInt
 NBasis=   235 RedAO= T EigKep=  4.28D-04  NBF=   235
 NBsUse=   235 1.00D-06 EigRej= -1.00D+00 NBFU=   235
 Precomputing XC quadrature grid using
[...]
       Virtual   (A) (A) (A) (A) (A) (A) (A) (A) (A) (A) (A) (A)
                 (A) (A) (A) (A) (A) (A) (A) (A) (A) (A) (A) (A)
                 (A) (A) (A) (A) (A) (A) (A) (A) (A) (A) (A) (A)
                 (A) (A) (A) (A) (A) (A) (A) (A) (A) (A) (A) (A)
                 (A) (A) (A) (A) (A) (A) (A) (A) (A) (A) (A) (A)
                 (A) (A) (A) (A) (A) (A) (A) (A) (A) (A) (A) (A)
                 (A) (A) (A) (A) (A) (A) (A) (A) (A) (A) (A) (A)
                 (A) (A) (A) (A) (A) (A) (A) (A) (A) (A) (A) (A)
                 (A) (A) (A) (A) (A) (A) (A) (A) (A) (A) (A) (A)
                 (A) (A) (A) (A) (A) (A) (A) (A) (A) (A) (A) (A)
                 (A) (A) (A) (A) (A) (A) (A) (A) (A) (A) (A) (A)
                 (A) (A) (A) (A) (A) (A) (A) (A) (A) (A) (A) (A)
                 (A) (A) (A) (A) (A) (A) (A) (A) (A) (A) (A) (A)
                 (A) (A) (A) (A) (A) (A) (A) (A) (A) (A) (A) (A)
                 (A) (A) (A) (A) (A) (A) (A) (A) (A) (A) (A) (A)
                 (A) (A) (A) (A) (A) (A) (A) (A) (A) (A) (A) (A)
                 (A) (A) (A) (A) (A) (A) (A) (A) (A) (A) (A) (A)
                 (A) (A) (A) (A) (A) (A) (A) (A) (A) (A) (A) (A)
                 (A) (A) (A) (A) (A) (A) (A) (A) (A) (A) (A) (A)
                 (A) (A) (A) (A) (A) (A) (A) (A) (A) (A) (A) (A)
                 (A) (A) (A) (A) (A) (A) (A) (A) (A) (A) (A) (A)
                 (A) (A) (A) (A) (A) (A) (A) (A) (A) (A) (A) (A)
                 (A) (A) (A) (A) (A) (A) (A) (A) (A) (A) (A) (A)
                 (A) (A) (A) (A) (A) (A) (A) (A) (A) (A) (A) (A)
                 (A) (A) (A) (A) (A) (A) (A) (A) (A) (A) (A) (A)
                 (A) (A) (A) (A) (A) (A) (A) (A) (A) (A) (A) (A)
                 (A) (A) (A) (A) (A) (A) (A) (A) (A) (A) (A) (A)
                 (A) (A) (A) (A) (A) (A) (A) (A) (A) (A) (A) (A)
                 (A) (A) (A) (A) (A) (A) (A) (A) (A) (A) (A) (A)
                 (A) (A) (A) (A) (A) (A) (A) (A) (A) (A) (A) (A)
                 (A) (A) (A) (A) (A) (A) (A) (A) (A) (A)
 The electronic state is 1-A.
 Alpha  occ. eigenvalues -- -485.37225 -63.35694 -57.17642 -57.17406 -57.17393
 Alpha  occ. eigenvalues --  -19.64052 -10.61027 -10.59889 -10.59601 -10.55572
 Alpha  occ. eigenvalues --  -10.55101 -10.54917 -10.54888 -10.52482 -10.52311
 Alpha  occ. eigenvalues --   -9.02331  -6.84745  -6.83871  -6.83828  -2.88123
 Alpha  occ. eigenvalues --   -2.87812  -2.87766  -2.86951  -2.86950  -1.17555
 Alpha  occ. eigenvalues --   -0.97392  -0.89829  -0.88655  -0.84154  -0.81198
 Alpha  occ. eigenvalues --   -0.78237  -0.71612  -0.69309  -0.65480  -0.58497
 Alpha  occ. eigenvalues --   -0.56715  -0.55646  -0.54597  -0.51481  -0.50004
 Alpha  occ. eigenvalues --   -0.48616  -0.47735  -0.46236  -0.44847  -0.43802
 Alpha  occ. eigenvalues --   -0.43064  -0.42746  -0.40847  -0.38948  -0.37557
 Alpha  occ. eigenvalues --   -0.35443  -0.33989  -0.30830  -0.29134
 Alpha virt. eigenvalues --    0.00888   0.01641   0.03995   0.07415   0.09627
 Alpha virt. eigenvalues --    0.10436   0.10865   0.12664   0.13002   0.13785
 Alpha virt. eigenvalues --    0.14203   0.15292   0.15731   0.16789   0.17138
 Alpha virt. eigenvalues --    0.17675   0.18450   0.18751   0.21468   0.22648
 Alpha virt. eigenvalues --    0.22810   0.23664   0.24306   0.24765   0.25773
 Alpha virt. eigenvalues --    0.26248   0.26632   0.27786   0.28145   0.29084
 Alpha virt. eigenvalues --    0.30036   0.31013   0.31210   0.32297   0.33194
 Alpha virt. eigenvalues --    0.34169   0.34630   0.35071   0.36612   0.37648
 Alpha virt. eigenvalues --    0.38368   0.38497   0.39647   0.40342   0.41410
 Alpha virt. eigenvalues --    0.42647   0.42958   0.44090   0.44457   0.45528
 Alpha virt. eigenvalues --    0.46080   0.46284   0.47815   0.48093   0.48786
 Alpha virt. eigenvalues --    0.49185   0.50895   0.51186   0.51247   0.51816
 Alpha virt. eigenvalues --    0.53152   0.53507   0.53800   0.55223   0.55856
 Alpha virt. eigenvalues --    0.57178   0.57553   0.58914   0.59595   0.61945
 Alpha virt. eigenvalues --    0.63619   0.65328   0.65720   0.67921   0.68705
 Alpha virt. eigenvalues --    0.70905   0.71447   0.73872   0.74009   0.75866
 Alpha virt. eigenvalues --    0.76887   0.78307   0.78832   0.80224   0.81286
 Alpha virt. eigenvalues --    0.83472   0.84772   0.85443   0.87131   0.89500
 Alpha virt. eigenvalues --    0.90898   0.91570   0.92295   0.92752   0.95012
 Alpha virt. eigenvalues --    0.95062   0.96952   0.99582   1.00754   1.03068
 Alpha virt. eigenvalues --    1.04355   1.04787   1.07727   1.08563   1.09339
 Alpha virt. eigenvalues --    1.10399   1.12110   1.13166   1.13655   1.16707
 Alpha virt. eigenvalues --    1.17598   1.20506   1.21179   1.22339   1.23573
 Alpha virt. eigenvalues --    1.23748   1.25174   1.25700   1.26499   1.28067
 Alpha virt. eigenvalues --    1.29376   1.30677   1.32579   1.35302   1.37821
 Alpha virt. eigenvalues --    1.39505   1.41302   1.43315   1.44973   1.46716
 Alpha virt. eigenvalues --    1.47312   1.48917   1.50864   1.52849   1.53418
 Alpha virt. eigenvalues --    1.55458   1.56998   1.57190   1.58001   1.59356
 Alpha virt. eigenvalues --    1.59598   1.60822   1.61113   1.61591   1.62616
 Alpha virt. eigenvalues --    1.62779   1.63301   1.64911   1.65854   1.67190
 Alpha virt. eigenvalues --    1.67513   1.69554   1.70408   1.71504   1.72888
 Alpha virt. eigenvalues --    1.73000   1.74045   1.75842   1.76549   1.76733
 Alpha virt. eigenvalues --    1.78347   1.80445   1.81483   1.84216   1.84937
 Alpha virt. eigenvalues --    1.86925   1.87772   1.89189   1.90268   1.91424
 Alpha virt. eigenvalues --    1.94300   1.95452   1.96709   1.98648   2.00166
 Alpha virt. eigenvalues --    2.01830   2.02858   2.05263   2.06441   2.08418
 Alpha virt. eigenvalues --    2.09672   2.13172   2.14523   2.16445   2.17603
 Alpha virt. eigenvalues --    2.19335   2.20414   2.21285   2.24588   2.26254
 Alpha virt. eigenvalues --    2.28488   2.32748   2.33892   2.35672   2.36149
 Alpha virt. eigenvalues --    2.38038   2.38527   2.41771   2.41937   2.42801
 Alpha virt. eigenvalues --    2.44554   2.46304   2.47288   2.48563   2.49839
 Alpha virt. eigenvalues --    2.51357   2.55443   2.56834   2.58833   2.59870
 Alpha virt. eigenvalues --    2.60348   2.61735   2.62885   2.63518   2.64223
 Alpha virt. eigenvalues --    2.65847   2.66517   2.67111   2.68191   2.69871
 Alpha virt. eigenvalues --    2.71136   2.71890   2.72542   2.74359   2.76075
 Alpha virt. eigenvalues --    2.77410   2.78119   2.78960   2.82373   2.82695
 Alpha virt. eigenvalues --    2.83506   2.85340   2.86643   2.87569   2.90058
 Alpha virt. eigenvalues --    2.90487   2.91043   2.93226   2.95007   2.98985
 Alpha virt. eigenvalues --    3.00325   3.02473   3.04192   3.06666   3.08265
 Alpha virt. eigenvalues --    3.08603   3.09759   3.11820   3.12277   3.13233
 Alpha virt. eigenvalues --    3.15292   3.15725   3.16716   3.18282   3.19179
 Alpha virt. eigenvalues --    3.20409   3.23043   3.23678   3.24177   3.25636
 Alpha virt. eigenvalues --    3.27087   3.27480   3.29047   3.29444   3.31301
 Alpha virt. eigenvalues --    3.32921   3.35431   3.35916   3.36435   3.36963
 Alpha virt. eigenvalues --    3.40680   3.41729   3.42294   3.43231   3.44101
 Alpha virt. eigenvalues --    3.45650   3.46903   3.49350   3.49830   3.50475
 Alpha virt. eigenvalues --    3.51548   3.52448   3.54164   3.55503   3.57973
 Alpha virt. eigenvalues --    3.59672   3.61500   3.62552   3.64068   3.66018
 Alpha virt. eigenvalues --    3.69680   3.72329   3.75064   3.77799   3.81481
 Alpha virt. eigenvalues --    3.83220   3.86808   3.90731   3.92038   3.97768
 Alpha virt. eigenvalues --    3.99345   4.01228   4.02062   4.03863   4.05440
 Alpha virt. eigenvalues --    4.06434   4.07537   4.08344   4.13002   4.14030
 Alpha virt. eigenvalues --    4.14670   4.16268   4.18378   4.19021   4.20502
 Alpha virt. eigenvalues --    4.21967   4.22211   4.26109   4.28296   4.29789
 Alpha virt. eigenvalues --    4.35533   4.36230   4.36805   4.37590   4.40874
 Alpha virt. eigenvalues --    4.46448   4.47252   4.51379   4.53340   4.55678
 Alpha virt. eigenvalues --    4.58103   4.59254   4.63561   4.65999   4.74955
 Alpha virt. eigenvalues --    4.76377   4.77129   4.82045   4.82634   4.95043
 Alpha virt. eigenvalues --    4.97222   5.02270   5.05502   5.21005   5.21839
 Alpha virt. eigenvalues --    5.32506   5.40769   5.45864   5.49921   5.84228
 Alpha virt. eigenvalues --    5.97995   6.14921   6.27194   6.33293   6.73586
 Alpha virt. eigenvalues --    6.81632   7.08055   7.20919   7.26707   7.87829
 Alpha virt. eigenvalues --   22.13346  22.49773  22.51960  22.64635  22.68373
 Alpha virt. eigenvalues --   22.73287  22.85411  22.89658  23.32230  44.50248
          Condensed to atoms (all electrons):
               1          2          3          4          5          6
     1  C    5.208166   0.225092  -0.083998  -0.048835   0.016179  -0.005076
     2  C    0.225092   5.034437   0.300078   0.226788  -0.065485  -0.001901
     3  C   -0.083998   0.300078   5.169121  -0.045675  -0.000259  -0.006070
     4  O   -0.048835   0.226788  -0.045675   8.037714   0.310001  -0.057508
     5  C    0.016179  -0.065485  -0.000259   0.310001   5.316191   0.262802
     6  C   -0.005076  -0.001901  -0.006070  -0.057508   0.262802   5.245903
     7  C    0.000346   0.000291   0.001007   0.009869   0.059733   0.333712
     8  C    0.000017  -0.000822  -0.000510  -0.001805  -0.145055   0.038595
     9  C   -0.000407   0.005015   0.001185   0.015286   0.132291  -0.165713
    10  C    0.014953  -0.018985  -0.004396  -0.087353   0.117864   0.120979
    11  Br  -0.012258   0.003738  -0.000522  -0.007294  -0.143555   0.022245
    12  H    0.417840  -0.046112   0.010600   0.000970  -0.003683   0.002133
    13  H    0.398311  -0.019185  -0.012629  -0.002669   0.013319  -0.014416
    14  H    0.399243  -0.026769   0.000011   0.004506  -0.001427  -0.000123
    15  H   -0.051372   0.441432  -0.061942  -0.043932   0.000737  -0.002872
    16  H    0.002555  -0.035866   0.400802   0.005289  -0.000122   0.000736
    17  H   -0.010171  -0.015497   0.392143  -0.002829   0.007928  -0.007336
    18  H    0.012348  -0.058708   0.419777   0.004023   0.003110  -0.001325
    19  H    0.000990  -0.002161  -0.005633   0.000472  -0.046074   0.418201
    20  H   -0.000026   0.000077   0.000091  -0.000168   0.007034  -0.030547
    21  H   -0.000007  -0.000005  -0.000000   0.000006  -0.001643   0.007312
    22  H   -0.000038   0.000019   0.000008  -0.000019   0.013600  -0.002292
               7          8          9         10         11         12
     1  C    0.000346   0.000017  -0.000407   0.014953  -0.012258   0.417840
     2  C    0.000291  -0.000822   0.005015  -0.018985   0.003738  -0.046112
     3  C    0.001007  -0.000510   0.001185  -0.004396  -0.000522   0.010600
     4  O    0.009869  -0.001805   0.015286  -0.087353  -0.007294   0.000970
     5  C    0.059733  -0.145055   0.132291   0.117864  -0.143555  -0.003683
     6  C    0.333712   0.038595  -0.165713   0.120979   0.022245   0.002133
     7  C    5.052670   0.443596   0.028212  -0.109595  -0.003704  -0.000043
     8  C    0.443596   5.008574   0.388455   0.061185   0.016225  -0.000037
     9  C    0.028212   0.388455   5.236144   0.232616  -0.089777   0.001499
    10  C   -0.109595   0.061185   0.232616   5.311148   0.390260  -0.004757
    11  Br  -0.003704   0.016225  -0.089777   0.390260  34.931142   0.001855
    12  H   -0.000043  -0.000037   0.001499  -0.004757   0.001855   0.502389
    13  H    0.003817  -0.001447   0.002951  -0.011226  -0.000368  -0.027181
    14  H   -0.000012   0.000002  -0.000001   0.000327   0.000931  -0.013765
    15  H    0.000495  -0.000124   0.000308  -0.001384   0.000825  -0.006693
    16  H    0.000018   0.000013  -0.000033   0.000270  -0.000001  -0.000233
    17  H    0.003956  -0.000694   0.000523  -0.002099   0.000031  -0.000346
    18  H   -0.000464   0.000081  -0.000146   0.000421   0.000010  -0.000363
    19  H   -0.029240   0.005491  -0.002593   0.008904  -0.000165   0.000025
    20  H    0.410593  -0.035103   0.006119  -0.001975   0.000022   0.000000
    21  H   -0.036983   0.417211  -0.036531   0.006214  -0.000385   0.000002
    22  H    0.004796  -0.033063   0.410168  -0.042237  -0.003034   0.000067
              13         14         15         16         17         18
     1  C    0.398311   0.399243  -0.051372   0.002555  -0.010171   0.012348
     2  C   -0.019185  -0.026769   0.441432  -0.035866  -0.015497  -0.058708
     3  C   -0.012629   0.000011  -0.061942   0.400802   0.392143   0.419777
     4  O   -0.002669   0.004506  -0.043932   0.005289  -0.002829   0.004023
     5  C    0.013319  -0.001427   0.000737  -0.000122   0.007928   0.003110
     6  C   -0.014416  -0.000123  -0.002872   0.000736  -0.007336  -0.001325
     7  C    0.003817  -0.000012   0.000495   0.000018   0.003956  -0.000464
     8  C   -0.001447   0.000002  -0.000124   0.000013  -0.000694   0.000081
     9  C    0.002951  -0.000001   0.000308  -0.000033   0.000523  -0.000146
    10  C   -0.011226   0.000327  -0.001384   0.000270  -0.002099   0.000421
    11  Br  -0.000368   0.000931   0.000825  -0.000001   0.000031   0.000010
    12  H   -0.027181  -0.013765  -0.006693  -0.000233  -0.000346  -0.000363
    13  H    0.512345  -0.023398   0.008025   0.000416   0.004468  -0.000258
    14  H   -0.023398   0.506551  -0.004586  -0.000577  -0.000041  -0.000302
    15  H    0.008025  -0.004586   0.584424  -0.004776   0.009189  -0.006583
    16  H    0.000416  -0.000577  -0.004776   0.510219  -0.024625  -0.012600
    17  H    0.004468  -0.000041   0.009189  -0.024625   0.536384  -0.030155
    18  H   -0.000258  -0.000302  -0.006583  -0.012600  -0.030155   0.503191
    19  H   -0.000892  -0.000033  -0.000773   0.000819  -0.010527   0.000929
    20  H    0.000019   0.000000   0.000001  -0.000003   0.000084  -0.000009
    21  H   -0.000009  -0.000000  -0.000000  -0.000000  -0.000001   0.000000
    22  H   -0.000009  -0.000001  -0.000002  -0.000000   0.000000  -0.000000
              19         20         21         22
     1  C    0.000990  -0.000026  -0.000007  -0.000038
     2  C   -0.002161   0.000077  -0.000005   0.000019
     3  C   -0.005633   0.000091  -0.000000   0.000008
     4  O    0.000472  -0.000168   0.000006  -0.000019
     5  C   -0.046074   0.007034  -0.001643   0.013600
     6  C    0.418201  -0.030547   0.007312  -0.002292
     7  C   -0.029240   0.410593  -0.036983   0.004796
     8  C    0.005491  -0.035103   0.417211  -0.033063
     9  C   -0.002593   0.006119  -0.036531   0.410168
    10  C    0.008904  -0.001975   0.006214  -0.042237
    11  Br  -0.000165   0.000022  -0.000385  -0.003034
    12  H    0.000025   0.000000   0.000002   0.000067
    13  H   -0.000892   0.000019  -0.000009  -0.000009
    14  H   -0.000033   0.000000  -0.000000  -0.000001
    15  H   -0.000773   0.000001  -0.000000  -0.000002
    16  H    0.000819  -0.000003  -0.000000  -0.000000
    17  H   -0.010527   0.000084  -0.000001   0.000000
    18  H    0.000929  -0.000009   0.000000  -0.000000
    19  H    0.465284  -0.002960  -0.000116   0.000053
    20  H   -0.002960   0.484794  -0.003477  -0.000168
    21  H   -0.000116  -0.003477   0.486103  -0.002936
    22  H    0.000053  -0.000168  -0.002936   0.478148
 Mulliken charges:
               1
     1  C   -0.483850
     2  C    0.054530
     3  C   -0.473189
     4  O   -0.316834
     5  C    0.146515
     6  C   -0.157439
     7  C   -0.173070
     8  C   -0.160786
     9  C   -0.165572
    10  C    0.018867
    11  Br  -0.106219
    12  H    0.165833
    13  H    0.170018
    14  H    0.159464
    15  H    0.139602
    16  H    0.157700
    17  H    0.149618
    18  H    0.167022
    19  H    0.200001
    20  H    0.165604
    21  H    0.165246
    22  H    0.176941
 Sum of Mulliken charges =  -0.00000
 Mulliken charges with hydrogens summed into heavy atoms:
               1
     1  C    0.011464
     2  C    0.194131
     3  C    0.001150
     4  O   -0.316834
     5  C    0.146515
     6  C    0.042562
     7  C   -0.007466
     8  C    0.004460
     9  C    0.011369
    10  C    0.018867
    11  Br  -0.106219
 Electronic spatial extent (au):  <R**2>=           2430.1389
 Charge=             -0.0000 electrons
 Dipole moment (field-independent basis, Debye):
    X=              1.9715    Y=              1.4350    Z=              1.4572  Tot=              2.8407
 Quadrupole moment (field-independent basis, Debye-Ang):
   XX=            -72.0650   YY=            -70.7090   ZZ=            -82.8240
   XY=             -3.1089   XZ=             -0.7861   YZ=             -0.0963
 Traceless Quadrupole moment (field-independent basis, Debye-Ang):
   XX=              3.1344   YY=              4.4903   ZZ=             -7.6247
   XY=             -3.1089   XZ=             -0.7861   YZ=             -0.0963
 Octapole moment (field-independent basis, Debye-Ang**2):
  XXX=            -36.4496  YYY=            -23.7169  ZZZ=             -6.2282  XYY=            -12.5977
  XXY=            -13.3409  XXZ=              1.0540  XZZ=            -15.4324  YZZ=            -18.4887
  YYZ=              3.4359  XYZ=             -7.1497
 Hexadecapole moment (field-independent basis, Debye-Ang**3):
 XXXX=          -1491.4998 YYYY=          -1164.3252 ZZZZ=           -267.5940 XXXY=             33.8023
 XXXZ=             -9.3890 YYYX=             63.3312 YYYZ=             28.7278 ZZZX=              3.8364
 ZZZY=              3.9025 XXYY=           -428.5445 XXZZ=           -298.4761 YYZZ=           -272.1274
 XXYZ=              2.3346 YYXZ=            -10.9233 ZZXY=             17.9030
 N-N= 8.913046985690D+02 E-N=-8.923237446990D+03  KE= 2.993322467863D+03
 Calculating spin-rotation constants.
 Leave Link  601 at Tue Sep 17 11:00:26 2024, MaxMem=  1342177280 cpu:               5.2 elap:               5.2
 (Enter /groups/ReismanLab/Software/Gaussian16_RevC/Linux_Binary_AVX2-enabled-CPU/g16/l9999.exe)
 Unable to Open any file for archive entry.
 1\1\GINC-HPC-21-27\SP\RM062X\def2TZVP\C9H11Br1O1\MANTIND\17-Sep-2024\0
 \\#p M062X/def2tzvp geom=check guess=read scf(xqc,tight) integral(grid
 =ultrafine) scrf(SMD, solvent=1,4-Dioxane) nmr=giao\\spe\\0,1\C,0,1.99
 02056976,1.0086376293,-1.4134899268\C,0,2.4883996329,0.6319773318,-0.0
 225412572\C,0,3.6724809097,-0.3300100451,-0.065705354\O,0,1.4260501977
 ,0.1206233789,0.8323017516\C,0,0.5434918345,-0.783855902,0.3145721596\
 C,0,0.87289851,-2.1381947312,0.1818664974\C,0,-0.0594884221,-3.0562193
 979,-0.2975798681\C,0,-1.3444447155,-2.6360124774,-0.6404426587\C,0,-1
 .6977993979,-1.2953336285,-0.4944344271\C,0,-0.7585151143,-0.382713758
 8,-0.0213583126\Br,0,-1.2605698449,1.4445942679,0.1888398938\H,0,1.136
 9418929,1.6860896115,-1.3517358208\H,0,1.6882276973,0.1204741887,-1.97
 69325403\H,0,2.7942530869,1.5020997709,-1.9676207469\H,0,2.7888334626,
 1.5398368472,0.5094485275\H,0,4.5326526132,0.1580101866,-0.535415377\H
 ,0,3.4371379142,-1.2240531037,-0.6505568986\H,0,3.9566794215,-0.634045
 2056,0.9451926175\H,0,1.8632791441,-2.4595813431,0.4812724196\H,0,0.21
 69072741,-4.1014017737,-0.3932326495\H,0,-2.0759515616,-3.3466622972,-
 1.0108389574\H,0,-2.694754321,-0.9517265776,-0.744508293\\Version=ES64
 L-G16RevC.02\State=1-A\HF=-2998.9711037\RMSD=6.388e-09\Dipole=0.622824
 2,-0.6731662,-0.6387527\Quadrupole=3.3595456,2.3274476,-5.6869932,2.27
 72352,0.486238,0.3152514\PG=C01 [X(C9H11Br1O1)]\\@
 The archive entry for this job was punched.


 WHAT THE SLIME CONTAINS, THE GLOWING REVEALS
 BY THE FLAME'S BRIGHT HUE WHEN YOU IGNITE IT.
   --  LEONARD THURNEYSSER, 1531-1596
 DESCRIBING HIS FLAME PHOTOLYSIS ANALYTIC METHOD
 Job cpu time:       0 days  0 hours 16 minutes 57.9 seconds.
 Elapsed time:       0 days  0 hours 17 minutes  1.5 seconds.
 File lengths (MBytes):  RWF=    272 Int=      0 D2E=      0 Chk=     32 Scr=     16
 Normal termination of Gaussian 16 at Tue Sep 17 11:00:26 2024.
