 Entering Gaussian System, Link 0=g16
 Input=smiles_00050_conf_1.gjf
 Output=smiles_00050_conf_1.log
 Initial command:
 /groups/ReismanLab/Software/Gaussian16_RevC/Linux_Binary_AVX2-enabled-CPU/g16/l1.exe "/central/groups/ReismanLab/DM/dft_final/smiles_00050/Gau-3592419.inp" -scrdir="/central/groups/ReismanLab/DM/dft_final/smiles_00050/"
 Entering Link 1 = /groups/ReismanLab/Software/Gaussian16_RevC/Linux_Binary_AVX2-enabled-CPU/g16/l1.exe PID=   3592420.
  
 Copyright (c) 1988-2021, Gaussian, Inc.  All Rights Reserved.
  
 This is part of the Gaussian(R) 16 program.  It is based on
 the Gaussian(R) 09 system (copyright 2009, Gaussian, Inc.),
 the Gaussian(R) 03 system (copyright 2003, Gaussian, Inc.),
 the Gaussian(R) 98 system (copyright 1998, Gaussian, Inc.),
 the Gaussian(R) 94 system (copyright 1995, Gaussian, Inc.),
 the Gaussian 92(TM) system (copyright 1992, Gaussian, Inc.),
 the Gaussian 90(TM) system (copyright 1990, Gaussian, Inc.),
 the Gaussian 88(TM) system (copyright 1988, Gaussian, Inc.),
 the Gaussian 86(TM) system (copyright 1986, Carnegie Mellon
 University), and the Gaussian 82(TM) system (copyright 1983,
 Carnegie Mellon University). Gaussian is a federally registered
 trademark of Gaussian, Inc.
  
 This software contains proprietary and confidential information,
 including trade secrets, belonging to Gaussian, Inc.
  
 This software is provided under written license and may be
 used, copied, transmitted, or stored only in accord with that
 written license.
  
 The following legend is applicable only to US Government
 contracts under FAR:
  
                    RESTRICTED RIGHTS LEGEND
  
 Use, reproduction and disclosure by the US Government is
 subject to restrictions as set forth in subparagraphs (a)
 and (c) of the Commercial Computer Software - Restricted
 Rights clause in FAR 52.227-19.
  
 Gaussian, Inc.
 340 Quinnipiac St., Bldg. 40, Wallingford CT 06492
  
  
 ---------------------------------------------------------------
 Warning -- This program may not be used in any manner that
 competes with the business of Gaussian, Inc. or will provide
 assistance to any competitor of Gaussian, Inc.  The licensee
 of this program is prohibited from giving any competitor of
 Gaussian, Inc. access to this program.  By using this program,
 the user acknowledges that Gaussian, Inc. is engaged in the
 business of creating and licensing software in the field of
 computational chemistry and represents and warrants to the
 licensee that it is not a competitor of Gaussian, Inc. and that
 it will not use this program in any manner prohibited above.
 ---------------------------------------------------------------
  

 Cite this work as:
 Gaussian 16, Revision C.02,
 M. J. Frisch, G. W. Trucks, H. B. Schlegel, G. E. Scuseria, 
 M. A. Robb, J. R. Cheeseman, G. Scalmani, V. Barone, 
 G. A. Petersson, H. Nakatsuji, X. Li, M. Caricato, A. V. Marenich, 
 J. Bloino, B. G. Janesko, R. Gomperts, B. Mennucci, H. P. Hratchian, 
 J. V. Ortiz, A. F. Izmaylov, J. L. Sonnenberg, D. Williams-Young, 
 F. Ding, F. Lipparini, F. Egidi, J. Goings, B. Peng, A. Petrone, 
 T. Henderson, D. Ranasinghe, V. G. Zakrzewski, J. Gao, N. Rega, 
 G. Zheng, W. Liang, M. Hada, M. Ehara, K. Toyota, R. Fukuda, 
 J. Hasegawa, M. Ishida, T. Nakajima, Y. Honda, O. Kitao, H. Nakai, 
 T. Vreven, K. Throssell, J. A. Montgomery, Jr., J. E. Peralta, 
 F. Ogliaro, M. J. Bearpark, J. J. Heyd, E. N. Brothers, K. N. Kudin, 
 V. N. Staroverov, T. A. Keith, R. Kobayashi, J. Normand, 
 K. Raghavachari, A. P. Rendell, J. C. Burant, S. S. Iyengar, 
 J. Tomasi, M. Cossi, J. M. Millam, M. Klene, C. Adamo, R. Cammi, 
 J. W. Ochterski, R. L. Martin, K. Morokuma, O. Farkas, 
 J. B. Foresman, and D. J. Fox, Gaussian, Inc., Wallingford CT, 2019.
 
 ******************************************
 Gaussian 16:  ES64L-G16RevC.02  7-Dec-2021
                17-Sep-2024 
 ******************************************
 %nprocshared=8
 Will use up to    8 processors via shared memory.
 %Mem=10GB
 %Chk=smiles_00050_conf_1.chk
 ----------------------------------------------------------------------
 #p B3LYP/6-31G(d,p) EmpiricalDispersion=GD3BJ opt freq scf(xqc,tight) 
 integral(grid=ultrafine)
 ----------------------------------------------------------------------
 1/18=20,19=15,26=4,38=1/1,3;
 2/9=110,12=2,17=6,18=5,40=1/2;
 3/5=1,6=6,7=101,11=2,25=1,30=1,71=1,74=-5,75=-5,124=41/1,2,3;
 4//1;
 5/5=2,8=3,13=1,32=2,38=5/2,8;
 6/7=2,8=2,9=2,10=2,28=1/1;
 7//1,2,3,16;
 1/18=20,19=15,26=4/3(2);
 2/9=110/2;
 99//99;
 2/9=110/2;
 3/5=1,6=6,7=101,11=2,25=1,30=1,71=1,74=-5,75=-5,124=41/1,2,3;
 4/5=5,16=3,69=1/1;
 5/5=2,8=3,13=1,32=2,38=5/2,8;
 7//1,2,3,16;
 1/18=20,19=15,26=4/3(-5);
 2/9=110/2;
 6/7=2,8=2,9=2,10=2,19=2,28=1/1;
 99/9=1/99;
 Leave Link    1 at Tue Sep 17 09:56:21 2024, MaxMem=  1342177280 cpu:               0.1 elap:               0.8
 (Enter /groups/ReismanLab/Software/Gaussian16_RevC/Linux_Binary_AVX2-enabled-CPU/g16/l101.exe)
 ----------------------------------
 opt-freq conformers_unique/conf_ab
 ----------------------------------
 Symbolic Z-matrix:
 Charge =  0 Multiplicity = 1
 O                    -2.37934  -1.53481  -1.62202 
 C                    -1.95138  -0.82405  -0.73211 
 C                    -0.58999  -1.03482  -0.13179 
 C                    -0.34739  -2.15546   0.65229 
 C                     0.91642  -2.38216   1.16998 
 C                     1.95034  -1.50132   0.90376 
 C                     1.69961  -0.39689   0.1078 
 Br                    3.11621   0.82304  -0.27017 
 C                     0.44292  -0.15104  -0.41475 
 N                    -2.64739   0.20628  -0.21814 
 C                    -2.27817   0.99055   0.94717 
 C                    -3.46733   1.93015   1.15736 
 C                    -4.64086   1.14466   0.57398 
 C                    -4.00996   0.4807   -0.64385 
 H                    -1.15111  -2.84868   0.84865 
 H                     1.10264  -3.25165   1.78188 
 H                     2.93864  -1.6717    1.30201 
 H                     0.27216   0.70753  -1.04705 
 H                    -2.13418   0.33292   1.81327 
 H                    -1.348     1.53879   0.77946 
 H                    -3.32035   2.85021   0.5909 
 H                    -3.60593   2.18577   2.20554 
 H                    -5.48357   1.77933   0.31127 
 H                    -4.97748   0.38816   1.28353 
 H                    -4.49157  -0.45021  -0.9473 
 H                    -3.99819   1.15992  -1.50383 
 
 ITRead=  0  0  0  0  0  0  0  0  0  0  0  0  0  0  0  0  0  0  0  0
 ITRead=  0  0  0  0  0  0
 MicOpt= -1 -1 -1 -1 -1 -1 -1 -1 -1 -1 -1 -1 -1 -1 -1 -1 -1 -1 -1 -1
 MicOpt= -1 -1 -1 -1 -1 -1
 NAtoms=     26 NQM=       26 NQMF=       0 NMMI=      0 NMMIF=      0
                NMic=       0 NMicF=      0.
                    Isotopes and Nuclear Properties:
 (Nuclear quadrupole moments (NQMom) in fm**2, nuclear magnetic moments (NMagM)
  in nuclear magnetons)

  Atom         1           2           3           4           5           6           7           8           9          10
 IAtWgt=          16          12          12          12          12          12          12          79          12          14
 AtmWgt=  15.9949146  12.0000000  12.0000000  12.0000000  12.0000000  12.0000000  12.0000000  78.9183361  12.0000000  14.0030740
 NucSpn=           0           0           0           0           0           0           0           3           0           2
 AtZEff=  -0.0000000  -0.0000000  -0.0000000  -0.0000000  -0.0000000  -0.0000000  -0.0000000  -0.0000000  -0.0000000  -0.0000000
 NQMom=    0.0000000   0.0000000   0.0000000   0.0000000   0.0000000   0.0000000   0.0000000  31.3000000   0.0000000   2.0440000
 NMagM=    0.0000000   0.0000000   0.0000000   0.0000000   0.0000000   0.0000000   0.0000000   2.1063990   0.0000000   0.4037610
 AtZNuc=   8.0000000   6.0000000   6.0000000   6.0000000   6.0000000   6.0000000   6.0000000  35.0000000   6.0000000   7.0000000

  Atom        11          12          13          14          15          16          17          18          19          20
 IAtWgt=          12          12          12          12           1           1           1           1           1           1
 AtmWgt=  12.0000000  12.0000000  12.0000000  12.0000000   1.0078250   1.0078250   1.0078250   1.0078250   1.0078250   1.0078250
 NucSpn=           0           0           0           0           1           1           1           1           1           1
 AtZEff=  -0.0000000  -0.0000000  -0.0000000  -0.0000000  -0.0000000  -0.0000000  -0.0000000  -0.0000000  -0.0000000  -0.0000000
 NQMom=    0.0000000   0.0000000   0.0000000   0.0000000   0.0000000   0.0000000   0.0000000   0.0000000   0.0000000   0.0000000
 NMagM=    0.0000000   0.0000000   0.0000000   0.0000000   2.7928460   2.7928460   2.7928460   2.7928460   2.7928460   2.7928460
 AtZNuc=   6.0000000   6.0000000   6.0000000   6.0000000   1.0000000   1.0000000   1.0000000   1.0000000   1.0000000   1.0000000

  Atom        21          22          23          24          25          26
 IAtWgt=           1           1           1           1           1           1
 AtmWgt=   1.0078250   1.0078250   1.0078250   1.0078250   1.0078250   1.0078250
 NucSpn=           1           1           1           1           1           1
 AtZEff=  -0.0000000  -0.0000000  -0.0000000  -0.0000000  -0.0000000  -0.0000000
 NQMom=    0.0000000   0.0000000   0.0000000   0.0000000   0.0000000   0.0000000
 NMagM=    2.7928460   2.7928460   2.7928460   2.7928460   2.7928460   2.7928460
 AtZNuc=   1.0000000   1.0000000   1.0000000   1.0000000   1.0000000   1.0000000
 Leave Link  101 at Tue Sep 17 09:56:22 2024, MaxMem=  1342177280 cpu:               0.2 elap:               0.3
 (Enter /groups/ReismanLab/Software/Gaussian16_RevC/Linux_Binary_AVX2-enabled-CPU/g16/l103.exe)

 GradGradGradGradGradGradGradGradGradGradGradGradGradGradGradGradGradGrad
 Berny optimization.
 Initialization pass.
                           ----------------------------
                           !    Initial Parameters    !
                           ! (Angstroms and Degrees)  !
 --------------------------                            --------------------------
 ! Name  Definition              Value          Derivative Info.                !
 --------------------------------------------------------------------------------
 ! R1    R(1,2)                  1.2167         estimate D2E/DX2                !
 ! R2    R(2,3)                  1.5027         estimate D2E/DX2                !
 ! R3    R(2,10)                 1.3454         estimate D2E/DX2                !
 ! R4    R(3,4)                  1.3891         estimate D2E/DX2                !
 ! R5    R(3,9)                  1.3885         estimate D2E/DX2                !
 ! R6    R(4,5)                  1.3844         estimate D2E/DX2                !
 ! R7    R(4,15)                 1.0794         estimate D2E/DX2                !
 ! R8    R(5,6)                  1.3841         estimate D2E/DX2                !
 ! R9    R(5,16)                 1.0794         estimate D2E/DX2                !
 ! R10   R(6,7)                  1.3843         estimate D2E/DX2                !
 ! R11   R(6,17)                 1.0791         estimate D2E/DX2                !
 ! R12   R(7,8)                  1.9073         estimate D2E/DX2                !
 ! R13   R(7,9)                  1.383          estimate D2E/DX2                !
 ! R14   R(9,18)                 1.0799         estimate D2E/DX2                !
 ! R15   R(10,11)                1.4524         estimate D2E/DX2                !
 ! R16   R(10,14)                1.4537         estimate D2E/DX2                !
 ! R17   R(11,12)                1.5301         estimate D2E/DX2                !
 ! R18   R(11,19)                1.097          estimate D2E/DX2                !
 ! R19   R(11,20)                1.0927         estimate D2E/DX2                !
 ! R20   R(12,13)                1.5279         estimate D2E/DX2                !
 ! R21   R(12,21)                1.0904         estimate D2E/DX2                !
 ! R22   R(12,22)                1.0878         estimate D2E/DX2                !
 ! R23   R(13,14)                1.5238         estimate D2E/DX2                !
 ! R24   R(13,23)                1.0872         estimate D2E/DX2                !
 ! R25   R(13,24)                1.0904         estimate D2E/DX2                !
 ! R26   R(14,25)                1.0912         estimate D2E/DX2                !
 ! R27   R(14,26)                1.0959         estimate D2E/DX2                !
 ! A1    A(1,2,3)              121.9332         estimate D2E/DX2                !
 ! A2    A(1,2,10)             123.0122         estimate D2E/DX2                !
 ! A3    A(3,2,10)             115.0535         estimate D2E/DX2                !
 ! A4    A(2,3,4)              119.7941         estimate D2E/DX2                !
 ! A5    A(2,3,9)              120.2138         estimate D2E/DX2                !
 ! A6    A(4,3,9)              119.9076         estimate D2E/DX2                !
 ! A7    A(3,4,5)              120.1736         estimate D2E/DX2                !
 ! A8    A(3,4,15)             119.3912         estimate D2E/DX2                !
 ! A9    A(5,4,15)             120.4343         estimate D2E/DX2                !
 ! A10   A(4,5,6)              120.3837         estimate D2E/DX2                !
 ! A11   A(4,5,16)             120.0911         estimate D2E/DX2                !
 ! A12   A(6,5,16)             119.5247         estimate D2E/DX2                !
 ! A13   A(5,6,7)              118.8844         estimate D2E/DX2                !
 ! A14   A(5,6,17)             120.8436         estimate D2E/DX2                !
 ! A15   A(7,6,17)             120.2707         estimate D2E/DX2                !
 ! A16   A(6,7,8)              119.3228         estimate D2E/DX2                !
 ! A17   A(6,7,9)              121.5784         estimate D2E/DX2                !
 ! A18   A(8,7,9)              119.0976         estimate D2E/DX2                !
 ! A19   A(3,9,7)              119.064          estimate D2E/DX2                !
 ! A20   A(3,9,18)             120.5137         estimate D2E/DX2                !
 ! A21   A(7,9,18)             120.4148         estimate D2E/DX2                !
 ! A22   A(2,10,11)            126.0522         estimate D2E/DX2                !
 ! A23   A(2,10,14)            121.171          estimate D2E/DX2                !
 ! A24   A(11,10,14)           111.7974         estimate D2E/DX2                !
 ! A25   A(10,11,12)           104.1373         estimate D2E/DX2                !
 ! A26   A(10,11,19)           110.0683         estimate D2E/DX2                !
 ! A27   A(10,11,20)           111.359          estimate D2E/DX2                !
 ! A28   A(12,11,19)           111.2043         estimate D2E/DX2                !
 ! A29   A(12,11,20)           111.9979         estimate D2E/DX2                !
 ! A30   A(19,11,20)           108.0739         estimate D2E/DX2                !
 ! A31   A(11,12,13)           103.2249         estimate D2E/DX2                !
 ! A32   A(11,12,21)           110.0003         estimate D2E/DX2                !
 ! A33   A(11,12,22)           112.0682         estimate D2E/DX2                !
 ! A34   A(13,12,21)           109.8133         estimate D2E/DX2                !
 ! A35   A(13,12,22)           113.009          estimate D2E/DX2                !
 ! A36   A(21,12,22)           108.6316         estimate D2E/DX2                !
 ! A37   A(12,13,14)           102.1903         estimate D2E/DX2                !
 ! A38   A(12,13,23)           112.7984         estimate D2E/DX2                !
 ! A39   A(12,13,24)           110.2006         estimate D2E/DX2                !
 ! A40   A(14,13,23)           112.4679         estimate D2E/DX2                !
 ! A41   A(14,13,24)           110.2167         estimate D2E/DX2                !
 ! A42   A(23,13,24)           108.8411         estimate D2E/DX2                !
 ! A43   A(10,14,13)           103.6676         estimate D2E/DX2                !
 ! A44   A(10,14,25)           109.5182         estimate D2E/DX2                !
 ! A45   A(10,14,26)           109.678          estimate D2E/DX2                !
 ! A46   A(13,14,25)           114.2831         estimate D2E/DX2                !
 ! A47   A(13,14,26)           111.1951         estimate D2E/DX2                !
 ! A48   A(25,14,26)           108.3769         estimate D2E/DX2                !
 ! D1    D(1,2,3,4)            -69.3426         estimate D2E/DX2                !
 ! D2    D(1,2,3,9)            107.3142         estimate D2E/DX2                !
 ! D3    D(10,2,3,4)           111.0306         estimate D2E/DX2                !
 ! D4    D(10,2,3,9)           -72.3125         estimate D2E/DX2                !
 ! D5    D(1,2,10,11)          171.8537         estimate D2E/DX2                !
 ! D6    D(1,2,10,14)            4.1292         estimate D2E/DX2                !
 ! D7    D(3,2,10,11)           -8.524          estimate D2E/DX2                !
 ! D8    D(3,2,10,14)         -176.2486         estimate D2E/DX2                !
 ! D9    D(2,3,4,5)            177.7003         estimate D2E/DX2                !
 ! D10   D(2,3,4,15)            -1.965          estimate D2E/DX2                !
 ! D11   D(9,3,4,5)              1.0331         estimate D2E/DX2                !
 ! D12   D(9,3,4,15)          -178.6322         estimate D2E/DX2                !
 ! D13   D(2,3,9,7)           -177.4638         estimate D2E/DX2                !
 ! D14   D(2,3,9,18)             1.5412         estimate D2E/DX2                !
 ! D15   D(4,3,9,7)             -0.8108         estimate D2E/DX2                !
 ! D16   D(4,3,9,18)           178.1942         estimate D2E/DX2                !
 ! D17   D(3,4,5,6)             -0.4683         estimate D2E/DX2                !
 ! D18   D(3,4,5,16)           179.7919         estimate D2E/DX2                !
 ! D19   D(15,4,5,6)           179.1934         estimate D2E/DX2                !
 ! D20   D(15,4,5,16)           -0.5463         estimate D2E/DX2                !
 ! D21   D(4,5,6,7)             -0.3064         estimate D2E/DX2                !
 ! D22   D(4,5,6,17)          -179.8925         estimate D2E/DX2                !
 ! D23   D(16,5,6,7)           179.4349         estimate D2E/DX2                !
 ! D24   D(16,5,6,17)           -0.1513         estimate D2E/DX2                !
 ! D25   D(5,6,7,8)           -179.8684         estimate D2E/DX2                !
 ! D26   D(5,6,7,9)              0.5284         estimate D2E/DX2                !
 ! D27   D(17,6,7,8)            -0.2798         estimate D2E/DX2                !
 ! D28   D(17,6,7,9)          -179.8831         estimate D2E/DX2                !
 ! D29   D(6,7,9,3)              0.0304         estimate D2E/DX2                !
 ! D30   D(6,7,9,18)          -178.9756         estimate D2E/DX2                !
 ! D31   D(8,7,9,3)           -179.5738         estimate D2E/DX2                !
 ! D32   D(8,7,9,18)             1.4203         estimate D2E/DX2                !
 ! D33   D(2,10,11,12)        -175.0381         estimate D2E/DX2                !
 ! D34   D(2,10,11,19)         -55.7555         estimate D2E/DX2                !
 ! D35   D(2,10,11,20)          64.0807         estimate D2E/DX2                !
 ! D36   D(14,10,11,12)         -6.3368         estimate D2E/DX2                !
 ! D37   D(14,10,11,19)        112.9458         estimate D2E/DX2                !
 ! D38   D(14,10,11,20)       -127.2179         estimate D2E/DX2                !
 ! D39   D(2,10,14,13)         151.5313         estimate D2E/DX2                !
 ! D40   D(2,10,14,25)          29.1715         estimate D2E/DX2                !
 ! D41   D(2,10,14,26)         -89.6446         estimate D2E/DX2                !
 ! D42   D(11,10,14,13)        -17.8001         estimate D2E/DX2                !
 ! D43   D(11,10,14,25)       -140.1599         estimate D2E/DX2                !
 ! D44   D(11,10,14,26)        101.024          estimate D2E/DX2                !
 ! D45   D(10,11,12,13)         27.792          estimate D2E/DX2                !
 ! D46   D(10,11,12,21)        -89.3421         estimate D2E/DX2                !
 ! D47   D(10,11,12,22)        149.6989         estimate D2E/DX2                !
 ! D48   D(19,11,12,13)        -90.7154         estimate D2E/DX2                !
 ! D49   D(19,11,12,21)        152.1505         estimate D2E/DX2                !
 ! D50   D(19,11,12,22)         31.1915         estimate D2E/DX2                !
 ! D51   D(20,11,12,13)        148.2448         estimate D2E/DX2                !
 ! D52   D(20,11,12,21)         31.1107         estimate D2E/DX2                !
 ! D53   D(20,11,12,22)        -89.8483         estimate D2E/DX2                !
 ! D54   D(11,12,13,14)        -38.231          estimate D2E/DX2                !
 ! D55   D(11,12,13,23)       -159.2231         estimate D2E/DX2                !
 ! D56   D(11,12,13,24)         78.9113         estimate D2E/DX2                !
 ! D57   D(21,12,13,14)         79.0349         estimate D2E/DX2                !
 ! D58   D(21,12,13,23)        -41.9572         estimate D2E/DX2                !
 ! D59   D(21,12,13,24)       -163.8228         estimate D2E/DX2                !
 ! D60   D(22,12,13,14)       -159.503          estimate D2E/DX2                !
 ! D61   D(22,12,13,23)         79.5049         estimate D2E/DX2                !
 ! D62   D(22,12,13,24)        -42.3607         estimate D2E/DX2                !
 ! D63   D(12,13,14,10)         34.3015         estimate D2E/DX2                !
 ! D64   D(12,13,14,25)        153.4404         estimate D2E/DX2                !
 ! D65   D(12,13,14,26)        -83.4727         estimate D2E/DX2                !
 ! D66   D(23,13,14,10)        155.522          estimate D2E/DX2                !
 ! D67   D(23,13,14,25)        -85.339          estimate D2E/DX2                !
 ! D68   D(23,13,14,26)         37.7479         estimate D2E/DX2                !
 ! D69   D(24,13,14,10)        -82.8293         estimate D2E/DX2                !
 ! D70   D(24,13,14,25)         36.3097         estimate D2E/DX2                !
 ! D71   D(24,13,14,26)        159.3966         estimate D2E/DX2                !
 --------------------------------------------------------------------------------
 Trust Radius=3.00D-01 FncErr=1.00D-07 GrdErr=1.00D-06 EigMax=2.50D+02 EigMin=1.00D-04
 Number of steps in this run=    156 maximum allowed number of steps=    156.
 GradGradGradGradGradGradGradGradGradGradGradGradGradGradGradGradGradGrad

 Leave Link  103 at Tue Sep 17 09:56:22 2024, MaxMem=  1342177280 cpu:               0.0 elap:               0.0
 (Enter /groups/ReismanLab/Software/Gaussian16_RevC/Linux_Binary_AVX2-enabled-CPU/g16/l202.exe)
                          Input orientation:                          
 ---------------------------------------------------------------------
 Center     Atomic      Atomic             Coordinates (Angstroms)
 Number     Number       Type             X           Y           Z
 ---------------------------------------------------------------------
      1          8           0       -2.379344   -1.534810   -1.622016
      2          6           0       -1.951376   -0.824048   -0.732110
      3          6           0       -0.589990   -1.034824   -0.131786
      4          6           0       -0.347386   -2.155465    0.652289
      5          6           0        0.916418   -2.382157    1.169977
      6          6           0        1.950336   -1.501315    0.903763
      7          6           0        1.699610   -0.396886    0.107802
      8         35           0        3.116208    0.823036   -0.270172
      9          6           0        0.442923   -0.151036   -0.414753
     10          7           0       -2.647389    0.206282   -0.218142
     11          6           0       -2.278165    0.990547    0.947172
     12          6           0       -3.467328    1.930152    1.157365
     13          6           0       -4.640855    1.144655    0.573977
     14          6           0       -4.009962    0.480701   -0.643851
     15          1           0       -1.151109   -2.848682    0.848652
     16          1           0        1.102638   -3.251651    1.781879
     17          1           0        2.938639   -1.671697    1.302008
     18          1           0        0.272162    0.707534   -1.047053
     19          1           0       -2.134177    0.332918    1.813274
     20          1           0       -1.348000    1.538795    0.779464
     21          1           0       -3.320349    2.850208    0.590901
     22          1           0       -3.605926    2.185774    2.205539
     23          1           0       -5.483566    1.779328    0.311267
     24          1           0       -4.977481    0.388156    1.283532
     25          1           0       -4.491573   -0.450206   -0.947297
     26          1           0       -3.998189    1.159916   -1.503830
 ---------------------------------------------------------------------
                    Distance matrix (angstroms):
                    1          2          3          4          5
     1  O    0.000000
     2  C    1.216665   0.000000
     3  C    2.381713   1.502726   0.000000
     4  C    3.112318   2.502401   1.389052   0.000000
     5  C    4.401735   3.777549   2.403988   1.384410   0.000000
     6  C    5.012665   4.284638   2.782666   2.402223   1.384102
     7  C    4.574385   3.770625   2.388856   2.753045   2.383884
     8  Br   6.130906   5.348522   4.148096   4.660353   4.145644
     9  C    3.367121   2.507255   1.388547   2.404350   2.777313
    10  N    2.252579   1.345428   2.404307   3.409620   4.618183
    11  C    3.603942   2.493899   2.848897   3.703006   4.650821
    12  C    4.573252   3.667948   4.328056   5.165405   6.149260
    13  C    4.137192   3.579798   4.653788   5.415792   6.608851
    14  C    2.770922   2.438839   3.775610   4.695083   5.979560
    15  H    3.055981   2.690423   2.136865   1.079388   2.143727
    16  H    5.163162   4.641163   3.382517   2.140133   1.079408
    17  H    6.070387   5.363618   3.861684   3.384395   2.147455
    18  H    3.519826   2.718282   2.148682   3.386498   3.857004
    19  H    3.917874   2.801958   2.835223   3.276058   4.134198
    20  H    4.034579   2.869137   2.833455   3.829485   4.544662
    21  H    5.001087   4.138188   4.803187   5.822287   6.757453
    22  H    5.476991   4.519551   4.993116   5.645974   6.510758
    23  H    4.935311   4.510274   5.662405   6.479138   7.682131
    24  H    4.346300   3.832696   4.824735   5.320362   6.513492
    25  H    2.468425   2.576560   4.028546   4.758241   6.120592
    26  H    3.145819   2.953153   4.279627   5.382282   6.621849
                    6          7          8          9         10
     6  C    0.000000
     7  C    1.384262   0.000000
     8  Br   2.853067   1.907309   0.000000
     9  C    2.415374   1.383029   2.848890   0.000000
    10  N    5.031266   4.400733   5.796736   3.117108   0.000000
    11  C    4.908307   4.295603   5.532563   3.249980   1.452362
    12  C    6.417972   5.763153   6.826897   4.700315   2.352881
    13  C    7.110114   6.541802   7.809485   5.338652   2.341347
    14  C    6.469052   5.825319   7.144167   4.503305   1.453663
    15  H    3.381921   3.832330   5.739623   3.378524   3.565068
    16  H    2.133859   3.362825   4.986828   3.856712   5.479059
    17  H    1.079061   2.141603   2.954145   3.389437   6.086163
    18  H    3.391308   2.142672   2.950506   1.079864   3.076057
    19  H    4.568902   4.259011   5.669878   3.440896   2.099066
    20  H    4.487398   3.672317   4.641465   2.736620   2.111687
    21  H    6.842057   5.998082   6.802951   4.917420   2.845658
    22  H    6.794210   6.262534   7.292001   5.359085   3.272829
    23  H    8.147182   7.508350   8.672294   6.275084   3.286130
    24  H    7.190895   6.825113   8.252934   5.705758   2.778026
    25  H    6.784500   6.280670   7.743253   4.972158   2.088936
    26  H    6.947201   6.122573   7.228420   4.756906   2.094534
                   11         12         13         14         15
    11  C    0.000000
    12  C    1.530081   0.000000
    13  C    2.396942   1.527911   0.000000
    14  C    2.406328   2.374813   1.523800   0.000000
    15  H    4.002454   5.319533   5.310416   4.635234   0.000000
    16  H    5.488425   6.937268   7.333093   6.778885   2.472382
    17  H    5.867581   7.350555   8.118535   7.530089   4.279821
    18  H    3.249800   4.509772   5.191970   4.307041   4.273883
    19  H    1.096970   2.181437   2.911737   3.094814   3.466914
    20  H    1.092661   2.188041   3.322720   3.198660   4.392437
    21  H    2.161345   1.090407   2.157066   2.759482   6.103227
    22  H    2.185178   1.087760   2.194767   3.345077   5.763073
    23  H    3.361718   2.191768   1.087192   2.184077   6.362188
    24  H    2.786093   2.161997   1.090447   2.158579   5.030642
    25  H    3.250224   3.338380   2.209105   1.091154   4.487406
    26  H    2.999096   2.820822   2.174979   1.095918   5.450587
                   16         17         18         19         20
    16  H    0.000000
    17  H    2.469298   0.000000
    18  H    4.936365   4.276556   0.000000
    19  H    4.829813   5.478444   3.756631   0.000000
    20  H    5.473466   5.381040   2.579163   1.772280   0.000000
    21  H    7.629805   7.754239   4.492224   3.039399   2.376030
    22  H    7.205251   7.650345   5.272960   2.398539   2.747817
    23  H    8.417335   9.155583   6.010173   3.945445   4.168930
    24  H    7.103829   8.179749   5.752597   2.892759   3.840727
    25  H    6.825810   7.858719   4.903415   3.713671   4.101204
    26  H    7.501749   8.000647   4.318471   3.893796   3.518591
                   21         22         23         24         25
    21  H    0.000000
    22  H    1.769204   0.000000
    23  H    2.429916   2.697962   0.000000
    24  H    3.047543   2.441862   1.771096   0.000000
    25  H    3.824990   4.203943   2.745698   2.432191   0.000000
    26  H    2.775689   3.868549   2.425818   3.053524   1.773599
                   26
    26  H    0.000000
 Stoichiometry    C11H12BrNO
 Framework group  C1[X(C11H12BrNO)]
 Deg. of freedom    72
 Full point group                 C1      NOp   1
 Largest Abelian subgroup         C1      NOp   1
 Largest concise Abelian subgroup C1      NOp   1
                         Standard orientation:                         
 ---------------------------------------------------------------------
 Center     Atomic      Atomic             Coordinates (Angstroms)
 Number     Number       Type             X           Y           Z
 ---------------------------------------------------------------------
      1          8           0       -2.048528    1.630283    1.688898
      2          6           0       -1.672824    0.894897    0.795407
      3          6           0       -0.312329    1.032150    0.172188
      4          6           0       -0.024547    2.135720   -0.620769
      5          6           0        1.240696    2.294263   -1.159857
      6          6           0        2.231536    1.361660   -0.906425
      7          6           0        1.936684    0.274748   -0.101525
      8         35           0        3.293797   -1.016026    0.258993
      9          6           0        0.677629    0.096720    0.442401
     10          7           0       -2.429911   -0.099597    0.297433
     11          6           0       -2.121207   -0.906333   -0.870143
     12          6           0       -3.361001   -1.783380   -1.056818
     13          6           0       -4.482282   -0.935588   -0.458077
     14          6           0       -3.797769   -0.300986    0.746368
     15          1           0       -0.794167    2.869200   -0.807236
     16          1           0        1.461914    3.150603   -1.778618
     17          1           0        3.220714    1.478782   -1.321375
     18          1           0        0.472751   -0.749444    1.081257
     19          1           0       -1.957365   -0.260297   -1.741428
     20          1           0       -1.218249   -1.501745   -0.715029
     21          1           0       -3.252896   -2.707764   -0.488650
     22          1           0       -3.529894   -2.035270   -2.101445
     23          1           0       -5.352499   -1.524459   -0.178899
     24          1           0       -4.790618   -0.165167   -1.165507
     25          1           0       -4.225180    0.654890    1.053353
     26          1           0       -3.807309   -0.976727    1.609107
 ---------------------------------------------------------------------
 Rotational constants (GHZ):           0.9572573           0.2482015           0.2221816
 Leave Link  202 at Tue Sep 17 09:56:22 2024, MaxMem=  1342177280 cpu:               0.0 elap:               0.0
 (Enter /groups/ReismanLab/Software/Gaussian16_RevC/Linux_Binary_AVX2-enabled-CPU/g16/l301.exe)
 Standard basis: 6-31G(d,p) (6D, 7F)
 Ernie: Thresh=  0.10000D-02 Tol=  0.10000D-05 Strict=F.
 There are   285 symmetry adapted cartesian basis functions of A   symmetry.
 There are   285 symmetry adapted basis functions of A   symmetry.
   285 basis functions,   531 primitive gaussians,   285 cartesian basis functions
    64 alpha electrons       64 beta electrons
       nuclear repulsion energy      1146.7266478505 Hartrees.
 IExCor=  402 DFT=T Ex+Corr=B3LYP ExCW=0 ScaHFX=  0.200000
 ScaDFX=  0.800000  0.720000  1.000000  0.810000 ScalE2=  1.000000  1.000000
 IRadAn=      5 IRanWt=     -1 IRanGd=            0 ICorTp=0 IEmpDi=141
 NAtoms=   26 NActive=   26 NUniq=   26 SFac= 1.00D+00 NAtFMM=   60 NAOKFM=F Big=F
 Integral buffers will be    131072 words long.
 Raffenetti 2 integral format.
 Two-electron integral symmetry is turned on.
 R6Disp:  Grimme-D3(BJ) Dispersion energy=       -0.0551421888 Hartrees.
 Nuclear repulsion after empirical dispersion term =     1146.6715056617 Hartrees.
 Leave Link  301 at Tue Sep 17 09:56:22 2024, MaxMem=  1342177280 cpu:               0.1 elap:               0.1
 (Enter /groups/ReismanLab/Software/Gaussian16_RevC/Linux_Binary_AVX2-enabled-CPU/g16/l302.exe)
 NPDir=0 NMtPBC=     1 NCelOv=     1 NCel=       1 NClECP=     1 NCelD=      1
         NCelK=      1 NCelE2=     1 NClLst=     1 CellRange=     0.0.
 One-electron integrals computed using PRISM.
 One-electron integral symmetry used in STVInt
 NBasis=   285 RedAO= T EigKep=  4.16D-04  NBF=   285
 NBsUse=   285 1.00D-06 EigRej= -1.00D+00 NBFU=   285
 Precomputing XC quadrature grid using
 IXCGrd= 4 IRadAn=           5 IRanWt=          -1 IRanGd=           0 AccXCQ= 0.00D+00.
 Generated NRdTot=       0 NPtTot=           0 NUsed=           0 NTot=          32
 NSgBfM=   284   283   284   284   284 MxSgAt=    26 MxSgA2=    26.
 Leave Link  302 at Tue Sep 17 09:56:22 2024, MaxMem=  1342177280 cpu:               1.5 elap:               0.2
 (Enter /groups/ReismanLab/Software/Gaussian16_RevC/Linux_Binary_AVX2-enabled-CPU/g16/l303.exe)
 DipDrv:  MaxL=1.
 Leave Link  303 at Tue Sep 17 09:56:22 2024, MaxMem=  1342177280 cpu:               0.1 elap:               0.0
 (Enter /groups/ReismanLab/Software/Gaussian16_RevC/Linux_Binary_AVX2-enabled-CPU/g16/l401.exe)
 ExpMin= 1.43D-01 ExpMax= 5.74D+05 ExpMxC= 5.74D+03 IAcc=3 IRadAn=         5 AccDes= 0.00D+00
 Harris functional with IExCor=  402 and IRadAn=       5 diagonalized for initial guess.
 HarFok:  IExCor=  402 AccDes= 0.00D+00 IRadAn=         5 IDoV= 1 UseB2=F ITyADJ=14
 ICtDFT=  3500011 ScaDFX=  1.000000  1.000000  1.000000  1.000000
 FoFCou: FMM=F IPFlag=           0 FMFlag=      100000 FMFlg1=           0
         NFxFlg=           0 DoJE=T BraDBF=F KetDBF=T FulRan=T
         wScrn=  0.000000 ICntrl=       500 IOpCl=  0 I1Cent=   200000004 NGrid=           0
         NMat0=    1 NMatS0=      1 NMatT0=    0 NMatD0=    1 NMtDS0=    0 NMtDT0=    0
 Petite list used in FoFCou.
 Harris En= -3128.28354235591    
 JPrj=0 DoOrth=F DoCkMO=F.
 Leave Link  401 at Tue Sep 17 09:56:23 2024, MaxMem=  1342177280 cpu:               6.8 elap:               0.9
 (Enter /groups/ReismanLab/Software/Gaussian16_RevC/Linux_Binary_AVX2-enabled-CPU/g16/l502.exe)
 Integral symmetry usage will be decided dynamically.
 Closed shell SCF:
 Using DIIS extrapolation, IDIIS=  1040.
 NGot=  1342177280 LenX=  1342008885 LenY=  1341927219
 Requested convergence on RMS density matrix=1.00D-08 within  32 cycles.
 Requested convergence on MAX density matrix=1.00D-06.
 Requested convergence on             energy=1.00D-06.
 No special actions if energy rises.
 Fock matrices will be formed incrementally for  20 cycles.
 Integral accuracy reduced to 1.0D-05 until final iterations.

 Cycle   1  Pass 0  IDiag  1:
 FoFJK:  IHMeth= 1 ICntrl=       0 DoSepK=F KAlg= 0 I1Cent=           0 FoldK=F
 IRaf= 830000000 NMat=       1 IRICut=       1 DoRegI=T DoRafI=F ISym2E= 0 IDoP0=0 IntGTp=1.
 FoFCou: FMM=F IPFlag=           0 FMFlag=      100000 FMFlg1=           0
         NFxFlg=           0 DoJE=F BraDBF=F KetDBF=F FulRan=T
         wScrn=  0.000000 ICntrl=         0 IOpCl=  0 I1Cent=           0 NGrid=           0
         NMat0=    1 NMatS0=      1 NMatT0=    0 NMatD0=    1 NMtDS0=    0 NMtDT0=    0
 Symmetry not used in FoFCou.
 E= -3127.82881731017    
 DIIS: error= 1.45D-01 at cycle   1 NSaved=   1.
 NSaved= 1 IEnMin= 1 EnMin= -3127.82881731017     IErMin= 1 ErrMin= 1.45D-01
 ErrMax= 1.45D-01  0.00D+00 EMaxC= 1.00D-01 BMatC= 6.88D-01 BMatP= 6.88D-01
 IDIUse=3 WtCom= 0.00D+00 WtEn= 1.00D+00
 Coeff-Com:  0.100D+01
 Coeff-En:   0.100D+01
 Coeff:      0.100D+01
 Gap=     0.257 Goal=   None    Shift=    0.000
 GapD=    0.257 DampG=1.000 DampE=0.250 DampFc=0.2500 IDamp=-1.
 Damping current iteration by 2.50D-01
 RMSDP=5.18D-03 MaxDP=2.08D-01              OVMax= 3.20D-01

 Cycle   2  Pass 0  IDiag  1:
 RMSU=  1.27D-03    CP:  9.92D-01
 E= -3127.94469424755     Delta-E=       -0.115876937379 Rises=F Damp=T
 DIIS: error= 1.07D-01 at cycle   2 NSaved=   2.
 NSaved= 2 IEnMin= 2 EnMin= -3127.94469424755     IErMin= 2 ErrMin= 1.07D-01
 ErrMax= 1.07D-01  0.00D+00 EMaxC= 1.00D-01 BMatC= 2.69D-01 BMatP= 6.88D-01
 IDIUse=3 WtCom= 0.00D+00 WtEn= 1.00D+00
 Coeff-Com: -0.102D+01 0.202D+01
 Coeff-En:   0.000D+00 0.100D+01
 Coeff:      0.000D+00 0.100D+01
 Gap=     0.210 Goal=   None    Shift=    0.000
 RMSDP=2.31D-03 MaxDP=1.11D-01 DE=-1.16D-01 OVMax= 1.62D-01

 Cycle   3  Pass 0  IDiag  1:
 RMSU=  1.19D-03    CP:  9.70D-01  2.44D+00
 E= -3128.09454450711     Delta-E=       -0.149850259565 Rises=F Damp=F
 DIIS: error= 1.00D-02 at cycle   3 NSaved=   3.
 NSaved= 3 IEnMin= 3 EnMin= -3128.09454450711     IErMin= 3 ErrMin= 1.00D-02
 ErrMax= 1.00D-02  0.00D+00 EMaxC= 1.00D-01 BMatC= 6.65D-02 BMatP= 2.69D-01
 IDIUse=3 WtCom= 9.00D-01 WtEn= 1.00D-01
 Coeff-Com:  0.576D+00-0.567D+00 0.991D+00
 Coeff-En:   0.103D+00 0.000D+00 0.897D+00
 Coeff:      0.528D+00-0.510D+00 0.982D+00
 Gap=     0.212 Goal=   None    Shift=    0.000
 RMSDP=1.50D-03 MaxDP=3.96D-02 DE=-1.50D-01 OVMax= 6.41D-02

 Cycle   4  Pass 0  IDiag  1:
 RMSU=  1.14D-03    CP:  9.72D-01  1.75D+00  6.33D-01
 E= -3128.12678073867     Delta-E=       -0.032236231560 Rises=F Damp=F
 DIIS: error= 8.10D-03 at cycle   4 NSaved=   4.
 NSaved= 4 IEnMin= 4 EnMin= -3128.12678073867     IErMin= 4 ErrMin= 8.10D-03
 ErrMax= 8.10D-03  0.00D+00 EMaxC= 1.00D-01 BMatC= 3.46D-02 BMatP= 6.65D-02
 IDIUse=3 WtCom= 9.19D-01 WtEn= 8.10D-02
 Coeff-Com:  0.536D+00-0.684D+00 0.676D+00 0.472D+00
 Coeff-En:   0.000D+00 0.000D+00 0.311D+00 0.689D+00
 Coeff:      0.492D+00-0.628D+00 0.647D+00 0.489D+00
 Gap=     0.224 Goal=   None    Shift=    0.000
 RMSDP=7.99D-04 MaxDP=3.19D-02 DE=-3.22D-02 OVMax= 5.99D-02

 Cycle   5  Pass 0  IDiag  1:
 RMSU=  1.77D-04    CP:  9.71D-01  1.78D+00  9.35D-01  3.96D-01
 E= -3128.15963750475     Delta-E=       -0.032856766080 Rises=F Damp=F
 DIIS: error= 1.18D-03 at cycle   5 NSaved=   5.
 NSaved= 5 IEnMin= 5 EnMin= -3128.15963750475     IErMin= 5 ErrMin= 1.18D-03
 ErrMax= 1.18D-03  0.00D+00 EMaxC= 1.00D-01 BMatC= 8.26D-04 BMatP= 3.46D-02
 IDIUse=3 WtCom= 9.88D-01 WtEn= 1.18D-02
 Coeff-Com:  0.188D+00-0.243D+00 0.248D+00 0.229D+00 0.579D+00
 Coeff-En:   0.000D+00 0.000D+00 0.000D+00 0.000D+00 0.100D+01
 Coeff:      0.185D+00-0.240D+00 0.245D+00 0.226D+00 0.584D+00
 Gap=     0.218 Goal=   None    Shift=    0.000
 RMSDP=1.24D-04 MaxDP=5.86D-03 DE=-3.29D-02 OVMax= 1.32D-02

 Cycle   6  Pass 0  IDiag  1:
 RMSU=  5.84D-05    CP:  9.71D-01  1.81D+00  9.13D-01  4.52D-01  5.75D-01
 E= -3128.16027038194     Delta-E=       -0.000632877189 Rises=F Damp=F
 DIIS: error= 3.06D-04 at cycle   6 NSaved=   6.
 NSaved= 6 IEnMin= 6 EnMin= -3128.16027038194     IErMin= 6 ErrMin= 3.06D-04
 ErrMax= 3.06D-04  0.00D+00 EMaxC= 1.00D-01 BMatC= 9.27D-05 BMatP= 8.26D-04
 IDIUse=3 WtCom= 9.97D-01 WtEn= 3.06D-03
 Coeff-Com:  0.656D-01-0.857D-01 0.837D-01 0.830D-01 0.326D+00 0.528D+00
 Coeff-En:   0.000D+00 0.000D+00 0.000D+00 0.000D+00 0.624D-01 0.938D+00
 Coeff:      0.654D-01-0.855D-01 0.834D-01 0.828D-01 0.325D+00 0.529D+00
 Gap=     0.217 Goal=   None    Shift=    0.000
 RMSDP=4.01D-05 MaxDP=1.73D-03 DE=-6.33D-04 OVMax= 3.09D-03

 Cycle   7  Pass 0  IDiag  1:
 RMSU=  2.15D-05    CP:  9.71D-01  1.80D+00  9.22D-01  4.53D-01  6.17D-01
                    CP:  4.95D-01
 E= -3128.16034872829     Delta-E=       -0.000078346344 Rises=F Damp=F
 DIIS: error= 1.32D-04 at cycle   7 NSaved=   7.
 NSaved= 7 IEnMin= 7 EnMin= -3128.16034872829     IErMin= 7 ErrMin= 1.32D-04
 ErrMax= 1.32D-04  0.00D+00 EMaxC= 1.00D-01 BMatC= 8.00D-06 BMatP= 9.27D-05
 IDIUse=3 WtCom= 9.99D-01 WtEn= 1.32D-03
 Coeff-Com:  0.205D-01-0.271D-01 0.239D-01 0.236D-01 0.122D+00 0.291D+00
 Coeff-Com:  0.546D+00
 Coeff-En:   0.000D+00 0.000D+00 0.000D+00 0.000D+00 0.000D+00 0.000D+00
 Coeff-En:   0.100D+01
 Coeff:      0.205D-01-0.271D-01 0.238D-01 0.236D-01 0.122D+00 0.291D+00
 Coeff:      0.546D+00
 Gap=     0.217 Goal=   None    Shift=    0.000
 RMSDP=1.34D-05 MaxDP=4.45D-04 DE=-7.83D-05 OVMax= 1.23D-03

 Cycle   8  Pass 0  IDiag  1:
 RMSU=  7.40D-06    CP:  9.71D-01  1.80D+00  9.22D-01  4.51D-01  6.25D-01
                    CP:  5.81D-01  5.64D-01
 E= -3128.16035598573     Delta-E=       -0.000007257446 Rises=F Damp=F
 DIIS: error= 5.64D-05 at cycle   8 NSaved=   8.
 NSaved= 8 IEnMin= 8 EnMin= -3128.16035598573     IErMin= 8 ErrMin= 5.64D-05
 ErrMax= 5.64D-05  0.00D+00 EMaxC= 1.00D-01 BMatC= 1.12D-06 BMatP= 8.00D-06
 IDIUse=1 WtCom= 1.00D+00 WtEn= 0.00D+00
 Coeff-Com:  0.451D-02-0.607D-02 0.417D-02 0.391D-02 0.336D-01 0.110D+00
 Coeff-Com:  0.326D+00 0.524D+00
 Coeff:      0.451D-02-0.607D-02 0.417D-02 0.391D-02 0.336D-01 0.110D+00
 Coeff:      0.326D+00 0.524D+00
 Gap=     0.217 Goal=   None    Shift=    0.000
 RMSDP=4.36D-06 MaxDP=1.62D-04 DE=-7.26D-06 OVMax= 4.20D-04

 Initial convergence to 1.0D-05 achieved.  Increase integral accuracy.
 Cycle   9  Pass 1  IDiag  1:
 E= -3128.16038485021     Delta-E=       -0.000028864479 Rises=F Damp=F
 DIIS: error= 6.63D-05 at cycle   1 NSaved=   1.
 NSaved= 1 IEnMin= 1 EnMin= -3128.16038485021     IErMin= 1 ErrMin= 6.63D-05
 ErrMax= 6.63D-05  0.00D+00 EMaxC= 1.00D-01 BMatC= 5.23D-07 BMatP= 5.23D-07
 IDIUse=1 WtCom= 1.00D+00 WtEn= 0.00D+00
 Coeff-Com:  0.100D+01
 Coeff:      0.100D+01
 Gap=     0.217 Goal=   None    Shift=    0.000
 RMSDP=4.36D-06 MaxDP=1.62D-04 DE=-2.89D-05 OVMax= 2.29D-04

 Cycle  10  Pass 1  IDiag  1:
 RMSU=  2.81D-05    CP:  1.00D+00
 E= -3128.16038496694     Delta-E=       -0.000000116731 Rises=F Damp=F
 DIIS: error= 2.58D-05 at cycle   2 NSaved=   2.
 NSaved= 2 IEnMin= 2 EnMin= -3128.16038496694     IErMin= 2 ErrMin= 2.58D-05
 ErrMax= 2.58D-05  0.00D+00 EMaxC= 1.00D-01 BMatC= 2.65D-07 BMatP= 5.23D-07
 IDIUse=1 WtCom= 1.00D+00 WtEn= 0.00D+00
 Coeff-Com:  0.380D+00 0.620D+00
 Coeff:      0.380D+00 0.620D+00
 Gap=     0.217 Goal=   None    Shift=    0.000
 RMSDP=3.55D-06 MaxDP=1.04D-04 DE=-1.17D-07 OVMax= 2.95D-04

 Cycle  11  Pass 1  IDiag  1:
 RMSU=  3.54D-06    CP:  1.00D+00  9.96D-01
 E= -3128.16038504659     Delta-E=       -0.000000079647 Rises=F Damp=F
 DIIS: error= 2.43D-05 at cycle   3 NSaved=   3.
 NSaved= 3 IEnMin= 3 EnMin= -3128.16038504659     IErMin= 3 ErrMin= 2.43D-05
 ErrMax= 2.43D-05  0.00D+00 EMaxC= 1.00D-01 BMatC= 1.85D-07 BMatP= 2.65D-07
 IDIUse=1 WtCom= 1.00D+00 WtEn= 0.00D+00
 Coeff-Com:  0.178D-01 0.452D+00 0.531D+00
 Coeff:      0.178D-01 0.452D+00 0.531D+00
 Gap=     0.217 Goal=   None    Shift=    0.000
 RMSDP=1.73D-06 MaxDP=6.49D-05 DE=-7.96D-08 OVMax= 1.60D-04

 Cycle  12  Pass 1  IDiag  1:
 RMSU=  5.92D-07    CP:  1.00D+00  1.01D+00  5.47D-01
 E= -3128.16038524161     Delta-E=       -0.000000195016 Rises=F Damp=F
 DIIS: error= 3.74D-06 at cycle   4 NSaved=   4.
 NSaved= 4 IEnMin= 4 EnMin= -3128.16038524161     IErMin= 4 ErrMin= 3.74D-06
 ErrMax= 3.74D-06  0.00D+00 EMaxC= 1.00D-01 BMatC= 8.64D-09 BMatP= 1.85D-07
 IDIUse=1 WtCom= 1.00D+00 WtEn= 0.00D+00
 Coeff-Com: -0.205D-02 0.262D+00 0.332D+00 0.408D+00
 Coeff:     -0.205D-02 0.262D+00 0.332D+00 0.408D+00
 Gap=     0.217 Goal=   None    Shift=    0.000
 RMSDP=3.44D-07 MaxDP=1.34D-05 DE=-1.95D-07 OVMax= 2.12D-05

 Cycle  13  Pass 1  IDiag  1:
 RMSU=  1.09D-07    CP:  1.00D+00  1.01D+00  5.59D-01  4.55D-01
 E= -3128.16038524936     Delta-E=       -0.000000007754 Rises=F Damp=F
 DIIS: error= 7.02D-07 at cycle   5 NSaved=   5.
 NSaved= 5 IEnMin= 5 EnMin= -3128.16038524936     IErMin= 5 ErrMin= 7.02D-07
 ErrMax= 7.02D-07  0.00D+00 EMaxC= 1.00D-01 BMatC= 1.86D-10 BMatP= 8.64D-09
 IDIUse=1 WtCom= 1.00D+00 WtEn= 0.00D+00
 Coeff-Com: -0.176D-02 0.135D+00 0.174D+00 0.233D+00 0.460D+00
 Coeff:     -0.176D-02 0.135D+00 0.174D+00 0.233D+00 0.460D+00
 Gap=     0.217 Goal=   None    Shift=    0.000
 RMSDP=5.42D-08 MaxDP=2.34D-06 DE=-7.75D-09 OVMax= 2.99D-06

 Cycle  14  Pass 1  IDiag  1:
 RMSU=  3.87D-08    CP:  1.00D+00  1.01D+00  5.59D-01  4.55D-01  6.59D-01
 E= -3128.16038524947     Delta-E=       -0.000000000112 Rises=F Damp=F
 DIIS: error= 1.82D-07 at cycle   6 NSaved=   6.
 NSaved= 6 IEnMin= 6 EnMin= -3128.16038524947     IErMin= 6 ErrMin= 1.82D-07
 ErrMax= 1.82D-07  0.00D+00 EMaxC= 1.00D-01 BMatC= 1.84D-11 BMatP= 1.86D-10
 IDIUse=1 WtCom= 1.00D+00 WtEn= 0.00D+00
 Coeff-Com: -0.984D-03 0.696D-01 0.896D-01 0.122D+00 0.296D+00 0.423D+00
 Coeff:     -0.984D-03 0.696D-01 0.896D-01 0.122D+00 0.296D+00 0.423D+00
 Gap=     0.217 Goal=   None    Shift=    0.000
 RMSDP=1.67D-08 MaxDP=1.01D-06 DE=-1.12D-10 OVMax= 1.49D-06

 Cycle  15  Pass 1  IDiag  1:
 RMSU=  1.27D-08    CP:  1.00D+00  1.01D+00  5.59D-01  4.55D-01  6.71D-01
                    CP:  7.24D-01
 E= -3128.16038524949     Delta-E=       -0.000000000016 Rises=F Damp=F
 DIIS: error= 3.50D-08 at cycle   7 NSaved=   7.
 NSaved= 7 IEnMin= 7 EnMin= -3128.16038524949     IErMin= 7 ErrMin= 3.50D-08
 ErrMax= 3.50D-08  0.00D+00 EMaxC= 1.00D-01 BMatC= 1.03D-12 BMatP= 1.84D-11
 IDIUse=1 WtCom= 1.00D+00 WtEn= 0.00D+00
 Coeff-Com: -0.227D-03 0.143D-01 0.186D-01 0.262D-01 0.816D-01 0.218D+00
 Coeff-Com:  0.642D+00
 Coeff:     -0.227D-03 0.143D-01 0.186D-01 0.262D-01 0.816D-01 0.218D+00
 Coeff:      0.642D+00
 Gap=     0.217 Goal=   None    Shift=    0.000
 RMSDP=4.75D-09 MaxDP=2.05D-07 DE=-1.64D-11 OVMax= 4.02D-07

 SCF Done:  E(RB3LYP) =  -3128.16038525     A.U. after   15 cycles
            NFock= 15  Conv=0.48D-08     -V/T= 2.0066
 KE= 3.107584886483D+03 PE=-9.719061761571D+03 EE= 2.336644984177D+03
 Leave Link  502 at Tue Sep 17 09:56:43 2024, MaxMem=  1342177280 cpu:             147.2 elap:              19.5
 (Enter /groups/ReismanLab/Software/Gaussian16_RevC/Linux_Binary_AVX2-enabled-CPU/g16/l508.exe)
 QCSCF skips out because SCF is already converged.
 Leave Link  508 at Tue Sep 17 09:56:43 2024, MaxMem=  1342177280 cpu:               0.0 elap:               0.0
 (Enter /groups/ReismanLab/Software/Gaussian16_RevC/Linux_Binary_AVX2-enabled-CPU/g16/l601.exe)
 Copying SCF densities to generalized density rwf, IOpCl= 0 IROHF=0.

 **********************************************************************

            Population analysis using the SCF Density.

 **********************************************************************

 Orbital symmetries:
       Occupied  (A) (A) (A) (A) (A) (A) (A) (A) (A) (A) (A) (A)
                 (A) (A) (A) (A) (A) (A) (A) (A) (A) (A) (A) (A)
                 (A) (A) (A) (A) (A) (A) (A) (A) (A) (A) (A) (A)
                 (A) (A) (A) (A) (A) (A) (A) (A) (A) (A) (A) (A)
                 (A) (A) (A) (A) (A) (A) (A) (A) (A) (A) (A) (A)
                 (A) (A) (A) (A)
       Virtual   (A) (A) (A) (A) (A) (A) (A) (A) (A) (A) (A) (A)
                 (A) (A) (A) (A) (A) (A) (A) (A) (A) (A) (A) (A)
                 (A) (A) (A) (A) (A) (A) (A) (A) (A) (A) (A) (A)
                 (A) (A) (A) (A) (A) (A) (A) (A) (A) (A) (A) (A)
                 (A) (A) (A) (A) (A) (A) (A) (A) (A) (A) (A) (A)
                 (A) (A) (A) (A) (A) (A) (A) (A) (A) (A) (A) (A)
                 (A) (A) (A) (A) (A) (A) (A) (A) (A) (A) (A) (A)
                 (A) (A) (A) (A) (A) (A) (A) (A) (A) (A) (A) (A)
                 (A) (A) (A) (A) (A) (A) (A) (A) (A) (A) (A) (A)
                 (A) (A) (A) (A) (A) (A) (A) (A) (A) (A) (A) (A)
                 (A) (A) (A) (A) (A) (A) (A) (A) (A) (A) (A) (A)
                 (A) (A) (A) (A) (A) (A) (A) (A) (A) (A) (A) (A)
                 (A) (A) (A) (A) (A) (A) (A) (A) (A) (A) (A) (A)
                 (A) (A) (A) (A) (A) (A) (A) (A) (A) (A) (A) (A)
                 (A) (A) (A) (A) (A) (A) (A) (A) (A) (A) (A) (A)
                 (A) (A) (A) (A) (A) (A) (A) (A) (A) (A) (A) (A)
                 (A) (A) (A) (A) (A) (A) (A) (A) (A) (A) (A) (A)
                 (A) (A) (A) (A) (A) (A) (A) (A) (A) (A) (A) (A)
                 (A) (A) (A) (A) (A)
 The electronic state is 1-A.
 Alpha  occ. eigenvalues -- -482.91190 -61.87365 -56.39497 -56.39089 -56.39078
 Alpha  occ. eigenvalues --  -19.10673 -14.36048 -10.28003 -10.24981 -10.22764
 Alpha  occ. eigenvalues --  -10.21840 -10.20797 -10.20669 -10.20515 -10.20374
 Alpha  occ. eigenvalues --  -10.20073 -10.19856 -10.19564  -8.58510  -6.53902
 Alpha  occ. eigenvalues --   -6.52635  -6.52607  -2.65476  -2.65114  -2.65094
 Alpha  occ. eigenvalues --   -2.64082  -2.64082  -1.03618  -0.95133  -0.88425
 Alpha  occ. eigenvalues --   -0.81288  -0.80133  -0.77140  -0.74584  -0.72955
 Alpha  occ. eigenvalues --   -0.66697  -0.62579  -0.61178  -0.59890  -0.55542
 Alpha  occ. eigenvalues --   -0.53423  -0.51245  -0.49534  -0.47707  -0.45095
 Alpha  occ. eigenvalues --   -0.44546  -0.43746  -0.43156  -0.42271  -0.41112
 Alpha  occ. eigenvalues --   -0.40078  -0.39179  -0.37197  -0.36637  -0.36051
 Alpha  occ. eigenvalues --   -0.35578  -0.35161  -0.34445  -0.31561  -0.28863
 Alpha  occ. eigenvalues --   -0.27042  -0.25021  -0.23895  -0.23820
 Alpha virt. eigenvalues --   -0.02150  -0.01630   0.00549   0.03380   0.07437
 Alpha virt. eigenvalues --    0.10857   0.11216   0.12645   0.13915   0.14415
 Alpha virt. eigenvalues --    0.14925   0.15504   0.15990   0.16511   0.17042
 Alpha virt. eigenvalues --    0.17498   0.18351   0.20019   0.20889   0.21574
 Alpha virt. eigenvalues --    0.23697   0.25098   0.25838   0.27518   0.29404
 Alpha virt. eigenvalues --    0.31213   0.32900   0.33259   0.35894   0.40466
 Alpha virt. eigenvalues --    0.42282   0.44890   0.46144   0.46337   0.47320
 Alpha virt. eigenvalues --    0.47629   0.48558   0.49429   0.49905   0.51143
 Alpha virt. eigenvalues --    0.51526   0.53328   0.53664   0.54186   0.55283
 Alpha virt. eigenvalues --    0.56144   0.56910   0.58492   0.59953   0.61841
 Alpha virt. eigenvalues --    0.62298   0.63156   0.63730   0.64828   0.65612
 Alpha virt. eigenvalues --    0.66947   0.67155   0.69846   0.70614   0.73692
 Alpha virt. eigenvalues --    0.74758   0.76266   0.77754   0.78050   0.79467
 Alpha virt. eigenvalues --    0.80367   0.81359   0.81731   0.82232   0.82498
 Alpha virt. eigenvalues --    0.84189   0.84922   0.85790   0.86254   0.86755
 Alpha virt. eigenvalues --    0.88273   0.88990   0.90120   0.91016   0.91859
 Alpha virt. eigenvalues --    0.92829   0.96286   0.98160   1.00905   1.01776
 Alpha virt. eigenvalues --    1.03440   1.07782   1.10462   1.12377   1.14509
 Alpha virt. eigenvalues --    1.16541   1.17168   1.19867   1.22978   1.23531
 Alpha virt. eigenvalues --    1.26699   1.30160   1.33235   1.35506   1.36735
 Alpha virt. eigenvalues --    1.37836   1.40123   1.41128   1.43288   1.44864
 Alpha virt. eigenvalues --    1.48702   1.52795   1.55122   1.57499   1.59894
 Alpha virt. eigenvalues --    1.62662   1.63182   1.66607   1.69987   1.70859
 Alpha virt. eigenvalues --    1.72347   1.77410   1.77671   1.78348   1.80706
 Alpha virt. eigenvalues --    1.82175   1.82598   1.85269   1.86671   1.87866
 Alpha virt. eigenvalues --    1.88357   1.89313   1.92953   1.93441   1.94207
 Alpha virt. eigenvalues --    1.96771   1.97667   1.98252   2.00366   2.01181
 Alpha virt. eigenvalues --    2.03112   2.03876   2.04630   2.06515   2.08341
 Alpha virt. eigenvalues --    2.08692   2.09554   2.13066   2.15309   2.16807
 Alpha virt. eigenvalues --    2.19054   2.21589   2.27482   2.28515   2.29125
 Alpha virt. eigenvalues --    2.31262   2.32180   2.33665   2.36443   2.37185
 Alpha virt. eigenvalues --    2.38698   2.41038   2.41602   2.44494   2.45126
 Alpha virt. eigenvalues --    2.47668   2.47899   2.49126   2.50201   2.52099
 Alpha virt. eigenvalues --    2.52666   2.53806   2.57015   2.57148   2.61601
 Alpha virt. eigenvalues --    2.62033   2.64071   2.66814   2.67843   2.69043
 Alpha virt. eigenvalues --    2.70755   2.73210   2.74515   2.76330   2.77794
 Alpha virt. eigenvalues --    2.80175   2.81857   2.83871   2.85824   2.87844
 Alpha virt. eigenvalues --    2.93157   2.96348   2.97792   2.99738   3.01869
 Alpha virt. eigenvalues --    3.11806   3.20804   3.20939   3.23119   3.24402
 Alpha virt. eigenvalues --    3.26301   3.29841   3.30844   3.32257   3.40025
 Alpha virt. eigenvalues --    3.43181   3.45812   3.49057   3.49715   3.52663
 Alpha virt. eigenvalues --    3.82371   4.06788   4.11102   4.13307   4.17479
 Alpha virt. eigenvalues --    4.22345   4.34539   4.35474   4.40358   4.46286
 Alpha virt. eigenvalues --    4.54482   4.69524   4.71022   4.83078   8.60636
 Alpha virt. eigenvalues --   72.82201
          Condensed to atoms (all electrons):
               1          2          3          4          5          6
     1  O    8.069668   0.599830  -0.083853   0.002318   0.000110  -0.000001
     2  C    0.599830   4.474275   0.305805  -0.031051   0.005216   0.000483
     3  C   -0.083853   0.305805   4.987791   0.538465  -0.020547  -0.037627
     4  C    0.002318  -0.031051   0.538465   4.832966   0.520346  -0.042634
     5  C    0.000110   0.005216  -0.020547   0.520346   4.845276   0.517334
     6  C   -0.000001   0.000483  -0.037627  -0.042634   0.517334   4.873476
     7  C   -0.000063   0.003912  -0.020650  -0.041917  -0.020318   0.533740
     8  Br   0.000001  -0.000132   0.005759   0.000468   0.005501  -0.060517
     9  C   -0.001033  -0.036030   0.502881  -0.040386  -0.050166  -0.046436
    10  N   -0.107632   0.264482  -0.128238   0.000722  -0.000080   0.000002
    11  C    0.002881  -0.025784  -0.000816  -0.000604  -0.000102  -0.000011
    12  C   -0.000133   0.003262   0.000111   0.000049  -0.000001  -0.000001
    13  C    0.000698   0.006415  -0.000167  -0.000005  -0.000000   0.000000
    14  C    0.002100  -0.026007   0.006930  -0.000088   0.000004   0.000000
    15  H    0.002164  -0.005518  -0.046108   0.373413  -0.041436   0.004890
    16  H    0.000001  -0.000169   0.003939  -0.036002   0.367065  -0.039061
    17  H   -0.000000   0.000005   0.000306   0.004922  -0.039955   0.372919
    18  H    0.000124  -0.006201  -0.045443   0.005630   0.000072   0.005392
    19  H    0.000113  -0.005616   0.001925   0.002443   0.000110  -0.000010
    20  H   -0.000010  -0.004997   0.002098  -0.000371  -0.000034   0.000006
    21  H    0.000002  -0.000164  -0.000023  -0.000001  -0.000000   0.000000
    22  H    0.000002  -0.000035   0.000014  -0.000000   0.000000   0.000000
    23  H   -0.000003  -0.000069   0.000007  -0.000000   0.000000  -0.000000
    24  H    0.000010  -0.000023  -0.000021  -0.000003   0.000000   0.000000
    25  H    0.012609  -0.003760   0.000455   0.000032   0.000000   0.000000
    26  H    0.001018  -0.001582  -0.000267  -0.000010   0.000000   0.000000
               7          8          9         10         11         12
     1  O   -0.000063   0.000001  -0.001033  -0.107632   0.002881  -0.000133
     2  C    0.003912  -0.000132  -0.036030   0.264482  -0.025784   0.003262
     3  C   -0.020650   0.005759   0.502881  -0.128238  -0.000816   0.000111
     4  C   -0.041917   0.000468  -0.040386   0.000722  -0.000604   0.000049
     5  C   -0.020318   0.005501  -0.050166  -0.000080  -0.000102  -0.000001
     6  C    0.533740  -0.060517  -0.046436   0.000002  -0.000011  -0.000001
     7  C    4.819713   0.254003   0.502003   0.000198  -0.000304  -0.000001
     8  Br   0.254003  34.991054  -0.058251   0.000000  -0.000004   0.000000
     9  C    0.502003  -0.058251   4.939604  -0.000458  -0.002331   0.000257
    10  N    0.000198   0.000000  -0.000458   7.140083   0.282500  -0.052296
    11  C   -0.000304  -0.000004  -0.002331   0.282500   4.812991   0.361727
    12  C   -0.000001   0.000000   0.000257  -0.052296   0.361727   4.977285
    13  C   -0.000000   0.000000  -0.000025  -0.053041  -0.063081   0.360905
    14  C    0.000008  -0.000000  -0.000020   0.280057  -0.081586  -0.059825
    15  H    0.000544   0.000009   0.005666   0.000520   0.000029   0.000004
    16  H    0.004125  -0.000160   0.001182   0.000002  -0.000001   0.000000
    17  H   -0.043092  -0.003620   0.005686   0.000000   0.000000  -0.000000
    18  H   -0.042381  -0.003025   0.371473   0.003110  -0.000727   0.000005
    19  H    0.000007  -0.000001   0.000014  -0.049581   0.387126  -0.032382
    20  H   -0.000248   0.000069   0.002726  -0.043407   0.386636  -0.029649
    21  H    0.000000  -0.000000  -0.000004  -0.001852  -0.033185   0.386803
    22  H    0.000000  -0.000000  -0.000001   0.003636  -0.029658   0.382546
    23  H    0.000000  -0.000000   0.000000   0.004296   0.005108  -0.029161
    24  H   -0.000000   0.000000  -0.000000  -0.001691   0.001782  -0.042741
    25  H    0.000000  -0.000000  -0.000001  -0.044001   0.005132   0.005120
    26  H   -0.000001   0.000000  -0.000012  -0.049610   0.003930  -0.004640
              13         14         15         16         17         18
     1  O    0.000698   0.002100   0.002164   0.000001  -0.000000   0.000124
     2  C    0.006415  -0.026007  -0.005518  -0.000169   0.000005  -0.006201
     3  C   -0.000167   0.006930  -0.046108   0.003939   0.000306  -0.045443
     4  C   -0.000005  -0.000088   0.373413  -0.036002   0.004922   0.005630
     5  C   -0.000000   0.000004  -0.041436   0.367065  -0.039955   0.000072
     6  C    0.000000   0.000000   0.004890  -0.039061   0.372919   0.005392
     7  C   -0.000000   0.000008   0.000544   0.004125  -0.043092  -0.042381
     8  Br   0.000000  -0.000000   0.000009  -0.000160  -0.003620  -0.003025
     9  C   -0.000025  -0.000020   0.005666   0.001182   0.005686   0.371473
    10  N   -0.053041   0.280057   0.000520   0.000002   0.000000   0.003110
    11  C   -0.063081  -0.081586   0.000029  -0.000001   0.000000  -0.000727
    12  C    0.360905  -0.059825   0.000004   0.000000  -0.000000   0.000005
    13  C    4.965059   0.362755  -0.000003   0.000000   0.000000  -0.000001
    14  C    0.362755   4.802418  -0.000025  -0.000000   0.000000  -0.000138
    15  H   -0.000003  -0.000025   0.610301  -0.005682  -0.000171  -0.000159
    16  H    0.000000  -0.000000  -0.005682   0.612097  -0.006313   0.000020
    17  H    0.000000   0.000000  -0.000171  -0.006313   0.600509  -0.000160
    18  H   -0.000001  -0.000138  -0.000159   0.000020  -0.000160   0.599422
    19  H   -0.003358   0.004914   0.000127   0.000001  -0.000000   0.000114
    20  H    0.005287   0.003873  -0.000010   0.000000  -0.000000   0.000545
    21  H   -0.040952   0.001409   0.000000  -0.000000  -0.000000   0.000003
    22  H   -0.027426   0.005025  -0.000000  -0.000000   0.000000  -0.000000
    23  H    0.382107  -0.029804  -0.000000  -0.000000   0.000000  -0.000000
    24  H    0.388697  -0.035386   0.000000  -0.000000  -0.000000  -0.000000
    25  H   -0.026041   0.389135  -0.000000  -0.000000   0.000000   0.000001
    26  H   -0.041253   0.392479   0.000000   0.000000  -0.000000  -0.000008
              19         20         21         22         23         24
     1  O    0.000113  -0.000010   0.000002   0.000002  -0.000003   0.000010
     2  C   -0.005616  -0.004997  -0.000164  -0.000035  -0.000069  -0.000023
     3  C    0.001925   0.002098  -0.000023   0.000014   0.000007  -0.000021
     4  C    0.002443  -0.000371  -0.000001  -0.000000  -0.000000  -0.000003
     5  C    0.000110  -0.000034  -0.000000   0.000000   0.000000   0.000000
     6  C   -0.000010   0.000006   0.000000   0.000000  -0.000000   0.000000
     7  C    0.000007  -0.000248   0.000000   0.000000   0.000000  -0.000000
     8  Br  -0.000001   0.000069  -0.000000  -0.000000  -0.000000   0.000000
     9  C    0.000014   0.002726  -0.000004  -0.000001   0.000000  -0.000000
    10  N   -0.049581  -0.043407  -0.001852   0.003636   0.004296  -0.001691
    11  C    0.387126   0.386636  -0.033185  -0.029658   0.005108   0.001782
    12  C   -0.032382  -0.029649   0.386803   0.382546  -0.029161  -0.042741
    13  C   -0.003358   0.005287  -0.040952  -0.027426   0.382107   0.388697
    14  C    0.004914   0.003873   0.001409   0.005025  -0.029804  -0.035386
    15  H    0.000127  -0.000010   0.000000  -0.000000  -0.000000   0.000000
    16  H    0.000001   0.000000  -0.000000  -0.000000  -0.000000  -0.000000
    17  H   -0.000000  -0.000000  -0.000000   0.000000   0.000000  -0.000000
    18  H    0.000114   0.000545   0.000003  -0.000000  -0.000000  -0.000000
    19  H    0.627568  -0.048103   0.005190  -0.006234  -0.000191   0.001703
    20  H   -0.048103   0.615395  -0.008770   0.001918  -0.000123  -0.000020
    21  H    0.005190  -0.008770   0.609267  -0.033215  -0.007129   0.005611
    22  H   -0.006234   0.001918  -0.033215   0.600125   0.000456  -0.006749
    23  H   -0.000191  -0.000123  -0.007129   0.000456   0.603359  -0.033261
    24  H    0.001703  -0.000020   0.005611  -0.006749  -0.033261   0.611345
    25  H    0.000175  -0.000307  -0.000017  -0.000153   0.001010  -0.007030
    26  H   -0.000359   0.000565   0.002223  -0.000140  -0.004718   0.005404
              25         26
     1  O    0.012609   0.001018
     2  C   -0.003760  -0.001582
     3  C    0.000455  -0.000267
     4  C    0.000032  -0.000010
     5  C    0.000000   0.000000
     6  C    0.000000   0.000000
     7  C    0.000000  -0.000001
     8  Br  -0.000000   0.000000
     9  C   -0.000001  -0.000012
    10  N   -0.044001  -0.049610
    11  C    0.005132   0.003930
    12  C    0.005120  -0.004640
    13  C   -0.026041  -0.041253
    14  C    0.389135   0.392479
    15  H   -0.000000   0.000000
    16  H   -0.000000   0.000000
    17  H    0.000000  -0.000000
    18  H    0.000001  -0.000008
    19  H    0.000175  -0.000359
    20  H   -0.000307   0.000565
    21  H   -0.000017   0.002223
    22  H   -0.000153  -0.000140
    23  H    0.001010  -0.004718
    24  H   -0.007030   0.005404
    25  H    0.572071  -0.040403
    26  H   -0.040403   0.624052
 Mulliken charges:
               1
     1  O   -0.500921
     2  C    0.483453
     3  C    0.027273
     4  C   -0.088701
     5  C   -0.088397
     6  C   -0.081943
     7  C    0.050719
     8  Br  -0.131155
     9  C   -0.096339
    10  N   -0.447721
    11  C   -0.011649
    12  C   -0.227244
    13  C   -0.216571
    14  C   -0.018227
    15  H    0.101446
    16  H    0.098958
    17  H    0.108965
    18  H    0.112331
    19  H    0.114306
    20  H    0.116928
    21  H    0.114803
    22  H    0.109890
    23  H    0.108117
    24  H    0.112372
    25  H    0.135975
    26  H    0.113331
 Sum of Mulliken charges =  -0.00000
 Mulliken charges with hydrogens summed into heavy atoms:
               1
     1  O   -0.500921
     2  C    0.483453
     3  C    0.027273
     4  C    0.012746
     5  C    0.010561
     6  C    0.027023
     7  C    0.050719
     8  Br  -0.131155
     9  C    0.015992
    10  N   -0.447721
    11  C    0.219584
    12  C   -0.002550
    13  C    0.003919
    14  C    0.231078
 Electronic spatial extent (au):  <R**2>=           4683.0448
 Charge=              0.0000 electrons
 Dipole moment (field-independent basis, Debye):
    X=             -1.5818    Y=             -1.5776    Z=             -3.2820  Tot=              3.9702
 Quadrupole moment (field-independent basis, Debye-Ang):
   XX=            -88.0788   YY=            -92.4293   ZZ=            -97.2290
   XY=              8.9997   XZ=              3.8141   YZ=             -8.3039
 Traceless Quadrupole moment (field-independent basis, Debye-Ang):
   XX=              4.5003   YY=              0.1497   ZZ=             -4.6500
   XY=              8.9997   XZ=              3.8141   YZ=             -8.3039
 Octapole moment (field-independent basis, Debye-Ang**2):
  XXX=             50.3980  YYY=            -28.8940  ZZZ=              3.4302  XYY=             36.6259
  XXY=            -23.2688  XXZ=            -11.7568  XZZ=             36.6423  YZZ=            -18.1077
  YYZ=            -13.2899  XYZ=              4.0505
 Hexadecapole moment (field-independent basis, Debye-Ang**3):
 XXXX=          -3893.0815 YYYY=           -994.8056 ZZZZ=           -484.5199 XXXY=            -62.9274
 XXXZ=             11.7014 YYYX=            -95.6080 YYYZ=            -48.4613 ZZZX=             37.0882
 ZZZY=            -19.3161 XXYY=           -826.4519 XXZZ=           -762.5189 YYZZ=           -253.0651
 XXYZ=            -39.9919 YYXZ=             15.3150 ZZXY=             -7.2985
 N-N= 1.146671505662D+03 E-N=-9.719061756308D+03  KE= 3.107584886483D+03
 No NMR shielding tensors so no spin-rotation constants.
 Leave Link  601 at Tue Sep 17 09:56:43 2024, MaxMem=  1342177280 cpu:               0.6 elap:               0.1
 (Enter /groups/ReismanLab/Software/Gaussian16_RevC/Linux_Binary_AVX2-enabled-CPU/g16/l701.exe)
 ... and contract with generalized density number  0.
 Compute integral first derivatives.
 R6Disp: Adding Grimme-D3(BJ) dispersion energy 1st derivatives to the gradient.
 Leave Link  701 at Tue Sep 17 09:56:43 2024, MaxMem=  1342177280 cpu:               0.5 elap:               0.1
 (Enter /groups/ReismanLab/Software/Gaussian16_RevC/Linux_Binary_AVX2-enabled-CPU/g16/l702.exe)
 L702 exits ... SP integral derivatives will be done elsewhere.
 Leave Link  702 at Tue Sep 17 09:56:43 2024, MaxMem=  1342177280 cpu:               0.1 elap:               0.0
 (Enter /groups/ReismanLab/Software/Gaussian16_RevC/Linux_Binary_AVX2-enabled-CPU/g16/l703.exe)
 Integral derivatives from FoFJK, PRISM(SPDF).
 Compute integral first derivatives, UseDBF=F ICtDFT=           0.
 Calling FoFJK, ICntrl=      2127 FMM=F ISym2X=0 I1Cent= 0 IOpClX= 0 NMat=1 NMatS=1 NMatT=0.
 FoFJK:  IHMeth= 1 ICntrl=    2127 DoSepK=F KAlg= 0 I1Cent=           0 FoldK=F
 IRaf=         0 NMat=       1 IRICut=       1 DoRegI=T DoRafI=F ISym2E= 0 IDoP0=0 IntGTp=1.
 FoFCou: FMM=F IPFlag=           0 FMFlag=      100000 FMFlg1=         800
         NFxFlg=           0 DoJE=F BraDBF=F KetDBF=F FulRan=T
         wScrn=  0.000000 ICntrl=      2127 IOpCl=  0 I1Cent=           0 NGrid=           0
         NMat0=    1 NMatS0=      1 NMatT0=    0 NMatD0=    1 NMtDS0=    0 NMtDT0=    0
 Symmetry not used in FoFCou.
 Leave Link  703 at Tue Sep 17 09:56:49 2024, MaxMem=  1342177280 cpu:              44.7 elap:               5.7
 (Enter /groups/ReismanLab/Software/Gaussian16_RevC/Linux_Binary_AVX2-enabled-CPU/g16/l716.exe)
 Dipole        =-6.22336718D-01-6.20691522D-01-1.29122561D+00
 ***** Axes restored to original set *****
 -------------------------------------------------------------------
 Center     Atomic                   Forces (Hartrees/Bohr)
 Number     Number              X              Y              Z
 -------------------------------------------------------------------
      1        8          -0.006118057   -0.013659079   -0.013618104
      2        6           0.009578680    0.002887445    0.006478244
      3        6          -0.003064035   -0.002243015   -0.002930451
      4        6          -0.004905123   -0.003656032    0.000444856
      5        6          -0.000431191   -0.004195925    0.002832762
      6        6           0.007202352   -0.000116788    0.001965309
      7        6           0.004910746    0.004623232   -0.001278340
      8       35           0.001861396    0.001330124   -0.000574626
      9        6          -0.000526624    0.004528469   -0.002941853
     10        7          -0.005040161    0.006689083    0.000308861
     11        6           0.007537108    0.004224804    0.009582214
     12        6          -0.000655046   -0.000952248    0.001533924
     13        6           0.000604469    0.001807390   -0.001592955
     14        6          -0.007165937   -0.003321830   -0.005978363
     15        1          -0.003005658   -0.002683235    0.000509200
     16        1           0.000726563   -0.003414855    0.002541973
     17        1           0.003113531   -0.000128443    0.001054264
     18        1          -0.000342291    0.002904553   -0.001181513
     19        1           0.001463244    0.000915427    0.000972794
     20        1           0.000837647   -0.000168574    0.001949150
     21        1           0.000560478    0.003124809   -0.000763142
     22        1           0.000597996    0.002329877    0.002778673
     23        1          -0.003807885    0.001014066   -0.000200921
     24        1          -0.001815967   -0.002245945    0.001739489
     25        1          -0.000218789    0.000288359   -0.001555154
     26        1          -0.001897446    0.000118332   -0.002076294
 -------------------------------------------------------------------
 Cartesian Forces:  Max     0.013659079 RMS     0.003997574
 Leave Link  716 at Tue Sep 17 09:56:49 2024, MaxMem=  1342177280 cpu:               0.1 elap:               0.0
 (Enter /groups/ReismanLab/Software/Gaussian16_RevC/Linux_Binary_AVX2-enabled-CPU/g16/l103.exe)

 GradGradGradGradGradGradGradGradGradGradGradGradGradGradGradGradGradGrad
 Berny optimization.
 FormGI is forming the generalized inverse of G from B-inverse, IUseBI=4.
 Internal  Forces:  Max     0.020092236 RMS     0.003613772
 Search for a local minimum.
 Step number   1 out of a maximum of  156
 All quantities printed in internal units (Hartrees-Bohrs-Radians)
 RMS Force = .36138D-02 SwitMx=.10000D-02 MixMth= 1
 Mixed Optimization -- RFO/linear search
 Second derivative matrix not updated -- first step.
 ITU=  0
     Eigenvalues ---    0.00588   0.00730   0.00800   0.01327   0.01582
     Eigenvalues ---    0.01784   0.02244   0.02264   0.02277   0.02289
     Eigenvalues ---    0.02297   0.02298   0.02301   0.02306   0.02414
     Eigenvalues ---    0.02626   0.03180   0.04706   0.04976   0.05281
     Eigenvalues ---    0.05663   0.05943   0.06187   0.06340   0.06692
     Eigenvalues ---    0.06828   0.08424   0.08542   0.09046   0.09887
     Eigenvalues ---    0.11304   0.15998   0.16000   0.16000   0.16000
     Eigenvalues ---    0.17898   0.20821   0.21623   0.21999   0.23474
     Eigenvalues ---    0.23500   0.24145   0.24957   0.24999   0.25000
     Eigenvalues ---    0.25000   0.27912   0.28293   0.29048   0.32093
     Eigenvalues ---    0.34019   0.34138   0.34507   0.34680   0.34761
     Eigenvalues ---    0.34766   0.35073   0.35139   0.35850   0.36011
     Eigenvalues ---    0.36066   0.36068   0.36108   0.36972   0.43522
     Eigenvalues ---    0.43632   0.47690   0.47973   0.48331   0.48466
     Eigenvalues ---    0.56006   0.96876
 RFO step:  Lambda=-4.56484866D-03 EMin= 5.87778411D-03
 Linear search not attempted -- first point.
 Iteration  1 RMS(Cart)=  0.05446277 RMS(Int)=  0.00064675
 Iteration  2 RMS(Cart)=  0.00126039 RMS(Int)=  0.00002945
 Iteration  3 RMS(Cart)=  0.00000072 RMS(Int)=  0.00002945
 ITry= 1 IFail=0 DXMaxC= 1.70D-01 DCOld= 1.00D+10 DXMaxT= 3.00D-01 DXLimC= 3.00D+00 Rises=F
 Variable       Old X    -DE/DX   Delta X   Delta X   Delta X     New X
                                 (Linear)    (Quad)   (Total)
    R1        2.29916   0.02009   0.00000   0.02064   0.02064   2.31981
    R2        2.83974   0.00562   0.00000   0.01728   0.01728   2.85702
    R3        2.54249   0.01780   0.00000   0.03152   0.03152   2.57401
    R4        2.62493   0.00862   0.00000   0.01795   0.01795   2.64287
    R5        2.62397   0.00992   0.00000   0.02051   0.02051   2.64448
    R6        2.61616   0.00972   0.00000   0.02006   0.02006   2.63621
    R7        2.03975   0.00405   0.00000   0.01110   0.01110   2.05085
    R8        2.61557   0.01112   0.00000   0.02291   0.02291   2.63849
    R9        2.03979   0.00432   0.00000   0.01182   0.01182   2.05161
   R10        2.61588   0.00859   0.00000   0.01763   0.01763   2.63350
   R11        2.03913   0.00326   0.00000   0.00892   0.00892   2.04805
   R12        3.60429   0.00235   0.00000   0.01279   0.01279   3.61708
   R13        2.61355   0.00889   0.00000   0.01803   0.01803   2.63158
   R14        2.04065   0.00306   0.00000   0.00838   0.00838   2.04902
   R15        2.74457   0.01402   0.00000   0.03865   0.03864   2.78321
   R16        2.74703   0.00968   0.00000   0.02778   0.02777   2.77480
   R17        2.89143   0.00500   0.00000   0.01493   0.01493   2.90636
   R18        2.07297   0.00041   0.00000   0.00119   0.00119   2.07417
   R19        2.06483   0.00033   0.00000   0.00094   0.00094   2.06577
   R20        2.88733   0.00726   0.00000   0.02183   0.02185   2.90918
   R21        2.06057   0.00311   0.00000   0.00883   0.00883   2.06940
   R22        2.05557   0.00315   0.00000   0.00886   0.00886   2.06443
   R23        2.87957   0.00499   0.00000   0.01493   0.01493   2.89449
   R24        2.05450   0.00359   0.00000   0.01009   0.01009   2.06459
   R25        2.06065   0.00325   0.00000   0.00923   0.00923   2.06988
   R26        2.06198   0.00028   0.00000   0.00081   0.00081   2.06279
   R27        2.07098   0.00168   0.00000   0.00486   0.00486   2.07585
    A1        2.12814  -0.00422   0.00000  -0.01654  -0.01662   2.11151
    A2        2.14697   0.00001   0.00000   0.00010   0.00002   2.14698
    A3        2.00806   0.00421   0.00000   0.01658   0.01650   2.02456
    A4        2.09080  -0.00056   0.00000  -0.00193  -0.00193   2.08887
    A5        2.09813   0.00054   0.00000   0.00239   0.00239   2.10051
    A6        2.09278   0.00003   0.00000  -0.00016  -0.00017   2.09262
    A7        2.09743  -0.00059   0.00000  -0.00248  -0.00248   2.09495
    A8        2.08377   0.00022   0.00000   0.00079   0.00079   2.08456
    A9        2.10198   0.00037   0.00000   0.00167   0.00167   2.10364
   A10        2.10109   0.00046   0.00000   0.00257   0.00257   2.10366
   A11        2.09598  -0.00022   0.00000  -0.00123  -0.00123   2.09475
   A12        2.08610  -0.00024   0.00000  -0.00135  -0.00135   2.08475
   A13        2.07492  -0.00040   0.00000  -0.00146  -0.00146   2.07346
   A14        2.10912   0.00064   0.00000   0.00340   0.00340   2.11252
   A15        2.09912  -0.00024   0.00000  -0.00192  -0.00192   2.09720
   A16        2.08258  -0.00008   0.00000  -0.00019  -0.00019   2.08238
   A17        2.12194  -0.00024   0.00000  -0.00116  -0.00116   2.12078
   A18        2.07865   0.00032   0.00000   0.00137   0.00137   2.08002
   A19        2.07806   0.00075   0.00000   0.00274   0.00273   2.08079
   A20        2.10336  -0.00004   0.00000   0.00069   0.00068   2.10404
   A21        2.10163  -0.00070   0.00000  -0.00330  -0.00332   2.09832
   A22        2.20003   0.00160   0.00000   0.00405   0.00406   2.20409
   A23        2.11483  -0.00270   0.00000  -0.01356  -0.01355   2.10129
   A24        1.95123   0.00109   0.00000   0.00883   0.00880   1.96003
   A25        1.81754  -0.00268   0.00000  -0.01017  -0.01016   1.80738
   A26        1.92105   0.00115   0.00000   0.01153   0.01153   1.93258
   A27        1.94358   0.00180   0.00000   0.01251   0.01249   1.95607
   A28        1.94088   0.00048   0.00000   0.00083   0.00087   1.94176
   A29        1.95473   0.00080   0.00000   0.00146   0.00148   1.95621
   A30        1.88625  -0.00147   0.00000  -0.01503  -0.01509   1.87116
   A31        1.80161   0.00161   0.00000   0.00642   0.00642   1.80804
   A32        1.91987   0.00029   0.00000  -0.00251  -0.00256   1.91731
   A33        1.95596  -0.00139   0.00000  -0.00129  -0.00137   1.95459
   A34        1.91660  -0.00069   0.00000   0.00016   0.00018   1.91678
   A35        1.97238   0.00071   0.00000   0.01090   0.01087   1.98325
   A36        1.89598  -0.00045   0.00000  -0.01283  -0.01284   1.88314
   A37        1.78356   0.00249   0.00000   0.01059   0.01055   1.79410
   A38        1.96870   0.00027   0.00000   0.00869   0.00861   1.97731
   A39        1.92336  -0.00094   0.00000  -0.00165  -0.00159   1.92177
   A40        1.96293  -0.00131   0.00000   0.00187   0.00176   1.96470
   A41        1.92364  -0.00022   0.00000  -0.00646  -0.00649   1.91715
   A42        1.89963  -0.00021   0.00000  -0.01199  -0.01198   1.88765
   A43        1.80934  -0.00216   0.00000  -0.00784  -0.00787   1.80147
   A44        1.91145   0.00097   0.00000   0.00477   0.00478   1.91623
   A45        1.91424   0.00131   0.00000   0.01374   0.01377   1.92801
   A46        1.99462   0.00138   0.00000   0.00717   0.00719   2.00181
   A47        1.94072  -0.00003   0.00000  -0.00191  -0.00188   1.93885
   A48        1.89153  -0.00136   0.00000  -0.01441  -0.01443   1.87711
    D1       -1.21026   0.00106   0.00000   0.08329   0.08323  -1.12702
    D2        1.87299   0.00119   0.00000   0.08931   0.08925   1.96224
    D3        1.93785   0.00058   0.00000   0.06010   0.06016   1.99801
    D4       -1.26209   0.00071   0.00000   0.06612   0.06618  -1.19591
    D5        2.99941  -0.00036   0.00000  -0.01815  -0.01821   2.98121
    D6        0.07207  -0.00039   0.00000  -0.01486  -0.01492   0.05714
    D7       -0.14877   0.00011   0.00000   0.00525   0.00531  -0.14346
    D8       -3.07612   0.00008   0.00000   0.00854   0.00860  -3.06752
    D9        3.10145   0.00011   0.00000   0.00416   0.00416   3.10561
   D10       -0.03430   0.00016   0.00000   0.00626   0.00626  -0.02803
   D11        0.01803  -0.00004   0.00000  -0.00193  -0.00192   0.01611
   D12       -3.11772   0.00001   0.00000   0.00018   0.00018  -3.11754
   D13       -3.09733  -0.00000   0.00000  -0.00111  -0.00112  -3.09844
   D14        0.02690   0.00023   0.00000   0.00737   0.00737   0.03427
   D15       -0.01415   0.00011   0.00000   0.00486   0.00486  -0.00929
   D16        3.11008   0.00034   0.00000   0.01333   0.01335   3.12342
   D17       -0.00817  -0.00009   0.00000  -0.00316  -0.00316  -0.01133
   D18        3.13796  -0.00004   0.00000  -0.00117  -0.00117   3.13679
   D19        3.12752  -0.00015   0.00000  -0.00529  -0.00529   3.12223
   D20       -0.00954  -0.00009   0.00000  -0.00330  -0.00330  -0.01284
   D21       -0.00535   0.00014   0.00000   0.00511   0.00511  -0.00023
   D22       -3.13972   0.00005   0.00000   0.00179   0.00178  -3.13793
   D23        3.13173   0.00008   0.00000   0.00314   0.00314   3.13487
   D24       -0.00264  -0.00000   0.00000  -0.00019  -0.00019  -0.00283
   D25       -3.13930   0.00002   0.00000   0.00044   0.00045  -3.13885
   D26        0.00922  -0.00006   0.00000  -0.00209  -0.00208   0.00714
   D27       -0.00488   0.00011   0.00000   0.00377   0.00377  -0.00112
[...]
 Alpha virt. eigenvalues --    0.69779   0.70905   0.71592   0.72023   0.73284
 Alpha virt. eigenvalues --    0.74122   0.74355   0.75355   0.76015   0.76858
 Alpha virt. eigenvalues --    0.78500   0.79606   0.82482   0.83294   0.83731
 Alpha virt. eigenvalues --    0.86366   0.87697   0.87922   0.88777   0.90126
 Alpha virt. eigenvalues --    0.91027   0.91885   0.93788   0.93902   0.94590
 Alpha virt. eigenvalues --    0.95051   0.97302   0.98005   0.99683   1.00575
 Alpha virt. eigenvalues --    1.01307   1.02680   1.04806   1.05719   1.06394
 Alpha virt. eigenvalues --    1.06510   1.08040   1.09320   1.10458   1.11044
 Alpha virt. eigenvalues --    1.13258   1.13822   1.15334   1.16755   1.17101
 Alpha virt. eigenvalues --    1.18390   1.19636   1.20793   1.21599   1.23633
 Alpha virt. eigenvalues --    1.23803   1.24977   1.25940   1.26767   1.27723
 Alpha virt. eigenvalues --    1.28871   1.30776   1.31262   1.31620   1.32893
 Alpha virt. eigenvalues --    1.34471   1.35023   1.38776   1.39683   1.40912
 Alpha virt. eigenvalues --    1.41281   1.43678   1.45242   1.46856   1.47252
 Alpha virt. eigenvalues --    1.48555   1.49659   1.50254   1.51647   1.52713
 Alpha virt. eigenvalues --    1.53784   1.54625   1.56166   1.56897   1.58051
 Alpha virt. eigenvalues --    1.58583   1.58964   1.59920   1.60720   1.60892
 Alpha virt. eigenvalues --    1.61684   1.63320   1.64163   1.64534   1.65731
 Alpha virt. eigenvalues --    1.66532   1.67076   1.68340   1.68612   1.69006
 Alpha virt. eigenvalues --    1.70128   1.72270   1.72712   1.73429   1.74560
 Alpha virt. eigenvalues --    1.74943   1.76550   1.77391   1.77771   1.79185
 Alpha virt. eigenvalues --    1.81469   1.82001   1.82269   1.82977   1.84727
 Alpha virt. eigenvalues --    1.86815   1.87351   1.88965   1.89783   1.90823
 Alpha virt. eigenvalues --    1.92336   1.93338   1.93855   1.95982   1.98276
 Alpha virt. eigenvalues --    1.98947   1.99181   2.00749   2.01755   2.03617
 Alpha virt. eigenvalues --    2.05648   2.06859   2.08044   2.08722   2.10699
 Alpha virt. eigenvalues --    2.12442   2.13824   2.15974   2.17271   2.19145
 Alpha virt. eigenvalues --    2.19439   2.23030   2.24740   2.24779   2.26418
 Alpha virt. eigenvalues --    2.27157   2.30235   2.31689   2.34244   2.35674
 Alpha virt. eigenvalues --    2.35888   2.36920   2.39760   2.41777   2.42943
 Alpha virt. eigenvalues --    2.43763   2.44280   2.45795   2.47239   2.48748
 Alpha virt. eigenvalues --    2.49978   2.51051   2.51586   2.51998   2.54568
 Alpha virt. eigenvalues --    2.56341   2.57933   2.58551   2.59320   2.62195
 Alpha virt. eigenvalues --    2.62539   2.62878   2.63640   2.64354   2.65286
 Alpha virt. eigenvalues --    2.66102   2.66931   2.67427   2.68288   2.70045
 Alpha virt. eigenvalues --    2.70678   2.71181   2.73700   2.74436   2.75044
 Alpha virt. eigenvalues --    2.76351   2.77045   2.77986   2.79387   2.80308
 Alpha virt. eigenvalues --    2.81449   2.82894   2.83403   2.83987   2.84628
 Alpha virt. eigenvalues --    2.85461   2.87642   2.88817   2.90892   2.91881
 Alpha virt. eigenvalues --    2.94408   2.94978   2.96259   2.98293   2.98794
 Alpha virt. eigenvalues --    3.01813   3.02596   3.02973   3.04717   3.05756
 Alpha virt. eigenvalues --    3.07808   3.09122   3.09278   3.10452   3.11124
 Alpha virt. eigenvalues --    3.12902   3.13161   3.13941   3.15266   3.15995
 Alpha virt. eigenvalues --    3.16470   3.16807   3.18203   3.18863   3.20237
 Alpha virt. eigenvalues --    3.20999   3.22091   3.24216   3.24943   3.26006
 Alpha virt. eigenvalues --    3.26482   3.28796   3.30438   3.31126   3.32156
 Alpha virt. eigenvalues --    3.33276   3.34649   3.35294   3.35474   3.36102
 Alpha virt. eigenvalues --    3.36522   3.37135   3.37756   3.39719   3.40663
 Alpha virt. eigenvalues --    3.42123   3.42636   3.43412   3.45056   3.46165
 Alpha virt. eigenvalues --    3.48103   3.49231   3.49742   3.50714   3.51363
 Alpha virt. eigenvalues --    3.52396   3.53861   3.54181   3.55299   3.55676
 Alpha virt. eigenvalues --    3.58140   3.60212   3.61703   3.63063   3.65025
 Alpha virt. eigenvalues --    3.67453   3.68195   3.69320   3.71841   3.73866
 Alpha virt. eigenvalues --    3.74903   3.76074   3.79263   3.81710   3.82371
 Alpha virt. eigenvalues --    3.83376   3.87144   3.89405   3.92301   3.93574
 Alpha virt. eigenvalues --    3.95958   3.97027   3.99135   3.99587   4.00960
 Alpha virt. eigenvalues --    4.04039   4.04609   4.05660   4.06870   4.08626
 Alpha virt. eigenvalues --    4.09918   4.11367   4.12503   4.14190   4.15633
 Alpha virt. eigenvalues --    4.15833   4.16803   4.17917   4.18891   4.21149
 Alpha virt. eigenvalues --    4.22321   4.23234   4.24563   4.26874   4.29305
 Alpha virt. eigenvalues --    4.30918   4.33192   4.35257   4.38196   4.39610
 Alpha virt. eigenvalues --    4.42344   4.43561   4.47893   4.48834   4.50270
 Alpha virt. eigenvalues --    4.51054   4.54432   4.56614   4.59778   4.62400
 Alpha virt. eigenvalues --    4.62622   4.65185   4.69712   4.76032   4.77287
 Alpha virt. eigenvalues --    4.80467   4.82614   4.84775   4.91277   4.94503
 Alpha virt. eigenvalues --    4.97156   5.01938   5.04018   5.10091   5.13812
 Alpha virt. eigenvalues --    5.16755   5.17884   5.20493   5.23523   5.26816
 Alpha virt. eigenvalues --    5.28819   5.31739   5.32519   5.35575   5.40485
 Alpha virt. eigenvalues --    5.49334   5.52375   5.59471   5.69561   5.74450
 Alpha virt. eigenvalues --    5.77825   5.96897   6.14264   6.33280   6.43561
 Alpha virt. eigenvalues --    6.59096   6.70990   6.85002   7.08038   7.11010
 Alpha virt. eigenvalues --    7.85331  22.10907  22.45300  22.57336  22.62168
 Alpha virt. eigenvalues --   22.67932  22.70258  22.75332  22.84311  22.94404
 Alpha virt. eigenvalues --   23.24655  23.54655  33.05280  44.10731
          Condensed to atoms (all electrons):
               1          2          3          4          5          6
     1  O    7.951213   0.682238  -0.133551   0.021793  -0.001343   0.000351
     2  C    0.682238   4.635295   0.222074  -0.041293   0.001030   0.000998
     3  C   -0.133551   0.222074   5.736947   0.227006   0.048365  -0.140792
     4  C    0.021793  -0.041293   0.227006   5.126648   0.431853   0.030090
     5  C   -0.001343   0.001030   0.048365   0.431853   5.018873   0.380493
     6  C    0.000351   0.000998  -0.140792   0.030090   0.380493   5.145979
     7  C   -0.000360  -0.002673   0.028977  -0.069455   0.026727   0.396691
     8  Br   0.000009  -0.000872   0.023245  -0.002203   0.019652  -0.094958
     9  C    0.000865  -0.046487   0.180288   0.051334  -0.119806   0.046168
    10  N   -0.124338   0.401347  -0.164802   0.009993  -0.001610   0.000738
    11  C    0.002683  -0.045738   0.003498   0.000665   0.000066  -0.000268
    12  C   -0.000673  -0.001997  -0.003962   0.000731  -0.000068   0.000010
    13  C    0.003824   0.011152   0.004089  -0.000684   0.000028  -0.000011
    14  C   -0.018444  -0.060986  -0.000399   0.001008  -0.000020   0.000036
    15  H    0.012584  -0.001394  -0.059437   0.420763  -0.035403   0.007548
    16  H   -0.000087  -0.000091   0.008694  -0.034171   0.415142  -0.035370
    17  H   -0.000002   0.000123  -0.001979   0.004481  -0.034659   0.419050
    18  H   -0.000578   0.003739  -0.050730   0.012668  -0.004502   0.012094
    19  H    0.001117  -0.010950  -0.009883   0.007562  -0.000675   0.000799
    20  H   -0.000279  -0.001503   0.007847  -0.002999   0.000337  -0.000450
    21  H    0.000041  -0.000041   0.000137   0.000019  -0.000001   0.000001
    22  H    0.000019   0.000196   0.000077  -0.000021   0.000002  -0.000000
    23  H   -0.000023  -0.000055   0.000036  -0.000005   0.000000  -0.000000
    24  H    0.000082   0.000893   0.000328  -0.000014  -0.000001  -0.000000
    25  H    0.020246  -0.020666   0.001778   0.000318  -0.000013   0.000007
    26  H    0.000057   0.003224   0.000730  -0.000130   0.000003  -0.000003
               7          8          9         10         11         12
     1  O   -0.000360   0.000009   0.000865  -0.124338   0.002683  -0.000673
     2  C   -0.002673  -0.000872  -0.046487   0.401347  -0.045738  -0.001997
     3  C    0.028977   0.023245   0.180288  -0.164802   0.003498  -0.003962
     4  C   -0.069455  -0.002203   0.051334   0.009993   0.000665   0.000731
     5  C    0.026727   0.019652  -0.119806  -0.001610   0.000066  -0.000068
     6  C    0.396691  -0.094958   0.046168   0.000738  -0.000268   0.000010
     7  C    4.895841   0.368180   0.358069   0.002100   0.000775  -0.000121
     8  Br   0.368180  34.919846  -0.108528  -0.000046  -0.000127   0.000016
     9  C    0.358069  -0.108528   5.428515   0.029065  -0.006837   0.002737
    10  N    0.002100  -0.000046   0.029065   6.789921   0.228371  -0.051047
    11  C    0.000775  -0.000127  -0.006837   0.228371   5.108797   0.258102
    12  C   -0.000121   0.000016   0.002737  -0.051047   0.258102   5.182334
    13  C    0.000072  -0.000001  -0.000754  -0.045681  -0.051766   0.216893
    14  C   -0.000171  -0.000008   0.000487   0.230119  -0.052910  -0.031136
    15  H   -0.002181   0.000036   0.014477   0.000184  -0.000009   0.000051
    16  H    0.004033  -0.000299  -0.000808   0.000006   0.000004  -0.000000
    17  H   -0.047408  -0.006874   0.013788  -0.000002   0.000003  -0.000000
    18  H   -0.030154  -0.006421   0.401998   0.014651  -0.009132   0.000938
    19  H   -0.001035  -0.000013   0.001501  -0.050576   0.423239  -0.017220
    20  H    0.000504   0.000747  -0.003781  -0.048581   0.430471  -0.039496
    21  H    0.000009  -0.000001  -0.000109   0.003035  -0.052752   0.440311
    22  H   -0.000001   0.000000  -0.000047   0.004790  -0.040264   0.425904
    23  H   -0.000001  -0.000000  -0.000007   0.005877   0.009622  -0.042139
    24  H    0.000001  -0.000000  -0.000011   0.003715   0.001900  -0.049583
    25  H    0.000011  -0.000000   0.000227  -0.037670   0.002929   0.011147
    26  H   -0.000006   0.000000  -0.000338  -0.043020   0.002758  -0.006337
              13         14         15         16         17         18
     1  O    0.003824  -0.018444   0.012584  -0.000087  -0.000002  -0.000578
     2  C    0.011152  -0.060986  -0.001394  -0.000091   0.000123   0.003739
     3  C    0.004089  -0.000399  -0.059437   0.008694  -0.001979  -0.050730
     4  C   -0.000684   0.001008   0.420763  -0.034171   0.004481   0.012668
     5  C    0.000028  -0.000020  -0.035403   0.415142  -0.034659  -0.004502
     6  C   -0.000011   0.000036   0.007548  -0.035370   0.419050   0.012094
     7  C    0.000072  -0.000171  -0.002181   0.004033  -0.047408  -0.030154
     8  Br  -0.000001  -0.000008   0.000036  -0.000299  -0.006874  -0.006421
     9  C   -0.000754   0.000487   0.014477  -0.000808   0.013788   0.401998
    10  N   -0.045681   0.230119   0.000184   0.000006  -0.000002   0.014651
    11  C   -0.051766  -0.052910  -0.000009   0.000004   0.000003  -0.009132
    12  C    0.216893  -0.031136   0.000051  -0.000000  -0.000000   0.000938
    13  C    5.188417   0.241089  -0.000057   0.000000   0.000000  -0.000396
    14  C    0.241089   5.122913   0.000151  -0.000001   0.000000   0.000673
    15  H   -0.000057   0.000151   0.468121  -0.004081  -0.000147   0.000109
    16  H    0.000000  -0.000001  -0.004081   0.480490  -0.002878   0.000026
    17  H    0.000000   0.000000  -0.000147  -0.002878   0.475408   0.000028
    18  H   -0.000396   0.000673   0.000109   0.000026   0.000028   0.450017
    19  H   -0.010568   0.009449   0.000506  -0.000011  -0.000001   0.003298
    20  H    0.014358  -0.001972  -0.000112   0.000003   0.000003  -0.013411
    21  H   -0.049001   0.001834   0.000001   0.000000  -0.000000   0.000232
    22  H   -0.032838   0.007735  -0.000001   0.000000   0.000000  -0.000027
    23  H    0.432830  -0.041606  -0.000001  -0.000000   0.000000  -0.000006
    24  H    0.434797  -0.049624  -0.000002   0.000000  -0.000000   0.000005
    25  H   -0.039044   0.434497   0.000142  -0.000000   0.000000   0.000113
    26  H   -0.040904   0.422873  -0.000015   0.000000  -0.000000  -0.000215
              19         20         21         22         23         24
     1  O    0.001117  -0.000279   0.000041   0.000019  -0.000023   0.000082
     2  C   -0.010950  -0.001503  -0.000041   0.000196  -0.000055   0.000893
     3  C   -0.009883   0.007847   0.000137   0.000077   0.000036   0.000328
     4  C    0.007562  -0.002999   0.000019  -0.000021  -0.000005  -0.000014
     5  C   -0.000675   0.000337  -0.000001   0.000002   0.000000  -0.000001
     6  C    0.000799  -0.000450   0.000001  -0.000000  -0.000000  -0.000000
     7  C   -0.001035   0.000504   0.000009  -0.000001  -0.000001   0.000001
     8  Br  -0.000013   0.000747  -0.000001   0.000000  -0.000000  -0.000000
     9  C    0.001501  -0.003781  -0.000109  -0.000047  -0.000007  -0.000011
    10  N   -0.050576  -0.048581   0.003035   0.004790   0.005877   0.003715
    11  C    0.423239   0.430471  -0.052752  -0.040264   0.009622   0.001900
    12  C   -0.017220  -0.039496   0.440311   0.425904  -0.042139  -0.049583
    13  C   -0.010568   0.014358  -0.049001  -0.032838   0.432830   0.434797
    14  C    0.009449  -0.001972   0.001834   0.007735  -0.041606  -0.049624
    15  H    0.000506  -0.000112   0.000001  -0.000001  -0.000001  -0.000002
    16  H   -0.000011   0.000003   0.000000   0.000000  -0.000000   0.000000
    17  H   -0.000001   0.000003  -0.000000   0.000000   0.000000  -0.000000
    18  H    0.003298  -0.013411   0.000232  -0.000027  -0.000006   0.000005
    19  H    0.518611  -0.043892   0.005661  -0.006024  -0.000359   0.000396
    20  H   -0.043892   0.562071  -0.010350   0.001451  -0.000037  -0.000044
    21  H    0.005661  -0.010350   0.521569  -0.018937  -0.005012   0.005292
    22  H   -0.006024   0.001451  -0.018937   0.507211  -0.000643  -0.004458
    23  H   -0.000359  -0.000037  -0.005012  -0.000643   0.509128  -0.016844
    24  H    0.000396  -0.000044   0.005292  -0.004458  -0.016844   0.517909
    25  H    0.000886  -0.000737   0.000067  -0.000172  -0.000626  -0.005546
    26  H   -0.000913   0.001654  -0.000228  -0.000076  -0.002457   0.005452
              25         26
     1  O    0.020246   0.000057
     2  C   -0.020666   0.003224
     3  C    0.001778   0.000730
     4  C    0.000318  -0.000130
     5  C   -0.000013   0.000003
     6  C    0.000007  -0.000003
     7  C    0.000011  -0.000006
     8  Br  -0.000000   0.000000
     9  C    0.000227  -0.000338
    10  N   -0.037670  -0.043020
    11  C    0.002929   0.002758
    12  C    0.011147  -0.006337
    13  C   -0.039044  -0.040904
    14  C    0.434497   0.422873
    15  H    0.000142  -0.000015
    16  H   -0.000000   0.000000
    17  H    0.000000  -0.000000
    18  H    0.000113  -0.000215
    19  H    0.000886  -0.000913
    20  H   -0.000737   0.001654
    21  H    0.000067  -0.000228
    22  H   -0.000172  -0.000076
    23  H   -0.000626  -0.002457
    24  H   -0.005546   0.005452
    25  H    0.485717  -0.029192
    26  H   -0.029192   0.533132
 Mulliken charges:
               1
     1  O   -0.417445
     2  C    0.272434
     3  C    0.071418
     4  C   -0.195957
     5  C   -0.144472
     6  C   -0.169199
     7  C    0.071577
     8  Br  -0.111383
     9  C   -0.242005
    10  N   -0.156539
    11  C   -0.214081
    12  C   -0.295392
    13  C   -0.275844
    14  C   -0.215589
    15  H    0.178166
    16  H    0.169399
    17  H    0.181067
    18  H    0.214984
    19  H    0.179099
    20  H    0.148198
    21  H    0.158221
    22  H    0.156124
    23  H    0.152329
    24  H    0.155357
    25  H    0.175583
    26  H    0.153951
 Sum of Mulliken charges =  -0.00000
 Mulliken charges with hydrogens summed into heavy atoms:
               1
     1  O   -0.417445
     2  C    0.272434
     3  C    0.071418
     4  C   -0.017791
     5  C    0.024927
     6  C    0.011867
     7  C    0.071577
     8  Br  -0.111383
     9  C   -0.027021
    10  N   -0.156539
    11  C    0.113215
    12  C    0.018953
    13  C    0.031842
    14  C    0.113945
 Electronic spatial extent (au):  <R**2>=           4710.7657
 Charge=              0.0000 electrons
 Dipole moment (field-independent basis, Debye):
    X=             -1.1171    Y=             -2.2737    Z=             -2.9100  Tot=              3.8582
 Quadrupole moment (field-independent basis, Debye-Ang):
   XX=            -89.9669   YY=            -94.6753   ZZ=            -97.7870
   XY=             14.2031   XZ=              2.9101   YZ=             -7.8876
 Traceless Quadrupole moment (field-independent basis, Debye-Ang):
   XX=              4.1761   YY=             -0.5322   ZZ=             -3.6439
   XY=             14.2031   XZ=              2.9101   YZ=             -7.8876
 Octapole moment (field-independent basis, Debye-Ang**2):
  XXX=             49.5176  YYY=            -35.0228  ZZZ=              7.5551  XYY=             46.0503
  XXY=            -30.4582  XXZ=            -13.5894  XZZ=             29.0180  YZZ=            -18.5142
  YYZ=            -17.7575  XYZ=              3.0449
 Hexadecapole moment (field-independent basis, Debye-Ang**3):
 XXXX=          -3925.0144 YYYY=          -1207.2976 ZZZZ=           -358.0976 XXXY=            -14.5020
 XXXZ=              6.2351 YYYX=            -63.5441 YYYZ=            -67.6288 ZZZX=             29.9262
 ZZZY=             -6.6892 XXYY=           -883.1120 XXZZ=           -747.1856 YYZZ=           -272.1339
 XXYZ=            -47.1896 YYXZ=             17.3815 ZZXY=            -14.9842
 N-N= 1.141092019103D+03 E-N=-9.728544365138D+03  KE= 3.124221810712D+03
 Calculating spin-rotation constants.
 Leave Link  601 at Tue Sep 17 11:51:53 2024, MaxMem=  1342177280 cpu:               8.7 elap:               9.0
 (Enter /groups/ReismanLab/Software/Gaussian16_RevC/Linux_Binary_AVX2-enabled-CPU/g16/l9999.exe)
 Unable to Open any file for archive entry.
 1\1\GINC-HPC-89-18\SP\RM062X\def2TZVP\C11H12Br1N1O1\MANTIND\17-Sep-202
 4\0\\#p M062X/def2tzvp geom=check guess=read scf(xqc,tight) integral(g
 rid=ultrafine) scrf(SMD, solvent=1,4-Dioxane) nmr=giao\\spe\\0,1\O,0,-
 2.5459900231,-1.7990403777,-1.1787988155\C,0,-2.0021012052,-0.90359269
 44,-0.534839709\C,0,-0.6006060477,-1.0935917745,-0.0224072808\C,0,-0.2
 662686763,-2.3384289126,0.5227050013\C,0,1.0295215704,-2.5812249193,0.
 9699228897\C,0,2.0150150109,-1.5993520849,0.8532837749\C,0,1.677163868
 4,-0.376650266,0.2794861247\Br,0,3.0213125604,0.9693905086,0.083021825
 3\C,0,0.3833750514,-0.1087866421,-0.1568321025\N,0,-2.6204680448,0.286
 5289101,-0.2592833603\C,0,-2.2521152642,1.200305368,0.8444100103\C,0,-
 3.5046717391,2.0711939696,1.0377341964\C,0,-4.6523200875,1.1774928551,
 0.548241155\C,0,-4.0301664763,0.4587702462,-0.6507193889\H,0,-1.031175
 8867,-3.104383051,0.5790525046\H,0,1.2834331655,-3.5423928726,1.405496
 9114\H,0,3.0282817426,-1.7805895859,1.1915723861\H,0,0.155733094,0.843
 0225179,-0.619701369\H,0,-2.0145737831,0.6258255174,1.7469784302\H,0,-
 1.3770310124,1.8061854595,0.6001148222\H,0,-3.4350843432,2.9651132285,
 0.4084035404\H,0,-3.6162328721,2.4016069354,2.0733386521\H,0,-5.552363
 8489,1.7385846237,0.2851982101\H,0,-4.9206036964,0.4474697917,1.320143
 2869\H,0,-4.4605384464,-0.5188054785,-0.8689220636\H,0,-4.0947568555,1
 .0705710706,-1.5597505488\\Version=ES64L-G16RevC.02\State=1-A\HF=-3130
 .5636377\RMSD=1.494e-09\Dipole=-0.436084,0.8429382,1.1846324\Quadrupol
 e=2.2902615,1.3071077,-3.5973693,-10.3199152,-2.8978832,-5.8565108\PG=
 C01 [X(C11H12Br1N1O1)]\\@
 The archive entry for this job was punched.


 A people that values its privileges above its principles soon loses both.
 -- Dwight D. Eisenhower
 Job cpu time:       0 days  0 hours 27 minutes 43.5 seconds.
 Elapsed time:       0 days  0 hours 27 minutes 52.7 seconds.
 File lengths (MBytes):  RWF=    352 Int=      0 D2E=      0 Chk=     40 Scr=     16
 Normal termination of Gaussian 16 at Tue Sep 17 11:51:53 2024.
