 Entering Gaussian System, Link 0=g16
 Input=smiles_00060_conf_0.gjf
 Output=smiles_00060_conf_0.log
 Initial command:
 /groups/ReismanLab/Software/Gaussian16_RevC/Linux_Binary_AVX2-enabled-CPU/g16/l1.exe "/central/groups/ReismanLab/DM/dft_final/smiles_00060/Gau-1034644.inp" -scrdir="/central/groups/ReismanLab/DM/dft_final/smiles_00060/"
 Entering Link 1 = /groups/ReismanLab/Software/Gaussian16_RevC/Linux_Binary_AVX2-enabled-CPU/g16/l1.exe PID=   1034645.
  
 Copyright (c) 1988-2021, Gaussian, Inc.  All Rights Reserved.
  
 This is part of the Gaussian(R) 16 program.  It is based on
 the Gaussian(R) 09 system (copyright 2009, Gaussian, Inc.),
 the Gaussian(R) 03 system (copyright 2003, Gaussian, Inc.),
 the Gaussian(R) 98 system (copyright 1998, Gaussian, Inc.),
 the Gaussian(R) 94 system (copyright 1995, Gaussian, Inc.),
 the Gaussian 92(TM) system (copyright 1992, Gaussian, Inc.),
 the Gaussian 90(TM) system (copyright 1990, Gaussian, Inc.),
 the Gaussian 88(TM) system (copyright 1988, Gaussian, Inc.),
 the Gaussian 86(TM) system (copyright 1986, Carnegie Mellon
 University), and the Gaussian 82(TM) system (copyright 1983,
 Carnegie Mellon University). Gaussian is a federally registered
 trademark of Gaussian, Inc.
  
 This software contains proprietary and confidential information,
 including trade secrets, belonging to Gaussian, Inc.
  
 This software is provided under written license and may be
 used, copied, transmitted, or stored only in accord with that
 written license.
  
 The following legend is applicable only to US Government
 contracts under FAR:
  
                    RESTRICTED RIGHTS LEGEND
  
 Use, reproduction and disclosure by the US Government is
 subject to restrictions as set forth in subparagraphs (a)
 and (c) of the Commercial Computer Software - Restricted
 Rights clause in FAR 52.227-19.
  
 Gaussian, Inc.
 340 Quinnipiac St., Bldg. 40, Wallingford CT 06492
  
  
 ---------------------------------------------------------------
 Warning -- This program may not be used in any manner that
 competes with the business of Gaussian, Inc. or will provide
 assistance to any competitor of Gaussian, Inc.  The licensee
 of this program is prohibited from giving any competitor of
 Gaussian, Inc. access to this program.  By using this program,
 the user acknowledges that Gaussian, Inc. is engaged in the
 business of creating and licensing software in the field of
 computational chemistry and represents and warrants to the
 licensee that it is not a competitor of Gaussian, Inc. and that
 it will not use this program in any manner prohibited above.
 ---------------------------------------------------------------
  

 Cite this work as:
 Gaussian 16, Revision C.02,
 M. J. Frisch, G. W. Trucks, H. B. Schlegel, G. E. Scuseria, 
 M. A. Robb, J. R. Cheeseman, G. Scalmani, V. Barone, 
 G. A. Petersson, H. Nakatsuji, X. Li, M. Caricato, A. V. Marenich, 
 J. Bloino, B. G. Janesko, R. Gomperts, B. Mennucci, H. P. Hratchian, 
 J. V. Ortiz, A. F. Izmaylov, J. L. Sonnenberg, D. Williams-Young, 
 F. Ding, F. Lipparini, F. Egidi, J. Goings, B. Peng, A. Petrone, 
 T. Henderson, D. Ranasinghe, V. G. Zakrzewski, J. Gao, N. Rega, 
 G. Zheng, W. Liang, M. Hada, M. Ehara, K. Toyota, R. Fukuda, 
 J. Hasegawa, M. Ishida, T. Nakajima, Y. Honda, O. Kitao, H. Nakai, 
 T. Vreven, K. Throssell, J. A. Montgomery, Jr., J. E. Peralta, 
 F. Ogliaro, M. J. Bearpark, J. J. Heyd, E. N. Brothers, K. N. Kudin, 
 V. N. Staroverov, T. A. Keith, R. Kobayashi, J. Normand, 
 K. Raghavachari, A. P. Rendell, J. C. Burant, S. S. Iyengar, 
 J. Tomasi, M. Cossi, J. M. Millam, M. Klene, C. Adamo, R. Cammi, 
 J. W. Ochterski, R. L. Martin, K. Morokuma, O. Farkas, 
 J. B. Foresman, and D. J. Fox, Gaussian, Inc., Wallingford CT, 2019.
 
 ******************************************
 Gaussian 16:  ES64L-G16RevC.02  7-Dec-2021
                17-Sep-2024 
 ******************************************
 %nprocshared=8
 Will use up to    8 processors via shared memory.
 %Mem=10GB
 %Chk=smiles_00060_conf_0.chk
 ----------------------------------------------------------------------
 #p B3LYP/6-31G(d,p) EmpiricalDispersion=GD3BJ opt freq scf(xqc,tight) 
 integral(grid=ultrafine)
 ----------------------------------------------------------------------
 1/18=20,19=15,26=4,38=1/1,3;
 2/9=110,12=2,17=6,18=5,40=1/2;
 3/5=1,6=6,7=101,11=2,25=1,30=1,71=1,74=-5,75=-5,124=41/1,2,3;
 4//1;
 5/5=2,8=3,13=1,32=2,38=5/2,8;
 6/7=2,8=2,9=2,10=2,28=1/1;
 7//1,2,3,16;
 1/18=20,19=15,26=4/3(2);
 2/9=110/2;
 99//99;
 2/9=110/2;
 3/5=1,6=6,7=101,11=2,25=1,30=1,71=1,74=-5,75=-5,124=41/1,2,3;
 4/5=5,16=3,69=1/1;
 5/5=2,8=3,13=1,32=2,38=5/2,8;
 7//1,2,3,16;
 1/18=20,19=15,26=4/3(-5);
 2/9=110/2;
 6/7=2,8=2,9=2,10=2,19=2,28=1/1;
 99/9=1/99;
 Leave Link    1 at Tue Sep 17 09:44:40 2024, MaxMem=  1342177280 cpu:               0.1 elap:               0.5
 (Enter /groups/ReismanLab/Software/Gaussian16_RevC/Linux_Binary_AVX2-enabled-CPU/g16/l101.exe)
 ----------------------------------
 opt-freq conformers_unique/conf_aa
 ----------------------------------
 Symbolic Z-matrix:
 Charge =  0 Multiplicity = 1
 F                    -1.45337  -3.42158  -0.19325 
 C                    -0.86077  -2.22611  -0.07135 
 C                     0.50955  -2.16011   0.05126 
 C                     1.14199  -0.91933   0.17934 
 O                     2.48166  -0.94818   0.29538 
 C                     3.19488   0.26065   0.4672 
 C                     3.35431   1.16185  -0.77373 
 C                     4.8781    1.13546  -0.57502 
 C                     4.71198   0.02706   0.47658 
 C                     0.37016   0.24016   0.17832 
 C                    -1.00749   0.15354   0.05595 
 Br                   -2.04477   1.73814   0.05436 
 C                    -1.64055  -1.07265  -0.06974 
 F                    -2.97359  -1.14708  -0.18959 
 H                     1.09672  -3.06303   0.05009 
 H                     2.82626   0.79012   1.35311 
 H                     3.03338   0.65384  -1.6807 
 H                     2.88139   2.14007  -0.72282 
 H                     5.26484   2.06147  -0.15666 
 H                     5.46339   0.87049  -1.45133 
 H                     4.95241  -0.96287   0.09799 
 H                     5.20954   0.17982   1.43032 
 H                     0.8212    1.214     0.2659 
 
 ITRead=  0  0  0  0  0  0  0  0  0  0  0  0  0  0  0  0  0  0  0  0
 ITRead=  0  0  0
 MicOpt= -1 -1 -1 -1 -1 -1 -1 -1 -1 -1 -1 -1 -1 -1 -1 -1 -1 -1 -1 -1
 MicOpt= -1 -1 -1
 NAtoms=     23 NQM=       23 NQMF=       0 NMMI=      0 NMMIF=      0
                NMic=       0 NMicF=      0.
                    Isotopes and Nuclear Properties:
 (Nuclear quadrupole moments (NQMom) in fm**2, nuclear magnetic moments (NMagM)
  in nuclear magnetons)

  Atom         1           2           3           4           5           6           7           8           9          10
 IAtWgt=          19          12          12          12          16          12          12          12          12          12
 AtmWgt=  18.9984032  12.0000000  12.0000000  12.0000000  15.9949146  12.0000000  12.0000000  12.0000000  12.0000000  12.0000000
 NucSpn=           1           0           0           0           0           0           0           0           0           0
 AtZEff=  -0.0000000  -0.0000000  -0.0000000  -0.0000000  -0.0000000  -0.0000000  -0.0000000  -0.0000000  -0.0000000  -0.0000000
 NQMom=    0.0000000   0.0000000   0.0000000   0.0000000   0.0000000   0.0000000   0.0000000   0.0000000   0.0000000   0.0000000
 NMagM=    2.6288670   0.0000000   0.0000000   0.0000000   0.0000000   0.0000000   0.0000000   0.0000000   0.0000000   0.0000000
 AtZNuc=   9.0000000   6.0000000   6.0000000   6.0000000   8.0000000   6.0000000   6.0000000   6.0000000   6.0000000   6.0000000

  Atom        11          12          13          14          15          16          17          18          19          20
 IAtWgt=          12          79          12          19           1           1           1           1           1           1
 AtmWgt=  12.0000000  78.9183361  12.0000000  18.9984032   1.0078250   1.0078250   1.0078250   1.0078250   1.0078250   1.0078250
 NucSpn=           0           3           0           1           1           1           1           1           1           1
 AtZEff=  -0.0000000  -0.0000000  -0.0000000  -0.0000000  -0.0000000  -0.0000000  -0.0000000  -0.0000000  -0.0000000  -0.0000000
 NQMom=    0.0000000  31.3000000   0.0000000   0.0000000   0.0000000   0.0000000   0.0000000   0.0000000   0.0000000   0.0000000
 NMagM=    0.0000000   2.1063990   0.0000000   2.6288670   2.7928460   2.7928460   2.7928460   2.7928460   2.7928460   2.7928460
 AtZNuc=   6.0000000  35.0000000   6.0000000   9.0000000   1.0000000   1.0000000   1.0000000   1.0000000   1.0000000   1.0000000

  Atom        21          22          23
 IAtWgt=           1           1           1
 AtmWgt=   1.0078250   1.0078250   1.0078250
 NucSpn=           1           1           1
 AtZEff=  -0.0000000  -0.0000000  -0.0000000
 NQMom=    0.0000000   0.0000000   0.0000000
 NMagM=    2.7928460   2.7928460   2.7928460
 AtZNuc=   1.0000000   1.0000000   1.0000000
 Leave Link  101 at Tue Sep 17 09:44:40 2024, MaxMem=  1342177280 cpu:               0.2 elap:               0.4
 (Enter /groups/ReismanLab/Software/Gaussian16_RevC/Linux_Binary_AVX2-enabled-CPU/g16/l103.exe)

 GradGradGradGradGradGradGradGradGradGradGradGradGradGradGradGradGradGrad
 Berny optimization.
 Initialization pass.
                           ----------------------------
                           !    Initial Parameters    !
                           ! (Angstroms and Degrees)  !
 --------------------------                            --------------------------
 ! Name  Definition              Value          Derivative Info.                !
 --------------------------------------------------------------------------------
 ! R1    R(1,2)                  1.3398         estimate D2E/DX2                !
 ! R2    R(2,3)                  1.3774         estimate D2E/DX2                !
 ! R3    R(2,13)                 1.3923         estimate D2E/DX2                !
 ! R4    R(3,4)                  1.3985         estimate D2E/DX2                !
 ! R5    R(3,15)                 1.0771         estimate D2E/DX2                !
 ! R6    R(4,5)                  1.345          estimate D2E/DX2                !
 ! R7    R(4,10)                 1.3929         estimate D2E/DX2                !
 ! R8    R(5,6)                  1.414          estimate D2E/DX2                !
 ! R9    R(6,7)                  1.5419         estimate D2E/DX2                !
 ! R10   R(6,9)                  1.535          estimate D2E/DX2                !
 ! R11   R(6,16)                 1.0959         estimate D2E/DX2                !
 ! R12   R(7,8)                  1.5369         estimate D2E/DX2                !
 ! R13   R(7,17)                 1.088          estimate D2E/DX2                !
 ! R14   R(7,18)                 1.0877         estimate D2E/DX2                !
 ! R15   R(8,9)                  1.5369         estimate D2E/DX2                !
 ! R16   R(8,19)                 1.0872         estimate D2E/DX2                !
 ! R17   R(8,20)                 1.0866         estimate D2E/DX2                !
 ! R18   R(9,21)                 1.0868         estimate D2E/DX2                !
 ! R19   R(9,22)                 1.0865         estimate D2E/DX2                !
 ! R20   R(10,11)                1.3858         estimate D2E/DX2                !
 ! R21   R(10,23)                1.0768         estimate D2E/DX2                !
 ! R22   R(11,12)                1.8939         estimate D2E/DX2                !
 ! R23   R(11,13)                1.3857         estimate D2E/DX2                !
 ! R24   R(13,14)                1.3405         estimate D2E/DX2                !
 ! A1    A(1,2,3)              119.3983         estimate D2E/DX2                !
 ! A2    A(1,2,13)             119.4445         estimate D2E/DX2                !
 ! A3    A(3,2,13)             121.1572         estimate D2E/DX2                !
 ! A4    A(2,3,4)              120.0373         estimate D2E/DX2                !
 ! A5    A(2,3,15)             120.1392         estimate D2E/DX2                !
 ! A6    A(4,3,15)             119.8235         estimate D2E/DX2                !
 ! A7    A(3,4,5)              116.0591         estimate D2E/DX2                !
 ! A8    A(3,4,10)             119.2016         estimate D2E/DX2                !
 ! A9    A(5,4,10)             124.7392         estimate D2E/DX2                !
 ! A10   A(4,5,6)              119.6399         estimate D2E/DX2                !
 ! A11   A(5,6,7)              117.0019         estimate D2E/DX2                !
 ! A12   A(5,6,9)              111.6641         estimate D2E/DX2                !
 ! A13   A(5,6,16)             109.973          estimate D2E/DX2                !
 ! A14   A(7,6,9)               89.523          estimate D2E/DX2                !
 ! A15   A(7,6,16)             113.7645         estimate D2E/DX2                !
 ! A16   A(9,6,16)             113.6411         estimate D2E/DX2                !
 ! A17   A(6,7,8)               89.3368         estimate D2E/DX2                !
 ! A18   A(6,7,17)             111.5617         estimate D2E/DX2                !
 ! A19   A(6,7,18)             116.2962         estimate D2E/DX2                !
 ! A20   A(8,7,17)             113.0931         estimate D2E/DX2                !
 ! A21   A(8,7,18)             116.1326         estimate D2E/DX2                !
 ! A22   A(17,7,18)            109.3106         estimate D2E/DX2                !
 ! A23   A(7,8,9)               89.6378         estimate D2E/DX2                !
 ! A24   A(7,8,19)             112.8172         estimate D2E/DX2                !
 ! A25   A(7,8,20)             115.7191         estimate D2E/DX2                !
 ! A26   A(9,8,19)             112.9177         estimate D2E/DX2                !
 ! A27   A(9,8,20)             115.7334         estimate D2E/DX2                !
 ! A28   A(19,8,20)            109.0515         estimate D2E/DX2                !
 ! A29   A(6,9,8)               89.5932         estimate D2E/DX2                !
 ! A30   A(6,9,21)             110.8013         estimate D2E/DX2                !
 ! A31   A(6,9,22)             115.8855         estimate D2E/DX2                !
 ! A32   A(8,9,21)             113.244          estimate D2E/DX2                !
 ! A33   A(8,9,22)             116.7264         estimate D2E/DX2                !
 ! A34   A(21,9,22)            109.4231         estimate D2E/DX2                !
 ! A35   A(4,10,11)            119.9272         estimate D2E/DX2                !
 ! A36   A(4,10,23)            121.3779         estimate D2E/DX2                !
 ! A37   A(11,10,23)           118.6941         estimate D2E/DX2                !
 ! A38   A(10,11,12)           119.4887         estimate D2E/DX2                !
 ! A39   A(10,11,13)           121.1646         estimate D2E/DX2                !
 ! A40   A(12,11,13)           119.3463         estimate D2E/DX2                !
 ! A41   A(2,13,11)            118.5117         estimate D2E/DX2                !
 ! A42   A(2,13,14)            120.7202         estimate D2E/DX2                !
 ! A43   A(11,13,14)           120.768          estimate D2E/DX2                !
 ! D1    D(1,2,3,4)           -179.9971         estimate D2E/DX2                !
 ! D2    D(1,2,3,15)            -0.0769         estimate D2E/DX2                !
 ! D3    D(13,2,3,4)            -0.0493         estimate D2E/DX2                !
 ! D4    D(13,2,3,15)          179.8709         estimate D2E/DX2                !
 ! D5    D(1,2,13,11)         -179.9296         estimate D2E/DX2                !
 ! D6    D(1,2,13,14)           -0.05           estimate D2E/DX2                !
 ! D7    D(3,2,13,11)            0.1225         estimate D2E/DX2                !
 ! D8    D(3,2,13,14)         -179.9979         estimate D2E/DX2                !
 ! D9    D(2,3,4,5)            179.92           estimate D2E/DX2                !
 ! D10   D(2,3,4,10)            -0.1239         estimate D2E/DX2                !
 ! D11   D(15,3,4,5)            -0.0005         estimate D2E/DX2                !
 ! D12   D(15,3,4,10)          179.9556         estimate D2E/DX2                !
 ! D13   D(3,4,5,6)           -178.2148         estimate D2E/DX2                !
 ! D14   D(10,4,5,6)             1.8318         estimate D2E/DX2                !
 ! D15   D(3,4,10,11)            0.2219         estimate D2E/DX2                !
 ! D16   D(3,4,10,23)         -179.447          estimate D2E/DX2                !
 ! D17   D(5,4,10,11)         -179.8261         estimate D2E/DX2                !
 ! D18   D(5,4,10,23)            0.505          estimate D2E/DX2                !
 ! D19   D(4,5,6,7)            -74.763          estimate D2E/DX2                !
 ! D20   D(4,5,6,9)           -175.8533         estimate D2E/DX2                !
 ! D21   D(4,5,6,16)            57.0283         estimate D2E/DX2                !
 ! D22   D(5,6,7,8)           -124.6362         estimate D2E/DX2                !
 ! D23   D(5,6,7,17)            -9.9788         estimate D2E/DX2                !
 ! D24   D(5,6,7,18)           116.3118         estimate D2E/DX2                !
 ! D25   D(9,6,7,8)            -10.425          estimate D2E/DX2                !
 ! D26   D(9,6,7,17)           104.2325         estimate D2E/DX2                !
 ! D27   D(9,6,7,18)          -129.477          estimate D2E/DX2                !
 ! D28   D(16,6,7,8)           105.3289         estimate D2E/DX2                !
 ! D29   D(16,6,7,17)         -140.0136         estimate D2E/DX2                !
 ! D30   D(16,6,7,18)          -13.7231         estimate D2E/DX2                !
 ! D31   D(5,6,9,8)            129.4528         estimate D2E/DX2                !
 ! D32   D(5,6,9,21)            14.651          estimate D2E/DX2                !
 ! D33   D(5,6,9,22)          -110.7817         estimate D2E/DX2                !
 ! D34   D(7,6,9,8)             10.4248         estimate D2E/DX2                !
 ! D35   D(7,6,9,21)          -104.377          estimate D2E/DX2                !
 ! D36   D(7,6,9,22)           130.1903         estimate D2E/DX2                !
 ! D37   D(16,6,9,8)          -105.4411         estimate D2E/DX2                !
 ! D38   D(16,6,9,21)          139.7571         estimate D2E/DX2                !
 ! D39   D(16,6,9,22)           14.3244         estimate D2E/DX2                !
 ! D40   D(6,7,8,9)             10.4119         estimate D2E/DX2                !
 ! D41   D(6,7,8,19)          -104.4111         estimate D2E/DX2                !
 ! D42   D(6,7,8,20)           129.025          estimate D2E/DX2                !
 ! D43   D(17,7,8,9)          -102.8296         estimate D2E/DX2                !
 ! D44   D(17,7,8,19)          142.3474         estimate D2E/DX2                !
 ! D45   D(17,7,8,20)           15.7835         estimate D2E/DX2                !
 ! D46   D(18,7,8,9)           129.6085         estimate D2E/DX2                !
 ! D47   D(18,7,8,19)           14.7855         estimate D2E/DX2                !
 ! D48   D(18,7,8,20)         -111.7784         estimate D2E/DX2                !
 ! D49   D(7,8,9,6)            -10.4588         estimate D2E/DX2                !
 ! D50   D(7,8,9,21)           102.0894         estimate D2E/DX2                !
 ! D51   D(7,8,9,22)          -129.4866         estimate D2E/DX2                !
 ! D52   D(19,8,9,6)           104.2724         estimate D2E/DX2                !
 ! D53   D(19,8,9,21)         -143.1795         estimate D2E/DX2                !
 ! D54   D(19,8,9,22)          -14.7554         estimate D2E/DX2                !
 ! D55   D(20,8,9,6)          -129.0593         estimate D2E/DX2                !
 ! D56   D(20,8,9,21)          -16.5111         estimate D2E/DX2                !
 ! D57   D(20,8,9,22)          111.913          estimate D2E/DX2                !
 ! D58   D(4,10,11,12)        -179.9414         estimate D2E/DX2                !
 ! D59   D(4,10,11,13)          -0.1501         estimate D2E/DX2                !
 ! D60   D(23,10,11,12)         -0.2637         estimate D2E/DX2                !
 ! D61   D(23,10,11,13)        179.5276         estimate D2E/DX2                !
 ! D62   D(10,11,13,2)          -0.0223         estimate D2E/DX2                !
 ! D63   D(10,11,13,14)       -179.9019         estimate D2E/DX2                !
 ! D64   D(12,11,13,2)         179.7693         estimate D2E/DX2                !
 ! D65   D(12,11,13,14)         -0.1103         estimate D2E/DX2                !
 --------------------------------------------------------------------------------
 Trust Radius=3.00D-01 FncErr=1.00D-07 GrdErr=1.00D-06 EigMax=2.50D+02 EigMin=1.00D-04
 Number of steps in this run=    138 maximum allowed number of steps=    138.
 GradGradGradGradGradGradGradGradGradGradGradGradGradGradGradGradGradGrad

 Leave Link  103 at Tue Sep 17 09:44:41 2024, MaxMem=  1342177280 cpu:               0.1 elap:               0.0
 (Enter /groups/ReismanLab/Software/Gaussian16_RevC/Linux_Binary_AVX2-enabled-CPU/g16/l202.exe)
                          Input orientation:                          
 ---------------------------------------------------------------------
 Center     Atomic      Atomic             Coordinates (Angstroms)
 Number     Number       Type             X           Y           Z
 ---------------------------------------------------------------------
      1          9           0       -1.453370   -3.421585   -0.193246
      2          6           0       -0.860770   -2.226112   -0.071352
      3          6           0        0.509552   -2.160108    0.051258
      4          6           0        1.141989   -0.919332    0.179337
      5          8           0        2.481656   -0.948177    0.295385
      6          6           0        3.194884    0.260646    0.467195
      7          6           0        3.354308    1.161849   -0.773730
      8          6           0        4.878105    1.135461   -0.575024
      9          6           0        4.711978    0.027060    0.476581
     10          6           0        0.370156    0.240164    0.178318
     11          6           0       -1.007490    0.153541    0.055946
     12         35           0       -2.044771    1.738138    0.054355
     13          6           0       -1.640546   -1.072651   -0.069741
     14          9           0       -2.973592   -1.147082   -0.189586
     15          1           0        1.096722   -3.063032    0.050094
     16          1           0        2.826262    0.790117    1.353112
     17          1           0        3.033376    0.653839   -1.680704
     18          1           0        2.881393    2.140069   -0.722824
     19          1           0        5.264839    2.061467   -0.156665
     20          1           0        5.463388    0.870495   -1.451333
     21          1           0        4.952406   -0.962873    0.097987
     22          1           0        5.209541    0.179815    1.430318
     23          1           0        0.821197    1.214001    0.265904
 ---------------------------------------------------------------------
                    Distance matrix (angstroms):
                    1          2          3          4          5
     1  F    0.000000
     2  C    1.339847   0.000000
     3  C    2.346096   1.377378   0.000000
     4  C    3.624358   2.404488   1.398537   0.000000
     5  O    4.673429   3.597141   2.327568   1.344993   0.000000
     6  C    5.966680   4.787726   3.639239   2.385286   1.414025
     7  C    6.667728   5.453301   4.450690   3.183395   2.521257
     8  C    7.810249   6.669972   5.507926   4.330103   3.292738
     9  C    7.096009   6.035937   4.756574   3.705244   2.440954
    10  C    4.107519   2.767675   2.407671   1.392896   2.425756
    11  C    3.611431   2.387568   2.766660   2.405523   3.666777
    12  Br   5.199404   4.139195   4.660568   4.151290   5.269054
    13  C    2.359614   1.392309   2.412493   2.797865   4.140213
    14  F    2.735772   2.375353   3.635452   4.138355   5.480373
    15  H    2.586648   2.132360   1.077053   2.148069   2.539846
    16  H    6.200395   4.972015   3.970617   2.671468   2.063785
    17  H    6.241194   5.103773   4.157845   3.084147   2.603032
    18  H    7.071253   5.787204   4.971554   3.633092   3.276248
    19  H    8.671766   7.477546   6.362208   5.098623   4.124126
    20  H    8.236884   7.175534   5.998568   4.953488   3.905037
    21  H    6.867608   5.951257   4.601576   3.811533   2.478666
    22  H    7.745994   6.700162   5.428346   4.395231   3.162561
    23  H    5.183930   3.844103   3.395262   2.159053   2.726354
                    6          7          8          9         10
     6  C    0.000000
     7  C    1.541907   0.000000
     8  C    2.164429   1.536924   0.000000
     9  C    1.535000   2.166631   1.536887   0.000000
    10  C    2.839535   3.265129   4.657326   4.357269   0.000000
    11  C    4.223806   4.553057   6.000209   5.736309   1.385779
    12  Br   5.459615   5.492530   6.977503   6.982816   2.844497
    13  C    5.044538   5.516988   6.901005   6.470115   2.414112
    14  F    6.361065   6.761265   8.185823   7.803228   3.638743
    15  H    3.952605   4.860555   5.684801   4.775001   3.384589
    16  H    1.095934   2.222718   2.836729   2.215060   2.777597
    17  H    2.189556   1.087967   2.203976   2.804360   3.274116
    18  H    2.246476   1.087729   2.240076   3.042108   3.275364
    19  H    2.813694   2.200048   1.087233   2.201242   5.233286
    20  H    3.032948   2.234334   1.086591   2.234469   5.384616
    21  H    2.173061   2.797901   2.204874   1.086787   4.738224
    22  H    2.234498   3.043699   2.245998   1.086516   4.999079
    23  H    2.565890   2.738651   4.143890   4.073253   1.076786
                   11         12         13         14         15
    11  C    0.000000
    12  Br   1.893912   0.000000
    13  C    1.385678   2.842417   0.000000
    14  F    2.370119   3.040840   1.340490   0.000000
    15  H    3.843707   5.737615   3.386534   4.505082   0.000000
    16  H    4.097013   5.129568   5.044481   6.306422   4.419945
    17  H    4.426607   5.474825   5.236556   6.445961   4.534470
    18  H    4.435784   5.003263   5.585339   6.735766   5.554701
    19  H    6.559534   7.319800   7.583837   8.841245   6.608815
    20  H    6.682676   7.706643   7.493362   8.766142   6.065862
    21  H    6.063703   7.500523   6.595998   7.933351   4.390815
    22  H    6.367186   7.546302   7.123379   8.446798   5.416304
    23  H    2.124324   2.921172   3.376627   4.492505   4.291328
                   16         17         18         19         20
    16  H    0.000000
    17  H    3.043930   0.000000
    18  H    2.476877   1.774687   0.000000
    19  H    3.137263   3.046890   2.451026   0.000000
    20  H    3.850429   2.450409   2.968036   1.770311   0.000000
    21  H    3.028003   3.075739   3.819826   3.051081   2.454126
    22  H    2.461392   3.826075   3.728121   2.462151   2.974120
    23  H    2.319910   2.999467   2.465683   4.543426   4.961535
                   21         22         23
    21  H    0.000000
    22  H    1.773967   0.000000
    23  H    4.672672   4.656496   0.000000
 Stoichiometry    C10H9BrF2O
 Framework group  C1[X(C10H9BrF2O)]
 Deg. of freedom    63
 Full point group                 C1      NOp   1
 Largest Abelian subgroup         C1      NOp   1
 Largest concise Abelian subgroup C1      NOp   1
                         Standard orientation:                         
 ---------------------------------------------------------------------
 Center     Atomic      Atomic             Coordinates (Angstroms)
 Number     Number       Type             X           Y           Z
 ---------------------------------------------------------------------
      1          9           0       -1.820269    3.306909    0.216688
      2          6           0       -1.174069    2.140578    0.085210
      3          6           0        0.197573    2.137969   -0.040333
      4          6           0        0.885620    0.928243   -0.178391
      5          8           0        2.222332    1.018938   -0.296641
      6          6           0        2.989535   -0.154879   -0.478347
      7          6           0        3.192493   -1.056591    0.755834
      8          6           0        4.713079   -0.959375    0.554580
      9          6           0        4.494386    0.147676   -0.488798
     10          6           0        0.167427   -0.265208   -0.184248
     11          6           0       -1.212471   -0.242334   -0.058782
     12         35           0       -2.176463   -1.872537   -0.066620
     13          6           0       -1.900476    0.952813    0.076781
     14          9           0       -3.235272    0.965559    0.199552
     15          1           0        0.742991    3.066688   -0.033790
     16          1           0        2.643543   -0.694354   -1.367350
     17          1           0        2.850672   -0.570133    1.666982
     18          1           0        2.764538   -2.054968    0.698808
     19          1           0        5.140719   -1.863823    0.128935
     20          1           0        5.287539   -0.674181    1.431700
     21          1           0        4.690258    1.144850   -0.103590
     22          1           0        4.996367    0.024476   -1.444493
     23          1           0        0.662189   -1.216833   -0.279585
 ---------------------------------------------------------------------
 Rotational constants (GHZ):           0.6964121           0.2994821           0.2147598
 Leave Link  202 at Tue Sep 17 09:44:41 2024, MaxMem=  1342177280 cpu:               0.1 elap:               0.0
 (Enter /groups/ReismanLab/Software/Gaussian16_RevC/Linux_Binary_AVX2-enabled-CPU/g16/l301.exe)
 Standard basis: 6-31G(d,p) (6D, 7F)
 Ernie: Thresh=  0.10000D-02 Tol=  0.10000D-05 Strict=F.
 There are   270 symmetry adapted cartesian basis functions of A   symmetry.
 There are   270 symmetry adapted basis functions of A   symmetry.
   270 basis functions,   510 primitive gaussians,   270 cartesian basis functions
    65 alpha electrons       65 beta electrons
       nuclear repulsion energy      1191.6323867148 Hartrees.
 IExCor=  402 DFT=T Ex+Corr=B3LYP ExCW=0 ScaHFX=  0.200000
 ScaDFX=  0.800000  0.720000  1.000000  0.810000 ScalE2=  1.000000  1.000000
 IRadAn=      5 IRanWt=     -1 IRanGd=            0 ICorTp=0 IEmpDi=141
 NAtoms=   23 NActive=   23 NUniq=   23 SFac= 1.00D+00 NAtFMM=   60 NAOKFM=F Big=F
 Integral buffers will be    131072 words long.
 Raffenetti 2 integral format.
 Two-electron integral symmetry is turned on.
 R6Disp:  Grimme-D3(BJ) Dispersion energy=       -0.0454049220 Hartrees.
 Nuclear repulsion after empirical dispersion term =     1191.5869817928 Hartrees.
 Leave Link  301 at Tue Sep 17 09:44:41 2024, MaxMem=  1342177280 cpu:               0.1 elap:               0.1
 (Enter /groups/ReismanLab/Software/Gaussian16_RevC/Linux_Binary_AVX2-enabled-CPU/g16/l302.exe)
 NPDir=0 NMtPBC=     1 NCelOv=     1 NCel=       1 NClECP=     1 NCelD=      1
         NCelK=      1 NCelE2=     1 NClLst=     1 CellRange=     0.0.
 One-electron integrals computed using PRISM.
 One-electron integral symmetry used in STVInt
 NBasis=   270 RedAO= T EigKep=  3.80D-04  NBF=   270
 NBsUse=   270 1.00D-06 EigRej= -1.00D+00 NBFU=   270
 Precomputing XC quadrature grid using
 IXCGrd= 4 IRadAn=           5 IRanWt=          -1 IRanGd=           0 AccXCQ= 0.00D+00.
 Generated NRdTot=       0 NPtTot=           0 NUsed=           0 NTot=          32
 NSgBfM=   269   269   269   269   269 MxSgAt=    23 MxSgA2=    23.
 Leave Link  302 at Tue Sep 17 09:44:41 2024, MaxMem=  1342177280 cpu:               1.4 elap:               0.3
 (Enter /groups/ReismanLab/Software/Gaussian16_RevC/Linux_Binary_AVX2-enabled-CPU/g16/l303.exe)
 DipDrv:  MaxL=1.
 Leave Link  303 at Tue Sep 17 09:44:41 2024, MaxMem=  1342177280 cpu:               0.1 elap:               0.1
 (Enter /groups/ReismanLab/Software/Gaussian16_RevC/Linux_Binary_AVX2-enabled-CPU/g16/l401.exe)
 ExpMin= 1.43D-01 ExpMax= 5.74D+05 ExpMxC= 5.74D+03 IAcc=3 IRadAn=         5 AccDes= 0.00D+00
 Harris functional with IExCor=  402 and IRadAn=       5 diagonalized for initial guess.
 HarFok:  IExCor=  402 AccDes= 0.00D+00 IRadAn=         5 IDoV= 1 UseB2=F ITyADJ=14
 ICtDFT=  3500011 ScaDFX=  1.000000  1.000000  1.000000  1.000000
 FoFCou: FMM=F IPFlag=           0 FMFlag=      100000 FMFlg1=           0
         NFxFlg=           0 DoJE=T BraDBF=F KetDBF=T FulRan=T
         wScrn=  0.000000 ICntrl=       500 IOpCl=  0 I1Cent=   200000004 NGrid=           0
         NMat0=    1 NMatS0=      1 NMatT0=    0 NMatD0=    1 NMtDS0=    0 NMtDT0=    0
 Petite list used in FoFCou.
 Harris En= -3233.18996108910    
 JPrj=0 DoOrth=F DoCkMO=F.
 Leave Link  401 at Tue Sep 17 09:44:42 2024, MaxMem=  1342177280 cpu:               5.8 elap:               0.8
 (Enter /groups/ReismanLab/Software/Gaussian16_RevC/Linux_Binary_AVX2-enabled-CPU/g16/l502.exe)
 Integral symmetry usage will be decided dynamically.
 Closed shell SCF:
 Using DIIS extrapolation, IDIIS=  1040.
 NGot=  1342177280 LenX=  1342025931 LenY=  1341952590
 Requested convergence on RMS density matrix=1.00D-08 within  32 cycles.
 Requested convergence on MAX density matrix=1.00D-06.
 Requested convergence on             energy=1.00D-06.
 No special actions if energy rises.
 Fock matrices will be formed incrementally for  20 cycles.
 Integral accuracy reduced to 1.0D-05 until final iterations.

 Cycle   1  Pass 0  IDiag  1:
 FoFJK:  IHMeth= 1 ICntrl=       0 DoSepK=F KAlg= 0 I1Cent=           0 FoldK=F
 IRaf= 810000000 NMat=       1 IRICut=       1 DoRegI=T DoRafI=F ISym2E= 0 IDoP0=0 IntGTp=1.
 FoFCou: FMM=F IPFlag=           0 FMFlag=      100000 FMFlg1=           0
         NFxFlg=           0 DoJE=F BraDBF=F KetDBF=F FulRan=T
         wScrn=  0.000000 ICntrl=         0 IOpCl=  0 I1Cent=           0 NGrid=           0
         NMat0=    1 NMatS0=      1 NMatT0=    0 NMatD0=    1 NMtDS0=    0 NMtDT0=    0
 Symmetry not used in FoFCou.
 E= -3232.82847373811    
 DIIS: error= 1.74D-01 at cycle   1 NSaved=   1.
 NSaved= 1 IEnMin= 1 EnMin= -3232.82847373811     IErMin= 1 ErrMin= 1.74D-01
 ErrMax= 1.74D-01  0.00D+00 EMaxC= 1.00D-01 BMatC= 6.19D-01 BMatP= 6.19D-01
 IDIUse=3 WtCom= 0.00D+00 WtEn= 1.00D+00
 Coeff-Com:  0.100D+01
 Coeff-En:   0.100D+01
 Coeff:      0.100D+01
 Gap=     0.228 Goal=   None    Shift=    0.000
 GapD=    0.228 DampG=1.000 DampE=0.250 DampFc=0.2500 IDamp=-1.
 Damping current iteration by 2.50D-01
 RMSDP=4.40D-03 MaxDP=1.43D-01              OVMax= 2.27D-01

 Cycle   2  Pass 0  IDiag  1:
 RMSU=  1.07D-03    CP:  9.93D-01
 E= -3232.92423342518     Delta-E=       -0.095759687063 Rises=F Damp=T
 DIIS: error= 1.28D-01 at cycle   2 NSaved=   2.
 NSaved= 2 IEnMin= 2 EnMin= -3232.92423342518     IErMin= 2 ErrMin= 1.28D-01
 ErrMax= 1.28D-01  0.00D+00 EMaxC= 1.00D-01 BMatC= 2.62D-01 BMatP= 6.19D-01
 IDIUse=3 WtCom= 0.00D+00 WtEn= 1.00D+00
 Coeff-Com: -0.134D+01 0.234D+01
 Coeff-En:   0.000D+00 0.100D+01
 Coeff:      0.000D+00 0.100D+01
 Gap=     0.214 Goal=   None    Shift=    0.000
 RMSDP=2.26D-03 MaxDP=1.10D-01 DE=-9.58D-02 OVMax= 1.08D-01

 Cycle   3  Pass 0  IDiag  1:
 RMSU=  8.05D-04    CP:  9.73D-01  2.86D+00
 E= -3233.03588286943     Delta-E=       -0.111649444250 Rises=F Damp=F
 DIIS: error= 1.07D-02 at cycle   3 NSaved=   3.
 NSaved= 3 IEnMin= 3 EnMin= -3233.03588286943     IErMin= 3 ErrMin= 1.07D-02
 ErrMax= 1.07D-02  0.00D+00 EMaxC= 1.00D-01 BMatC= 6.00D-02 BMatP= 2.62D-01
 IDIUse=3 WtCom= 8.93D-01 WtEn= 1.07D-01
 Coeff-Com:  0.159D+01-0.203D+01 0.144D+01
 Coeff-En:   0.129D+00 0.000D+00 0.871D+00
 Coeff:      0.143D+01-0.181D+01 0.138D+01
 Gap=     0.228 Goal=   None    Shift=    0.000
 RMSDP=1.10D-03 MaxDP=3.56D-02 DE=-1.12D-01 OVMax= 4.29D-02

 Cycle   4  Pass 0  IDiag  1:
 RMSU=  5.89D-04    CP:  9.73D-01  1.99D+00  1.14D+00
 E= -3233.08652322855     Delta-E=       -0.050640359122 Rises=F Damp=F
 DIIS: error= 3.47D-03 at cycle   4 NSaved=   4.
 NSaved= 4 IEnMin= 4 EnMin= -3233.08652322855     IErMin= 4 ErrMin= 3.47D-03
 ErrMax= 3.47D-03  0.00D+00 EMaxC= 1.00D-01 BMatC= 8.19D-03 BMatP= 6.00D-02
 IDIUse=3 WtCom= 9.65D-01 WtEn= 3.47D-02
 Coeff-Com:  0.914D+00-0.120D+01 0.815D+00 0.468D+00
 Coeff-En:   0.000D+00 0.000D+00 0.000D+00 0.100D+01
 Coeff:      0.882D+00-0.115D+01 0.787D+00 0.486D+00
 Gap=     0.208 Goal=   None    Shift=    0.000
 RMSDP=4.51D-04 MaxDP=1.72D-02 DE=-5.06D-02 OVMax= 5.02D-02

 Cycle   5  Pass 0  IDiag  1:
 RMSU=  1.37D-04    CP:  9.73D-01  2.04D+00  1.32D+00  3.19D-01
 E= -3233.09467961586     Delta-E=       -0.008156387309 Rises=F Damp=F
 DIIS: error= 9.13D-04 at cycle   5 NSaved=   5.
 NSaved= 5 IEnMin= 5 EnMin= -3233.09467961586     IErMin= 5 ErrMin= 9.13D-04
 ErrMax= 9.13D-04  0.00D+00 EMaxC= 1.00D-01 BMatC= 4.96D-04 BMatP= 8.19D-03
 IDIUse=3 WtCom= 9.91D-01 WtEn= 9.13D-03
 Coeff-Com:  0.243D+00-0.320D+00 0.228D+00 0.243D+00 0.606D+00
 Coeff-En:   0.000D+00 0.000D+00 0.000D+00 0.000D+00 0.100D+01
 Coeff:      0.241D+00-0.317D+00 0.226D+00 0.241D+00 0.610D+00
 Gap=     0.207 Goal=   None    Shift=    0.000
 RMSDP=1.03D-04 MaxDP=4.36D-03 DE=-8.16D-03 OVMax= 1.09D-02

 Cycle   6  Pass 0  IDiag  1:
 RMSU=  4.79D-05    CP:  9.73D-01  2.06D+00  1.30D+00  4.24D-01  5.52D-01
 E= -3233.09517804443     Delta-E=       -0.000498428576 Rises=F Damp=F
 DIIS: error= 2.40D-04 at cycle   6 NSaved=   6.
 NSaved= 6 IEnMin= 6 EnMin= -3233.09517804443     IErMin= 6 ErrMin= 2.40D-04
 ErrMax= 2.40D-04  0.00D+00 EMaxC= 1.00D-01 BMatC= 4.27D-05 BMatP= 4.96D-04
 IDIUse=3 WtCom= 9.98D-01 WtEn= 2.40D-03
 Coeff-Com:  0.519D-01-0.683D-01 0.542D-01 0.948D-01 0.334D+00 0.533D+00
 Coeff-En:   0.000D+00 0.000D+00 0.000D+00 0.000D+00 0.000D+00 0.100D+01
 Coeff:      0.518D-01-0.682D-01 0.540D-01 0.946D-01 0.334D+00 0.534D+00
 Gap=     0.208 Goal=   None    Shift=    0.000
 RMSDP=2.75D-05 MaxDP=1.03D-03 DE=-4.98D-04 OVMax= 1.50D-03

 Cycle   7  Pass 0  IDiag  1:
 RMSU=  1.41D-05    CP:  9.73D-01  2.06D+00  1.30D+00  4.27D-01  6.22D-01
                    CP:  5.52D-01
 E= -3233.09521061844     Delta-E=       -0.000032574001 Rises=F Damp=F
 DIIS: error= 6.10D-05 at cycle   7 NSaved=   7.
 NSaved= 7 IEnMin= 7 EnMin= -3233.09521061844     IErMin= 7 ErrMin= 6.10D-05
 ErrMax= 6.10D-05  0.00D+00 EMaxC= 1.00D-01 BMatC= 2.35D-06 BMatP= 4.27D-05
 IDIUse=1 WtCom= 1.00D+00 WtEn= 0.00D+00
 Coeff-Com:  0.146D-01-0.193D-01 0.168D-01 0.359D-01 0.138D+00 0.280D+00
 Coeff-Com:  0.534D+00
 Coeff:      0.146D-01-0.193D-01 0.168D-01 0.359D-01 0.138D+00 0.280D+00
 Coeff:      0.534D+00
 Gap=     0.208 Goal=   None    Shift=    0.000
 RMSDP=7.55D-06 MaxDP=2.91D-04 DE=-3.26D-05 OVMax= 5.58D-04

 Initial convergence to 1.0D-05 achieved.  Increase integral accuracy.
 Cycle   8  Pass 1  IDiag  1:
 E= -3233.09525915773     Delta-E=       -0.000048539293 Rises=F Damp=F
 DIIS: error= 5.74D-05 at cycle   1 NSaved=   1.
 NSaved= 1 IEnMin= 1 EnMin= -3233.09525915773     IErMin= 1 ErrMin= 5.74D-05
 ErrMax= 5.74D-05  0.00D+00 EMaxC= 1.00D-01 BMatC= 5.75D-07 BMatP= 5.75D-07
 IDIUse=1 WtCom= 1.00D+00 WtEn= 0.00D+00
 Coeff-Com:  0.100D+01
 Coeff:      0.100D+01
 Gap=     0.208 Goal=   None    Shift=    0.000
 RMSDP=7.55D-06 MaxDP=2.91D-04 DE=-4.85D-05 OVMax= 4.59D-04

 Cycle   9  Pass 1  IDiag  1:
 RMSU=  2.05D-05    CP:  1.00D+00
 E= -3233.09525857598     Delta-E=        0.000000581746 Rises=F Damp=F
 DIIS: error= 5.56D-05 at cycle   2 NSaved=   2.
 NSaved= 2 IEnMin= 1 EnMin= -3233.09525915773     IErMin= 2 ErrMin= 5.56D-05
 ErrMax= 5.56D-05  0.00D+00 EMaxC= 1.00D-01 BMatC= 1.08D-06 BMatP= 5.75D-07
 IDIUse=1 WtCom= 1.00D+00 WtEn= 0.00D+00
 Coeff-Com:  0.592D+00 0.408D+00
 Coeff:      0.592D+00 0.408D+00
 Gap=     0.208 Goal=   None    Shift=    0.000
 RMSDP=4.92D-06 MaxDP=1.70D-04 DE= 5.82D-07 OVMax= 4.34D-04

 Cycle  10  Pass 1  IDiag  1:
 RMSU=  4.63D-06    CP:  1.00D+00  9.18D-01
 E= -3233.09525956815     Delta-E=       -0.000000992164 Rises=F Damp=F
 DIIS: error= 1.55D-05 at cycle   3 NSaved=   3.
 NSaved= 3 IEnMin= 3 EnMin= -3233.09525956815     IErMin= 3 ErrMin= 1.55D-05
 ErrMax= 1.55D-05  0.00D+00 EMaxC= 1.00D-01 BMatC= 6.74D-08 BMatP= 5.75D-07
 IDIUse=1 WtCom= 1.00D+00 WtEn= 0.00D+00
 Coeff-Com:  0.609D-01 0.203D+00 0.736D+00
 Coeff:      0.609D-01 0.203D+00 0.736D+00
 Gap=     0.208 Goal=   None    Shift=    0.000
 RMSDP=1.29D-06 MaxDP=6.10D-05 DE=-9.92D-07 OVMax= 1.18D-04

 Cycle  11  Pass 1  IDiag  1:
 RMSU=  8.62D-07    CP:  1.00D+00  9.38D-01  8.11D-01
 E= -3233.09525962315     Delta-E=       -0.000000055002 Rises=F Damp=F
 DIIS: error= 4.32D-06 at cycle   4 NSaved=   4.
 NSaved= 4 IEnMin= 4 EnMin= -3233.09525962315     IErMin= 4 ErrMin= 4.32D-06
 ErrMax= 4.32D-06  0.00D+00 EMaxC= 1.00D-01 BMatC= 1.13D-08 BMatP= 6.74D-08
 IDIUse=1 WtCom= 1.00D+00 WtEn= 0.00D+00
 Coeff-Com: -0.290D-03 0.975D-01 0.441D+00 0.461D+00
 Coeff:     -0.290D-03 0.975D-01 0.441D+00 0.461D+00
 Gap=     0.208 Goal=   None    Shift=    0.000
 RMSDP=4.60D-07 MaxDP=1.95D-05 DE=-5.50D-08 OVMax= 3.58D-05

 Cycle  12  Pass 1  IDiag  1:
 RMSU=  1.20D-07    CP:  1.00D+00  9.40D-01  8.25D-01  4.94D-01
 E= -3233.09525963474     Delta-E=       -0.000000011593 Rises=F Damp=F
 DIIS: error= 6.97D-07 at cycle   5 NSaved=   5.
 NSaved= 5 IEnMin= 5 EnMin= -3233.09525963474     IErMin= 5 ErrMin= 6.97D-07
 ErrMax= 6.97D-07  0.00D+00 EMaxC= 1.00D-01 BMatC= 2.53D-10 BMatP= 1.13D-08
 IDIUse=1 WtCom= 1.00D+00 WtEn= 0.00D+00
 Coeff-Com: -0.147D-02 0.515D-01 0.235D+00 0.261D+00 0.453D+00
 Coeff:     -0.147D-02 0.515D-01 0.235D+00 0.261D+00 0.453D+00
 Gap=     0.208 Goal=   None    Shift=    0.000
 RMSDP=6.54D-08 MaxDP=2.02D-06 DE=-1.16D-08 OVMax= 4.55D-06

 Cycle  13  Pass 1  IDiag  1:
 RMSU=  4.29D-08    CP:  1.00D+00  9.40D-01  8.23D-01  4.88D-01  6.01D-01
 E= -3233.09525963497     Delta-E=       -0.000000000224 Rises=F Damp=F
 DIIS: error= 1.07D-07 at cycle   6 NSaved=   6.
 NSaved= 6 IEnMin= 6 EnMin= -3233.09525963497     IErMin= 6 ErrMin= 1.07D-07
 ErrMax= 1.07D-07  0.00D+00 EMaxC= 1.00D-01 BMatC= 8.84D-12 BMatP= 2.53D-10
 IDIUse=1 WtCom= 1.00D+00 WtEn= 0.00D+00
 Coeff-Com: -0.656D-03 0.152D-01 0.698D-01 0.797D-01 0.210D+00 0.626D+00
 Coeff:     -0.656D-03 0.152D-01 0.698D-01 0.797D-01 0.210D+00 0.626D+00
 Gap=     0.208 Goal=   None    Shift=    0.000
 RMSDP=1.39D-08 MaxDP=4.54D-07 DE=-2.24D-10 OVMax= 9.72D-07

 Cycle  14  Pass 1  IDiag  1:
 RMSU=  1.04D-08    CP:  1.00D+00  9.40D-01  8.23D-01  4.89D-01  6.53D-01
                    CP:  8.50D-01
 E= -3233.09525963497     Delta-E=       -0.000000000004 Rises=F Damp=F
 DIIS: error= 3.48D-08 at cycle   7 NSaved=   7.
 NSaved= 7 IEnMin= 7 EnMin= -3233.09525963497     IErMin= 7 ErrMin= 3.48D-08
 ErrMax= 3.48D-08  0.00D+00 EMaxC= 1.00D-01 BMatC= 5.80D-13 BMatP= 8.84D-12
 IDIUse=1 WtCom= 1.00D+00 WtEn= 0.00D+00
 Coeff-Com: -0.172D-03 0.279D-02 0.128D-01 0.153D-01 0.576D-01 0.257D+00
 Coeff-Com:  0.655D+00
 Coeff:     -0.172D-03 0.279D-02 0.128D-01 0.153D-01 0.576D-01 0.257D+00
 Coeff:      0.655D+00
 Gap=     0.208 Goal=   None    Shift=    0.000
 RMSDP=4.31D-09 MaxDP=2.03D-07 DE=-3.64D-12 OVMax= 5.01D-07

 SCF Done:  E(RB3LYP) =  -3233.09525963     A.U. after   14 cycles
            NFock= 14  Conv=0.43D-08     -V/T= 2.0066
 KE= 3.212034548160D+03 PE=-1.006451974939D+04 EE= 2.427802959801D+03
 Leave Link  502 at Tue Sep 17 09:44:57 2024, MaxMem=  1342177280 cpu:             115.7 elap:              15.5
 (Enter /groups/ReismanLab/Software/Gaussian16_RevC/Linux_Binary_AVX2-enabled-CPU/g16/l508.exe)
 QCSCF skips out because SCF is already converged.
 Leave Link  508 at Tue Sep 17 09:44:58 2024, MaxMem=  1342177280 cpu:               0.1 elap:               0.0
 (Enter /groups/ReismanLab/Software/Gaussian16_RevC/Linux_Binary_AVX2-enabled-CPU/g16/l601.exe)
 Copying SCF densities to generalized density rwf, IOpCl= 0 IROHF=0.

 **********************************************************************

            Population analysis using the SCF Density.

 **********************************************************************

 Orbital symmetries:
       Occupied  (A) (A) (A) (A) (A) (A) (A) (A) (A) (A) (A) (A)
                 (A) (A) (A) (A) (A) (A) (A) (A) (A) (A) (A) (A)
                 (A) (A) (A) (A) (A) (A) (A) (A) (A) (A) (A) (A)
                 (A) (A) (A) (A) (A) (A) (A) (A) (A) (A) (A) (A)
                 (A) (A) (A) (A) (A) (A) (A) (A) (A) (A) (A) (A)
                 (A) (A) (A) (A) (A)
       Virtual   (A) (A) (A) (A) (A) (A) (A) (A) (A) (A) (A) (A)
                 (A) (A) (A) (A) (A) (A) (A) (A) (A) (A) (A) (A)
                 (A) (A) (A) (A) (A) (A) (A) (A) (A) (A) (A) (A)
                 (A) (A) (A) (A) (A) (A) (A) (A) (A) (A) (A) (A)
                 (A) (A) (A) (A) (A) (A) (A) (A) (A) (A) (A) (A)
                 (A) (A) (A) (A) (A) (A) (A) (A) (A) (A) (A) (A)
                 (A) (A) (A) (A) (A) (A) (A) (A) (A) (A) (A) (A)
                 (A) (A) (A) (A) (A) (A) (A) (A) (A) (A) (A) (A)
                 (A) (A) (A) (A) (A) (A) (A) (A) (A) (A) (A) (A)
                 (A) (A) (A) (A) (A) (A) (A) (A) (A) (A) (A) (A)
                 (A) (A) (A) (A) (A) (A) (A) (A) (A) (A) (A) (A)
                 (A) (A) (A) (A) (A) (A) (A) (A) (A) (A) (A) (A)
                 (A) (A) (A) (A) (A) (A) (A) (A) (A) (A) (A) (A)
                 (A) (A) (A) (A) (A) (A) (A) (A) (A) (A) (A) (A)
                 (A) (A) (A) (A) (A) (A) (A) (A) (A) (A) (A) (A)
                 (A) (A) (A) (A) (A) (A) (A) (A) (A) (A) (A) (A)
                 (A) (A) (A) (A) (A) (A) (A) (A) (A) (A) (A) (A)
                 (A)
 The electronic state is 1-A.
 Alpha  occ. eigenvalues -- -482.92044 -61.88184 -56.40339 -56.39903 -56.39892
 Alpha  occ. eigenvalues --  -24.71900 -24.71748 -19.19081 -10.28926 -10.28375
 Alpha  occ. eigenvalues --  -10.26827 -10.25841 -10.25377 -10.20674 -10.20267
 Alpha  occ. eigenvalues --  -10.19280 -10.19194 -10.19157  -8.59304  -6.54742
 Alpha  occ. eigenvalues --   -6.53411  -6.53362  -2.66307  -2.65931  -2.65894
 Alpha  occ. eigenvalues --   -2.64830  -2.64830  -1.23800  -1.22486  -1.08675
 Alpha  occ. eigenvalues --   -0.89040  -0.86007  -0.81428  -0.76314  -0.74285
 Alpha  occ. eigenvalues --   -0.68802  -0.67976  -0.63662  -0.61807  -0.57172
 Alpha  occ. eigenvalues --   -0.56200  -0.54624  -0.53738  -0.51561  -0.49762
 Alpha  occ. eigenvalues --   -0.48858  -0.46834  -0.45205  -0.44877  -0.44048
 Alpha  occ. eigenvalues --   -0.43665  -0.41897  -0.40658  -0.40063  -0.38470
 Alpha  occ. eigenvalues --   -0.36921  -0.35993  -0.34922  -0.34140  -0.32374
 Alpha  occ. eigenvalues --   -0.31692  -0.29454  -0.29268  -0.25295  -0.22799
 Alpha virt. eigenvalues --   -0.02031  -0.00599   0.00291   0.07021   0.08164
 Alpha virt. eigenvalues --    0.09659   0.11458   0.12604   0.13908   0.15387
 Alpha virt. eigenvalues --    0.16271   0.17068   0.17578   0.17954   0.18425
 Alpha virt. eigenvalues --    0.20409   0.21796   0.22670   0.23942   0.25619
 Alpha virt. eigenvalues --    0.27201   0.30408   0.31736   0.34235   0.34943
 Alpha virt. eigenvalues --    0.37563   0.42985   0.44794   0.45675   0.45783
 Alpha virt. eigenvalues --    0.46610   0.47568   0.48443   0.49391   0.49838
 Alpha virt. eigenvalues --    0.51014   0.51291   0.51596   0.52519   0.52771
 Alpha virt. eigenvalues --    0.54701   0.55402   0.57363   0.58802   0.60911
 Alpha virt. eigenvalues --    0.61098   0.62914   0.63885   0.65301   0.65837
 Alpha virt. eigenvalues --    0.67958   0.69166   0.69712   0.71456   0.74124
 Alpha virt. eigenvalues --    0.75051   0.75589   0.78262   0.80136   0.80386
 Alpha virt. eigenvalues --    0.82055   0.83514   0.83860   0.84496   0.85116
 Alpha virt. eigenvalues --    0.87204   0.87817   0.90397   0.90875   0.91667
 Alpha virt. eigenvalues --    0.93027   0.94268   0.96667   0.99987   1.04813
 Alpha virt. eigenvalues --    1.05314   1.10440   1.12566   1.13096   1.17457
 Alpha virt. eigenvalues --    1.18526   1.20088   1.21133   1.22961   1.23665
 Alpha virt. eigenvalues --    1.25629   1.27728   1.29240   1.34508   1.36526
 Alpha virt. eigenvalues --    1.37048   1.39361   1.39778   1.40983   1.43988
 Alpha virt. eigenvalues --    1.45807   1.48860   1.49797   1.51742   1.53414
 Alpha virt. eigenvalues --    1.57904   1.63547   1.64258   1.65392   1.67800
 Alpha virt. eigenvalues --    1.71658   1.72183   1.75346   1.78542   1.79185
 Alpha virt. eigenvalues --    1.79683   1.82626   1.82966   1.84237   1.86159
 Alpha virt. eigenvalues --    1.86678   1.87419   1.87972   1.89855   1.91144
 Alpha virt. eigenvalues --    1.91808   1.93427   1.94615   1.96258   1.99743
 Alpha virt. eigenvalues --    2.00789   2.01561   2.02182   2.03455   2.05305
 Alpha virt. eigenvalues --    2.06101   2.09158   2.13537   2.16307   2.19042
 Alpha virt. eigenvalues --    2.22871   2.24031   2.25603   2.26935   2.28911
 Alpha virt. eigenvalues --    2.29533   2.29690   2.30623   2.32220   2.33920
 Alpha virt. eigenvalues --    2.34420   2.35326   2.38512   2.42129   2.45096
 Alpha virt. eigenvalues --    2.46789   2.48536   2.50104   2.51268   2.53406
 Alpha virt. eigenvalues --    2.54375   2.57791   2.58953   2.61514   2.63080
 Alpha virt. eigenvalues --    2.65175   2.66124   2.67091   2.67963   2.68562
 Alpha virt. eigenvalues --    2.73548   2.74238   2.78888   2.84858   2.85691
 Alpha virt. eigenvalues --    2.86659   2.89873   2.91652   2.95318   3.03566
 Alpha virt. eigenvalues --    3.04504   3.09738   3.15251   3.17769   3.19536
 Alpha virt. eigenvalues --    3.21727   3.27409   3.31495   3.36920   3.39459
 Alpha virt. eigenvalues --    3.41194   3.44237   3.45485   3.61751   3.68829
 Alpha virt. eigenvalues --    4.04559   4.07655   4.09703   4.21810   4.33725
 Alpha virt. eigenvalues --    4.37473   4.44971   4.46909   4.56515   4.76036
 Alpha virt. eigenvalues --    4.92734   4.97820   6.14640   8.60348  72.89054
          Condensed to atoms (all electrons):
               1          2          3          4          5          6
     1  F    9.057905   0.295178  -0.039902   0.002912  -0.000003   0.000000
     2  C    0.295178   4.743078   0.450347   0.014709   0.002693  -0.000116
     3  C   -0.039902   0.450347   5.171448   0.458314  -0.049311   0.003242
     4  C    0.002912   0.014709   0.458314   4.582060   0.272300  -0.032224
     5  O   -0.000003   0.002693  -0.049311   0.272300   8.263649   0.214857
     6  C    0.000000  -0.000116   0.003242  -0.032224   0.214857   4.767288
     7  C   -0.000000   0.000003   0.000001  -0.004602  -0.040259   0.366302
     8  C    0.000000  -0.000000   0.000018  -0.000051   0.004374  -0.137298
     9  C   -0.000000   0.000002  -0.000231   0.003243  -0.038311   0.392317
    10  C    0.000095  -0.041252  -0.078370   0.439929  -0.057626  -0.000604
    11  C    0.003475  -0.057006  -0.018301  -0.000230   0.004266   0.000582
    12  Br  -0.000023   0.006008  -0.000015   0.004496  -0.000045  -0.000031
    13  C   -0.037094   0.342656  -0.068977  -0.033630   0.000106   0.000037
    14  F   -0.000621  -0.046358   0.002970  -0.000121  -0.000000  -0.000000
    15  H   -0.001382  -0.034080   0.353153  -0.033345  -0.000467  -0.000103
    16  H   -0.000000   0.000003   0.000208  -0.004061  -0.040521   0.358858
    17  H   -0.000000  -0.000001  -0.000124   0.002448  -0.001939  -0.028504
    18  H    0.000000  -0.000000  -0.000017   0.000134   0.002419  -0.025852
    19  H   -0.000000   0.000000  -0.000000   0.000016  -0.000152   0.002590
    20  H   -0.000000   0.000000  -0.000001  -0.000005  -0.000160   0.006742
    21  H   -0.000000   0.000000  -0.000064   0.000404   0.001149  -0.032117
    22  H    0.000000  -0.000000   0.000005  -0.000107   0.001982  -0.025237
    23  H    0.000000  -0.000022   0.005222  -0.040608  -0.007753   0.005478
               7          8          9         10         11         12
     1  F   -0.000000   0.000000  -0.000000   0.000095   0.003475  -0.000023
     2  C    0.000003  -0.000000   0.000002  -0.041252  -0.057006   0.006008
     3  C    0.000001   0.000018  -0.000231  -0.078370  -0.018301  -0.000015
     4  C   -0.004602  -0.000051   0.003243   0.439929  -0.000230   0.004496
     5  O   -0.040259   0.004374  -0.038311  -0.057626   0.004266  -0.000045
     6  C    0.366302  -0.137298   0.392317  -0.000604   0.000582  -0.000031
     7  C    5.059447   0.356367  -0.178168   0.002356   0.000014  -0.000012
     8  C    0.356367   4.966823   0.352716   0.000110  -0.000001  -0.000000
     9  C   -0.178168   0.352716   5.010852   0.000010  -0.000005  -0.000000
    10  C    0.002356   0.000110   0.000010   5.113856   0.450988  -0.058069
    11  C    0.000014  -0.000001  -0.000005   0.450988   5.157041   0.251094
    12  Br  -0.000012  -0.000000  -0.000000  -0.058069   0.251094  34.935111
    13  C   -0.000003  -0.000000   0.000000  -0.020506   0.340513  -0.048719
    14  F    0.000000  -0.000000  -0.000000   0.002654  -0.065641   0.003892
    15  H    0.000013   0.000001  -0.000047   0.007590  -0.000353   0.000006
    16  H   -0.053981   0.008118  -0.035978   0.005636  -0.000256   0.000011
    17  H    0.368744  -0.023983   0.003440   0.000036  -0.000116   0.000002
    18  H    0.368253  -0.029747   0.011266  -0.001393   0.000054   0.000004
    19  H   -0.031489   0.384110  -0.030734  -0.000000  -0.000000  -0.000000
    20  H   -0.024315   0.381983  -0.025335   0.000003   0.000000  -0.000000
    21  H    0.004534  -0.025244   0.370155   0.000055  -0.000000   0.000000
    22  H    0.010669  -0.029369   0.374172   0.000010   0.000000   0.000000
    23  H    0.001847  -0.000036  -0.000102   0.366851  -0.038745  -0.002226
              13         14         15         16         17         18
     1  F   -0.037094  -0.000621  -0.001382  -0.000000  -0.000000   0.000000
     2  C    0.342656  -0.046358  -0.034080   0.000003  -0.000001  -0.000000
     3  C   -0.068977   0.002970   0.353153   0.000208  -0.000124  -0.000017
     4  C   -0.033630  -0.000121  -0.033345  -0.004061   0.002448   0.000134
     5  O    0.000106  -0.000000  -0.000467  -0.040521  -0.001939   0.002419
     6  C    0.000037  -0.000000  -0.000103   0.358858  -0.028504  -0.025852
     7  C   -0.000003   0.000000   0.000013  -0.053981   0.368744   0.368253
     8  C   -0.000000  -0.000000   0.000001   0.008118  -0.023983  -0.029747
     9  C    0.000000  -0.000000  -0.000047  -0.035978   0.003440   0.011266
    10  C   -0.020506   0.002654   0.007590   0.005636   0.000036  -0.001393
    11  C    0.340513  -0.065641  -0.000353  -0.000256  -0.000116   0.000054
    12  Br  -0.048719   0.003892   0.000006   0.000011   0.000002   0.000004
    13  C    4.894113   0.333299   0.006064  -0.000012   0.000001   0.000001
    14  F    0.333299   9.037923  -0.000016   0.000000   0.000000  -0.000000
    15  H    0.006064  -0.000016   0.584674   0.000037   0.000008  -0.000001
    16  H   -0.000012   0.000000   0.000037   0.665784   0.005211  -0.005991
    17  H    0.000001   0.000000   0.000008   0.005211   0.592185  -0.030891
    18  H    0.000001  -0.000000  -0.000001  -0.005991  -0.030891   0.609166
    19  H   -0.000000   0.000000  -0.000000   0.000396   0.004171  -0.008583
    20  H    0.000000   0.000000  -0.000000  -0.000607  -0.010200   0.003087
    21  H    0.000000   0.000000   0.000038   0.005094   0.001048  -0.000435
    22  H   -0.000000  -0.000000   0.000001  -0.006776  -0.000401  -0.000609
    23  H    0.005115  -0.000017  -0.000143   0.000867  -0.000649   0.001937
              19         20         21         22         23
     1  F   -0.000000  -0.000000  -0.000000   0.000000   0.000000
     2  C    0.000000   0.000000   0.000000  -0.000000  -0.000022
     3  C   -0.000000  -0.000001  -0.000064   0.000005   0.005222
     4  C    0.000016  -0.000005   0.000404  -0.000107  -0.040608
     5  O   -0.000152  -0.000160   0.001149   0.001982  -0.007753
     6  C    0.002590   0.006742  -0.032117  -0.025237   0.005478
     7  C   -0.031489  -0.024315   0.004534   0.010669   0.001847
     8  C    0.384110   0.381983  -0.025244  -0.029369  -0.000036
     9  C   -0.030734  -0.025335   0.370155   0.374172  -0.000102
    10  C   -0.000000   0.000003   0.000055   0.000010   0.366851
    11  C   -0.000000   0.000000  -0.000000   0.000000  -0.038745
    12  Br  -0.000000  -0.000000   0.000000   0.000000  -0.002226
    13  C   -0.000000   0.000000   0.000000  -0.000000   0.005115
    14  F    0.000000   0.000000   0.000000  -0.000000  -0.000017
    15  H   -0.000000  -0.000000   0.000038   0.000001  -0.000143
    16  H    0.000396  -0.000607   0.005094  -0.006776   0.000867
    17  H    0.004171  -0.010200   0.001048  -0.000401  -0.000649
    18  H   -0.008583   0.003087  -0.000435  -0.000609   0.001937
    19  H    0.611597  -0.035334   0.004182  -0.008497  -0.000013
    20  H   -0.035334   0.602482  -0.009995   0.003112   0.000003
    21  H    0.004182  -0.009995   0.588576  -0.029289  -0.000000
    22  H   -0.008497   0.003112  -0.029289   0.601350   0.000004
    23  H   -0.000013   0.000003  -0.000000   0.000004   0.591717
 Mulliken charges:
               1
     1  F   -0.280540
     2  C    0.324160
     3  C   -0.189618
     4  C    0.368017
     5  O   -0.531248
     6  C    0.163794
     7  C   -0.205721
     8  C   -0.208891
     9  C   -0.209263
    10  C   -0.132358
    11  C   -0.027373
    12  Br  -0.091484
    13  C    0.287035
    14  F   -0.267963
    15  H    0.118351
    16  H    0.097959
    17  H    0.119513
    18  H    0.107196
    19  H    0.107740
    20  H    0.108538
    21  H    0.121907
    22  H    0.108978
    23  H    0.111271
 Sum of Mulliken charges =  -0.00000
 Mulliken charges with hydrogens summed into heavy atoms:
               1
     1  F   -0.280540
     2  C    0.324160
     3  C   -0.071267
     4  C    0.368017
     5  O   -0.531248
     6  C    0.261753
     7  C    0.020988
     8  C    0.007388
     9  C    0.021622
    10  C   -0.021087
    11  C   -0.027373
    12  Br  -0.091484
    13  C    0.287035
    14  F   -0.267963
 Electronic spatial extent (au):  <R**2>=           4576.8961
 Charge=              0.0000 electrons
 Dipole moment (field-independent basis, Debye):
    X=              3.6860    Y=             -1.1150    Z=             -0.1923  Tot=              3.8557
 Quadrupole moment (field-independent basis, Debye-Ang):
   XX=            -89.5429   YY=            -91.6830   ZZ=            -91.1722
   XY=             -0.1342   XZ=              0.0296   YZ=              0.6198
 Traceless Quadrupole moment (field-independent basis, Debye-Ang):
   XX=              1.2565   YY=             -0.8836   ZZ=             -0.3729
   XY=             -0.1342   XZ=              0.0296   YZ=              0.6198
 Octapole moment (field-independent basis, Debye-Ang**2):
  XXX=            -48.4861  YYY=            -36.4734  ZZZ=              0.9186  XYY=            -23.5122
  XXY=            -24.5303  XXZ=             -2.2001  XZZ=            -27.8595  YZZ=             -8.3404
  YYZ=             -1.3571  XYZ=              3.8727
 Hexadecapole moment (field-independent basis, Debye-Ang**3):
 XXXX=          -3718.8284 YYYY=          -1321.3903 ZZZZ=           -176.9133 XXXY=             81.2755
 XXXZ=             -6.9947 YYYX=            121.5215 YYYZ=              8.6344 ZZZX=             -7.1906
 ZZZY=             11.9598 XXYY=           -850.4807 XXZZ=           -644.9279 YYZZ=           -257.1868
 XXYZ=             12.3897 YYXZ=             -0.8515 ZZXY=             19.0586
 N-N= 1.191586981793D+03 E-N=-1.006451975455D+04  KE= 3.212034548160D+03
 No NMR shielding tensors so no spin-rotation constants.
 Leave Link  601 at Tue Sep 17 09:44:58 2024, MaxMem=  1342177280 cpu:               0.9 elap:               0.2
 (Enter /groups/ReismanLab/Software/Gaussian16_RevC/Linux_Binary_AVX2-enabled-CPU/g16/l701.exe)
 ... and contract with generalized density number  0.
 Compute integral first derivatives.
 R6Disp: Adding Grimme-D3(BJ) dispersion energy 1st derivatives to the gradient.
 Leave Link  701 at Tue Sep 17 09:44:58 2024, MaxMem=  1342177280 cpu:               0.6 elap:               0.1
 (Enter /groups/ReismanLab/Software/Gaussian16_RevC/Linux_Binary_AVX2-enabled-CPU/g16/l702.exe)
 L702 exits ... SP integral derivatives will be done elsewhere.
 Leave Link  702 at Tue Sep 17 09:44:58 2024, MaxMem=  1342177280 cpu:               0.1 elap:               0.0
 (Enter /groups/ReismanLab/Software/Gaussian16_RevC/Linux_Binary_AVX2-enabled-CPU/g16/l703.exe)
 Integral derivatives from FoFJK, PRISM(SPDF).
 Compute integral first derivatives, UseDBF=F ICtDFT=           0.
 Calling FoFJK, ICntrl=      2127 FMM=F ISym2X=0 I1Cent= 0 IOpClX= 0 NMat=1 NMatS=1 NMatT=0.
 FoFJK:  IHMeth= 1 ICntrl=    2127 DoSepK=F KAlg= 0 I1Cent=           0 FoldK=F
 IRaf=         0 NMat=       1 IRICut=       1 DoRegI=T DoRafI=F ISym2E= 0 IDoP0=0 IntGTp=1.
 FoFCou: FMM=F IPFlag=           0 FMFlag=      100000 FMFlg1=         800
         NFxFlg=           0 DoJE=F BraDBF=F KetDBF=F FulRan=T
         wScrn=  0.000000 ICntrl=      2127 IOpCl=  0 I1Cent=           0 NGrid=           0
         NMat0=    1 NMatS0=      1 NMatT0=    0 NMatD0=    1 NMtDS0=    0 NMtDT0=    0
 Symmetry not used in FoFCou.
 Leave Link  703 at Tue Sep 17 09:45:03 2024, MaxMem=  1342177280 cpu:              36.8 elap:               4.7
 (Enter /groups/ReismanLab/Software/Gaussian16_RevC/Linux_Binary_AVX2-enabled-CPU/g16/l716.exe)
 Dipole        = 1.45016943D+00-4.38670196D-01-7.56378931D-02
 ***** Axes restored to original set *****
 -------------------------------------------------------------------
 Center     Atomic                   Forces (Hartrees/Bohr)
 Number     Number              X              Y              Z
 -------------------------------------------------------------------
      1        9          -0.003277124   -0.000931805   -0.000292874
      2        6           0.000056107   -0.000961038   -0.000110273
      3        6           0.003805225   -0.001699415    0.000087063
      4        6          -0.009182668   -0.001442392   -0.000648697
      5        8           0.007651307   -0.006546792    0.001159303
      6        6           0.000207857    0.002197504    0.002304312
      7        6          -0.005148065    0.003484124   -0.003013665
      8        6           0.004558067    0.002961021   -0.002216505
      9        6           0.000415749   -0.003507484    0.004888959
     10        6           0.006994456    0.006485333    0.001162236
     11        6          -0.003861810   -0.000359280   -0.000338581
     12       35          -0.001772810    0.001044588   -0.000097234
     13        6          -0.005474183    0.003293622   -0.000284003
     14        9          -0.000508174   -0.003167505   -0.000243484
     15        1           0.001837199   -0.003939576   -0.000009992
     16        1          -0.001059042    0.000359541    0.000542956
     17        1          -0.001901921   -0.001562493   -0.002289809
     18        1          -0.002991648    0.002817619   -0.001347927
     19        1           0.002141163    0.003143045    0.000504388
     20        1           0.003031052    0.000663463   -0.002670341
     21        1           0.000573227   -0.003649017   -0.000891977
     22        1           0.002322089   -0.001239522    0.003597588
     23        1           0.001583947    0.002556462    0.000208559
 -------------------------------------------------------------------
 Cartesian Forces:  Max     0.009182668 RMS     0.003037495
 Leave Link  716 at Tue Sep 17 09:45:03 2024, MaxMem=  1342177280 cpu:               0.1 elap:               0.0
 (Enter /groups/ReismanLab/Software/Gaussian16_RevC/Linux_Binary_AVX2-enabled-CPU/g16/l103.exe)

 GradGradGradGradGradGradGradGradGradGradGradGradGradGradGradGradGradGrad
 Berny optimization.
 FormGI is forming the generalized inverse of G from B-inverse, IUseBI=4.
 GSVD:  received Info=                   1 from GESDD.
 Internal  Forces:  Max     0.009828713 RMS     0.002521805
 Search for a local minimum.
 Step number   1 out of a maximum of  138
 All quantities printed in internal units (Hartrees-Bohrs-Radians)
 RMS Force = .25218D-02 SwitMx=.10000D-02 MixMth= 1
 Mixed Optimization -- RFO/linear search
 Second derivative matrix not updated -- first step.
 ITU=  0
     Eigenvalues ---    0.00298   0.01506   0.02154   0.02207   0.02222
     Eigenvalues ---    0.02231   0.02239   0.02263   0.02277   0.02278
     Eigenvalues ---    0.02316   0.02326   0.02419   0.02461   0.03419
     Eigenvalues ---    0.04783   0.04813   0.04866   0.04918   0.05325
     Eigenvalues ---    0.05857   0.06118   0.06310   0.06769   0.06842
     Eigenvalues ---    0.08120   0.08367   0.10438   0.16000   0.16000
     Eigenvalues ---    0.18552   0.20840   0.23486   0.23492   0.25000
     Eigenvalues ---    0.25000   0.25000   0.25000   0.25000   0.25000
     Eigenvalues ---    0.26195   0.26576   0.28398   0.28798   0.34136
     Eigenvalues ---    0.35049   0.35076   0.35134   0.35187   0.35210
     Eigenvalues ---    0.35218   0.36353   0.36385   0.42846   0.43373
     Eigenvalues ---    0.43441   0.46782   0.46873   0.47883   0.49097
     Eigenvalues ---    0.56100   0.57095   0.57239
 RFO step:  Lambda=-2.82509350D-03 EMin= 2.97522212D-03
 Linear search not attempted -- first point.
 Iteration  1 RMS(Cart)=  0.03844742 RMS(Int)=  0.00075311
 Iteration  2 RMS(Cart)=  0.00111181 RMS(Int)=  0.00006512
 Iteration  3 RMS(Cart)=  0.00000063 RMS(Int)=  0.00006512
 ITry= 1 IFail=0 DXMaxC= 1.79D-01 DCOld= 1.00D+10 DXMaxT= 3.00D-01 DXLimC= 3.00D+00 Rises=F
 Variable       Old X    -DE/DX   Delta X   Delta X   Delta X     New X
                                 (Linear)    (Quad)   (Total)
    R1        2.53194   0.00231   0.00000   0.00401   0.00401   2.53595
    R2        2.60287   0.00563   0.00000   0.01099   0.01099   2.61385
    R3        2.63108   0.00346   0.00000   0.00691   0.00690   2.63799
    R4        2.64285   0.00447   0.00000   0.00979   0.00979   2.65265
    R5        2.03533   0.00430   0.00000   0.01175   0.01175   2.04708
    R6        2.54167   0.00983   0.00000   0.01743   0.01743   2.55910
    R7        2.63219   0.00643   0.00000   0.01407   0.01408   2.64627
    R8        2.67212   0.00586   0.00000   0.01342   0.01342   2.68554
    R9        2.91378   0.00636   0.00000   0.02107   0.02106   2.93484
   R10        2.90073   0.00430   0.00000   0.01348   0.01347   2.91420
   R11        2.07101   0.00097   0.00000   0.00281   0.00281   2.07383
   R12        2.90437   0.00907   0.00000   0.03244   0.03246   2.93682
   R13        2.05596   0.00320   0.00000   0.00906   0.00906   2.06502
   R14        2.05551   0.00377   0.00000   0.01067   0.01067   2.06618
   R15        2.90430   0.00944   0.00000   0.03356   0.03356   2.93785
   R16        2.05457   0.00363   0.00000   0.01026   0.01026   2.06483
   R17        2.05336   0.00362   0.00000   0.01021   0.01021   2.06357
   R18        2.05373   0.00376   0.00000   0.01060   0.01060   2.06434
   R19        2.05322   0.00405   0.00000   0.01140   0.01140   2.06462
   R20        2.61874   0.00932   0.00000   0.01959   0.01959   2.63834
   R21        2.03483   0.00299   0.00000   0.00816   0.00816   2.04299
   R22        3.57897   0.00185   0.00000   0.00980   0.00980   3.58877
   R23        2.61855   0.00380   0.00000   0.00776   0.00776   2.62631
   R24        2.53316   0.00070   0.00000   0.00123   0.00123   2.53438
    A1        2.08389   0.00226   0.00000   0.00940   0.00941   2.09330
    A2        2.08470  -0.00413   0.00000  -0.01587  -0.01586   2.06884
    A3        2.11459   0.00187   0.00000   0.00646   0.00645   2.12104
    A4        2.09505  -0.00225   0.00000  -0.01010  -0.01009   2.08495
    A5        2.09682   0.00051   0.00000   0.00127   0.00127   2.09809
    A6        2.09131   0.00174   0.00000   0.00883   0.00883   2.10014
    A7        2.02561   0.00058   0.00000   0.00163   0.00163   2.02724
    A8        2.08046   0.00259   0.00000   0.01159   0.01160   2.09206
    A9        2.17711  -0.00317   0.00000  -0.01322  -0.01323   2.16388
   A10        2.08811  -0.00551   0.00000  -0.02178  -0.02178   2.06633
   A11        2.04207  -0.00031   0.00000   0.00308   0.00308   2.04515
   A12        1.94891  -0.00051   0.00000   0.00429   0.00432   1.95323
   A13        1.91939  -0.00023   0.00000  -0.01158  -0.01164   1.90775
   A14        1.56247   0.00209   0.00000   0.00786   0.00758   1.57005
   A15        1.98556  -0.00052   0.00000  -0.00315  -0.00309   1.98247
   A16        1.98341  -0.00019   0.00000   0.00404   0.00415   1.98757
   A17        1.55922  -0.00104   0.00000  -0.00937  -0.00960   1.54962
   A18        1.94712  -0.00016   0.00000  -0.00607  -0.00602   1.94110
   A19        2.02975   0.00063   0.00000   0.00434   0.00451   2.03427
   A20        1.97385   0.00078   0.00000   0.00846   0.00850   1.98234
   A21        2.02690   0.00081   0.00000   0.01241   0.01243   2.03932
   A22        1.90783  -0.00091   0.00000  -0.00890  -0.00902   1.89881
   A23        1.56447  -0.00059   0.00000  -0.00289  -0.00312   1.56136
   A24        1.96903   0.00052   0.00000   0.00585   0.00587   1.97491
   A25        2.01968   0.00040   0.00000   0.00362   0.00372   2.02340
   A26        1.97079   0.00051   0.00000   0.00602   0.00602   1.97680
   A27        2.01993   0.00040   0.00000   0.00340   0.00353   2.02346
   A28        1.90331  -0.00102   0.00000  -0.01280  -0.01284   1.89047
   A29        1.56370  -0.00049   0.00000  -0.00725  -0.00753   1.55617
   A30        1.93385  -0.00009   0.00000  -0.00295  -0.00288   1.93097
   A31        2.02258   0.00040   0.00000   0.00430   0.00444   2.02702
   A32        1.97648   0.00047   0.00000   0.00473   0.00480   1.98128
   A33        2.03726   0.00050   0.00000   0.00936   0.00941   2.04667
   A34        1.90979  -0.00068   0.00000  -0.00755  -0.00763   1.90216
   A35        2.09312  -0.00268   0.00000  -0.01005  -0.01004   2.08309
   A36        2.11844   0.00097   0.00000   0.00277   0.00276   2.12120
   A37        2.07160   0.00171   0.00000   0.00727   0.00726   2.07887
   A38        2.08547   0.00156   0.00000   0.00577   0.00577   2.09124
   A39        2.11472   0.00016   0.00000   0.00144   0.00144   2.11616
   A40        2.08299  -0.00172   0.00000  -0.00720  -0.00720   2.07578
   A41        2.06842   0.00031   0.00000   0.00066   0.00065   2.06907
   A42        2.10696  -0.00413   0.00000  -0.01606  -0.01605   2.09091
   A43        2.10780   0.00382   0.00000   0.01540   0.01540   2.12320
    D1       -3.14154   0.00003   0.00000   0.00123   0.00123  -3.14031
    D2       -0.00134   0.00000   0.00000   0.00003   0.00004  -0.00131
    D3       -0.00086   0.00001   0.00000   0.00036   0.00037  -0.00049
    D4        3.13934  -0.00002   0.00000  -0.00083  -0.00083   3.13851
    D5       -3.14036  -0.00004   0.00000  -0.00143  -0.00142   3.14140
    D6       -0.00087  -0.00002   0.00000  -0.00119  -0.00118  -0.00206
    D7        0.00214  -0.00001   0.00000  -0.00058  -0.00058   0.00156
    D8       -3.14156  -0.00000   0.00000  -0.00033  -0.00034   3.14129
    D9        3.14020   0.00002   0.00000   0.00074   0.00074   3.14094
   D10       -0.00216   0.00000   0.00000   0.00030   0.00030  -0.00186
   D11       -0.00001   0.00005   0.00000   0.00194   0.00194   0.00193
   D12        3.14082   0.00004   0.00000   0.00150   0.00151  -3.14086
   D13       -3.11044  -0.00010   0.00000  -0.00354  -0.00354  -3.11397
   D14        0.03197  -0.00008   0.00000  -0.00309  -0.00309   0.02888
   D15        0.00387  -0.00002   0.00000  -0.00078  -0.00078   0.00310
   D16       -3.13194   0.00003   0.00000   0.00109   0.00109  -3.13086
   D17       -3.13856  -0.00003   0.00000  -0.00125  -0.00124  -3.13980
   D18        0.00881   0.00002   0.00000   0.00062   0.00062   0.00944
   D19       -1.30486   0.00100   0.00000   0.00154   0.00141  -1.30345
   D20       -3.06922  -0.00111   0.00000  -0.01225  -0.01213  -3.08135
   D21        0.99533  -0.00029   0.00000  -0.01185  -0.01184   0.98349
   D22       -2.17531  -0.00075   0.00000  -0.04209  -0.04212  -2.21743
   D23       -0.17416  -0.00038   0.00000  -0.03794  -0.03794  -0.21211
   D24        2.03002  -0.00126   0.00000  -0.05221  -0.05216   1.97786
   D25       -0.18195  -0.00024   0.00000  -0.03215  -0.03222  -0.21417
   D26        1.81920   0.00013   0.00000  -0.02799  -0.02804   1.79116
   D27       -2.25980  -0.00076   0.00000  -0.04227  -0.04226  -2.30206
   D28        1.83834   0.00045   0.00000  -0.02449  -0.02457   1.81377
   D29       -2.44370   0.00082   0.00000  -0.02034  -0.02039  -2.46409
   D30       -0.23951  -0.00006   0.00000  -0.03461  -0.03461  -0.27412
   D31        2.25938   0.00070   0.00000   0.03988   0.03991   2.29929
   D32        0.25571   0.00041   0.00000   0.03827   0.03829   0.29400
   D33       -1.93350   0.00110   0.00000   0.04772   0.04768  -1.88582
   D34        0.18195   0.00022   0.00000   0.03207   0.03212   0.21407
   D35       -1.82172  -0.00007   0.00000   0.03045   0.03050  -1.79122
   D36        2.27225   0.00062   0.00000   0.03991   0.03990   2.31215
   D37       -1.84029  -0.00017   0.00000   0.03095   0.03100  -1.80929
   D38        2.43922  -0.00046   0.00000   0.02934   0.02938   2.46860
   D39        0.25001   0.00023   0.00000   0.03879   0.03878   0.28879
   D40        0.18172  -0.00008   0.00000   0.03086   0.03071   0.21243
   D41       -1.82232  -0.00047   0.00000   0.02446   0.02441  -1.79791
   D42        2.25191   0.00016   0.00000   0.03407   0.03398   2.28589
   D43       -1.79472   0.00045   0.00000   0.04039   0.04037  -1.75434
   D44        2.48443   0.00006   0.00000   0.03399   0.03408   2.51851
   D45        0.27547   0.00068   0.00000   0.04361   0.04364   0.31912
   D46        2.26210   0.00027   0.00000   0.03385   0.03373   2.29582
   D47        0.25806  -0.00012   0.00000   0.02746   0.02743   0.28549
   D48       -1.95090   0.00051   0.00000   0.03707   0.03700  -1.91390
   D49       -0.18254  -0.00005   0.00000  -0.03146  -0.03139  -0.21393
   D50        1.78180  -0.00029   0.00000  -0.03725  -0.03725   1.74454
   D51       -2.25997  -0.00036   0.00000  -0.03481  -0.03473  -2.29469
   D52        1.81990   0.00035   0.00000  -0.02523  -0.02522   1.79467
   D53       -2.49895   0.00011   0.00000  -0.03102  -0.03109  -2.53004
   D54       -0.25753   0.00003   0.00000  -0.02858  -0.02856  -0.28609
   D55       -2.25251  -0.00028   0.00000  -0.03488  -0.03483  -2.28734
   D56       -0.28817  -0.00052   0.00000  -0.04067  -0.04069  -0.32887
   D57        1.95325  -0.00059   0.00000  -0.03823  -0.03817   1.91508
   D58       -3.14057   0.00003   0.00000   0.00082   0.00081  -3.13976
   D59       -0.00262   0.00002   0.00000   0.00059   0.00059  -0.00203
   D60       -0.00460  -0.00002   0.00000  -0.00102  -0.00102  -0.00562
   D61        3.13335  -0.00003   0.00000  -0.00124  -0.00124   3.13210
   D62       -0.00039   0.00000   0.00000   0.00011   0.00011  -0.00028
   D63       -3.13988   0.00000   0.00000  -0.00009  -0.00009  -3.13997
   D64        3.13757   0.00000   0.00000  -0.00008  -0.00009   3.13748
   D65       -0.00192  -0.00000   0.00000  -0.00029  -0.00029  -0.00221
         Item               Value     Threshold  Converged?
 Maximum Force            0.009829     0.000450     NO 
 RMS     Force            0.002522     0.000300     NO 
 Maximum Displacement     0.178790     0.001800     NO 
 RMS     Displacement     0.038640     0.001200     NO 
 Predicted change in Energy=-1.486640D-03
 Lowest energy point so far.  Saving SCF results.
 GradGradGradGradGradGradGradGradGradGradGradGradGradGradGradGradGradGrad

 Leave Link  103 at Tue Sep 17 09:45:03 2024, MaxMem=  1342177280 cpu:               0.1 elap:               0.0
 (Enter /groups/ReismanLab/Software/Gaussian16_RevC/Linux_Binary_AVX2-enabled-CPU/g16/l202.exe)
                          Input orientation:                          
 ---------------------------------------------------------------------
 Center     Atomic      Atomic             Coordinates (Angstroms)
 Number     Number       Type             X           Y           Z
 ---------------------------------------------------------------------
      1          9           0       -1.508359   -3.401582   -0.178088
      2          6           0       -0.878794   -2.222192   -0.061611
      3          6           0        0.498835   -2.183770    0.056212
      4          6           0        1.146908   -0.944681    0.179038
      5          8           0        2.495892   -0.985131    0.290903
      6          6           0        3.197620    0.240085    0.452204
      7          6           0        3.345047    1.143616   -0.802332
      8          6           0        4.878785    1.181048   -0.554391
      9          6           0        4.725052    0.029318    0.478470
     10          6           0        0.396643    0.237720    0.179023
     11          6           0       -0.992606    0.166706    0.059969
     12         35           0       -2.022809    1.762082    0.055425
     13          6           0       -1.644305   -1.054843   -0.060875
     14          9           0       -2.978106   -1.132382   -0.177552
     15          1           0        1.071792   -3.103115    0.056020
     16          1           0        2.806972    0.768986    1.330837
     17          1           0        3.062161    0.607274   -1.711418
     18          1           0        2.817737    2.101166   -0.779766
     19          1           0        5.219074    2.118494   -0.107952
     20          1           0        5.507935    0.965106   -1.420412
     21          1           0        4.985078   -0.953125    0.077810
     22          1           0        5.212120    0.158095    1.447925
     23          1           0        0.868543    1.206836    0.262148
 ---------------------------------------------------------------------
                    Distance matrix (angstroms):
                    1          2          3          4          5
     1  F    0.000000
     2  C    1.341969   0.000000
     3  C    2.359405   1.383192   0.000000
     4  C    3.635155   2.406951   1.403719   0.000000
     5  O    4.700342   3.611522   2.340951   1.354218   0.000000
     6  C    5.983749   4.789985   3.649017   2.384053   1.421124
     7  C    6.678627   5.451436   4.462008   3.186829   2.539250
     8  C    7.870052   6.706309   5.556870   4.357011   3.329419
     9  C    7.145457   6.063338   4.789256   3.720409   2.456307
    10  C    4.123237   2.781332   2.426755   1.400346   2.432021
    11  C    3.613219   2.394695   2.783729   2.413893   3.680988
    12  Br   5.194480   4.146916   4.682781   4.170006   5.293513
    13  C    2.353595   1.395963   2.425126   2.803670   4.155699
    14  F    2.703595   2.368173   3.639943   4.144651   5.495979
    15  H    2.607886   2.143512   1.083270   2.163242   2.563023
    16  H    6.188100   4.946809   3.958653   2.649360   2.062804
    17  H    6.269903   5.124340   4.181517   3.106538   2.620249
    18  H    7.025479   5.733368   4.943363   3.603908   3.282551
    19  H    8.702558   7.485165   6.388825   5.103718   4.148167
    20  H    8.357017   7.266053   6.098109   5.022358   3.975479
    21  H    6.944434   6.001247   4.652025   3.839514   2.498496
    22  H    7.776893   6.711460   5.443919   4.399106   3.166001
    23  H    5.203941   3.862155   3.416915   2.171041   2.730166
                    6          7          8          9         10
     6  C    0.000000
     7  C    1.553050   0.000000
     8  C    2.173698   1.554100   0.000000
     9  C    1.542129   2.187814   1.554645   0.000000
    10  C    2.814268   3.236787   4.638681   4.343757   0.000000
    11  C    4.209184   4.529144   5.989955   5.734600   1.396148
[...]
                 (A) (A) (A) (A) (A) (A) (A) (A)
 The electronic state is 1-A.
 Alpha  occ. eigenvalues -- -485.38839 -63.37305 -57.19261 -57.19010 -57.19000
 Alpha  occ. eigenvalues --  -25.27481 -25.27466 -19.66823 -10.65163 -10.64610
 Alpha  occ. eigenvalues --  -10.62866 -10.62158 -10.60328 -10.56563 -10.56196
 Alpha  occ. eigenvalues --  -10.54081 -10.54046 -10.53916  -9.03947  -6.86394
 Alpha  occ. eigenvalues --   -6.85462  -6.85427  -2.89770  -2.89437  -2.89399
 Alpha  occ. eigenvalues --   -2.88532  -2.88531  -1.39670  -1.38283  -1.20422
 Alpha  occ. eigenvalues --   -0.99780  -0.95658  -0.91565  -0.86446  -0.83984
 Alpha  occ. eigenvalues --   -0.77421  -0.76037  -0.73152  -0.70719  -0.65904
 Alpha  occ. eigenvalues --   -0.65346  -0.63406  -0.62194  -0.60107  -0.59262
 Alpha  occ. eigenvalues --   -0.56964  -0.56700  -0.55052  -0.53674  -0.52037
 Alpha  occ. eigenvalues --   -0.50998  -0.49464  -0.48634  -0.46014  -0.45794
 Alpha  occ. eigenvalues --   -0.44589  -0.42861  -0.40656  -0.40066  -0.38555
 Alpha  occ. eigenvalues --   -0.37574  -0.36254  -0.36121  -0.31435  -0.28938
 Alpha virt. eigenvalues --   -0.00213   0.02032   0.02391   0.06721   0.08385
 Alpha virt. eigenvalues --    0.09650   0.09864   0.10068   0.11693   0.13050
 Alpha virt. eigenvalues --    0.13523   0.14793   0.16206   0.16881   0.17684
 Alpha virt. eigenvalues --    0.17866   0.18274   0.19512   0.20020   0.21186
 Alpha virt. eigenvalues --    0.22142   0.22166   0.22551   0.22694   0.23401
 Alpha virt. eigenvalues --    0.24043   0.24841   0.25420   0.25970   0.27145
 Alpha virt. eigenvalues --    0.27901   0.29301   0.30035   0.30444   0.30929
 Alpha virt. eigenvalues --    0.31849   0.32604   0.33000   0.34066   0.34697
 Alpha virt. eigenvalues --    0.35828   0.36953   0.37375   0.37831   0.38451
 Alpha virt. eigenvalues --    0.38996   0.39633   0.40981   0.41297   0.41754
 Alpha virt. eigenvalues --    0.41858   0.43237   0.43943   0.44987   0.45745
 Alpha virt. eigenvalues --    0.46371   0.46908   0.47348   0.47868   0.47934
 Alpha virt. eigenvalues --    0.48662   0.48992   0.50133   0.50477   0.50923
 Alpha virt. eigenvalues --    0.51454   0.52419   0.53342   0.54067   0.55798
 Alpha virt. eigenvalues --    0.56765   0.57073   0.59828   0.60510   0.61636
 Alpha virt. eigenvalues --    0.62120   0.64606   0.66356   0.66920   0.68121
 Alpha virt. eigenvalues --    0.68391   0.68969   0.70436   0.72460   0.73376
 Alpha virt. eigenvalues --    0.74497   0.74710   0.75602   0.77273   0.77986
 Alpha virt. eigenvalues --    0.78592   0.80243   0.81093   0.82409   0.84575
 Alpha virt. eigenvalues --    0.86589   0.89148   0.89230   0.89990   0.91302
 Alpha virt. eigenvalues --    0.92012   0.92270   0.93011   0.93656   0.95886
 Alpha virt. eigenvalues --    0.96497   0.97561   0.98193   0.98583   1.00492
 Alpha virt. eigenvalues --    1.01780   1.02239   1.02897   1.03268   1.04916
 Alpha virt. eigenvalues --    1.05178   1.07080   1.07799   1.09348   1.10672
 Alpha virt. eigenvalues --    1.11451   1.13182   1.14651   1.15457   1.18128
 Alpha virt. eigenvalues --    1.18548   1.19069   1.19908   1.20986   1.21443
 Alpha virt. eigenvalues --    1.23815   1.24260   1.25126   1.25717   1.26867
 Alpha virt. eigenvalues --    1.28733   1.32293   1.33950   1.34560   1.37944
 Alpha virt. eigenvalues --    1.38560   1.39802   1.42071   1.43120   1.44957
 Alpha virt. eigenvalues --    1.45891   1.46081   1.48027   1.49233   1.49978
 Alpha virt. eigenvalues --    1.51636   1.53397   1.54719   1.56427   1.56848
 Alpha virt. eigenvalues --    1.57249   1.58232   1.58709   1.59846   1.61504
 Alpha virt. eigenvalues --    1.62344   1.63685   1.64967   1.65341   1.66007
 Alpha virt. eigenvalues --    1.66881   1.68684   1.71695   1.72677   1.74395
 Alpha virt. eigenvalues --    1.75676   1.75778   1.77071   1.78167   1.78509
 Alpha virt. eigenvalues --    1.79048   1.80436   1.81148   1.82921   1.83353
 Alpha virt. eigenvalues --    1.83546   1.84566   1.86010   1.88328   1.88808
 Alpha virt. eigenvalues --    1.89811   1.90625   1.92542   1.93729   1.96884
 Alpha virt. eigenvalues --    1.98957   1.99974   2.01876   2.02591   2.03962
 Alpha virt. eigenvalues --    2.04244   2.06142   2.08182   2.09610   2.11127
 Alpha virt. eigenvalues --    2.14669   2.14997   2.17222   2.19427   2.20192
 Alpha virt. eigenvalues --    2.21179   2.21279   2.22148   2.23404   2.25570
 Alpha virt. eigenvalues --    2.27806   2.30384   2.32518   2.33571   2.34947
 Alpha virt. eigenvalues --    2.36367   2.41958   2.43191   2.45580   2.47642
 Alpha virt. eigenvalues --    2.47937   2.48314   2.50399   2.50728   2.51755
 Alpha virt. eigenvalues --    2.52786   2.53932   2.54518   2.56463   2.57610
 Alpha virt. eigenvalues --    2.58968   2.60073   2.61083   2.61441   2.62217
 Alpha virt. eigenvalues --    2.63078   2.64485   2.65091   2.66314   2.67178
 Alpha virt. eigenvalues --    2.68450   2.68649   2.70476   2.71547   2.73121
 Alpha virt. eigenvalues --    2.73789   2.76078   2.76371   2.78267   2.79357
 Alpha virt. eigenvalues --    2.81083   2.81688   2.83237   2.84245   2.84684
 Alpha virt. eigenvalues --    2.86208   2.86454   2.87276   2.89696   2.89915
 Alpha virt. eigenvalues --    2.90816   2.91547   2.93316   2.94956   2.98391
 Alpha virt. eigenvalues --    2.99022   2.99351   3.00129   3.01579   3.04236
 Alpha virt. eigenvalues --    3.05082   3.06381   3.07003   3.07835   3.09199
 Alpha virt. eigenvalues --    3.11726   3.12700   3.13682   3.14516   3.16142
 Alpha virt. eigenvalues --    3.18268   3.18710   3.20145   3.20508   3.21373
 Alpha virt. eigenvalues --    3.22596   3.24193   3.24912   3.26033   3.27810
 Alpha virt. eigenvalues --    3.28350   3.29079   3.30966   3.31919   3.32310
 Alpha virt. eigenvalues --    3.34145   3.35215   3.36366   3.37601   3.39373
 Alpha virt. eigenvalues --    3.39761   3.40370   3.41773   3.43385   3.44058
 Alpha virt. eigenvalues --    3.45930   3.46985   3.47423   3.49400   3.49906
 Alpha virt. eigenvalues --    3.54253   3.55285   3.55756   3.57370   3.58027
 Alpha virt. eigenvalues --    3.58360   3.62775   3.63100   3.64320   3.64889
 Alpha virt. eigenvalues --    3.66665   3.69874   3.74473   3.74712   3.76990
 Alpha virt. eigenvalues --    3.78963   3.80427   3.82443   3.83451   3.84485
 Alpha virt. eigenvalues --    3.86150   3.91535   3.93253   3.95379   3.97532
 Alpha virt. eigenvalues --    3.99833   4.00611   4.01326   4.03767   4.04080
 Alpha virt. eigenvalues --    4.05431   4.07122   4.08083   4.09143   4.09923
 Alpha virt. eigenvalues --    4.10342   4.11972   4.13041   4.13375   4.14607
 Alpha virt. eigenvalues --    4.15340   4.16641   4.18480   4.21008   4.21896
 Alpha virt. eigenvalues --    4.24452   4.25774   4.28681   4.34046   4.37447
 Alpha virt. eigenvalues --    4.39201   4.39232   4.40649   4.43440   4.46631
 Alpha virt. eigenvalues --    4.48885   4.51100   4.52193   4.53990   4.55252
 Alpha virt. eigenvalues --    4.58314   4.62799   4.66822   4.69121   4.74434
 Alpha virt. eigenvalues --    4.75757   4.81634   4.83356   4.86747   4.89331
 Alpha virt. eigenvalues --    4.90371   4.97915   5.00742   5.06376   5.11272
 Alpha virt. eigenvalues --    5.23741   5.26969   5.28220   5.36978   5.45977
 Alpha virt. eigenvalues --    5.59572   5.64902   5.79570   5.92601   5.99511
 Alpha virt. eigenvalues --    6.30695   6.47836   6.65026   6.77929   6.89419
 Alpha virt. eigenvalues --    6.90297   6.90813   6.91059   6.91233   6.96720
 Alpha virt. eigenvalues --    7.02977   7.04049   7.14675   7.18336   7.23799
 Alpha virt. eigenvalues --    7.31310   7.33001   7.41016   7.42225   7.50658
 Alpha virt. eigenvalues --    7.74181   7.86636   8.32785   8.38040   8.49107
 Alpha virt. eigenvalues --    8.59755   8.70808   8.79489   8.84961   8.96703
 Alpha virt. eigenvalues --    9.00393   9.10495  22.20774  22.46145  22.54347
 Alpha virt. eigenvalues --   22.65056  22.78225  22.81700  22.82835  22.94445
 Alpha virt. eigenvalues --   23.04377  23.42440  44.56545  57.40075  57.61210
          Condensed to atoms (all electrons):
               1          2          3          4          5          6
     1  F    9.017316   0.243773  -0.043790   0.011272  -0.000046   0.000004
     2  C    0.243773   4.734726   0.458917  -0.012490   0.003165  -0.001192
     3  C   -0.043790   0.458917   5.252683   0.330696  -0.048142   0.002780
     4  C    0.011272  -0.012490   0.330696   4.945079   0.327023  -0.098929
     5  O   -0.000046   0.003165  -0.048142   0.327023   7.941896   0.227364
     6  C    0.000004  -0.001192   0.002780  -0.098929   0.227364   5.292741
     7  C    0.000000   0.000058   0.000978   0.006650  -0.050438   0.185914
     8  C    0.000000  -0.000021   0.000173  -0.002258   0.012266  -0.083282
     9  C    0.000000   0.000090  -0.001445   0.008228  -0.040444   0.179120
    10  C   -0.000604  -0.099852   0.023330   0.260875  -0.077222   0.023947
    11  C    0.013349   0.009947  -0.044028   0.057379   0.006793  -0.011044
    12  Br  -0.000184   0.006064   0.001957   0.008579  -0.000280  -0.000356
    13  C   -0.048215   0.474313  -0.038072  -0.054433  -0.000095   0.001587
    14  F    0.000941  -0.051578   0.010478  -0.002613  -0.000001  -0.000003
    15  H   -0.000381  -0.023435   0.403696  -0.045490   0.007028   0.000955
    16  H   -0.000000  -0.000344   0.004115  -0.010641  -0.045116   0.463277
    17  H   -0.000000  -0.000094   0.001567   0.000717   0.003544  -0.019139
    18  H    0.000000   0.000034  -0.000551  -0.001799   0.003568  -0.050560
    19  H   -0.000000   0.000000   0.000010   0.000117  -0.000378   0.005500
    20  H   -0.000000   0.000000  -0.000002   0.000060  -0.000500   0.014248
    21  H   -0.000000   0.000003   0.000210  -0.000093   0.003564  -0.035649
    22  H    0.000000  -0.000002   0.000014  -0.000209   0.002218  -0.041692
    23  H    0.000004   0.000778  -0.000497  -0.025745  -0.004855   0.014443
               7          8          9         10         11         12
     1  F    0.000000   0.000000   0.000000  -0.000604   0.013349  -0.000184
     2  C    0.000058  -0.000021   0.000090  -0.099852   0.009947   0.006064
     3  C    0.000978   0.000173  -0.001445   0.023330  -0.044028   0.001957
     4  C    0.006650  -0.002258   0.008228   0.260875   0.057379   0.008579
     5  O   -0.050438   0.012266  -0.040444  -0.077222   0.006793  -0.000280
     6  C    0.185914  -0.083282   0.179120   0.023947  -0.011044  -0.000356
     7  C    5.360851   0.220640  -0.089587  -0.007232   0.001700  -0.000165
     8  C    0.220640   5.155469   0.229225   0.001839  -0.000268   0.000015
     9  C   -0.089587   0.229225   5.245150  -0.003651   0.000739  -0.000019
    10  C   -0.007232   0.001839  -0.003651   5.529778   0.220029  -0.089078
    11  C    0.001700  -0.000268   0.000739   0.220029   5.303195   0.370241
    12  Br  -0.000165   0.000015  -0.000019  -0.089078   0.370241  34.850887
    13  C   -0.000225   0.000027  -0.000092   0.033749   0.217935  -0.083915
    14  F    0.000001  -0.000000   0.000000   0.009616  -0.076102  -0.000912
    15  H   -0.000163   0.000052  -0.000373   0.012967  -0.004309   0.000046
    16  H   -0.100048   0.019663  -0.042989   0.008154  -0.001757   0.000182
    17  H    0.385877  -0.022401  -0.002094  -0.002171  -0.000212   0.000014
    18  H    0.421234  -0.040793   0.022817  -0.002058   0.001711   0.000186
    19  H   -0.034550   0.421486  -0.039872   0.000038   0.000015  -0.000001
    20  H   -0.034837   0.424825  -0.037303  -0.000049   0.000002  -0.000000
    21  H    0.001318  -0.034291   0.419225   0.000483  -0.000029   0.000000
    22  H    0.018306  -0.037562   0.419256   0.000115  -0.000012   0.000000
    23  H   -0.006725   0.000922  -0.000619   0.389609  -0.015730   0.000583
              13         14         15         16         17         18
     1  F   -0.048215   0.000941  -0.000381  -0.000000  -0.000000   0.000000
     2  C    0.474313  -0.051578  -0.023435  -0.000344  -0.000094   0.000034
     3  C   -0.038072   0.010478   0.403696   0.004115   0.001567  -0.000551
     4  C   -0.054433  -0.002613  -0.045490  -0.010641   0.000717  -0.001799
     5  O   -0.000095  -0.000001   0.007028  -0.045116   0.003544   0.003568
     6  C    0.001587  -0.000003   0.000955   0.463277  -0.019139  -0.050560
     7  C   -0.000225   0.000001  -0.000163  -0.100048   0.385877   0.421234
     8  C    0.000027  -0.000000   0.000052   0.019663  -0.022401  -0.040793
     9  C   -0.000092   0.000000  -0.000373  -0.042989  -0.002094   0.022817
    10  C    0.033749   0.009616   0.012967   0.008154  -0.002171  -0.002058
    11  C    0.217935  -0.076102  -0.004309  -0.001757  -0.000212   0.001711
    12  Br  -0.083915  -0.000912   0.000046   0.000182   0.000014   0.000186
    13  C    5.009612   0.292976   0.009086   0.000259   0.000095  -0.000007
    14  F    0.292976   9.004968  -0.000040   0.000000  -0.000000  -0.000000
    15  H    0.009086  -0.000040   0.451980   0.000197   0.000074  -0.000013
    16  H    0.000259   0.000000   0.000197   0.538469   0.007110  -0.002234
    17  H    0.000095  -0.000000   0.000074   0.007110   0.508094  -0.017423
    18  H   -0.000007  -0.000000  -0.000013  -0.002234  -0.017423   0.522560
    19  H   -0.000000  -0.000000  -0.000000  -0.001135   0.002851  -0.004858
    20  H   -0.000000   0.000000  -0.000000  -0.000841  -0.007128   0.001445
    21  H    0.000007  -0.000000   0.000121   0.004611   0.000729  -0.000403
    22  H    0.000001   0.000000   0.000011  -0.004695  -0.000463  -0.000771
    23  H    0.005060   0.000007  -0.000058  -0.000513   0.000598  -0.000439
              19         20         21         22         23
     1  F   -0.000000  -0.000000  -0.000000   0.000000   0.000004
     2  C    0.000000   0.000000   0.000003  -0.000002   0.000778
     3  C    0.000010  -0.000002   0.000210   0.000014  -0.000497
     4  C    0.000117   0.000060  -0.000093  -0.000209  -0.025745
     5  O   -0.000378  -0.000500   0.003564   0.002218  -0.004855
     6  C    0.005500   0.014248  -0.035649  -0.041692   0.014443
     7  C   -0.034550  -0.034837   0.001318   0.018306  -0.006725
     8  C    0.421486   0.424825  -0.034291  -0.037562   0.000922
     9  C   -0.039872  -0.037303   0.419225   0.419256  -0.000619
    10  C    0.000038  -0.000049   0.000483   0.000115   0.389609
    11  C    0.000015   0.000002  -0.000029  -0.000012  -0.015730
    12  Br  -0.000001  -0.000000   0.000000   0.000000   0.000583
    13  C   -0.000000  -0.000000   0.000007   0.000001   0.005060
    14  F   -0.000000   0.000000  -0.000000   0.000000   0.000007
    15  H   -0.000000  -0.000000   0.000121   0.000011  -0.000058
    16  H   -0.001135  -0.000841   0.004611  -0.004695  -0.000513
    17  H    0.002851  -0.007128   0.000729  -0.000463   0.000598
    18  H   -0.004858   0.001445  -0.000403  -0.000771  -0.000439
    19  H    0.517324  -0.017047   0.003053  -0.004555   0.000013
    20  H   -0.017047   0.516871  -0.005965   0.001534  -0.000019
    21  H    0.003053  -0.005965   0.500066  -0.014881   0.000045
    22  H   -0.004555   0.001534  -0.014881   0.519187   0.000003
    23  H    0.000013  -0.000019   0.000045   0.000003   0.444108
 Mulliken charges:
               1
     1  F   -0.193440
     2  C    0.257139
     3  C   -0.315079
     4  C    0.298027
     5  O   -0.270912
     6  C   -0.070031
     7  C   -0.279558
     8  C   -0.265725
     9  C   -0.265366
    10  C   -0.232612
    11  C   -0.049546
    12  Br  -0.063845
    13  C    0.180350
    14  F   -0.187738
    15  H    0.188050
    16  H    0.164276
    17  H    0.159853
    18  H    0.148355
    19  H    0.151990
    20  H    0.144708
    21  H    0.157876
    22  H    0.144198
    23  H    0.199029
 Sum of Mulliken charges =  -0.00000
 Mulliken charges with hydrogens summed into heavy atoms:
               1
     1  F   -0.193440
     2  C    0.257139
     3  C   -0.127029
     4  C    0.298027
     5  O   -0.270912
     6  C    0.094245
     7  C    0.028650
     8  C    0.030973
     9  C    0.036709
    10  C   -0.033583
    11  C   -0.049546
    12  Br  -0.063845
    13  C    0.180350
    14  F   -0.187738
 Electronic spatial extent (au):  <R**2>=           4616.8162
 Charge=              0.0000 electrons
 Dipole moment (field-independent basis, Debye):
    X=              4.4823    Y=             -1.4136    Z=             -0.2354  Tot=              4.7058
 Quadrupole moment (field-independent basis, Debye-Ang):
   XX=            -92.2224   YY=            -93.8057   ZZ=            -93.1497
   XY=              0.5775   XZ=              0.1374   YZ=              0.5251
 Traceless Quadrupole moment (field-independent basis, Debye-Ang):
   XX=              0.8368   YY=             -0.7464   ZZ=             -0.0904
   XY=              0.5775   XZ=              0.1374   YZ=              0.5251
 Octapole moment (field-independent basis, Debye-Ang**2):
  XXX=            -33.3024  YYY=            -40.0550  ZZZ=             -0.0661  XYY=            -19.6235
  XXY=            -29.8743  XXZ=             -1.4319  XZZ=            -26.3327  YZZ=             -9.8276
  YYZ=             -1.4752  XYZ=              3.6191
 Hexadecapole moment (field-independent basis, Debye-Ang**3):
 XXXX=          -3821.6888 YYYY=          -1383.6914 ZZZZ=           -178.7986 XXXY=             91.3026
 XXXZ=              5.7869 YYYX=            136.9438 YYYZ=              8.6138 ZZZX=             -6.5389
 ZZZY=             10.8736 XXYY=           -895.3470 XXZZ=           -658.1482 YYZZ=           -268.2396
 XXYZ=              9.0099 YYXZ=              0.3238 ZZXY=             19.7538
 N-N= 1.187216427919D+03 E-N=-1.007639557450D+04  KE= 3.228992313337D+03
 Calculating spin-rotation constants.
 Leave Link  601 at Tue Sep 17 11:36:07 2024, MaxMem=  1342177280 cpu:               9.0 elap:               9.0
 (Enter /groups/ReismanLab/Software/Gaussian16_RevC/Linux_Binary_AVX2-enabled-CPU/g16/l9999.exe)
 Unable to Open any file for archive entry.
 1\1\GINC-HPC-83-09\SP\RM062X\def2TZVP\C10H9Br1F2O1\MANTIND\17-Sep-2024
 \0\\#p M062X/def2tzvp geom=check guess=read scf(xqc,tight) integral(gr
 id=ultrafine) scrf(SMD, solvent=1,4-Dioxane) nmr=giao\\spe\\0,1\F,0,-1
 .5571381165,-3.3898275392,-0.0671314821\C,0,-0.9090159471,-2.216536376
 6,0.002771099\C,0,0.4700637292,-2.1893815419,0.0858141767\C,0,1.126454
 7521,-0.951833153,0.1594111186\O,0,2.4827658301,-1.0083611172,0.239077
 4422\C,0,3.2067720516,0.2068514439,0.3764889823\C,0,3.3975479328,1.106
 0330052,-0.870627253\C,0,4.8821469556,1.268700756,-0.4465249444\C,0,4.
 7275759998,-0.000314166,0.4355792454\C,0,0.3896079798,0.2368657991,0.1
 46361614\C,0,-1.0029984474,0.1745969214,0.063744353\Br,0,-2.0218588166
 ,1.7760399039,0.0416527988\C,0,-1.665411782,-1.042126363,-0.0083467156
 \F,0,-3.0008487214,-1.1176483526,-0.0901938298\H,0,1.0366786932,-3.111
 8012638,0.0968088599\H,0,2.8281748839,0.7693013998,1.2394274365\H,0,3.
 2983773127,0.5052989347,-1.7789932007\H,0,2.7825526751,2.0043216705,-0
 .9648900547\H,0,5.0381152637,2.1687838453,0.1542218996\H,0,5.634908478
 ,1.241019829,-1.2365996759\H,0,4.9951841746,-0.9063352392,-0.114752198
 3\H,0,5.2020402018,-0.0211256726,1.4190894396\H,0,0.8695192273,1.20318
 95956,0.1891971956\\Version=ES64L-G16RevC.02\State=1-A\HF=-3235.547258
 8\RMSD=2.151e-09\Dipole=1.7343066,0.6455282,0.0568885\Quadrupole=0.659
 6592,-0.5714353,-0.0882239,-0.3684154,-0.1177114,0.4033458\PG=C01 [X(C
 10H9Br1F2O1)]\\@
 The archive entry for this job was punched.


 MARY HAD A LITTLE LAMB
      HIS FEET WERE BLACK AS SOOT,
           AND EVERYWHERE THAT MARY WENT
                HIS SOOTY FOOT HE PUT.

                    -- NONAME
 Job cpu time:       0 days  0 hours 27 minutes 44.6 seconds.
 Elapsed time:       0 days  0 hours 27 minutes 52.9 seconds.
 File lengths (MBytes):  RWF=    328 Int=      0 D2E=      0 Chk=     32 Scr=     16
 Normal termination of Gaussian 16 at Tue Sep 17 11:36:07 2024.
