 Entering Gaussian System, Link 0=g16
 Input=smiles_00068_conf_1.gjf
 Output=smiles_00068_conf_1.log
 Initial command:
 /groups/ReismanLab/Software/Gaussian16_RevC/Linux_Binary_AVX2-enabled-CPU/g16/l1.exe "/central/groups/ReismanLab/DM/dft_final/smiles_00068/Gau-2398463.inp" -scrdir="/central/groups/ReismanLab/DM/dft_final/smiles_00068/"
 Entering Link 1 = /groups/ReismanLab/Software/Gaussian16_RevC/Linux_Binary_AVX2-enabled-CPU/g16/l1.exe PID=   2398466.
  
 Copyright (c) 1988-2021, Gaussian, Inc.  All Rights Reserved.
  
 This is part of the Gaussian(R) 16 program.  It is based on
 the Gaussian(R) 09 system (copyright 2009, Gaussian, Inc.),
 the Gaussian(R) 03 system (copyright 2003, Gaussian, Inc.),
 the Gaussian(R) 98 system (copyright 1998, Gaussian, Inc.),
 the Gaussian(R) 94 system (copyright 1995, Gaussian, Inc.),
 the Gaussian 92(TM) system (copyright 1992, Gaussian, Inc.),
 the Gaussian 90(TM) system (copyright 1990, Gaussian, Inc.),
 the Gaussian 88(TM) system (copyright 1988, Gaussian, Inc.),
 the Gaussian 86(TM) system (copyright 1986, Carnegie Mellon
 University), and the Gaussian 82(TM) system (copyright 1983,
 Carnegie Mellon University). Gaussian is a federally registered
 trademark of Gaussian, Inc.
  
 This software contains proprietary and confidential information,
 including trade secrets, belonging to Gaussian, Inc.
  
 This software is provided under written license and may be
 used, copied, transmitted, or stored only in accord with that
 written license.
  
 The following legend is applicable only to US Government
 contracts under FAR:
  
                    RESTRICTED RIGHTS LEGEND
  
 Use, reproduction and disclosure by the US Government is
 subject to restrictions as set forth in subparagraphs (a)
 and (c) of the Commercial Computer Software - Restricted
 Rights clause in FAR 52.227-19.
  
 Gaussian, Inc.
 340 Quinnipiac St., Bldg. 40, Wallingford CT 06492
  
  
 ---------------------------------------------------------------
 Warning -- This program may not be used in any manner that
 competes with the business of Gaussian, Inc. or will provide
 assistance to any competitor of Gaussian, Inc.  The licensee
 of this program is prohibited from giving any competitor of
 Gaussian, Inc. access to this program.  By using this program,
 the user acknowledges that Gaussian, Inc. is engaged in the
 business of creating and licensing software in the field of
 computational chemistry and represents and warrants to the
 licensee that it is not a competitor of Gaussian, Inc. and that
 it will not use this program in any manner prohibited above.
 ---------------------------------------------------------------
  

 Cite this work as:
 Gaussian 16, Revision C.02,
 M. J. Frisch, G. W. Trucks, H. B. Schlegel, G. E. Scuseria, 
 M. A. Robb, J. R. Cheeseman, G. Scalmani, V. Barone, 
 G. A. Petersson, H. Nakatsuji, X. Li, M. Caricato, A. V. Marenich, 
 J. Bloino, B. G. Janesko, R. Gomperts, B. Mennucci, H. P. Hratchian, 
 J. V. Ortiz, A. F. Izmaylov, J. L. Sonnenberg, D. Williams-Young, 
 F. Ding, F. Lipparini, F. Egidi, J. Goings, B. Peng, A. Petrone, 
 T. Henderson, D. Ranasinghe, V. G. Zakrzewski, J. Gao, N. Rega, 
 G. Zheng, W. Liang, M. Hada, M. Ehara, K. Toyota, R. Fukuda, 
 J. Hasegawa, M. Ishida, T. Nakajima, Y. Honda, O. Kitao, H. Nakai, 
 T. Vreven, K. Throssell, J. A. Montgomery, Jr., J. E. Peralta, 
 F. Ogliaro, M. J. Bearpark, J. J. Heyd, E. N. Brothers, K. N. Kudin, 
 V. N. Staroverov, T. A. Keith, R. Kobayashi, J. Normand, 
 K. Raghavachari, A. P. Rendell, J. C. Burant, S. S. Iyengar, 
 J. Tomasi, M. Cossi, J. M. Millam, M. Klene, C. Adamo, R. Cammi, 
 J. W. Ochterski, R. L. Martin, K. Morokuma, O. Farkas, 
 J. B. Foresman, and D. J. Fox, Gaussian, Inc., Wallingford CT, 2019.
 
 ******************************************
 Gaussian 16:  ES64L-G16RevC.02  7-Dec-2021
                17-Sep-2024 
 ******************************************
 %nprocshared=8
 Will use up to    8 processors via shared memory.
 %Mem=10GB
 %Chk=smiles_00068_conf_1.chk
 ----------------------------------------------------------------------
 #p B3LYP/6-31G(d,p) EmpiricalDispersion=GD3BJ opt freq scf(xqc,tight) 
 integral(grid=ultrafine)
 ----------------------------------------------------------------------
 1/18=20,19=15,26=4,38=1/1,3;
 2/9=110,12=2,17=6,18=5,40=1/2;
 3/5=1,6=6,7=101,11=2,25=1,30=1,71=1,74=-5,75=-5,124=41/1,2,3;
 4//1;
 5/5=2,8=3,13=1,32=2,38=5/2,8;
 6/7=2,8=2,9=2,10=2,28=1/1;
 7//1,2,3,16;
 1/18=20,19=15,26=4/3(2);
 2/9=110/2;
 99//99;
 2/9=110/2;
 3/5=1,6=6,7=101,11=2,25=1,30=1,71=1,74=-5,75=-5,124=41/1,2,3;
 4/5=5,16=3,69=1/1;
 5/5=2,8=3,13=1,32=2,38=5/2,8;
 7//1,2,3,16;
 1/18=20,19=15,26=4/3(-5);
 2/9=110/2;
 6/7=2,8=2,9=2,10=2,19=2,28=1/1;
 99/9=1/99;
 Leave Link    1 at Tue Sep 17 09:42:33 2024, MaxMem=  1342177280 cpu:               0.0 elap:               1.2
 (Enter /groups/ReismanLab/Software/Gaussian16_RevC/Linux_Binary_AVX2-enabled-CPU/g16/l101.exe)
 ----------------------------------
 opt-freq conformers_unique/conf_ab
 ----------------------------------
 Symbolic Z-matrix:
 Charge =  0 Multiplicity = 1
 N                    -0.57821  -4.37141  -0.74011 
 C                    -0.56882  -3.23588  -0.59701 
 C                    -0.56137  -1.82919  -0.42043 
 C                    -1.67479  -1.2011    0.1344 
 C                    -1.65406   0.17381   0.29144 
 Br                   -3.16247   1.05304   1.03599 
 C                    -0.54758   0.92317  -0.07602 
 C                     0.55164   0.27731  -0.6249 
 S                     1.93802   1.29344  -1.11361 
 C                     3.2866    0.33292  -0.32563 
 F                     4.35678   1.10127  -0.1919 
 F                     2.9345   -0.10665   0.88197 
 F                     3.6419   -0.73577  -1.04157 
 C                     0.55528  -1.09402  -0.81735 
 H                    -2.53553  -1.78026   0.43175 
 H                    -0.53493   1.99293   0.05963 
 H                     1.39492  -1.60247  -1.26488 
 
 ITRead=  0  0  0  0  0  0  0  0  0  0  0  0  0  0  0  0  0
 MicOpt= -1 -1 -1 -1 -1 -1 -1 -1 -1 -1 -1 -1 -1 -1 -1 -1 -1
 NAtoms=     17 NQM=       17 NQMF=       0 NMMI=      0 NMMIF=      0
                NMic=       0 NMicF=      0.
                    Isotopes and Nuclear Properties:
 (Nuclear quadrupole moments (NQMom) in fm**2, nuclear magnetic moments (NMagM)
  in nuclear magnetons)

  Atom         1           2           3           4           5           6           7           8           9          10
 IAtWgt=          14          12          12          12          12          79          12          12          32          12
 AtmWgt=  14.0030740  12.0000000  12.0000000  12.0000000  12.0000000  78.9183361  12.0000000  12.0000000  31.9720718  12.0000000
 NucSpn=           2           0           0           0           0           3           0           0           0           0
 AtZEff=  -0.0000000  -0.0000000  -0.0000000  -0.0000000  -0.0000000  -0.0000000  -0.0000000  -0.0000000  -0.0000000  -0.0000000
 NQMom=    2.0440000   0.0000000   0.0000000   0.0000000   0.0000000  31.3000000   0.0000000   0.0000000   0.0000000   0.0000000
 NMagM=    0.4037610   0.0000000   0.0000000   0.0000000   0.0000000   2.1063990   0.0000000   0.0000000   0.0000000   0.0000000
 AtZNuc=   7.0000000   6.0000000   6.0000000   6.0000000   6.0000000  35.0000000   6.0000000   6.0000000  16.0000000   6.0000000

  Atom        11          12          13          14          15          16          17
 IAtWgt=          19          19          19          12           1           1           1
 AtmWgt=  18.9984032  18.9984032  18.9984032  12.0000000   1.0078250   1.0078250   1.0078250
 NucSpn=           1           1           1           0           1           1           1
 AtZEff=  -0.0000000  -0.0000000  -0.0000000  -0.0000000  -0.0000000  -0.0000000  -0.0000000
 NQMom=    0.0000000   0.0000000   0.0000000   0.0000000   0.0000000   0.0000000   0.0000000
 NMagM=    2.6288670   2.6288670   2.6288670   0.0000000   2.7928460   2.7928460   2.7928460
 AtZNuc=   9.0000000   9.0000000   9.0000000   6.0000000   1.0000000   1.0000000   1.0000000
 Leave Link  101 at Tue Sep 17 09:42:33 2024, MaxMem=  1342177280 cpu:               0.2 elap:               0.2
 (Enter /groups/ReismanLab/Software/Gaussian16_RevC/Linux_Binary_AVX2-enabled-CPU/g16/l103.exe)

 GradGradGradGradGradGradGradGradGradGradGradGradGradGradGradGradGradGrad
 Berny optimization.
 Initialization pass.
                           ----------------------------
                           !    Initial Parameters    !
                           ! (Angstroms and Degrees)  !
 --------------------------                            --------------------------
 ! Name  Definition              Value          Derivative Info.                !
 --------------------------------------------------------------------------------
 ! R1    R(1,2)                  1.1445         estimate D2E/DX2                !
 ! R2    R(2,3)                  1.4177         estimate D2E/DX2                !
 ! R3    R(3,4)                  1.3936         estimate D2E/DX2                !
 ! R4    R(3,14)                 1.3946         estimate D2E/DX2                !
 ! R5    R(4,5)                  1.384          estimate D2E/DX2                !
 ! R6    R(4,15)                 1.0792         estimate D2E/DX2                !
 ! R7    R(5,6)                  1.8981         estimate D2E/DX2                !
 ! R8    R(5,7)                  1.3859         estimate D2E/DX2                !
 ! R9    R(7,8)                  1.3881         estimate D2E/DX2                !
 ! R10   R(7,16)                 1.0784         estimate D2E/DX2                !
 ! R11   R(8,9)                  1.787          estimate D2E/DX2                !
 ! R12   R(8,14)                 1.3848         estimate D2E/DX2                !
 ! R13   R(9,10)                 1.8336         estimate D2E/DX2                !
 ! R14   R(10,11)                1.3242         estimate D2E/DX2                !
 ! R15   R(10,12)                1.3325         estimate D2E/DX2                !
 ! R16   R(10,13)                1.3345         estimate D2E/DX2                !
 ! R17   R(14,17)                1.0788         estimate D2E/DX2                !
 ! A1    A(2,3,4)              119.5101         estimate D2E/DX2                !
 ! A2    A(2,3,14)             119.4586         estimate D2E/DX2                !
 ! A3    A(4,3,14)             121.0281         estimate D2E/DX2                !
 ! A4    A(3,4,5)              118.7472         estimate D2E/DX2                !
 ! A5    A(3,4,15)             120.335          estimate D2E/DX2                !
 ! A6    A(5,4,15)             120.9176         estimate D2E/DX2                !
 ! A7    A(4,5,6)              119.5234         estimate D2E/DX2                !
 ! A8    A(4,5,7)              121.2655         estimate D2E/DX2                !
 ! A9    A(6,5,7)              119.2095         estimate D2E/DX2                !
 ! A10   A(5,7,8)              119.0448         estimate D2E/DX2                !
 ! A11   A(5,7,16)             120.8215         estimate D2E/DX2                !
 ! A12   A(8,7,16)             120.1337         estimate D2E/DX2                !
 ! A13   A(7,8,9)              117.2542         estimate D2E/DX2                !
 ! A14   A(7,8,14)             121.1862         estimate D2E/DX2                !
 ! A15   A(9,8,14)             121.5372         estimate D2E/DX2                !
 ! A16   A(8,9,10)              98.9278         estimate D2E/DX2                !
 ! A17   A(9,10,11)            109.5012         estimate D2E/DX2                !
 ! A18   A(9,10,12)            111.5882         estimate D2E/DX2                !
 ! A19   A(9,10,13)            112.6288         estimate D2E/DX2                !
 ! A20   A(11,10,12)           108.2668         estimate D2E/DX2                !
 ! A21   A(11,10,13)           107.6783         estimate D2E/DX2                !
 ! A22   A(12,10,13)           107.0006         estimate D2E/DX2                !
 ! A23   A(3,14,8)             118.7097         estimate D2E/DX2                !
 ! A24   A(3,14,17)            119.5255         estimate D2E/DX2                !
 ! A25   A(8,14,17)            121.7648         estimate D2E/DX2                !
 ! A26   L(1,2,3,13,-1)        180.1616         estimate D2E/DX2                !
 ! A27   L(1,2,3,13,-2)        179.9339         estimate D2E/DX2                !
 ! D1    D(2,3,4,5)           -179.5762         estimate D2E/DX2                !
 ! D2    D(2,3,4,15)             0.2518         estimate D2E/DX2                !
 ! D3    D(14,3,4,5)            -0.2296         estimate D2E/DX2                !
 ! D4    D(14,3,4,15)          179.5984         estimate D2E/DX2                !
 ! D5    D(2,3,14,8)          -179.3341         estimate D2E/DX2                !
 ! D6    D(2,3,14,17)            0.7423         estimate D2E/DX2                !
 ! D7    D(4,3,14,8)             1.319          estimate D2E/DX2                !
 ! D8    D(4,3,14,17)         -178.6046         estimate D2E/DX2                !
 ! D9    D(3,4,5,6)            179.6663         estimate D2E/DX2                !
 ! D10   D(3,4,5,7)             -0.8004         estimate D2E/DX2                !
 ! D11   D(15,4,5,6)            -0.1607         estimate D2E/DX2                !
 ! D12   D(15,4,5,7)           179.3726         estimate D2E/DX2                !
 ! D13   D(4,5,7,8)              0.7091         estimate D2E/DX2                !
 ! D14   D(4,5,7,16)          -179.3163         estimate D2E/DX2                !
 ! D15   D(6,5,7,8)           -179.7561         estimate D2E/DX2                !
 ! D16   D(6,5,7,16)             0.2185         estimate D2E/DX2                !
 ! D17   D(5,7,8,9)            178.7297         estimate D2E/DX2                !
 ! D18   D(5,7,8,14)             0.4253         estimate D2E/DX2                !
 ! D19   D(16,7,8,9)            -1.2451         estimate D2E/DX2                !
 ! D20   D(16,7,8,14)         -179.5494         estimate D2E/DX2                !
 ! D21   D(7,8,9,10)           131.784          estimate D2E/DX2                !
 ! D22   D(14,8,9,10)          -49.918          estimate D2E/DX2                !
 ! D23   D(7,8,14,3)            -1.4177         estimate D2E/DX2                !
 ! D24   D(7,8,14,17)          178.5041         estimate D2E/DX2                !
 ! D25   D(9,8,14,3)          -179.649          estimate D2E/DX2                !
 ! D26   D(9,8,14,17)            0.2727         estimate D2E/DX2                !
 ! D27   D(8,9,10,11)         -160.4426         estimate D2E/DX2                !
 ! D28   D(8,9,10,12)          -40.5925         estimate D2E/DX2                !
 ! D29   D(8,9,10,13)           79.7791         estimate D2E/DX2                !
 --------------------------------------------------------------------------------
 Trust Radius=3.00D-01 FncErr=1.00D-07 GrdErr=1.00D-06 EigMax=2.50D+02 EigMin=1.00D-04
 Number of steps in this run=     83 maximum allowed number of steps=    102.
 GradGradGradGradGradGradGradGradGradGradGradGradGradGradGradGradGradGrad

 Leave Link  103 at Tue Sep 17 09:42:33 2024, MaxMem=  1342177280 cpu:               0.0 elap:               0.0
 (Enter /groups/ReismanLab/Software/Gaussian16_RevC/Linux_Binary_AVX2-enabled-CPU/g16/l202.exe)
                          Input orientation:                          
 ---------------------------------------------------------------------
 Center     Atomic      Atomic             Coordinates (Angstroms)
 Number     Number       Type             X           Y           Z
 ---------------------------------------------------------------------
      1          7           0       -0.578212   -4.371408   -0.740115
      2          6           0       -0.568820   -3.235878   -0.597012
      3          6           0       -0.561372   -1.829188   -0.420431
      4          6           0       -1.674791   -1.201104    0.134404
      5          6           0       -1.654058    0.173814    0.291439
      6         35           0       -3.162473    1.053043    1.035988
      7          6           0       -0.547582    0.923168   -0.076024
      8          6           0        0.551641    0.277307   -0.624897
      9         16           0        1.938024    1.293441   -1.113614
     10          6           0        3.286597    0.332916   -0.325630
     11          9           0        4.356779    1.101272   -0.191903
     12          9           0        2.934501   -0.106649    0.881966
     13          9           0        3.641896   -0.735774   -1.041572
     14          6           0        0.555279   -1.094023   -0.817355
     15          1           0       -2.535533   -1.780261    0.431751
     16          1           0       -0.534928    1.992934    0.059629
     17          1           0        1.394922   -1.602469   -1.264876
 ---------------------------------------------------------------------
                    Distance matrix (angstroms):
                    1          2          3          4          5
     1  N    0.000000
     2  C    1.144550   0.000000
     3  C    2.562297   1.417750   0.000000
     4  C    3.466712   2.428672   1.393568   0.000000
     5  C    4.783365   3.686880   2.390133   1.384012   0.000000
     6  Br   6.265590   5.271487   4.146582   2.847321   1.898082
     7  C    5.336149   4.191604   2.773855   2.414004   1.385947
     8  C    4.785435   3.687639   2.391218   2.778352   2.390709
     9  S    6.209787   5.202488   4.059347   4.564290   4.016316
    10  C    6.102393   5.260625   4.414810   5.213465   4.981582
    11  F    7.389513   6.575448   5.729575   6.464306   6.101144
    12  F    5.758338   4.924704   4.109076   4.796067   4.634895
    13  F    5.578353   4.917142   4.387350   5.465036   5.536371
    14  C    3.468720   2.428929   1.394606   2.427040   2.778129
    15  H    3.452306   2.654267   2.150795   1.079219   2.148277
    16  H    6.414539   5.269991   3.852242   3.392162   2.148345
    17  H    3.440298   2.640142   2.142797   3.397384   3.856628
                    6          7          8          9         10
     6  Br   0.000000
     7  C    2.844485   0.000000
     8  C    4.141854   1.388053   0.000000
     9  S    5.540186   2.718811   1.787017   0.000000
    10  C    6.630467   3.887368   2.751842   1.833623   0.000000
    11  F    7.619002   4.908962   3.917330   2.595545   1.324215
    12  F    6.208197   3.755419   2.845361   2.633544   1.332470
    13  F    7.335910   4.608265   3.278663   2.650676   1.334507
    14  C    4.676158   2.415561   1.384774   2.774840   3.120584
    15  H    2.964080   3.393864   3.857556   5.643448   6.239899
    16  H    2.956462   1.078406   2.143031   2.825116   4.184272
    17  H    5.754614   3.400815   2.157373   2.950277   2.864669
                   11         12         13         14         15
    11  F    0.000000
    12  F    2.152938   0.000000
    13  F    2.146564   2.143876   0.000000
    14  C    4.434175   3.085983   3.115417   0.000000
    15  H    7.496408   5.738026   6.436013   3.403573   0.000000
    16  H    4.978667   4.137804   5.109242   3.389241   4.286945
    17  H    4.151396   3.035904   2.418660   1.078793   4.284698
                   16         17
    16  H    0.000000
    17  H    4.290170   0.000000
 Stoichiometry    C8H3BrF3NS
 Framework group  C1[X(C8H3BrF3NS)]
 Deg. of freedom    45
 Full point group                 C1      NOp   1
 Largest Abelian subgroup         C1      NOp   1
 Largest concise Abelian subgroup C1      NOp   1
                         Standard orientation:                         
 ---------------------------------------------------------------------
 Center     Atomic      Atomic             Coordinates (Angstroms)
 Number     Number       Type             X           Y           Z
 ---------------------------------------------------------------------
      1          7           0        0.303815    4.420266    0.051824
      2          6           0        0.372095    3.280894   -0.032820
      3          6           0        0.460623    1.869914   -0.139172
      4          6           0        1.690981    1.243183    0.049136
      5          6           0        1.761100   -0.134157   -0.067086
      6         35           0        3.427626   -1.009661    0.175607
      7          6           0        0.634374   -0.890571   -0.348470
      8          6           0       -0.581607   -0.246369   -0.530361
      9         16           0       -1.996086   -1.264547   -0.925321
     10          6           0       -3.187882   -0.578891    0.287804
     11          9           0       -4.173062   -1.443347    0.476699
     12          9           0       -2.608583   -0.342256    1.464194
     13          9           0       -3.729954    0.570886   -0.118495
     14          6           0       -0.682824    1.132000   -0.444029
     15          1           0        2.570048    1.825790    0.278319
     16          1           0        0.695157   -1.964421   -0.426653
     17          1           0       -1.618222    1.644079   -0.607127
 ---------------------------------------------------------------------
 Rotational constants (GHZ):           0.6598182           0.2422959           0.1883452
 Leave Link  202 at Tue Sep 17 09:42:33 2024, MaxMem=  1342177280 cpu:               0.0 elap:               0.0
 (Enter /groups/ReismanLab/Software/Gaussian16_RevC/Linux_Binary_AVX2-enabled-CPU/g16/l301.exe)
 Standard basis: 6-31G(d,p) (6D, 7F)
 Ernie: Thresh=  0.10000D-02 Tol=  0.10000D-05 Strict=F.
 There are   244 symmetry adapted cartesian basis functions of A   symmetry.
 There are   244 symmetry adapted basis functions of A   symmetry.
   244 basis functions,   492 primitive gaussians,   244 cartesian basis functions
    68 alpha electrons       68 beta electrons
       nuclear repulsion energy      1263.5308539209 Hartrees.
 IExCor=  402 DFT=T Ex+Corr=B3LYP ExCW=0 ScaHFX=  0.200000
 ScaDFX=  0.800000  0.720000  1.000000  0.810000 ScalE2=  1.000000  1.000000
 IRadAn=      5 IRanWt=     -1 IRanGd=            0 ICorTp=0 IEmpDi=141
 NAtoms=   17 NActive=   17 NUniq=   17 SFac= 1.00D+00 NAtFMM=   60 NAOKFM=F Big=F
 Integral buffers will be    131072 words long.
 Raffenetti 2 integral format.
 Two-electron integral symmetry is turned on.
 R6Disp:  Grimme-D3(BJ) Dispersion energy=       -0.0414730364 Hartrees.
 Nuclear repulsion after empirical dispersion term =     1263.4893808845 Hartrees.
 Leave Link  301 at Tue Sep 17 09:42:34 2024, MaxMem=  1342177280 cpu:               0.1 elap:               0.0
 (Enter /groups/ReismanLab/Software/Gaussian16_RevC/Linux_Binary_AVX2-enabled-CPU/g16/l302.exe)
 NPDir=0 NMtPBC=     1 NCelOv=     1 NCel=       1 NClECP=     1 NCelD=      1
         NCelK=      1 NCelE2=     1 NClLst=     1 CellRange=     0.0.
 One-electron integrals computed using PRISM.
 One-electron integral symmetry used in STVInt
 NBasis=   244 RedAO= T EigKep=  4.17D-04  NBF=   244
 NBsUse=   244 1.00D-06 EigRej= -1.00D+00 NBFU=   244
 Precomputing XC quadrature grid using
 IXCGrd= 4 IRadAn=           5 IRanWt=          -1 IRanGd=           0 AccXCQ= 0.00D+00.
 Generated NRdTot=       0 NPtTot=           0 NUsed=           0 NTot=          32
 NSgBfM=   240   240   240   240   240 MxSgAt=    17 MxSgA2=    17.
 Leave Link  302 at Tue Sep 17 09:42:34 2024, MaxMem=  1342177280 cpu:               0.8 elap:               0.1
 (Enter /groups/ReismanLab/Software/Gaussian16_RevC/Linux_Binary_AVX2-enabled-CPU/g16/l303.exe)
 DipDrv:  MaxL=1.
 Leave Link  303 at Tue Sep 17 09:42:34 2024, MaxMem=  1342177280 cpu:               0.1 elap:               0.0
 (Enter /groups/ReismanLab/Software/Gaussian16_RevC/Linux_Binary_AVX2-enabled-CPU/g16/l401.exe)
 ExpMin= 1.17D-01 ExpMax= 5.74D+05 ExpMxC= 5.74D+03 IAcc=3 IRadAn=         5 AccDes= 0.00D+00
 Harris functional with IExCor=  402 and IRadAn=       5 diagonalized for initial guess.
 HarFok:  IExCor=  402 AccDes= 0.00D+00 IRadAn=         5 IDoV= 1 UseB2=F ITyADJ=14
 ICtDFT=  3500011 ScaDFX=  1.000000  1.000000  1.000000  1.000000
 FoFCou: FMM=F IPFlag=           0 FMFlag=      100000 FMFlg1=           0
         NFxFlg=           0 DoJE=T BraDBF=F KetDBF=T FulRan=T
         wScrn=  0.000000 ICntrl=       500 IOpCl=  0 I1Cent=   200000004 NGrid=           0
         NMat0=    1 NMatS0=      1 NMatT0=    0 NMatD0=    1 NMtDS0=    0 NMtDT0=    0
 Petite list used in FoFCou.
 Harris En= -3630.86848193219    
 JPrj=0 DoOrth=F DoCkMO=F.
 Leave Link  401 at Tue Sep 17 09:42:34 2024, MaxMem=  1342177280 cpu:               4.4 elap:               0.6
 (Enter /groups/ReismanLab/Software/Gaussian16_RevC/Linux_Binary_AVX2-enabled-CPU/g16/l502.exe)
 Integral symmetry usage will be decided dynamically.
 Closed shell SCF:
 Using DIIS extrapolation, IDIIS=  1040.
 NGot=  1342177280 LenX=  1342053390 LenY=  1341993413
 Requested convergence on RMS density matrix=1.00D-08 within  32 cycles.
 Requested convergence on MAX density matrix=1.00D-06.
 Requested convergence on             energy=1.00D-06.
 No special actions if energy rises.
 Fock matrices will be formed incrementally for  20 cycles.
 Integral accuracy reduced to 1.0D-05 until final iterations.

 Cycle   1  Pass 0  IDiag  1:
 FoFJK:  IHMeth= 1 ICntrl=       0 DoSepK=F KAlg= 0 I1Cent=           0 FoldK=F
 IRaf= 820000000 NMat=       1 IRICut=       1 DoRegI=T DoRafI=F ISym2E= 0 IDoP0=0 IntGTp=1.
 FoFCou: FMM=F IPFlag=           0 FMFlag=      100000 FMFlg1=           0
         NFxFlg=           0 DoJE=F BraDBF=F KetDBF=F FulRan=T
         wScrn=  0.000000 ICntrl=         0 IOpCl=  0 I1Cent=           0 NGrid=           0
         NMat0=    1 NMatS0=      1 NMatT0=    0 NMatD0=    1 NMtDS0=    0 NMtDT0=    0
 Symmetry not used in FoFCou.
 E= -3630.60278502291    
 DIIS: error= 1.41D-01 at cycle   1 NSaved=   1.
 NSaved= 1 IEnMin= 1 EnMin= -3630.60278502291     IErMin= 1 ErrMin= 1.41D-01
 ErrMax= 1.41D-01  0.00D+00 EMaxC= 1.00D-01 BMatC= 6.27D-01 BMatP= 6.27D-01
 IDIUse=3 WtCom= 0.00D+00 WtEn= 1.00D+00
 Coeff-Com:  0.100D+01
 Coeff-En:   0.100D+01
 Coeff:      0.100D+01
 Gap=     0.340 Goal=   None    Shift=    0.000
 GapD=    0.340 DampG=1.000 DampE=0.250 DampFc=0.2500 IDamp=-1.
 Damping current iteration by 2.50D-01
 RMSDP=5.42D-03 MaxDP=2.38D-01              OVMax= 2.18D-01

 Cycle   2  Pass 0  IDiag  1:
 RMSU=  1.33D-03    CP:  9.93D-01
 E= -3630.68891356947     Delta-E=       -0.086128546565 Rises=F Damp=T
 DIIS: error= 1.04D-01 at cycle   2 NSaved=   2.
 NSaved= 2 IEnMin= 2 EnMin= -3630.68891356947     IErMin= 2 ErrMin= 1.04D-01
 ErrMax= 1.04D-01  0.00D+00 EMaxC= 1.00D-01 BMatC= 2.48D-01 BMatP= 6.27D-01
 IDIUse=3 WtCom= 0.00D+00 WtEn= 1.00D+00
 Coeff-Com: -0.107D+01 0.207D+01
 Coeff-En:   0.000D+00 0.100D+01
 Coeff:      0.000D+00 0.100D+01
 Gap=     0.205 Goal=   None    Shift=    0.000
 RMSDP=2.47D-03 MaxDP=1.09D-01 DE=-8.61D-02 OVMax= 1.10D-01

 Cycle   3  Pass 0  IDiag  1:
 RMSU=  1.13D-03    CP:  9.73D-01  2.54D+00
 E= -3630.79217540021     Delta-E=       -0.103261830735 Rises=F Damp=F
 DIIS: error= 8.60D-03 at cycle   3 NSaved=   3.
 NSaved= 3 IEnMin= 3 EnMin= -3630.79217540021     IErMin= 3 ErrMin= 8.60D-03
 ErrMax= 8.60D-03  0.00D+00 EMaxC= 1.00D-01 BMatC= 5.99D-02 BMatP= 2.48D-01
 IDIUse=3 WtCom= 9.14D-01 WtEn= 8.60D-02
 Coeff-Com:  0.105D+01-0.130D+01 0.125D+01
 Coeff-En:   0.149D+00 0.000D+00 0.851D+00
 Coeff:      0.976D+00-0.119D+01 0.121D+01
 Gap=     0.241 Goal=   None    Shift=    0.000
 RMSDP=1.35D-03 MaxDP=3.72D-02 DE=-1.03D-01 OVMax= 7.45D-02

 Cycle   4  Pass 0  IDiag  1:
 RMSU=  8.49D-04    CP:  9.74D-01  1.76D+00  1.12D+00
 E= -3630.82630659892     Delta-E=       -0.034131198712 Rises=F Damp=F
 DIIS: error= 9.33D-03 at cycle   4 NSaved=   4.
 NSaved= 4 IEnMin= 4 EnMin= -3630.82630659892     IErMin= 3 ErrMin= 8.60D-03
 ErrMax= 9.33D-03  0.00D+00 EMaxC= 1.00D-01 BMatC= 1.82D-02 BMatP= 5.99D-02
 IDIUse=3 WtCom= 9.07D-01 WtEn= 9.33D-02
 Coeff-Com:  0.753D+00-0.977D+00 0.824D+00 0.400D+00
 Coeff-En:   0.000D+00 0.000D+00 0.169D+00 0.831D+00
 Coeff:      0.682D+00-0.886D+00 0.763D+00 0.441D+00
 Gap=     0.197 Goal=   None    Shift=    0.000
 RMSDP=7.37D-04 MaxDP=2.63D-02 DE=-3.41D-02 OVMax= 4.91D-02

 Cycle   5  Pass 0  IDiag  1:
 RMSU=  2.91D-04    CP:  9.74D-01  1.77D+00  1.24D+00  2.19D-01
 E= -3630.84167087921     Delta-E=       -0.015364280291 Rises=F Damp=F
 DIIS: error= 3.63D-03 at cycle   5 NSaved=   5.
 NSaved= 5 IEnMin= 5 EnMin= -3630.84167087921     IErMin= 5 ErrMin= 3.63D-03
 ErrMax= 3.63D-03  0.00D+00 EMaxC= 1.00D-01 BMatC= 2.98D-03 BMatP= 1.82D-02
 IDIUse=3 WtCom= 9.64D-01 WtEn= 3.63D-02
 Coeff-Com:  0.275D+00-0.360D+00 0.314D+00 0.306D+00 0.465D+00
 Coeff-En:   0.000D+00 0.000D+00 0.000D+00 0.165D+00 0.835D+00
 Coeff:      0.265D+00-0.347D+00 0.303D+00 0.301D+00 0.478D+00
 Gap=     0.195 Goal=   None    Shift=    0.000
 RMSDP=2.41D-04 MaxDP=1.59D-02 DE=-1.54D-02 OVMax= 1.63D-02

 Cycle   6  Pass 0  IDiag  1:
 RMSU=  8.39D-05    CP:  9.74D-01  1.82D+00  1.21D+00  3.69D-01  4.19D-01
 E= -3630.84423655495     Delta-E=       -0.002565675738 Rises=F Damp=F
 DIIS: error= 4.35D-04 at cycle   6 NSaved=   6.
 NSaved= 6 IEnMin= 6 EnMin= -3630.84423655495     IErMin= 6 ErrMin= 4.35D-04
 ErrMax= 4.35D-04  0.00D+00 EMaxC= 1.00D-01 BMatC= 1.02D-04 BMatP= 2.98D-03
 IDIUse=3 WtCom= 9.96D-01 WtEn= 4.35D-03
 Coeff-Com:  0.791D-01-0.104D+00 0.902D-01 0.132D+00 0.257D+00 0.546D+00
 Coeff-En:   0.000D+00 0.000D+00 0.000D+00 0.000D+00 0.000D+00 0.100D+01
 Coeff:      0.787D-01-0.104D+00 0.898D-01 0.132D+00 0.256D+00 0.548D+00
 Gap=     0.194 Goal=   None    Shift=    0.000
 RMSDP=6.23D-05 MaxDP=2.52D-03 DE=-2.57D-03 OVMax= 4.32D-03

 Cycle   7  Pass 0  IDiag  1:
 RMSU=  3.03D-05    CP:  9.74D-01  1.81D+00  1.21D+00  3.93D-01  4.92D-01
                    CP:  4.84D-01
 E= -3630.84431954614     Delta-E=       -0.000082991189 Rises=F Damp=F
 DIIS: error= 2.14D-04 at cycle   7 NSaved=   7.
 NSaved= 7 IEnMin= 7 EnMin= -3630.84431954614     IErMin= 7 ErrMin= 2.14D-04
 ErrMax= 2.14D-04  0.00D+00 EMaxC= 1.00D-01 BMatC= 1.83D-05 BMatP= 1.02D-04
 IDIUse=3 WtCom= 9.98D-01 WtEn= 2.14D-03
 Coeff-Com:  0.164D-01-0.218D-01 0.183D-01 0.453D-01 0.962D-01 0.346D+00
 Coeff-Com:  0.499D+00
 Coeff-En:   0.000D+00 0.000D+00 0.000D+00 0.000D+00 0.000D+00 0.153D+00
 Coeff-En:   0.847D+00
 Coeff:      0.164D-01-0.218D-01 0.182D-01 0.452D-01 0.960D-01 0.346D+00
 Coeff:      0.500D+00
 Gap=     0.194 Goal=   None    Shift=    0.000
 RMSDP=2.03D-05 MaxDP=6.71D-04 DE=-8.30D-05 OVMax= 1.29D-03

 Cycle   8  Pass 0  IDiag  1:
 RMSU=  9.96D-06    CP:  9.74D-01  1.81D+00  1.21D+00  3.94D-01  4.88D-01
                    CP:  5.98D-01  5.23D-01
 E= -3630.84433777704     Delta-E=       -0.000018230903 Rises=F Damp=F
 DIIS: error= 4.34D-05 at cycle   8 NSaved=   8.
 NSaved= 8 IEnMin= 8 EnMin= -3630.84433777704     IErMin= 8 ErrMin= 4.34D-05
 ErrMax= 4.34D-05  0.00D+00 EMaxC= 1.00D-01 BMatC= 1.28D-06 BMatP= 1.83D-05
 IDIUse=1 WtCom= 1.00D+00 WtEn= 0.00D+00
 Coeff-Com:  0.276D-02-0.375D-02 0.278D-02 0.149D-01 0.325D-01 0.160D+00
 Coeff-Com:  0.291D+00 0.500D+00
 Coeff:      0.276D-02-0.375D-02 0.278D-02 0.149D-01 0.325D-01 0.160D+00
 Coeff:      0.291D+00 0.500D+00
 Gap=     0.194 Goal=   None    Shift=    0.000
 RMSDP=5.59D-06 MaxDP=1.77D-04 DE=-1.82D-05 OVMax= 3.21D-04

 Initial convergence to 1.0D-05 achieved.  Increase integral accuracy.
 Cycle   9  Pass 1  IDiag  1:
 E= -3630.84433589531     Delta-E=        0.000001881732 Rises=F Damp=F
 DIIS: error= 4.16D-05 at cycle   1 NSaved=   1.
 NSaved= 1 IEnMin= 1 EnMin= -3630.84433589531     IErMin= 1 ErrMin= 4.16D-05
 ErrMax= 4.16D-05  0.00D+00 EMaxC= 1.00D-01 BMatC= 2.30D-07 BMatP= 2.30D-07
 IDIUse=1 WtCom= 1.00D+00 WtEn= 0.00D+00
 Coeff-Com:  0.100D+01
 Coeff:      0.100D+01
 Gap=     0.194 Goal=   None    Shift=    0.000
 RMSDP=5.59D-06 MaxDP=1.77D-04 DE= 1.88D-06 OVMax= 2.13D-04

 Cycle  10  Pass 1  IDiag  1:
 RMSU=  1.33D-05    CP:  1.00D+00
 E= -3630.84433585275     Delta-E=        0.000000042557 Rises=F Damp=F
 DIIS: error= 2.32D-05 at cycle   2 NSaved=   2.
 NSaved= 2 IEnMin= 1 EnMin= -3630.84433589531     IErMin= 2 ErrMin= 2.32D-05
 ErrMax= 2.32D-05  0.00D+00 EMaxC= 1.00D-01 BMatC= 1.96D-07 BMatP= 2.30D-07
 IDIUse=1 WtCom= 1.00D+00 WtEn= 0.00D+00
 Coeff-Com:  0.473D+00 0.527D+00
 Coeff:      0.473D+00 0.527D+00
 Gap=     0.194 Goal=   None    Shift=    0.000
 RMSDP=3.20D-06 MaxDP=9.98D-05 DE= 4.26D-08 OVMax= 2.22D-04

 Cycle  11  Pass 1  IDiag  1:
 RMSU=  3.10D-06    CP:  1.00D+00  9.43D-01
 E= -3630.84433598497     Delta-E=       -0.000000132219 Rises=F Damp=F
 DIIS: error= 1.52D-05 at cycle   3 NSaved=   3.
 NSaved= 3 IEnMin= 3 EnMin= -3630.84433598497     IErMin= 3 ErrMin= 1.52D-05
 ErrMax= 1.52D-05  0.00D+00 EMaxC= 1.00D-01 BMatC= 7.47D-08 BMatP= 1.96D-07
 IDIUse=1 WtCom= 1.00D+00 WtEn= 0.00D+00
 Coeff-Com:  0.509D-01 0.375D+00 0.575D+00
 Coeff:      0.509D-01 0.375D+00 0.575D+00
 Gap=     0.194 Goal=   None    Shift=    0.000
 RMSDP=1.32D-06 MaxDP=4.24D-05 DE=-1.32D-07 OVMax= 9.31D-05

 Cycle  12  Pass 1  IDiag  1:
 RMSU=  5.69D-07    CP:  1.00D+00  9.71D-01  6.36D-01
 E= -3630.84433606024     Delta-E=       -0.000000075270 Rises=F Damp=F
 DIIS: error= 6.38D-06 at cycle   4 NSaved=   4.
 NSaved= 4 IEnMin= 4 EnMin= -3630.84433606024     IErMin= 4 ErrMin= 6.38D-06
 ErrMax= 6.38D-06  0.00D+00 EMaxC= 1.00D-01 BMatC= 6.15D-09 BMatP= 7.47D-08
 IDIUse=1 WtCom= 1.00D+00 WtEn= 0.00D+00
 Coeff-Com:  0.141D-02 0.200D+00 0.353D+00 0.445D+00
 Coeff:      0.141D-02 0.200D+00 0.353D+00 0.445D+00
 Gap=     0.194 Goal=   None    Shift=    0.000
 RMSDP=3.22D-07 MaxDP=1.61D-05 DE=-7.53D-08 OVMax= 2.17D-05

 Cycle  13  Pass 1  IDiag  1:
 RMSU=  1.63D-07    CP:  1.00D+00  9.71D-01  6.54D-01  5.23D-01
 E= -3630.84433606540     Delta-E=       -0.000000005159 Rises=F Damp=F
 DIIS: error= 1.58D-06 at cycle   5 NSaved=   5.
 NSaved= 5 IEnMin= 5 EnMin= -3630.84433606540     IErMin= 5 ErrMin= 1.58D-06
 ErrMax= 1.58D-06  0.00D+00 EMaxC= 1.00D-01 BMatC= 5.50D-10 BMatP= 6.15D-09
 IDIUse=1 WtCom= 1.00D+00 WtEn= 0.00D+00
 Coeff-Com: -0.150D-02 0.118D+00 0.212D+00 0.303D+00 0.369D+00
 Coeff:     -0.150D-02 0.118D+00 0.212D+00 0.303D+00 0.369D+00
 Gap=     0.194 Goal=   None    Shift=    0.000
 RMSDP=1.09D-07 MaxDP=7.03D-06 DE=-5.16D-09 OVMax= 7.38D-06

 Cycle  14  Pass 1  IDiag  1:
 RMSU=  5.19D-08    CP:  1.00D+00  9.72D-01  6.52D-01  5.14D-01  4.17D-01
 E= -3630.84433606585     Delta-E=       -0.000000000446 Rises=F Damp=F
 DIIS: error= 2.95D-07 at cycle   6 NSaved=   6.
 NSaved= 6 IEnMin= 6 EnMin= -3630.84433606585     IErMin= 6 ErrMin= 2.95D-07
 ErrMax= 2.95D-07  0.00D+00 EMaxC= 1.00D-01 BMatC= 2.68D-11 BMatP= 5.50D-10
 IDIUse=1 WtCom= 1.00D+00 WtEn= 0.00D+00
 Coeff-Com: -0.105D-02 0.584D-01 0.105D+00 0.155D+00 0.234D+00 0.448D+00
 Coeff:     -0.105D-02 0.584D-01 0.105D+00 0.155D+00 0.234D+00 0.448D+00
 Gap=     0.194 Goal=   None    Shift=    0.000
 RMSDP=2.52D-08 MaxDP=1.04D-06 DE=-4.46D-10 OVMax= 1.80D-06

 Cycle  15  Pass 1  IDiag  1:
 RMSU=  1.60D-08    CP:  1.00D+00  9.72D-01  6.50D-01  5.13D-01  4.46D-01
                    CP:  6.49D-01
 E= -3630.84433606589     Delta-E=       -0.000000000049 Rises=F Damp=F
 DIIS: error= 3.82D-08 at cycle   7 NSaved=   7.
 NSaved= 7 IEnMin= 7 EnMin= -3630.84433606589     IErMin= 7 ErrMin= 3.82D-08
 ErrMax= 3.82D-08  0.00D+00 EMaxC= 1.00D-01 BMatC= 8.00D-13 BMatP= 2.68D-11
 IDIUse=1 WtCom= 1.00D+00 WtEn= 0.00D+00
 Coeff-Com: -0.274D-03 0.113D-01 0.202D-01 0.306D-01 0.539D-01 0.191D+00
 Coeff-Com:  0.694D+00
 Coeff:     -0.274D-03 0.113D-01 0.202D-01 0.306D-01 0.539D-01 0.191D+00
 Coeff:      0.694D+00
 Gap=     0.194 Goal=   None    Shift=    0.000
 RMSDP=5.10D-09 MaxDP=1.88D-07 DE=-4.91D-11 OVMax= 3.28D-07

 SCF Done:  E(RB3LYP) =  -3630.84433607     A.U. after   15 cycles
            NFock= 15  Conv=0.51D-08     -V/T= 2.0061
 KE= 3.608853938345D+03 PE=-1.115696720491D+04 EE= 2.653779549613D+03
 Leave Link  502 at Tue Sep 17 09:42:46 2024, MaxMem=  1342177280 cpu:              91.6 elap:              12.2
 (Enter /groups/ReismanLab/Software/Gaussian16_RevC/Linux_Binary_AVX2-enabled-CPU/g16/l508.exe)
 QCSCF skips out because SCF is already converged.
 Leave Link  508 at Tue Sep 17 09:42:47 2024, MaxMem=  1342177280 cpu:               0.0 elap:               0.0
 (Enter /groups/ReismanLab/Software/Gaussian16_RevC/Linux_Binary_AVX2-enabled-CPU/g16/l601.exe)
 Copying SCF densities to generalized density rwf, IOpCl= 0 IROHF=0.

 **********************************************************************

            Population analysis using the SCF Density.

 **********************************************************************

 Orbital symmetries:
       Occupied  (A) (A) (A) (A) (A) (A) (A) (A) (A) (A) (A) (A)
                 (A) (A) (A) (A) (A) (A) (A) (A) (A) (A) (A) (A)
                 (A) (A) (A) (A) (A) (A) (A) (A) (A) (A) (A) (A)
                 (A) (A) (A) (A) (A) (A) (A) (A) (A) (A) (A) (A)
                 (A) (A) (A) (A) (A) (A) (A) (A) (A) (A) (A) (A)
                 (A) (A) (A) (A) (A) (A) (A) (A)
       Virtual   (A) (A) (A) (A) (A) (A) (A) (A) (A) (A) (A) (A)
                 (A) (A) (A) (A) (A) (A) (A) (A) (A) (A) (A) (A)
                 (A) (A) (A) (A) (A) (A) (A) (A) (A) (A) (A) (A)
                 (A) (A) (A) (A) (A) (A) (A) (A) (A) (A) (A) (A)
                 (A) (A) (A) (A) (A) (A) (A) (A) (A) (A) (A) (A)
                 (A) (A) (A) (A) (A) (A) (A) (A) (A) (A) (A) (A)
                 (A) (A) (A) (A) (A) (A) (A) (A) (A) (A) (A) (A)
                 (A) (A) (A) (A) (A) (A) (A) (A) (A) (A) (A) (A)
                 (A) (A) (A) (A) (A) (A) (A) (A) (A) (A) (A) (A)
                 (A) (A) (A) (A) (A) (A) (A) (A) (A) (A) (A) (A)
                 (A) (A) (A) (A) (A) (A) (A) (A) (A) (A) (A) (A)
                 (A) (A) (A) (A) (A) (A) (A) (A) (A) (A) (A) (A)
                 (A) (A) (A) (A) (A) (A) (A) (A) (A) (A) (A) (A)
                 (A) (A) (A) (A) (A) (A) (A) (A) (A) (A) (A) (A)
                 (A) (A) (A) (A) (A) (A) (A) (A)
 The electronic state is 1-A.
 Alpha  occ. eigenvalues -- -482.93682 -88.92486 -61.89849 -56.41995 -56.41567
 Alpha  occ. eigenvalues --  -56.41559 -24.75714 -24.75366 -24.75230 -14.34837
 Alpha  occ. eigenvalues --  -10.47532 -10.28252 -10.26879 -10.26384 -10.24310
 Alpha  occ. eigenvalues --  -10.24263 -10.24132 -10.23953  -8.60995  -7.98767
 Alpha  occ. eigenvalues --   -6.56420  -6.55106  -6.55069  -5.95295  -5.94902
 Alpha  occ. eigenvalues --   -5.94182  -2.67988  -2.67614  -2.67587  -2.66537
 Alpha  occ. eigenvalues --   -2.66537  -1.34275  -1.25207  -1.24702  -0.93587
 Alpha  occ. eigenvalues --   -0.91719  -0.85401  -0.83669  -0.78537  -0.76081
 Alpha  occ. eigenvalues --   -0.70237  -0.68649  -0.64035  -0.61654  -0.61395
 Alpha  occ. eigenvalues --   -0.57977  -0.55328  -0.53229  -0.52174  -0.48877
 Alpha  occ. eigenvalues --   -0.48674  -0.46302  -0.45872  -0.44909  -0.44363
 Alpha  occ. eigenvalues --   -0.43694  -0.42570  -0.41320  -0.39414  -0.38417
 Alpha  occ. eigenvalues --   -0.37558  -0.37070  -0.35073  -0.34188  -0.31185
 Alpha  occ. eigenvalues --   -0.30700  -0.27790  -0.26846
 Alpha virt. eigenvalues --   -0.07436  -0.06007  -0.02513  -0.00534   0.02806
 Alpha virt. eigenvalues --    0.04783   0.06109   0.09981   0.13113   0.14015
 Alpha virt. eigenvalues --    0.14333   0.14582   0.15395   0.18365   0.19722
 Alpha virt. eigenvalues --    0.21880   0.24518   0.25909   0.28331   0.30357
 Alpha virt. eigenvalues --    0.31597   0.33128   0.33440   0.33848   0.37583
 Alpha virt. eigenvalues --    0.41390   0.43169   0.43836   0.44005   0.45109
 Alpha virt. eigenvalues --    0.45801   0.46224   0.46929   0.48524   0.49641
 Alpha virt. eigenvalues --    0.50160   0.50576   0.51314   0.53425   0.54129
 Alpha virt. eigenvalues --    0.57257   0.57795   0.60462   0.61156   0.61876
 Alpha virt. eigenvalues --    0.65685   0.68778   0.69795   0.70907   0.71369
 Alpha virt. eigenvalues --    0.73379   0.74376   0.75223   0.77002   0.78007
 Alpha virt. eigenvalues --    0.80827   0.82187   0.83515   0.85306   0.86089
 Alpha virt. eigenvalues --    0.86835   0.87386   0.88648   0.91588   0.93791
 Alpha virt. eigenvalues --    0.97255   0.98831   1.01796   1.06628   1.06797
 Alpha virt. eigenvalues --    1.09823   1.10776   1.12767   1.14044   1.15599
 Alpha virt. eigenvalues --    1.17394   1.20627   1.23678   1.24195   1.25830
 Alpha virt. eigenvalues --    1.30155   1.31096   1.32096   1.33981   1.34684
 Alpha virt. eigenvalues --    1.35276   1.35797   1.36880   1.38676   1.38963
 Alpha virt. eigenvalues --    1.42740   1.43313   1.46008   1.50410   1.52549
 Alpha virt. eigenvalues --    1.53023   1.55841   1.58207   1.63229   1.66143
 Alpha virt. eigenvalues --    1.71660   1.74739   1.76696   1.77359   1.78558
 Alpha virt. eigenvalues --    1.80497   1.82123   1.83081   1.84018   1.86604
 Alpha virt. eigenvalues --    1.89892   1.90729   1.92541   1.94295   1.94739
 Alpha virt. eigenvalues --    1.96543   1.99349   2.00197   2.00599   2.01627
 Alpha virt. eigenvalues --    2.04210   2.05415   2.06353   2.07825   2.08787
 Alpha virt. eigenvalues --    2.11370   2.13869   2.21692   2.24739   2.25700
 Alpha virt. eigenvalues --    2.26659   2.29110   2.33880   2.37565   2.47024
 Alpha virt. eigenvalues --    2.47419   2.48707   2.54729   2.56518   2.58435
 Alpha virt. eigenvalues --    2.60546   2.61093   2.63306   2.64392   2.66973
 Alpha virt. eigenvalues --    2.69804   2.72869   2.79661   2.81656   2.83612
 Alpha virt. eigenvalues --    2.91235   2.97989   2.99399   3.02055   3.05367
 Alpha virt. eigenvalues --    3.16446   3.25787   3.27641   3.37632   3.38903
 Alpha virt. eigenvalues --    3.68004   3.91809   4.04102   4.07605   4.10272
 Alpha virt. eigenvalues --    4.17284   4.28051   4.29978   4.32906   4.38403
 Alpha virt. eigenvalues --    4.50713   4.61947   4.83146   5.11919   8.58236
 Alpha virt. eigenvalues --   72.80745
          Condensed to atoms (all electrons):
               1          2          3          4          5          6
     1  N    6.658009   0.897173  -0.100726  -0.000265  -0.000121  -0.000000
     2  C    0.897173   4.732984   0.212656  -0.036745   0.004497  -0.000213
     3  C   -0.100726   0.212656   4.904965   0.494586  -0.011388   0.005296
     4  C   -0.000265  -0.036745   0.494586   4.934320   0.491474  -0.057267
     5  C   -0.000121   0.004497  -0.011388   0.491474   4.837846   0.267840
     6  Br  -0.000000  -0.000213   0.005296  -0.057267   0.267840  34.932269
     7  C    0.000019   0.001791  -0.033374  -0.046395   0.492386  -0.059648
     8  C   -0.000120   0.005483  -0.016271  -0.048284  -0.015289   0.005899
     9  S   -0.000000  -0.000249   0.004196   0.000638   0.005208  -0.000268
    10  C   -0.000000  -0.000011   0.000156   0.000025  -0.000098   0.000000
    11  F   -0.000000  -0.000000   0.000000   0.000000   0.000000  -0.000000
    12  F   -0.000000  -0.000007  -0.000326   0.000002   0.000007  -0.000000
    13  F    0.000000  -0.000013   0.000314   0.000001   0.000000  -0.000000
    14  C   -0.000324  -0.036307   0.496989  -0.044401  -0.044194   0.000531
    15  H    0.000648  -0.007374  -0.038795   0.375811  -0.040280  -0.002909
    16  H   -0.000000   0.000002  -0.000021   0.005601  -0.039313  -0.003010
    17  H    0.000661  -0.008143  -0.030677   0.005382   0.000236   0.000008
               7          8          9         10         11         12
     1  N    0.000019  -0.000120  -0.000000  -0.000000  -0.000000  -0.000000
     2  C    0.001791   0.005483  -0.000249  -0.000011  -0.000000  -0.000007
     3  C   -0.033374  -0.016271   0.004196   0.000156   0.000000  -0.000326
     4  C   -0.046395  -0.048284   0.000638   0.000025   0.000000   0.000002
     5  C    0.492386  -0.015289   0.005208  -0.000098   0.000000   0.000007
     6  Br  -0.059648   0.005899  -0.000268   0.000000  -0.000000  -0.000000
     7  C    4.943395   0.488253  -0.055818  -0.000352  -0.000003  -0.000942
     8  C    0.488253   5.114969   0.256844  -0.000297   0.000481   0.000609
     9  S   -0.055818   0.256844  15.518227   0.283117  -0.027757  -0.038582
    10  C   -0.000352  -0.000297   0.283117   4.337999   0.272074   0.248028
    11  F   -0.000003   0.000481  -0.027757   0.272074   9.058386  -0.035472
    12  F   -0.000942   0.000609  -0.038582   0.248028  -0.035472   9.097583
    13  F   -0.000015  -0.006204  -0.034017   0.239891  -0.037678  -0.038871
    14  C   -0.043025   0.454241  -0.059394  -0.003823   0.000090   0.002792
    15  H    0.005400  -0.000002   0.000017   0.000000   0.000000   0.000000
    16  H    0.378227  -0.044522  -0.002129  -0.000015  -0.000001  -0.000021
    17  H    0.004036  -0.049791  -0.004812  -0.000157   0.000054  -0.000141
              13         14         15         16         17
     1  N    0.000000  -0.000324   0.000648  -0.000000   0.000661
     2  C   -0.000013  -0.036307  -0.007374   0.000002  -0.008143
     3  C    0.000314   0.496989  -0.038795  -0.000021  -0.030677
     4  C    0.000001  -0.044401   0.375811   0.005601   0.005382
     5  C    0.000000  -0.044194  -0.040280  -0.039313   0.000236
     6  Br  -0.000000   0.000531  -0.002909  -0.003010   0.000008
     7  C   -0.000015  -0.043025   0.005400   0.378227   0.004036
     8  C   -0.006204   0.454241  -0.000002  -0.044522  -0.049791
     9  S   -0.034017  -0.059394   0.000017  -0.002129  -0.004812
    10  C    0.239891  -0.003823   0.000000  -0.000015  -0.000157
    11  F   -0.037678   0.000090   0.000000  -0.000001   0.000054
    12  F   -0.038871   0.002792   0.000000  -0.000021  -0.000141
    13  F    9.093424   0.000208   0.000000   0.000000   0.013859
    14  C    0.000208   4.953266   0.005388   0.005381   0.371473
    15  H    0.000000   0.005388   0.562651  -0.000128  -0.000126
    16  H    0.000000   0.005381  -0.000128   0.562891  -0.000123
    17  H    0.013859   0.371473  -0.000126  -0.000123   0.558951
 Mulliken charges:
               1
     1  N   -0.454953
     2  C    0.234477
     3  C    0.112421
     4  C   -0.074484
     5  C    0.051189
     6  Br  -0.088527
     7  C   -0.073935
     8  C   -0.145998
     9  S    0.154781
    10  C    0.623463
    11  F   -0.230174
    12  F   -0.234659
    13  F   -0.230899
    14  C   -0.058889
    15  H    0.139699
    16  H    0.137181
    17  H    0.139309
 Sum of Mulliken charges =  -0.00000
 Mulliken charges with hydrogens summed into heavy atoms:
               1
     1  N   -0.454953
     2  C    0.234477
     3  C    0.112421
     4  C    0.065215
     5  C    0.051189
     6  Br  -0.088527
     7  C    0.063246
     8  C   -0.145998
     9  S    0.154781
    10  C    0.623463
    11  F   -0.230174
    12  F   -0.234659
    13  F   -0.230899
    14  C    0.080420
 Electronic spatial extent (au):  <R**2>=           4926.4083
 Charge=             -0.0000 electrons
 Dipole moment (field-independent basis, Debye):
    X=              0.6121    Y=             -2.9588    Z=             -0.4975  Tot=              3.0621
 Quadrupole moment (field-independent basis, Debye-Ang):
   XX=            -94.3103   YY=           -113.4578   ZZ=            -96.6094
   XY=             -0.5970   XZ=              0.7719   YZ=              0.0215
 Traceless Quadrupole moment (field-independent basis, Debye-Ang):
   XX=              7.1489   YY=            -11.9986   ZZ=              4.8498
   XY=             -0.5970   XZ=              0.7719   YZ=              0.0215
 Octapole moment (field-independent basis, Debye-Ang**2):
  XXX=             43.9111  YYY=           -158.6574  ZZZ=             21.2783  XYY=             10.4413
  XXY=             -9.8188  XXZ=              8.9075  XZZ=              9.6934  YZZ=            -14.4054
  YYZ=              2.6901  XYZ=              0.7076
 Hexadecapole moment (field-independent basis, Debye-Ang**3):
 XXXX=          -3314.4947 YYYY=          -2249.6249 ZZZZ=           -258.1572 XXXY=            -88.9962
 XXXZ=             -6.0358 YYYX=           -111.0759 YYYZ=            -23.8327 ZZZX=            -25.0356
 ZZZY=            -13.3394 XXYY=           -812.9817 XXZZ=           -611.4997 YYZZ=           -317.4839
 XXYZ=             -3.2751 YYXZ=             -2.0539 ZZXY=            -25.3292
 N-N= 1.263489380885D+03 E-N=-1.115696719980D+04  KE= 3.608853938345D+03
 No NMR shielding tensors so no spin-rotation constants.
 Leave Link  601 at Tue Sep 17 09:42:47 2024, MaxMem=  1342177280 cpu:               0.5 elap:               0.1
 (Enter /groups/ReismanLab/Software/Gaussian16_RevC/Linux_Binary_AVX2-enabled-CPU/g16/l701.exe)
 ... and contract with generalized density number  0.
 Compute integral first derivatives.
 R6Disp: Adding Grimme-D3(BJ) dispersion energy 1st derivatives to the gradient.
 Leave Link  701 at Tue Sep 17 09:42:47 2024, MaxMem=  1342177280 cpu:               0.5 elap:               0.1
 (Enter /groups/ReismanLab/Software/Gaussian16_RevC/Linux_Binary_AVX2-enabled-CPU/g16/l702.exe)
 L702 exits ... SP integral derivatives will be done elsewhere.
 Leave Link  702 at Tue Sep 17 09:42:47 2024, MaxMem=  1342177280 cpu:               0.0 elap:               0.0
 (Enter /groups/ReismanLab/Software/Gaussian16_RevC/Linux_Binary_AVX2-enabled-CPU/g16/l703.exe)
 Integral derivatives from FoFJK, PRISM(SPDF).
 Compute integral first derivatives, UseDBF=F ICtDFT=           0.
 Calling FoFJK, ICntrl=      2127 FMM=F ISym2X=0 I1Cent= 0 IOpClX= 0 NMat=1 NMatS=1 NMatT=0.
 FoFJK:  IHMeth= 1 ICntrl=    2127 DoSepK=F KAlg= 0 I1Cent=           0 FoldK=F
 IRaf=         0 NMat=       1 IRICut=       1 DoRegI=T DoRafI=F ISym2E= 0 IDoP0=0 IntGTp=1.
 FoFCou: FMM=F IPFlag=           0 FMFlag=      100000 FMFlg1=         800
         NFxFlg=           0 DoJE=F BraDBF=F KetDBF=F FulRan=T
         wScrn=  0.000000 ICntrl=      2127 IOpCl=  0 I1Cent=           0 NGrid=           0
         NMat0=    1 NMatS0=      1 NMatT0=    0 NMatD0=    1 NMtDS0=    0 NMtDT0=    0
 Symmetry not used in FoFCou.
 Leave Link  703 at Tue Sep 17 09:42:51 2024, MaxMem=  1342177280 cpu:              31.0 elap:               4.0
 (Enter /groups/ReismanLab/Software/Gaussian16_RevC/Linux_Binary_AVX2-enabled-CPU/g16/l716.exe)
 Dipole        = 2.40824105D-01-1.16408117D+00-1.95740767D-01
 ***** Axes restored to original set *****
 -------------------------------------------------------------------
 Center     Atomic                   Forces (Hartrees/Bohr)
 Number     Number              X              Y              Z
 -------------------------------------------------------------------
      1        7          -0.000205819   -0.044845112   -0.005659912
      2        6          -0.000224472    0.031676114    0.004107200
      3        6           0.001940451    0.003394648   -0.000005513
      4        6          -0.005760366   -0.000716154    0.002499670
      5        6          -0.004748467    0.001700404    0.001234549
      6       35          -0.001810725    0.000792054    0.000914193
      7        6          -0.001583618    0.004230847    0.000826738
      8        6           0.008761802    0.005281415   -0.003586820
      9       16           0.003577882    0.002475472   -0.001227162
     10        6          -0.006721024    0.000835342    0.002871110
     11        9           0.008378362    0.010915034   -0.002299248
     12        9          -0.003770441   -0.002827866    0.009058983
     13        9           0.001911757   -0.009554578   -0.008547481
     14        6           0.000433517   -0.005358941   -0.002156130
     15        1          -0.002024352   -0.001020733    0.000724751
     16        1          -0.000472276    0.003098993    0.001771539
     17        1           0.002317791   -0.000076941   -0.000526468
 -------------------------------------------------------------------
 Cartesian Forces:  Max     0.044845112 RMS     0.008731626
 Leave Link  716 at Tue Sep 17 09:42:51 2024, MaxMem=  1342177280 cpu:               0.1 elap:               0.0
 (Enter /groups/ReismanLab/Software/Gaussian16_RevC/Linux_Binary_AVX2-enabled-CPU/g16/l103.exe)

 GradGradGradGradGradGradGradGradGradGradGradGradGradGradGradGradGradGrad
 Berny optimization.
 FormGI is forming the generalized inverse of G from B-inverse, IUseBI=4.
 Internal  Forces:  Max     0.045200919 RMS     0.006794964
 Search for a local minimum.
 Step number   1 out of a maximum of   83
 All quantities printed in internal units (Hartrees-Bohrs-Radians)
 RMS Force = .67950D-02 SwitMx=.10000D-02 MixMth= 1
 Mixed Optimization -- RFO/linear search
 Second derivative matrix not updated -- first step.
 ITU=  0
     Eigenvalues ---    0.00230   0.00542   0.01854   0.01854   0.01961
     Eigenvalues ---    0.02167   0.02191   0.02223   0.02238   0.02259
     Eigenvalues ---    0.02268   0.02273   0.02288   0.14691   0.15142
     Eigenvalues ---    0.16000   0.16000   0.16000   0.18345   0.23490
     Eigenvalues ---    0.23497   0.23502   0.23637   0.24989   0.24998
     Eigenvalues ---    0.24999   0.25000   0.25000   0.25000   0.25000
     Eigenvalues ---    0.27167   0.36089   0.36141   0.36188   0.42801
     Eigenvalues ---    0.42908   0.43517   0.46949   0.47284   0.47976
     Eigenvalues ---    0.48312   0.58454   0.58926   0.60893   1.38462
 RFO step:  Lambda=-5.24478903D-03 EMin= 2.30000000D-03
 Linear search not attempted -- first point.
 Iteration  1 RMS(Cart)=  0.09983073 RMS(Int)=  0.00682797
 Iteration  2 RMS(Cart)=  0.00926116 RMS(Int)=  0.00008914
 Iteration  3 RMS(Cart)=  0.00008723 RMS(Int)=  0.00007026
 Iteration  4 RMS(Cart)=  0.00000001 RMS(Int)=  0.00007026
 ITry= 1 IFail=0 DXMaxC= 4.97D-01 DCOld= 1.00D+10 DXMaxT= 3.00D-01 DXLimC= 3.00D+00 Rises=F
 Variable       Old X    -DE/DX   Delta X   Delta X   Delta X     New X
                                 (Linear)    (Quad)   (Total)
    R1        2.16289   0.04520   0.00000   0.03252   0.03252   2.19541
    R2        2.67916   0.01326   0.00000   0.03061   0.03061   2.70977
    R3        2.63346   0.00942   0.00000   0.01975   0.01973   2.65320
    R4        2.63542   0.00806   0.00000   0.01718   0.01718   2.65260
    R5        2.61540   0.00631   0.00000   0.01266   0.01265   2.62805
    R6        2.03943   0.00236   0.00000   0.00645   0.00645   2.04588
    R7        3.58686   0.00216   0.00000   0.01147   0.01147   3.59833
    R8        2.61906   0.00805   0.00000   0.01654   0.01654   2.63560
    R9        2.62304   0.01047   0.00000   0.02194   0.02196   2.64499
   R10        2.03789   0.00329   0.00000   0.00897   0.00897   2.04686
   R11        3.37697   0.00371   0.00000   0.01338   0.01338   3.39036
   R12        2.61684   0.01062   0.00000   0.02203   0.02204   2.63889
   R13        3.46505   0.00065   0.00000   0.00269   0.00269   3.46774
   R14        2.50240   0.01287   0.00000   0.02096   0.02096   2.52336
   R15        2.51800   0.01014   0.00000   0.01706   0.01706   2.53506
   R16        2.52185   0.01275   0.00000   0.02161   0.02161   2.54347
   R17        2.03862   0.00206   0.00000   0.00561   0.00561   2.04424
    A1        2.08584   0.00006   0.00000   0.00049   0.00049   2.08634
    A2        2.08495   0.00072   0.00000   0.00308   0.00308   2.08803
    A3        2.11234  -0.00078   0.00000  -0.00361  -0.00362   2.10872
    A4        2.07253   0.00024   0.00000  -0.00016  -0.00018   2.07235
    A5        2.10024   0.00018   0.00000   0.00189   0.00190   2.10215
    A6        2.11041  -0.00042   0.00000  -0.00173  -0.00172   2.10869
    A7        2.08608  -0.00082   0.00000  -0.00287  -0.00288   2.08320
    A8        2.11648   0.00081   0.00000   0.00240   0.00238   2.11886
    A9        2.08060   0.00001   0.00000   0.00041   0.00040   2.08100
   A10        2.07772   0.00085   0.00000   0.00390   0.00391   2.08163
   A11        2.10873  -0.00144   0.00000  -0.00811  -0.00812   2.10061
   A12        2.09673   0.00059   0.00000   0.00421   0.00419   2.10092
   A13        2.04647   0.00088   0.00000   0.00301   0.00295   2.04942
   A14        2.11510  -0.00285   0.00000  -0.01067  -0.01069   2.10441
   A15        2.12122   0.00195   0.00000   0.00721   0.00715   2.12837
   A16        1.72662   0.00615   0.00000   0.02410   0.02410   1.75072
   A17        1.91116  -0.00854   0.00000  -0.03564  -0.03583   1.87533
   A18        1.94758   0.00095   0.00000   0.00658   0.00655   1.95413
   A19        1.96574  -0.00268   0.00000  -0.01117  -0.01135   1.95439
   A20        1.88961   0.00478   0.00000   0.02015   0.02013   1.90974
   A21        1.87934   0.00330   0.00000   0.00751   0.00717   1.88651
   A22        1.86751   0.00284   0.00000   0.01500   0.01496   1.88248
   A23        2.07187   0.00172   0.00000   0.00802   0.00803   2.07991
   A24        2.08611   0.00025   0.00000   0.00273   0.00271   2.08883
   A25        2.12520  -0.00197   0.00000  -0.01074  -0.01075   2.11444
   A26        3.14441  -0.00035   0.00000  -0.01487  -0.01487   3.12955
   A27        3.14044   0.00004   0.00000   0.00164   0.00164   3.14208
    D1       -3.13420  -0.00003   0.00000  -0.00102  -0.00103  -3.13523
    D2        0.00440   0.00004   0.00000   0.00136   0.00136   0.00576
    D3       -0.00401  -0.00014   0.00000  -0.00525  -0.00525  -0.00926
    D4        3.13458  -0.00007   0.00000  -0.00287  -0.00286   3.13172
    D5       -3.12997   0.00007   0.00000   0.00256   0.00257  -3.12741
    D6        0.01296  -0.00008   0.00000  -0.00281  -0.00283   0.01012
    D7        0.02302   0.00019   0.00000   0.00681   0.00681   0.02983
    D8       -3.11724   0.00004   0.00000   0.00143   0.00141  -3.11583
    D9        3.13577   0.00019   0.00000   0.00669   0.00671  -3.14071
   D10       -0.01397  -0.00007   0.00000  -0.00240  -0.00238  -0.01635
   D11       -0.00281   0.00012   0.00000   0.00430   0.00430   0.00149
   D12        3.13064  -0.00013   0.00000  -0.00479  -0.00478   3.12586
   D13        0.01238   0.00024   0.00000   0.00839   0.00842   0.02080
   D14       -3.12966   0.00044   0.00000   0.01556   0.01555  -3.11411
   D15       -3.13734  -0.00002   0.00000  -0.00069  -0.00066  -3.13800
   D16        0.00381   0.00018   0.00000   0.00648   0.00647   0.01028
   D17        3.11942  -0.00063   0.00000  -0.02413  -0.02410   3.09532
   D18        0.00742  -0.00023   0.00000  -0.00695  -0.00696   0.00046
   D19       -0.02173  -0.00083   0.00000  -0.03124  -0.03123  -0.05296
   D20       -3.13373  -0.00043   0.00000  -0.01406  -0.01409   3.13537
   D21        2.30006  -0.00060   0.00000  -0.07032  -0.07025   2.22982
   D22       -0.87123  -0.00109   0.00000  -0.08789  -0.08796  -0.95919
   D23       -0.02474   0.00002   0.00000  -0.00056  -0.00056  -0.02530
   D24        3.11548   0.00017   0.00000   0.00495   0.00493   3.12042
   D25       -3.13547   0.00046   0.00000   0.01746   0.01746  -3.11801
   D26        0.00476   0.00061   0.00000   0.02297   0.02295   0.02771
   D27       -2.80025  -0.00255   0.00000  -0.15543  -0.15516  -2.95541
   D28       -0.70847  -0.00161   0.00000  -0.14958  -0.14959  -0.85806
   D29        1.39241   0.00085   0.00000  -0.13335  -0.13361   1.25880
         Item               Value     Threshold  Converged?
 Maximum Force            0.045201     0.000450     NO 
 RMS     Force            0.006795     0.000300     NO 
 Maximum Displacement     0.496926     0.001800     NO 
 RMS     Displacement     0.104595     0.001200     NO 
 Predicted change in Energy=-2.855351D-03
 Lowest energy point so far.  Saving SCF results.
 GradGradGradGradGradGradGradGradGradGradGradGradGradGradGradGradGradGrad

 Leave Link  103 at Tue Sep 17 09:42:51 2024, MaxMem=  1342177280 cpu:               0.1 elap:               0.2
 (Enter /groups/ReismanLab/Software/Gaussian16_RevC/Linux_Binary_AVX2-enabled-CPU/g16/l202.exe)
                          Input orientation:                          
 ---------------------------------------------------------------------
 Center     Atomic      Atomic             Coordinates (Angstroms)
 Number     Number       Type             X           Y           Z
 ---------------------------------------------------------------------
      1          7           0       -0.642156   -4.427858   -0.813176
      2          6           0       -0.628969   -3.277695   -0.649970
      3          6           0       -0.595491   -1.858122   -0.450229
      4          6           0       -1.704099   -1.213152    0.120951
      5          6           0       -1.656757    0.165164    0.300018
      6         35           0       -3.149868    1.057793    1.074375
      7          6           0       -0.530319    0.906063   -0.056906
      8          6           0        0.565949    0.251348   -0.630163
      9         16           0        1.959176    1.261639   -1.137137
     10          6           0        3.327672    0.385404   -0.284594
     11          9           0        4.414183    1.156423   -0.374395
     12          9           0        3.048857    0.156312    1.007455
     13          9           0        3.605852   -0.797711   -0.862882
     14          6           0        0.536684   -1.128178   -0.844847
     15          1           0       -2.577812   -1.780960    0.414742
     16          1           0       -0.501894    1.975355    0.113456
     17          1           0        1.370863   -1.640686   -1.304950
 ---------------------------------------------------------------------
                    Distance matrix (angstroms):
                    1          2          3          4          5
     1  N    0.000000
     2  C    1.161759   0.000000
     3  C    2.595660   1.433948   0.000000
     4  C    3.512073   2.452053   1.404010   0.000000
     5  C    4.833680   3.716464   2.404754   1.390705   0.000000
     6  Br   6.320114   5.303278   4.165551   2.855951   1.904152
     7  C    5.388429   4.226735   2.792788   2.429087   1.394700
     8  C    4.836113   3.725905   2.414784   2.803935   2.411034
     9  S    6.264364   5.247989   4.090364   4.596408   4.042604
    10  C    6.261503   5.404332   4.522394   5.295146   5.023426
    11  F    7.546077   6.720917   5.847227   6.579789   6.188193
    12  F    6.160592   5.297723   4.411809   5.025129   4.758503
    13  F    5.588023   4.912164   4.352704   5.416281   5.474899
    14  C    3.504077   2.452987   1.403695   2.441535   2.791887
    15  H    3.501516   2.678025   2.164192   1.082633   2.156131
    16  H    6.471434   5.309755   3.875828   3.407628   2.155297
    17  H    3.473099   2.666107   2.155081   3.416339   3.873435
                    6          7          8          9         10
     6  Br   0.000000
     7  C    2.857421   0.000000
     8  C    4.166905   1.399671   0.000000
     9  S    5.570877   2.736955   1.794100   0.000000
    10  C    6.652625   3.899618   2.786485   1.835047   0.000000
    11  F    7.702177   4.961006   3.961500   2.572918   1.335305
    12  F    6.264291   3.808608   2.975845   2.647343   1.341495
    13  F    7.268811   4.545367   3.224236   2.650978   1.345944
    14  C    4.696014   2.428473   1.396438   2.796452   3.224039
    15  H    2.969997   3.410978   3.886559   5.678909   6.329056
    16  H    2.962609   1.083151   2.159966   2.851357   4.165568
    17  H    5.777541   3.414387   2.164028   2.966103   2.995875
                   11         12         13         14         15
    11  F    0.000000
    12  F    2.184912   0.000000
    13  F    2.170406   2.172225   0.000000
    14  C    4.525011   3.375197   3.086961   0.000000
    15  H    7.624890   5.980280   6.390368   3.422393   0.000000
    16  H    5.007640   4.088519   5.051407   3.410118   4.302338
    17  H    4.236926   3.375216   2.429240   1.081764   4.309183
                   16         17
    16  H    0.000000
    17  H    4.312174   0.000000
 Stoichiometry    C8H3BrF3NS
 Framework group  C1[X(C8H3BrF3NS)]
 Deg. of freedom    45
 Full point group                 C1      NOp   1
 RotChk:  IX=0 Diff= 4.52D-02
 Largest Abelian subgroup         C1      NOp   1
 Largest concise Abelian subgroup C1      NOp   1
                         Standard orientation:                         
 ---------------------------------------------------------------------
 Center     Atomic      Atomic             Coordinates (Angstroms)
 Number     Number       Type             X           Y           Z
 ---------------------------------------------------------------------
      1          7           0        0.442274    4.493876    0.084041
      2          6           0        0.488903    3.337093   -0.012729
      3          6           0        0.529281    1.908550   -0.130377
      4          6           0        1.746521    1.233112    0.052252
      5          6           0        1.768123   -0.151752   -0.073232
      6         35           0        3.409131   -1.085892    0.172266
      7          6           0        0.608833   -0.874031   -0.355272
      8          6           0       -0.596990   -0.187820   -0.540166
      9         16           0       -2.042393   -1.158790   -0.972394
     10          6           0       -3.222713   -0.578062    0.307058
     11          9           0       -4.286718   -1.383794    0.265460
     12          9           0       -2.686361   -0.610599    1.536235
     13          9           0       -3.641349    0.679443    0.072557
     14          6           0       -0.643705    1.204576   -0.444837
     15          1           0        2.649394    1.783049    0.285670
     16          1           0        0.640251   -1.954527   -0.424248
     17          1           0       -1.566537    1.745770   -0.605167
 ---------------------------------------------------------------------
 Rotational constants (GHZ):           0.6355288           0.2397640           0.1853665
 Leave Link  202 at Tue Sep 17 09:42:51 2024, MaxMem=  1342177280 cpu:               0.0 elap:               0.0
 (Enter /groups/ReismanLab/Software/Gaussian16_RevC/Linux_Binary_AVX2-enabled-CPU/g16/l301.exe)
 Standard basis: 6-31G(d,p) (6D, 7F)
 Ernie: Thresh=  0.10000D-02 Tol=  0.10000D-05 Strict=F.
 There are   244 symmetry adapted cartesian basis functions of A   symmetry.
 There are   244 symmetry adapted basis functions of A   symmetry.
   244 basis functions,   492 primitive gaussians,   244 cartesian basis functions
    68 alpha electrons       68 beta electrons
       nuclear repulsion energy      1253.1088539503 Hartrees.
 IExCor=  402 DFT=T Ex+Corr=B3LYP ExCW=0 ScaHFX=  0.200000
 ScaDFX=  0.800000  0.720000  1.000000  0.810000 ScalE2=  1.000000  1.000000
 IRadAn=      5 IRanWt=     -1 IRanGd=            0 ICorTp=0 IEmpDi=141
 NAtoms=   17 NActive=   17 NUniq=   17 SFac= 1.00D+00 NAtFMM=   60 NAOKFM=F Big=F
 Integral buffers will be    131072 words long.
 Raffenetti 2 integral format.
 Two-electron integral symmetry is turned on.
 R6Disp:  Grimme-D3(BJ) Dispersion energy=       -0.0410470410 Hartrees.
 Nuclear repulsion after empirical dispersion term =     1253.0678069093 Hartrees.
 Leave Link  301 at Tue Sep 17 09:42:51 2024, MaxMem=  1342177280 cpu:               0.1 elap:               0.2
 (Enter /groups/ReismanLab/Software/Gaussian16_RevC/Linux_Binary_AVX2-enabled-CPU/g16/l302.exe)
 NPDir=0 NMtPBC=     1 NCelOv=     1 NCel=       1 NClECP=     1 NCelD=      1
         NCelK=      1 NCelE2=     1 NClLst=     1 CellRange=     0.0.
 One-electron integrals computed using PRISM.
 One-electron integral symmetry used in STVInt
 NBasis=   244 RedAO= T EigKep=  4.46D-04  NBF=   244
 NBsUse=   244 1.00D-06 EigRej= -1.00D+00 NBFU=   244
 Precomputing XC quadrature grid using
 IXCGrd= 4 IRadAn=           5 IRanWt=          -1 IRanGd=           0 AccXCQ= 0.00D+00.
 Generated NRdTot=       0 NPtTot=           0 NUsed=           0 NTot=          32
 NSgBfM=   241   241   241   241   241 MxSgAt=    17 MxSgA2=    17.
 Leave Link  302 at Tue Sep 17 09:42:51 2024, MaxMem=  1342177280 cpu:               0.8 elap:               0.1
 (Enter /groups/ReismanLab/Software/Gaussian16_RevC/Linux_Binary_AVX2-enabled-CPU/g16/l303.exe)
 DipDrv:  MaxL=1.
 Leave Link  303 at Tue Sep 17 09:42:51 2024, MaxMem=  1342177280 cpu:               0.1 elap:               0.0
 (Enter /groups/ReismanLab/Software/Gaussian16_RevC/Linux_Binary_AVX2-enabled-CPU/g16/l401.exe)
 Initial guess from the checkpoint file:  "smiles_00068_conf_1.chk"
 B after Tr=     0.000000    0.000000   -0.000000
         Rot=    0.999832   -0.015501    0.000919    0.009781 Ang=  -2.10 deg.
 Guess basis will be translated and rotated to current coordinates.
 JPrj=2 DoOrth=T DoCkMO=T.
 Generating alternative initial guess.
 ExpMin= 1.17D-01 ExpMax= 5.74D+05 ExpMxC= 5.74D+03 IAcc=3 IRadAn=         5 AccDes= 0.00D+00
 Harris functional with IExCor=  402 and IRadAn=       5 diagonalized for initial guess.
 HarFok:  IExCor=  402 AccDes= 0.00D+00 IRadAn=         5 IDoV= 1 UseB2=F ITyADJ=14
 ICtDFT=  3500011 ScaDFX=  1.000000  1.000000  1.000000  1.000000
 FoFCou: FMM=F IPFlag=           0 FMFlag=      100000 FMFlg1=           0
         NFxFlg=           0 DoJE=T BraDBF=F KetDBF=T FulRan=T
         wScrn=  0.000000 ICntrl=       500 IOpCl=  0 I1Cent=   200000004 NGrid=           0
         NMat0=    1 NMatS0=      1 NMatT0=    0 NMatD0=    1 NMtDS0=    0 NMtDT0=    0
 Petite list used in FoFCou.
 Harris En= -3630.86537636588    
 Leave Link  401 at Tue Sep 17 09:42:52 2024, MaxMem=  1342177280 cpu:               4.8 elap:               0.7
 (Enter /groups/ReismanLab/Software/Gaussian16_RevC/Linux_Binary_AVX2-enabled-CPU/g16/l502.exe)
 Integral symmetry usage will be decided dynamically.
 Closed shell SCF:
 Using DIIS extrapolation, IDIIS=  1040.
 NGot=  1342177280 LenX=  1342053390 LenY=  1341993413
 Requested convergence on RMS density matrix=1.00D-08 within  32 cycles.
 Requested convergence on MAX density matrix=1.00D-06.
 Requested convergence on             energy=1.00D-06.
 No special actions if energy rises.
 Fock matrices will be formed incrementally for  20 cycles.
 Integral accuracy reduced to 1.0D-05 until final iterations.

 Cycle   1  Pass 0  IDiag  1:
 FoFJK:  IHMeth= 1 ICntrl=       0 DoSepK=F KAlg= 0 I1Cent=           0 FoldK=F
 IRaf= 810000000 NMat=       1 IRICut=       1 DoRegI=T DoRafI=F ISym2E= 0 IDoP0=0 IntGTp=1.
 FoFCou: FMM=F IPFlag=           0 FMFlag=      100000 FMFlg1=           0
         NFxFlg=           0 DoJE=F BraDBF=F KetDBF=F FulRan=T
         wScrn=  0.000000 ICntrl=         0 IOpCl=  0 I1Cent=           0 NGrid=           0
         NMat0=    1 NMatS0=      1 NMatT0=    0 NMatD0=    1 NMtDS0=    0 NMtDT0=    0
 Symmetry not used in FoFCou.
 E= -3630.81159399599    
 DIIS: error= 7.23D-03 at cycle   1 NSaved=   1.
 NSaved= 1 IEnMin= 1 EnMin= -3630.81159399599     IErMin= 1 ErrMin= 7.23D-03
 ErrMax= 7.23D-03  0.00D+00 EMaxC= 1.00D-01 BMatC= 2.26D-02 BMatP= 2.26D-02
 IDIUse=3 WtCom= 9.28D-01 WtEn= 7.23D-02
 Coeff-Com:  0.100D+01
 Coeff-En:   0.100D+01
 Coeff:      0.100D+01
 Gap=     1.797 Goal=   None    Shift=    0.000
 GapD=    1.797 DampG=2.000 DampE=1.000 DampFc=2.0000 IDamp=-1.
 RMSDP=9.69D-04 MaxDP=3.23D-02              OVMax= 6.35D-02

 Cycle   2  Pass 0  IDiag  1:
 RMSU=  9.68D-04    CP:  9.99D-01
 E= -3630.84615032579     Delta-E=       -0.034556329798 Rises=F Damp=F
 DIIS: error= 1.64D-03 at cycle   2 NSaved=   2.
 NSaved= 2 IEnMin= 2 EnMin= -3630.84615032579     IErMin= 2 ErrMin= 1.64D-03
 ErrMax= 1.64D-03  0.00D+00 EMaxC= 1.00D-01 BMatC= 7.00D-04 BMatP= 2.26D-02
 IDIUse=3 WtCom= 9.84D-01 WtEn= 1.64D-02
 Coeff-Com: -0.201D-01 0.102D+01
 Coeff-En:   0.000D+00 0.100D+01
 Coeff:     -0.198D-01 0.102D+01
 Gap=     0.190 Goal=   None    Shift=    0.000
 RMSDP=2.06D-04 MaxDP=7.95D-03 DE=-3.46D-02 OVMax= 9.11D-03

 Cycle   3  Pass 0  IDiag  1:
 RMSU=  1.99D-04    CP:  9.99D-01  1.05D+00
 E= -3630.84603137546     Delta-E=        0.000118950325 Rises=F Damp=F
 DIIS: error= 2.38D-03 at cycle   3 NSaved=   3.
 NSaved= 3 IEnMin= 2 EnMin= -3630.84615032579     IErMin= 2 ErrMin= 1.64D-03
 ErrMax= 2.38D-03  0.00D+00 EMaxC= 1.00D-01 BMatC= 1.12D-03 BMatP= 7.00D-04
 IDIUse=3 WtCom= 1.70D-01 WtEn= 8.30D-01
 Coeff-Com: -0.403D-01 0.592D+00 0.448D+00
 Coeff-En:   0.000D+00 0.549D+00 0.451D+00
 Coeff:     -0.686D-02 0.556D+00 0.451D+00
 Gap=     0.193 Goal=   None    Shift=    0.000
 RMSDP=1.24D-04 MaxDP=4.91D-03 DE= 1.19D-04 OVMax= 5.48D-03

 Cycle   4  Pass 0  IDiag  1:
 RMSU=  4.41D-05    CP:  9.99D-01  1.07D+00  4.24D-01
 E= -3630.84676500541     Delta-E=       -0.000733629949 Rises=F Damp=F
 DIIS: error= 4.13D-04 at cycle   4 NSaved=   4.
 NSaved= 4 IEnMin= 4 EnMin= -3630.84676500541     IErMin= 4 ErrMin= 4.13D-04
 ErrMax= 4.13D-04  0.00D+00 EMaxC= 1.00D-01 BMatC= 4.59D-05 BMatP= 7.00D-04
 IDIUse=3 WtCom= 9.96D-01 WtEn= 4.13D-03
 Coeff-Com: -0.140D-01 0.168D+00 0.223D+00 0.623D+00
 Coeff-En:   0.000D+00 0.000D+00 0.000D+00 0.100D+01
 Coeff:     -0.140D-01 0.167D+00 0.222D+00 0.624D+00
 Gap=     0.193 Goal=   None    Shift=    0.000
 RMSDP=3.51D-05 MaxDP=1.42D-03 DE=-7.34D-04 OVMax= 2.35D-03

 Cycle   5  Pass 0  IDiag  1:
 RMSU=  2.56D-05    CP:  9.99D-01  1.07D+00  5.00D-01  5.93D-01
 E= -3630.84678646958     Delta-E=       -0.000021464170 Rises=F Damp=F
 DIIS: error= 3.76D-04 at cycle   5 NSaved=   5.
 NSaved= 5 IEnMin= 5 EnMin= -3630.84678646958     IErMin= 5 ErrMin= 3.76D-04
 ErrMax= 3.76D-04  0.00D+00 EMaxC= 1.00D-01 BMatC= 1.84D-05 BMatP= 4.59D-05
 IDIUse=3 WtCom= 9.96D-01 WtEn= 3.76D-03
 Coeff-Com: -0.491D-02 0.461D-01 0.106D+00 0.465D+00 0.388D+00
 Coeff-En:   0.000D+00 0.000D+00 0.000D+00 0.320D+00 0.680D+00
 Coeff:     -0.489D-02 0.459D-01 0.106D+00 0.464D+00 0.389D+00
 Gap=     0.193 Goal=   None    Shift=    0.000
 RMSDP=1.85D-05 MaxDP=8.16D-04 DE=-2.15D-05 OVMax= 1.39D-03

 Cycle   6  Pass 0  IDiag  1:
 RMSU=  1.02D-05    CP:  9.99D-01  1.07D+00  4.85D-01  7.25D-01  4.56D-01
 E= -3630.84680256152     Delta-E=       -0.000016091944 Rises=F Damp=F
 DIIS: error= 6.64D-05 at cycle   6 NSaved=   6.
 NSaved= 6 IEnMin= 6 EnMin= -3630.84680256152     IErMin= 6 ErrMin= 6.64D-05
 ErrMax= 6.64D-05  0.00D+00 EMaxC= 1.00D-01 BMatC= 1.01D-06 BMatP= 1.84D-05
 IDIUse=1 WtCom= 1.00D+00 WtEn= 0.00D+00
 Coeff-Com: -0.837D-03 0.134D-02 0.295D-01 0.188D+00 0.235D+00 0.547D+00
 Coeff:     -0.837D-03 0.134D-02 0.295D-01 0.188D+00 0.235D+00 0.547D+00
 Gap=     0.193 Goal=   None    Shift=    0.000
 RMSDP=5.63D-06 MaxDP=3.44D-04 DE=-1.61D-05 OVMax= 3.16D-04

 Initial convergence to 1.0D-05 achieved.  Increase integral accuracy.
 Cycle   7  Pass 1  IDiag  1:
 E= -3630.84683976219     Delta-E=       -0.000037200667 Rises=F Damp=F
 DIIS: error= 4.30D-05 at cycle   1 NSaved=   1.
 NSaved= 1 IEnMin= 1 EnMin= -3630.84683976219     IErMin= 1 ErrMin= 4.30D-05
 ErrMax= 4.30D-05  0.00D+00 EMaxC= 1.00D-01 BMatC= 3.10D-07 BMatP= 3.10D-07
 IDIUse=1 WtCom= 1.00D+00 WtEn= 0.00D+00
 Coeff-Com:  0.100D+01
 Coeff:      0.100D+01
 Gap=     0.193 Goal=   None    Shift=    0.000
 RMSDP=5.63D-06 MaxDP=3.44D-04 DE=-3.72D-05 OVMax= 3.45D-04

 Cycle   8  Pass 1  IDiag  1:
 RMSU=  1.34D-05    CP:  1.00D+00
 E= -3630.84683929818     Delta-E=        0.000000464014 Rises=F Damp=F
 DIIS: error= 4.36D-05 at cycle   2 NSaved=   2.
 NSaved= 2 IEnMin= 1 EnMin= -3630.84683976219     IErMin= 1 ErrMin= 4.30D-05
 ErrMax= 4.36D-05  0.00D+00 EMaxC= 1.00D-01 BMatC= 6.75D-07 BMatP= 3.10D-07
 IDIUse=1 WtCom= 1.00D+00 WtEn= 0.00D+00
 Coeff-Com:  0.616D+00 0.384D+00
 Coeff:      0.616D+00 0.384D+00
 Gap=     0.193 Goal=   None    Shift=    0.000
 RMSDP=4.42D-06 MaxDP=1.58D-04 DE= 4.64D-07 OVMax= 2.82D-04

 Cycle   9  Pass 1  IDiag  1:
 RMSU=  4.12D-06    CP:  1.00D+00  8.80D-01
 E= -3630.84683994815     Delta-E=       -0.000000649969 Rises=F Damp=F
 DIIS: error= 1.79D-05 at cycle   3 NSaved=   3.
 NSaved= 3 IEnMin= 3 EnMin= -3630.84683994815     IErMin= 3 ErrMin= 1.79D-05
 ErrMax= 1.79D-05  0.00D+00 EMaxC= 1.00D-01 BMatC= 6.18D-08 BMatP= 3.10D-07
 IDIUse=1 WtCom= 1.00D+00 WtEn= 0.00D+00
 Coeff-Com:  0.656D-01 0.231D+00 0.704D+00
 Coeff:      0.656D-01 0.231D+00 0.704D+00
 Gap=     0.193 Goal=   None    Shift=    0.000
 RMSDP=1.28D-06 MaxDP=5.92D-05 DE=-6.50D-07 OVMax= 9.83D-05

 Cycle  10  Pass 1  IDiag  1:
 RMSU=  9.84D-07    CP:  1.00D+00  9.06D-01  8.20D-01
 E= -3630.84683998627     Delta-E=       -0.000000038127 Rises=F Damp=F
 DIIS: error= 1.17D-05 at cycle   4 NSaved=   4.
 NSaved= 4 IEnMin= 4 EnMin= -3630.84683998627     IErMin= 4 ErrMin= 1.17D-05
 ErrMax= 1.17D-05  0.00D+00 EMaxC= 1.00D-01 BMatC= 2.23D-08 BMatP= 6.18D-08
 IDIUse=1 WtCom= 1.00D+00 WtEn= 0.00D+00
 Coeff-Com:  0.204D-02 0.139D+00 0.511D+00 0.348D+00
 Coeff:      0.204D-02 0.139D+00 0.511D+00 0.348D+00
 Gap=     0.193 Goal=   None    Shift=    0.000
 RMSDP=6.37D-07 MaxDP=2.30D-05 DE=-3.81D-08 OVMax= 4.01D-05

 Cycle  11  Pass 1  IDiag  1:
 RMSU=  2.19D-07    CP:  1.00D+00  9.11D-01  8.10D-01  3.98D-01
 E= -3630.84684000714     Delta-E=       -0.000000020866 Rises=F Damp=F
 DIIS: error= 1.03D-06 at cycle   5 NSaved=   5.
 NSaved= 5 IEnMin= 5 EnMin= -3630.84684000714     IErMin= 5 ErrMin= 1.03D-06
 ErrMax= 1.03D-06  0.00D+00 EMaxC= 1.00D-01 BMatC= 6.35D-10 BMatP= 2.23D-08
 IDIUse=1 WtCom= 1.00D+00 WtEn= 0.00D+00
 Coeff-Com: -0.208D-02 0.765D-01 0.287D+00 0.220D+00 0.419D+00
 Coeff:     -0.208D-02 0.765D-01 0.287D+00 0.220D+00 0.419D+00
 Gap=     0.193 Goal=   None    Shift=    0.000
 RMSDP=1.25D-07 MaxDP=5.92D-06 DE=-2.09D-08 OVMax= 5.72D-06

 Cycle  12  Pass 1  IDiag  1:
 RMSU=  5.05D-08    CP:  1.00D+00  9.12D-01  8.10D-01  3.98D-01  4.82D-01
 E= -3630.84684000781     Delta-E=       -0.000000000676 Rises=F Damp=F
 DIIS: error= 9.14D-08 at cycle   6 NSaved=   6.
 NSaved= 6 IEnMin= 6 EnMin= -3630.84684000781     IErMin= 6 ErrMin= 9.14D-08
 ErrMax= 9.14D-08  0.00D+00 EMaxC= 1.00D-01 BMatC= 5.49D-12 BMatP= 6.35D-10
 IDIUse=1 WtCom= 1.00D+00 WtEn= 0.00D+00
 Coeff-Com: -0.930D-03 0.254D-01 0.948D-01 0.741D-01 0.164D+00 0.642D+00
 Coeff:     -0.930D-03 0.254D-01 0.948D-01 0.741D-01 0.164D+00 0.642D+00
 Gap=     0.193 Goal=   None    Shift=    0.000
 RMSDP=1.52D-08 MaxDP=5.17D-07 DE=-6.76D-10 OVMax= 8.40D-07

 Cycle  13  Pass 1  IDiag  1:
 RMSU=  1.40D-08    CP:  1.00D+00  9.12D-01  8.10D-01  3.97D-01  4.92D-01
                    CP:  9.11D-01
 E= -3630.84684000783     Delta-E=       -0.000000000011 Rises=F Damp=F
 DIIS: error= 3.76D-08 at cycle   7 NSaved=   7.
 NSaved= 7 IEnMin= 7 EnMin= -3630.84684000783     IErMin= 7 ErrMin= 3.76D-08
 ErrMax= 3.76D-08  0.00D+00 EMaxC= 1.00D-01 BMatC= 1.01D-12 BMatP= 5.49D-12
 IDIUse=1 WtCom= 1.00D+00 WtEn= 0.00D+00
 Coeff-Com: -0.246D-03 0.429D-02 0.159D-01 0.130D-01 0.365D-01 0.318D+00
 Coeff-Com:  0.612D+00
 Coeff:     -0.246D-03 0.429D-02 0.159D-01 0.130D-01 0.365D-01 0.318D+00
 Coeff:      0.612D+00
 Gap=     0.193 Goal=   None    Shift=    0.000
 RMSDP=6.35D-09 MaxDP=2.17D-07 DE=-1.09D-11 OVMax= 4.15D-07

 SCF Done:  E(RB3LYP) =  -3630.84684001     A.U. after   13 cycles
            NFock= 13  Conv=0.64D-08     -V/T= 2.0062
 KE= 3.608452953549D+03 PE=-1.113581997116D+04 EE= 2.643452370694D+03
 Leave Link  502 at Tue Sep 17 09:43:03 2024, MaxMem=  1342177280 cpu:              84.8 elap:              11.3
 (Enter /groups/ReismanLab/Software/Gaussian16_RevC/Linux_Binary_AVX2-enabled-CPU/g16/l508.exe)
 QCSCF skips out because SCF is already converged.
 Leave Link  508 at Tue Sep 17 09:43:03 2024, MaxMem=  1342177280 cpu:               0.0 elap:               0.0
 (Enter /groups/ReismanLab/Software/Gaussian16_RevC/Linux_Binary_AVX2-enabled-CPU/g16/l701.exe)
 ... and contract with generalized density number  0.
 Compute integral first derivatives.
 R6Disp: Adding Grimme-D3(BJ) dispersion energy 1st derivatives to the gradient.
 Leave Link  701 at Tue Sep 17 09:43:04 2024, MaxMem=  1342177280 cpu:               0.5 elap:               0.1
 (Enter /groups/ReismanLab/Software/Gaussian16_RevC/Linux_Binary_AVX2-enabled-CPU/g16/l702.exe)
 L702 exits ... SP integral derivatives will be done elsewhere.
 Leave Link  702 at Tue Sep 17 09:43:04 2024, MaxMem=  1342177280 cpu:               0.1 elap:               0.0
[...]
     15  H    Isotropic =    23.1754   Anisotropy =    11.4897
   XX=    21.6128   YX=    -3.8300   ZX=     0.1735
   XY=    -4.2007   YY=    29.0867   ZY=     0.1043
   XZ=     0.0167   YZ=     0.0912   ZZ=    18.8268
   Eigenvalues:    18.8114    19.8796    30.8352
     16  H    Isotropic =    23.0674   Anisotropy =    13.4550
   XX=    31.4006   YX=    -0.9746   ZX=     2.6117
   XY=    -1.2874   YY=    18.9397   ZY=    -0.0174
   XZ=     2.7333   YZ=     0.1836   ZZ=    18.8621
   Eigenvalues:    18.1763    18.9886    32.0374
     17  H    Isotropic =    23.0210   Anisotropy =    10.9163
   XX=    23.0071   YX=     4.9631   ZX=     0.7008
   XY=     5.4551   YY=    26.5100   ZY=     0.9423
   XZ=     0.5922   YZ=    -0.1708   ZZ=    19.5461
   Eigenvalues:    19.0602    19.7044    30.2985
 End of Minotr F.D. properties file   721 does not exist.
 End of Minotr F.D. properties file   722 does not exist.
 End of Minotr F.D. properties file   788 does not exist.
 Leave Link 1002 at Tue Sep 17 10:59:15 2024, MaxMem=  1342177280 cpu:            1040.5 elap:            1044.2
 (Enter /groups/ReismanLab/Software/Gaussian16_RevC/Linux_Binary_AVX2-enabled-CPU/g16/l601.exe)
 Copying SCF densities to generalized density rwf, IOpCl= 0 IROHF=0.

 **********************************************************************

            Population analysis using the SCF Density.

 **********************************************************************

 Orbital symmetries:
       Occupied  (A) (A) (A) (A) (A) (A) (A) (A) (A) (A) (A) (A)
                 (A) (A) (A) (A) (A) (A) (A) (A) (A) (A) (A) (A)
                 (A) (A) (A) (A) (A) (A) (A) (A) (A) (A) (A) (A)
                 (A) (A) (A) (A) (A) (A) (A) (A) (A) (A) (A) (A)
                 (A) (A) (A) (A) (A) (A) (A) (A) (A) (A) (A) (A)
                 (A) (A) (A) (A) (A) (A) (A) (A)
       Virtual   (A) (A) (A) (A) (A) (A) (A) (A) (A) (A) (A) (A)
                 (A) (A) (A) (A) (A) (A) (A) (A) (A) (A) (A) (A)
                 (A) (A) (A) (A) (A) (A) (A) (A) (A) (A) (A) (A)
                 (A) (A) (A) (A) (A) (A) (A) (A) (A) (A) (A) (A)
                 (A) (A) (A) (A) (A) (A) (A) (A) (A) (A) (A) (A)
                 (A) (A) (A) (A) (A) (A) (A) (A) (A) (A) (A) (A)
                 (A) (A) (A) (A) (A) (A) (A) (A) (A) (A) (A) (A)
                 (A) (A) (A) (A) (A) (A) (A) (A) (A) (A) (A) (A)
                 (A) (A) (A) (A) (A) (A) (A) (A) (A) (A) (A) (A)
                 (A) (A) (A) (A) (A) (A) (A) (A) (A) (A) (A) (A)
                 (A) (A) (A) (A) (A) (A) (A) (A) (A) (A) (A) (A)
                 (A) (A) (A) (A) (A) (A) (A) (A) (A) (A) (A) (A)
                 (A) (A) (A) (A) (A) (A) (A) (A) (A) (A) (A) (A)
                 (A) (A) (A) (A) (A) (A) (A) (A) (A) (A) (A) (A)
                 (A) (A) (A) (A) (A) (A) (A) (A) (A) (A) (A) (A)
                 (A) (A) (A) (A) (A) (A) (A) (A) (A) (A) (A) (A)
                 (A) (A) (A) (A) (A) (A) (A) (A) (A) (A) (A) (A)
                 (A) (A) (A) (A) (A) (A) (A) (A) (A) (A) (A) (A)
                 (A) (A) (A) (A) (A) (A) (A) (A) (A) (A) (A) (A)
                 (A) (A) (A) (A) (A) (A) (A) (A) (A) (A) (A) (A)
                 (A) (A) (A) (A) (A) (A) (A) (A) (A) (A) (A) (A)
                 (A) (A) (A) (A) (A) (A) (A) (A) (A) (A) (A) (A)
                 (A) (A) (A) (A) (A) (A) (A) (A) (A) (A) (A) (A)
                 (A) (A) (A) (A) (A) (A) (A) (A) (A) (A) (A) (A)
                 (A) (A) (A) (A) (A) (A) (A) (A) (A) (A) (A) (A)
                 (A) (A) (A) (A) (A) (A) (A) (A) (A) (A) (A) (A)
                 (A) (A) (A) (A) (A) (A) (A) (A) (A) (A) (A) (A)
                 (A) (A) (A) (A) (A) (A) (A) (A) (A) (A) (A) (A)
                 (A) (A) (A) (A) (A) (A) (A) (A) (A) (A) (A) (A)
                 (A) (A) (A) (A) (A) (A) (A) (A) (A) (A) (A) (A)
                 (A) (A) (A) (A) (A) (A) (A) (A) (A) (A) (A) (A)
                 (A) (A) (A) (A) (A) (A) (A) (A) (A) (A) (A) (A)
                 (A) (A) (A) (A) (A) (A) (A) (A) (A) (A) (A) (A)
                 (A) (A) (A) (A) (A) (A) (A) (A) (A) (A) (A)
 The electronic state is 1-A.
 Alpha  occ. eigenvalues -- -485.39655 -89.94917 -63.38127 -57.20080 -57.19832
 Alpha  occ. eigenvalues --  -57.19824 -25.30440 -25.30096 -25.30088 -14.77536
 Alpha  occ. eigenvalues --  -10.83552 -10.63579 -10.62014 -10.61886 -10.60116
 Alpha  occ. eigenvalues --  -10.59823 -10.59635 -10.59594  -9.04771  -8.30774
 Alpha  occ. eigenvalues --   -6.87206  -6.86288  -6.86261  -6.22744  -6.22539
 Alpha  occ. eigenvalues --   -6.22172  -2.90582  -2.90251  -2.90222  -2.89367
 Alpha  occ. eigenvalues --   -2.89367  -1.48565  -1.39785  -1.39333  -1.03995
 Alpha  occ. eigenvalues --   -1.01781  -0.94621  -0.92899  -0.87844  -0.85028
 Alpha  occ. eigenvalues --   -0.80206  -0.76661  -0.72246  -0.71251  -0.71146
 Alpha  occ. eigenvalues --   -0.66413  -0.62969  -0.60135  -0.59597  -0.59543
 Alpha  occ. eigenvalues --   -0.58657  -0.55953  -0.55506  -0.53608  -0.51639
 Alpha  occ. eigenvalues --   -0.51453  -0.51036  -0.47764  -0.46375  -0.45316
 Alpha  occ. eigenvalues --   -0.44900  -0.43978  -0.41719  -0.39746  -0.37235
 Alpha  occ. eigenvalues --   -0.35508  -0.33919  -0.32686
 Alpha virt. eigenvalues --   -0.05167  -0.03575   0.00844   0.03171   0.05721
 Alpha virt. eigenvalues --    0.07258   0.08008   0.08988   0.10061   0.11406
 Alpha virt. eigenvalues --    0.12684   0.13579   0.14257   0.15187   0.15396
 Alpha virt. eigenvalues --    0.17437   0.18169   0.20320   0.20676   0.22137
 Alpha virt. eigenvalues --    0.22816   0.23064   0.23517   0.24438   0.24789
 Alpha virt. eigenvalues --    0.25308   0.25367   0.26345   0.27247   0.27813
 Alpha virt. eigenvalues --    0.28839   0.29297   0.30185   0.31217   0.31611
 Alpha virt. eigenvalues --    0.32209   0.32517   0.33858   0.34784   0.35362
 Alpha virt. eigenvalues --    0.35991   0.37014   0.38066   0.39088   0.39771
 Alpha virt. eigenvalues --    0.40394   0.40938   0.42095   0.43908   0.44058
 Alpha virt. eigenvalues --    0.44545   0.45537   0.45859   0.47120   0.48776
 Alpha virt. eigenvalues --    0.49968   0.51026   0.51815   0.53536   0.55054
 Alpha virt. eigenvalues --    0.55144   0.56519   0.57121   0.58102   0.58811
 Alpha virt. eigenvalues --    0.60115   0.61011   0.61779   0.63785   0.64814
 Alpha virt. eigenvalues --    0.65870   0.66569   0.67322   0.68297   0.68869
 Alpha virt. eigenvalues --    0.69429   0.71016   0.71564   0.73145   0.73429
 Alpha virt. eigenvalues --    0.73951   0.74129   0.76138   0.77714   0.78909
 Alpha virt. eigenvalues --    0.79490   0.80521   0.82603   0.83652   0.84181
 Alpha virt. eigenvalues --    0.86942   0.87640   0.89746   0.90754   0.91304
 Alpha virt. eigenvalues --    0.92155   0.92266   0.95843   0.96576   0.97919
 Alpha virt. eigenvalues --    0.98355   0.99621   1.01370   1.03531   1.04632
 Alpha virt. eigenvalues --    1.06050   1.07258   1.08276   1.09109   1.09632
 Alpha virt. eigenvalues --    1.10177   1.11009   1.14585   1.15629   1.18018
 Alpha virt. eigenvalues --    1.19948   1.21080   1.21966   1.22082   1.23133
 Alpha virt. eigenvalues --    1.24941   1.27325   1.28305   1.31811   1.32045
 Alpha virt. eigenvalues --    1.34003   1.35292   1.36259   1.37444   1.37849
 Alpha virt. eigenvalues --    1.39724   1.41045   1.44300   1.45099   1.46028
 Alpha virt. eigenvalues --    1.47445   1.48470   1.49558   1.51060   1.52193
 Alpha virt. eigenvalues --    1.52984   1.54242   1.55823   1.56055   1.56815
 Alpha virt. eigenvalues --    1.58029   1.59391   1.60460   1.61418   1.62769
 Alpha virt. eigenvalues --    1.63629   1.64563   1.64744   1.66039   1.66877
 Alpha virt. eigenvalues --    1.67934   1.68858   1.69824   1.72051   1.73337
 Alpha virt. eigenvalues --    1.74044   1.74339   1.76500   1.77137   1.79403
 Alpha virt. eigenvalues --    1.80745   1.82544   1.83400   1.84889   1.87223
 Alpha virt. eigenvalues --    1.87871   1.88503   1.89470   1.91176   1.92473
 Alpha virt. eigenvalues --    1.92880   1.94610   1.96243   1.96443   1.97632
 Alpha virt. eigenvalues --    1.97956   1.99376   2.01034   2.01788   2.04653
 Alpha virt. eigenvalues --    2.06760   2.08002   2.11329   2.13261   2.14621
 Alpha virt. eigenvalues --    2.16381   2.17232   2.18492   2.21441   2.24967
 Alpha virt. eigenvalues --    2.28734   2.30625   2.32483   2.33293   2.34666
 Alpha virt. eigenvalues --    2.35648   2.36098   2.37334   2.39978   2.45079
 Alpha virt. eigenvalues --    2.45765   2.46986   2.47686   2.49657   2.50527
 Alpha virt. eigenvalues --    2.52132   2.53546   2.54705   2.57261   2.58055
 Alpha virt. eigenvalues --    2.58632   2.60087   2.62005   2.64007   2.65210
 Alpha virt. eigenvalues --    2.65624   2.66474   2.70538   2.72177   2.73885
 Alpha virt. eigenvalues --    2.75186   2.76023   2.77027   2.77830   2.80875
 Alpha virt. eigenvalues --    2.82281   2.82539   2.84261   2.86211   2.87757
 Alpha virt. eigenvalues --    2.89085   2.92936   2.94597   2.95426   2.96939
 Alpha virt. eigenvalues --    2.97555   2.97772   2.98319   3.02765   3.04312
 Alpha virt. eigenvalues --    3.05005   3.06080   3.06446   3.07286   3.08281
 Alpha virt. eigenvalues --    3.11524   3.13051   3.14686   3.15304   3.16148
 Alpha virt. eigenvalues --    3.18255   3.18902   3.19897   3.20315   3.21565
 Alpha virt. eigenvalues --    3.21852   3.24387   3.24454   3.25758   3.28036
 Alpha virt. eigenvalues --    3.29682   3.30214   3.31271   3.32295   3.34438
 Alpha virt. eigenvalues --    3.35009   3.35938   3.36934   3.38278   3.38697
 Alpha virt. eigenvalues --    3.39096   3.39846   3.42714   3.43185   3.45138
 Alpha virt. eigenvalues --    3.48078   3.48497   3.49138   3.50419   3.54400
 Alpha virt. eigenvalues --    3.64630   3.65184   3.67307   3.67680   3.69840
 Alpha virt. eigenvalues --    3.70741   3.72040   3.74208   3.77654   3.78532
 Alpha virt. eigenvalues --    3.81184   3.81841   3.83891   3.88273   3.89449
 Alpha virt. eigenvalues --    3.90055   3.93207   3.95736   3.95769   3.96329
 Alpha virt. eigenvalues --    3.98162   4.00679   4.01737   4.03353   4.04602
 Alpha virt. eigenvalues --    4.04762   4.08336   4.09354   4.10645   4.13054
 Alpha virt. eigenvalues --    4.13857   4.14728   4.15518   4.20004   4.20871
 Alpha virt. eigenvalues --    4.22397   4.24029   4.34280   4.38623   4.43872
 Alpha virt. eigenvalues --    4.44766   4.49160   4.53655   4.54908   4.55051
 Alpha virt. eigenvalues --    4.57562   4.62155   4.67439   4.67765   4.71769
 Alpha virt. eigenvalues --    4.72379   4.89012   4.90179   4.92362   4.97994
 Alpha virt. eigenvalues --    5.06023   5.08290   5.12951   5.13368   5.14650
 Alpha virt. eigenvalues --    5.20171   5.25052   5.31460   5.31792   5.49855
 Alpha virt. eigenvalues --    5.59927   5.61621   5.82545   6.09420   6.81217
 Alpha virt. eigenvalues --    6.85471   6.85522   6.85704   6.86079   6.86210
 Alpha virt. eigenvalues --    6.86416   6.86493   6.87103   6.95093   6.96826
 Alpha virt. eigenvalues --    6.97576   7.02883   7.04278   7.09867   7.27677
 Alpha virt. eigenvalues --    7.28702   7.33251   7.49794   7.52594   7.52725
 Alpha virt. eigenvalues --    7.85224   8.26746   8.27129   8.30068   8.41994
 Alpha virt. eigenvalues --    8.42419   8.42972   8.67171   8.71246   8.73399
 Alpha virt. eigenvalues --    8.78542   8.88350   8.93943   8.95589   8.98756
 Alpha virt. eigenvalues --    9.00894   9.07405   9.35854   9.53995  19.85395
 Alpha virt. eigenvalues --   22.16160  22.63724  22.73523  22.79650  22.82690
 Alpha virt. eigenvalues --   22.94152  23.21970  23.62176  32.19430  57.22505
 Alpha virt. eigenvalues --   57.25400  57.40793
          Condensed to atoms (all electrons):
               1          2          3          4          5          6
     1  N    6.144949   0.919994  -0.043675   0.001039  -0.000115   0.000002
     2  C    0.919994   5.245219   0.139038  -0.033341  -0.011279  -0.001499
     3  C   -0.043675   0.139038   4.955354   0.366066   0.018417   0.017747
     4  C    0.001039  -0.033341   0.366066   5.244361   0.373236  -0.099663
     5  C   -0.000115  -0.011279   0.018417   0.373236   4.896914   0.386199
     6  Br   0.000002  -0.001499   0.017747  -0.099663   0.386199  34.856077
     7  C    0.000027   0.006435  -0.078287   0.039749   0.337847  -0.099363
     8  C   -0.000169  -0.010588   0.029491  -0.125614   0.071905   0.021497
     9  S    0.000005  -0.001310   0.010380   0.000718   0.007327  -0.000521
    10  C   -0.000001  -0.000099   0.000417  -0.000099   0.000268   0.000014
    11  F   -0.000000  -0.000000  -0.000049   0.000004  -0.000028  -0.000000
    12  F   -0.000000  -0.000040  -0.000804   0.000225  -0.000996   0.000003
    13  F   -0.000001  -0.000151  -0.001219   0.000251  -0.000091  -0.000000
    14  C    0.000388  -0.044611   0.403191   0.011165  -0.068187  -0.001398
    15  H    0.001119   0.004233  -0.028495   0.400834  -0.037208  -0.005764
    16  H   -0.000001   0.000317  -0.002546   0.012753  -0.037225  -0.006965
    17  H    0.001119   0.005287  -0.017350   0.007823  -0.002480   0.000038
               7          8          9         10         11         12
     1  N    0.000027  -0.000169   0.000005  -0.000001  -0.000000  -0.000000
     2  C    0.006435  -0.010588  -0.001310  -0.000099  -0.000000  -0.000040
     3  C   -0.078287   0.029491   0.010380   0.000417  -0.000049  -0.000804
     4  C    0.039749  -0.125614   0.000718  -0.000099   0.000004   0.000225
     5  C    0.337847   0.071905   0.007327   0.000268  -0.000028  -0.000996
     6  Br  -0.099363   0.021497  -0.000521   0.000014  -0.000000   0.000003
     7  C    5.328563   0.235308  -0.058432  -0.005529   0.000041   0.007509
     8  C    0.235308   5.337140   0.312236  -0.026781   0.003823  -0.005560
     9  S   -0.058432   0.312236  15.532673   0.454145  -0.051110  -0.061065
    10  C   -0.005529  -0.026781   0.454145   4.188241   0.318541   0.319503
    11  F    0.000041   0.003823  -0.051110   0.318541   8.979127  -0.045063
    12  F    0.007509  -0.005560  -0.061065   0.319503  -0.045063   8.993383
    13  F    0.001402  -0.012485  -0.060989   0.313893  -0.045264  -0.048929
    14  C   -0.012350   0.289317  -0.075980  -0.010653   0.000329   0.003921
    15  H    0.011431  -0.002856   0.000049  -0.000000   0.000000   0.000001
    16  H    0.409493  -0.044167   0.002393  -0.000182   0.000023   0.000389
    17  H    0.011962  -0.039280  -0.002645  -0.001479   0.000069   0.000409
              13         14         15         16         17
     1  N   -0.000001   0.000388   0.001119  -0.000001   0.001119
     2  C   -0.000151  -0.044611   0.004233   0.000317   0.005287
     3  C   -0.001219   0.403191  -0.028495  -0.002546  -0.017350
     4  C    0.000251   0.011165   0.400834   0.012753   0.007823
     5  C   -0.000091  -0.068187  -0.037208  -0.037225  -0.002480
     6  Br  -0.000000  -0.001398  -0.005764  -0.006965   0.000038
     7  C    0.001402  -0.012350   0.011431   0.409493   0.011962
     8  C   -0.012485   0.289317  -0.002856  -0.044167  -0.039280
     9  S   -0.060989  -0.075980   0.000049   0.002393  -0.002645
    10  C    0.313893  -0.010653  -0.000000  -0.000182  -0.001479
    11  F   -0.045264   0.000329   0.000000   0.000023   0.000069
    12  F   -0.048929   0.003921   0.000001   0.000389   0.000409
    13  F    9.003692   0.012136   0.000000   0.000060   0.004784
    14  C    0.012136   5.270972   0.007962   0.012784   0.390540
    15  H    0.000000   0.007962   0.440252   0.000037  -0.000174
    16  H    0.000060   0.012784   0.000037   0.452273   0.000025
    17  H    0.004784   0.390540  -0.000174   0.000025   0.433049
 Mulliken charges:
               1
     1  N   -0.024680
     2  C   -0.217603
     3  C    0.232323
     4  C   -0.199508
     5  C    0.065495
     6  Br  -0.066403
     7  C   -0.135807
     8  C   -0.033218
     9  S   -0.007875
    10  C    0.449801
    11  F   -0.160443
    12  F   -0.162885
    13  F   -0.167090
    14  C   -0.189526
    15  H    0.208578
    16  H    0.200539
    17  H    0.208303
 Sum of Mulliken charges =  -0.00000
 Mulliken charges with hydrogens summed into heavy atoms:
               1
     1  N   -0.024680
     2  C   -0.217603
     3  C    0.232323
     4  C    0.009070
     5  C    0.065495
     6  Br  -0.066403
     7  C    0.064732
     8  C   -0.033218
     9  S   -0.007875
    10  C    0.449801
    11  F   -0.160443
    12  F   -0.162885
    13  F   -0.167090
    14  C    0.018776
 Electronic spatial extent (au):  <R**2>=           4876.2143
 Charge=              0.0000 electrons
 Dipole moment (field-independent basis, Debye):
    X=              0.7980    Y=             -3.1495    Z=             -1.2658  Tot=              3.4869
 Quadrupole moment (field-independent basis, Debye-Ang):
   XX=            -99.1550   YY=           -119.3391   ZZ=            -98.4470
   XY=             -3.7986   XZ=              2.1120   YZ=             -1.0890
 Traceless Quadrupole moment (field-independent basis, Debye-Ang):
   XX=              6.4920   YY=            -13.6920   ZZ=              7.2000
   XY=             -3.7986   XZ=              2.1120   YZ=             -1.0890
 Octapole moment (field-independent basis, Debye-Ang**2):
  XXX=             54.8445  YYY=           -199.4296  ZZZ=             20.9943  XYY=             -8.0593
  XXY=            -14.5352  XXZ=              7.6717  XZZ=              8.5554  YZZ=            -21.0857
  YYZ=             -4.3933  XYZ=             -0.1153
 Hexadecapole moment (field-independent basis, Debye-Ang**3):
 XXXX=          -3301.1189 YYYY=          -2555.8317 ZZZZ=           -333.6604 XXXY=           -110.4795
 XXXZ=             -5.6177 YYYX=           -229.6628 YYYZ=            -64.5532 ZZZX=            -29.1504
 ZZZY=            -13.2204 XXYY=           -848.3534 XXZZ=           -610.6118 YYZZ=           -367.7726
 XXYZ=             -6.0432 YYXZ=             -8.3237 ZZXY=            -30.1921
 N-N= 1.259040009772D+03 E-N=-1.116931196933D+04  KE= 3.626460147983D+03
 Calculating spin-rotation constants.
 Leave Link  601 at Tue Sep 17 10:59:19 2024, MaxMem=  1342177280 cpu:               4.2 elap:               4.2
 (Enter /groups/ReismanLab/Software/Gaussian16_RevC/Linux_Binary_AVX2-enabled-CPU/g16/l9999.exe)
 Unable to Open any file for archive entry.
 1\1\GINC-HPC-21-24\SP\RM062X\def2TZVP\C8H3Br1F3N1S1\MANTIND\17-Sep-202
 4\0\\#p M062X/def2tzvp geom=check guess=read scf(xqc,tight) integral(g
 rid=ultrafine) scrf(SMD, solvent=1,4-Dioxane) nmr=giao\\spe\\0,1\N,0,-
 0.8347458477,-4.457060198,-0.983154327\C,0,-0.7418864487,-3.3150257634
 ,-0.7872184342\C,0,-0.6268145397,-1.9067000042,-0.5463942945\C,0,-1.64
 48356994,-1.2388662044,0.1519873064\C,0,-1.5204249059,0.1273305489,0.3
 759508583\Br,0,-2.8927571606,1.0455209557,1.3214827581\C,0,-0.40730370
 64,0.8378806121,-0.0711138227\C,0,0.5964810641,0.1609921384,-0.7706010
 025\S,0,2.0042089894,1.0858539855,-1.3849714296\C,0,3.2423075226,0.520
 95086,-0.1643179823\F,0,4.3947643498,1.1445862634,-0.4427887483\F,0,2.
 8872426841,0.8116856834,1.095556392\F,0,3.4520221407,-0.8060724405,-0.
 2221738437\C,0,0.4934024508,-1.2088100227,-1.0181547281\H,0,-2.5117300
 666,-1.7812424691,0.5074242835\H,0,-0.3183633297,1.8992427389,0.123386
 3342\H,0,1.2703034649,-1.729125688,-1.5631502819\\Version=ES64L-G16Rev
 C.02\State=1-A\HF=-3633.3395287\RMSD=2.114e-09\Dipole=-0.3603885,1.323
 6581,0.0031791\Quadrupole=3.8738854,-9.2254885,5.3516031,-2.6898923,-2
 .1697594,-3.5446588\PG=C01 [X(C8H3Br1F3N1S1)]\\@
 The archive entry for this job was punched.


 NEVER LISTEN TO CRITICISM
 OR YOU'LL BE DOIN' EVERYBODY ELSE'S THING BUT BUT YOUR OWN.

                                               -- ANDY CAPP
 Job cpu time:       0 days  0 hours 19 minutes  0.1 seconds.
 Elapsed time:       0 days  0 hours 19 minutes  5.0 seconds.
 File lengths (MBytes):  RWF=    304 Int=      0 D2E=      0 Chk=     32 Scr=     16
 Normal termination of Gaussian 16 at Tue Sep 17 10:59:19 2024.
