 Entering Gaussian System, Link 0=g16
 Input=smiles_00036_conf_1.gjf
 Output=smiles_00036_conf_1.log
 Initial command:
 /groups/ReismanLab/Software/Gaussian16_RevC/Linux_Binary_AVX2-enabled-CPU/g16/l1.exe "/central/groups/ReismanLab/DM/dft_final/smiles_00036/Gau-837838.inp" -scrdir="/central/groups/ReismanLab/DM/dft_final/smiles_00036/"
 Entering Link 1 = /groups/ReismanLab/Software/Gaussian16_RevC/Linux_Binary_AVX2-enabled-CPU/g16/l1.exe PID=    837852.
  
 Copyright (c) 1988-2021, Gaussian, Inc.  All Rights Reserved.
  
 This is part of the Gaussian(R) 16 program.  It is based on
 the Gaussian(R) 09 system (copyright 2009, Gaussian, Inc.),
 the Gaussian(R) 03 system (copyright 2003, Gaussian, Inc.),
 the Gaussian(R) 98 system (copyright 1998, Gaussian, Inc.),
 the Gaussian(R) 94 system (copyright 1995, Gaussian, Inc.),
 the Gaussian 92(TM) system (copyright 1992, Gaussian, Inc.),
 the Gaussian 90(TM) system (copyright 1990, Gaussian, Inc.),
 the Gaussian 88(TM) system (copyright 1988, Gaussian, Inc.),
 the Gaussian 86(TM) system (copyright 1986, Carnegie Mellon
 University), and the Gaussian 82(TM) system (copyright 1983,
 Carnegie Mellon University). Gaussian is a federally registered
 trademark of Gaussian, Inc.
  
 This software contains proprietary and confidential information,
 including trade secrets, belonging to Gaussian, Inc.
  
 This software is provided under written license and may be
 used, copied, transmitted, or stored only in accord with that
 written license.
  
 The following legend is applicable only to US Government
 contracts under FAR:
  
                    RESTRICTED RIGHTS LEGEND
  
 Use, reproduction and disclosure by the US Government is
 subject to restrictions as set forth in subparagraphs (a)
 and (c) of the Commercial Computer Software - Restricted
 Rights clause in FAR 52.227-19.
  
 Gaussian, Inc.
 340 Quinnipiac St., Bldg. 40, Wallingford CT 06492
  
  
 ---------------------------------------------------------------
 Warning -- This program may not be used in any manner that
 competes with the business of Gaussian, Inc. or will provide
 assistance to any competitor of Gaussian, Inc.  The licensee
 of this program is prohibited from giving any competitor of
 Gaussian, Inc. access to this program.  By using this program,
 the user acknowledges that Gaussian, Inc. is engaged in the
 business of creating and licensing software in the field of
 computational chemistry and represents and warrants to the
 licensee that it is not a competitor of Gaussian, Inc. and that
 it will not use this program in any manner prohibited above.
 ---------------------------------------------------------------
  

 Cite this work as:
 Gaussian 16, Revision C.02,
 M. J. Frisch, G. W. Trucks, H. B. Schlegel, G. E. Scuseria, 
 M. A. Robb, J. R. Cheeseman, G. Scalmani, V. Barone, 
 G. A. Petersson, H. Nakatsuji, X. Li, M. Caricato, A. V. Marenich, 
 J. Bloino, B. G. Janesko, R. Gomperts, B. Mennucci, H. P. Hratchian, 
 J. V. Ortiz, A. F. Izmaylov, J. L. Sonnenberg, D. Williams-Young, 
 F. Ding, F. Lipparini, F. Egidi, J. Goings, B. Peng, A. Petrone, 
 T. Henderson, D. Ranasinghe, V. G. Zakrzewski, J. Gao, N. Rega, 
 G. Zheng, W. Liang, M. Hada, M. Ehara, K. Toyota, R. Fukuda, 
 J. Hasegawa, M. Ishida, T. Nakajima, Y. Honda, O. Kitao, H. Nakai, 
 T. Vreven, K. Throssell, J. A. Montgomery, Jr., J. E. Peralta, 
 F. Ogliaro, M. J. Bearpark, J. J. Heyd, E. N. Brothers, K. N. Kudin, 
 V. N. Staroverov, T. A. Keith, R. Kobayashi, J. Normand, 
 K. Raghavachari, A. P. Rendell, J. C. Burant, S. S. Iyengar, 
 J. Tomasi, M. Cossi, J. M. Millam, M. Klene, C. Adamo, R. Cammi, 
 J. W. Ochterski, R. L. Martin, K. Morokuma, O. Farkas, 
 J. B. Foresman, and D. J. Fox, Gaussian, Inc., Wallingford CT, 2019.
 
 ******************************************
 Gaussian 16:  ES64L-G16RevC.02  7-Dec-2021
                17-Sep-2024 
 ******************************************
 %nprocshared=8
 Will use up to    8 processors via shared memory.
 %Mem=10GB
 %Chk=smiles_00036_conf_1.chk
 ----------------------------------------------------------------------
 #p B3LYP/6-31G(d,p) EmpiricalDispersion=GD3BJ opt freq scf(xqc,tight) 
 integral(grid=ultrafine)
 ----------------------------------------------------------------------
 1/18=20,19=15,26=4,38=1/1,3;
 2/9=110,12=2,17=6,18=5,40=1/2;
 3/5=1,6=6,7=101,11=2,25=1,30=1,71=1,74=-5,75=-5,124=41/1,2,3;
 4//1;
 5/5=2,8=3,13=1,32=2,38=5/2,8;
 6/7=2,8=2,9=2,10=2,28=1/1;
 7//1,2,3,16;
 1/18=20,19=15,26=4/3(2);
 2/9=110/2;
 99//99;
 2/9=110/2;
 3/5=1,6=6,7=101,11=2,25=1,30=1,71=1,74=-5,75=-5,124=41/1,2,3;
 4/5=5,16=3,69=1/1;
 5/5=2,8=3,13=1,32=2,38=5/2,8;
 7//1,2,3,16;
 1/18=20,19=15,26=4/3(-5);
 2/9=110/2;
 6/7=2,8=2,9=2,10=2,19=2,28=1/1;
 99/9=1/99;
 Leave Link    1 at Tue Sep 17 09:48:24 2024, MaxMem=  1342177280 cpu:               0.2 elap:               0.7
 (Enter /groups/ReismanLab/Software/Gaussian16_RevC/Linux_Binary_AVX2-enabled-CPU/g16/l101.exe)
 ----------------------------------
 opt-freq conformers_unique/conf_ab
 ----------------------------------
 Symbolic Z-matrix:
 Charge =  0 Multiplicity = 1
 C                     0.55184  -3.83524  -0.31668 
 O                     0.61036  -2.48839   0.08334 
 C                    -0.54346  -1.87754   0.47471 
 C                    -1.78582  -2.49539   0.56614 
 C                    -2.88303  -1.75727   0.96932 
 C                    -2.77787  -0.41573   1.28607 
 C                    -1.5401    0.21158   1.19758 
 O                    -1.30329   1.52438   1.47588 
 C                    -2.39229   2.33986   1.83144 
 C                    -0.42275  -0.52353   0.79492 
 C                     0.89039   0.14673   0.66986 
 C                     1.80053   0.1444    1.71849 
 C                     3.02672   0.77295   1.5944 
 C                     3.36261   1.41495   0.41439 
 C                     2.47099   1.42932  -0.64352 
 C                     1.24902   0.79744  -0.50323 
 Br                    0.03048   0.82021  -1.96537 
 H                     1.56667  -4.09704  -0.61216 
 H                     0.23565  -4.48628   0.50503 
 H                    -0.11998  -3.97148  -1.16999 
 H                    -1.90793  -3.53785   0.32233 
 H                    -3.84664  -2.23985   1.03549 
 H                    -3.65647   0.12807   1.59164 
 H                    -2.86015   2.00335   2.76247 
 H                    -3.14359   2.37451   1.03628 
 H                    -1.97673   3.33572   1.97768 
 H                     1.53354  -0.35778   2.63634 
 H                     3.7222    0.76211   2.42034 
 H                     4.31864   1.9062    0.31279 
 H                     2.71995   1.92509  -1.56965 
 
 ITRead=  0  0  0  0  0  0  0  0  0  0  0  0  0  0  0  0  0  0  0  0
 ITRead=  0  0  0  0  0  0  0  0  0  0
 MicOpt= -1 -1 -1 -1 -1 -1 -1 -1 -1 -1 -1 -1 -1 -1 -1 -1 -1 -1 -1 -1
 MicOpt= -1 -1 -1 -1 -1 -1 -1 -1 -1 -1
 NAtoms=     30 NQM=       30 NQMF=       0 NMMI=      0 NMMIF=      0
                NMic=       0 NMicF=      0.
                    Isotopes and Nuclear Properties:
 (Nuclear quadrupole moments (NQMom) in fm**2, nuclear magnetic moments (NMagM)
  in nuclear magnetons)

  Atom         1           2           3           4           5           6           7           8           9          10
 IAtWgt=          12          16          12          12          12          12          12          16          12          12
 AtmWgt=  12.0000000  15.9949146  12.0000000  12.0000000  12.0000000  12.0000000  12.0000000  15.9949146  12.0000000  12.0000000
 NucSpn=           0           0           0           0           0           0           0           0           0           0
 AtZEff=  -0.0000000  -0.0000000  -0.0000000  -0.0000000  -0.0000000  -0.0000000  -0.0000000  -0.0000000  -0.0000000  -0.0000000
 NQMom=    0.0000000   0.0000000   0.0000000   0.0000000   0.0000000   0.0000000   0.0000000   0.0000000   0.0000000   0.0000000
 NMagM=    0.0000000   0.0000000   0.0000000   0.0000000   0.0000000   0.0000000   0.0000000   0.0000000   0.0000000   0.0000000
 AtZNuc=   6.0000000   8.0000000   6.0000000   6.0000000   6.0000000   6.0000000   6.0000000   8.0000000   6.0000000   6.0000000

  Atom        11          12          13          14          15          16          17          18          19          20
 IAtWgt=          12          12          12          12          12          12          79           1           1           1
 AtmWgt=  12.0000000  12.0000000  12.0000000  12.0000000  12.0000000  12.0000000  78.9183361   1.0078250   1.0078250   1.0078250
 NucSpn=           0           0           0           0           0           0           3           1           1           1
 AtZEff=  -0.0000000  -0.0000000  -0.0000000  -0.0000000  -0.0000000  -0.0000000  -0.0000000  -0.0000000  -0.0000000  -0.0000000
 NQMom=    0.0000000   0.0000000   0.0000000   0.0000000   0.0000000   0.0000000  31.3000000   0.0000000   0.0000000   0.0000000
 NMagM=    0.0000000   0.0000000   0.0000000   0.0000000   0.0000000   0.0000000   2.1063990   2.7928460   2.7928460   2.7928460
 AtZNuc=   6.0000000   6.0000000   6.0000000   6.0000000   6.0000000   6.0000000  35.0000000   1.0000000   1.0000000   1.0000000

  Atom        21          22          23          24          25          26          27          28          29          30
 IAtWgt=           1           1           1           1           1           1           1           1           1           1
 AtmWgt=   1.0078250   1.0078250   1.0078250   1.0078250   1.0078250   1.0078250   1.0078250   1.0078250   1.0078250   1.0078250
 NucSpn=           1           1           1           1           1           1           1           1           1           1
 AtZEff=  -0.0000000  -0.0000000  -0.0000000  -0.0000000  -0.0000000  -0.0000000  -0.0000000  -0.0000000  -0.0000000  -0.0000000
 NQMom=    0.0000000   0.0000000   0.0000000   0.0000000   0.0000000   0.0000000   0.0000000   0.0000000   0.0000000   0.0000000
 NMagM=    2.7928460   2.7928460   2.7928460   2.7928460   2.7928460   2.7928460   2.7928460   2.7928460   2.7928460   2.7928460
 AtZNuc=   1.0000000   1.0000000   1.0000000   1.0000000   1.0000000   1.0000000   1.0000000   1.0000000   1.0000000   1.0000000
 Leave Link  101 at Tue Sep 17 09:48:25 2024, MaxMem=  1342177280 cpu:               0.4 elap:               0.5
 (Enter /groups/ReismanLab/Software/Gaussian16_RevC/Linux_Binary_AVX2-enabled-CPU/g16/l103.exe)

 GradGradGradGradGradGradGradGradGradGradGradGradGradGradGradGradGradGrad
 Berny optimization.
 Initialization pass.
                           ----------------------------
                           !    Initial Parameters    !
                           ! (Angstroms and Degrees)  !
 --------------------------                            --------------------------
 ! Name  Definition              Value          Derivative Info.                !
 --------------------------------------------------------------------------------
 ! R1    R(1,2)                  1.4062         estimate D2E/DX2                !
 ! R2    R(1,18)                 1.0889         estimate D2E/DX2                !
 ! R3    R(1,19)                 1.095          estimate D2E/DX2                !
 ! R4    R(1,20)                 1.0946         estimate D2E/DX2                !
 ! R5    R(2,3)                  1.3629         estimate D2E/DX2                !
 ! R6    R(3,4)                  1.3905         estimate D2E/DX2                !
 ! R7    R(3,10)                 1.3966         estimate D2E/DX2                !
 ! R8    R(4,5)                  1.3825         estimate D2E/DX2                !
 ! R9    R(4,21)                 1.0775         estimate D2E/DX2                !
 ! R10   R(5,6)                  1.3824         estimate D2E/DX2                !
 ! R11   R(5,22)                 1.0797         estimate D2E/DX2                !
 ! R12   R(6,7)                  1.3905         estimate D2E/DX2                !
 ! R13   R(6,23)                 1.0775         estimate D2E/DX2                !
 ! R14   R(7,8)                  1.3627         estimate D2E/DX2                !
 ! R15   R(7,10)                 1.3968         estimate D2E/DX2                !
 ! R16   R(8,9)                  1.4062         estimate D2E/DX2                !
 ! R17   R(9,24)                 1.095          estimate D2E/DX2                !
 ! R18   R(9,25)                 1.0945         estimate D2E/DX2                !
 ! R19   R(9,26)                 1.089          estimate D2E/DX2                !
 ! R20   R(10,11)                1.4796         estimate D2E/DX2                !
 ! R21   R(11,12)                1.3885         estimate D2E/DX2                !
 ! R22   R(11,16)                1.3886         estimate D2E/DX2                !
 ! R23   R(12,13)                1.3835         estimate D2E/DX2                !
 ! R24   R(12,27)                1.0798         estimate D2E/DX2                !
 ! R25   R(13,14)                1.3847         estimate D2E/DX2                !
 ! R26   R(13,28)                1.0798         estimate D2E/DX2                !
 ! R27   R(14,15)                1.3836         estimate D2E/DX2                !
 ! R28   R(14,29)                1.0796         estimate D2E/DX2                !
 ! R29   R(15,16)                1.3828         estimate D2E/DX2                !
 ! R30   R(15,30)                1.0796         estimate D2E/DX2                !
 ! R31   R(16,17)                1.9035         estimate D2E/DX2                !
 ! A1    A(2,1,18)             105.5856         estimate D2E/DX2                !
 ! A2    A(2,1,19)             111.593          estimate D2E/DX2                !
 ! A3    A(2,1,20)             111.5021         estimate D2E/DX2                !
 ! A4    A(18,1,19)            109.2565         estimate D2E/DX2                !
 ! A5    A(18,1,20)            109.302          estimate D2E/DX2                !
 ! A6    A(19,1,20)            109.4982         estimate D2E/DX2                !
 ! A7    A(1,2,3)              118.406          estimate D2E/DX2                !
 ! A8    A(2,3,4)              125.1768         estimate D2E/DX2                !
 ! A9    A(2,3,10)             115.2894         estimate D2E/DX2                !
 ! A10   A(4,3,10)             119.5333         estimate D2E/DX2                !
 ! A11   A(3,4,5)              119.4087         estimate D2E/DX2                !
 ! A12   A(3,4,21)             121.0799         estimate D2E/DX2                !
 ! A13   A(5,4,21)             119.5103         estimate D2E/DX2                !
 ! A14   A(4,5,6)              121.6389         estimate D2E/DX2                !
 ! A15   A(4,5,22)             119.1798         estimate D2E/DX2                !
 ! A16   A(6,5,22)             119.181          estimate D2E/DX2                !
 ! A17   A(5,6,7)              119.4022         estimate D2E/DX2                !
 ! A18   A(5,6,23)             119.5186         estimate D2E/DX2                !
 ! A19   A(7,6,23)             121.0782         estimate D2E/DX2                !
 ! A20   A(6,7,8)              125.1924         estimate D2E/DX2                !
 ! A21   A(6,7,10)             119.5382         estimate D2E/DX2                !
 ! A22   A(8,7,10)             115.2694         estimate D2E/DX2                !
 ! A23   A(7,8,9)              118.408          estimate D2E/DX2                !
 ! A24   A(8,9,24)             111.5721         estimate D2E/DX2                !
 ! A25   A(8,9,25)             111.4849         estimate D2E/DX2                !
 ! A26   A(8,9,26)             105.5915         estimate D2E/DX2                !
 ! A27   A(24,9,25)            109.5217         estimate D2E/DX2                !
 ! A28   A(24,9,26)            109.2637         estimate D2E/DX2                !
 ! A29   A(25,9,26)            109.3034         estimate D2E/DX2                !
 ! A30   A(3,10,7)             120.4776         estimate D2E/DX2                !
 ! A31   A(3,10,11)            119.7701         estimate D2E/DX2                !
 ! A32   A(7,10,11)            119.7294         estimate D2E/DX2                !
 ! A33   A(10,11,12)           121.14           estimate D2E/DX2                !
 ! A34   A(10,11,16)           120.8576         estimate D2E/DX2                !
 ! A35   A(12,11,16)           118.0023         estimate D2E/DX2                !
 ! A36   A(11,12,13)           120.8271         estimate D2E/DX2                !
 ! A37   A(11,12,27)           118.7289         estimate D2E/DX2                !
 ! A38   A(13,12,27)           120.444          estimate D2E/DX2                !
 ! A39   A(12,13,14)           120.137          estimate D2E/DX2                !
 ! A40   A(12,13,28)           119.8463         estimate D2E/DX2                !
 ! A41   A(14,13,28)           120.0167         estimate D2E/DX2                !
 ! A42   A(13,14,15)           120.0052         estimate D2E/DX2                !
 ! A43   A(13,14,29)           120.3942         estimate D2E/DX2                !
 ! A44   A(15,14,29)           119.6006         estimate D2E/DX2                !
 ! A45   A(14,15,16)           119.1532         estimate D2E/DX2                !
 ! A46   A(14,15,30)           120.8034         estimate D2E/DX2                !
 ! A47   A(16,15,30)           120.0434         estimate D2E/DX2                !
 ! A48   A(11,16,15)           121.8752         estimate D2E/DX2                !
 ! A49   A(11,16,17)           119.288          estimate D2E/DX2                !
 ! A50   A(15,16,17)           118.8366         estimate D2E/DX2                !
 ! D1    D(18,1,2,3)           178.1864         estimate D2E/DX2                !
 ! D2    D(19,1,2,3)           -63.2179         estimate D2E/DX2                !
 ! D3    D(20,1,2,3)            59.5844         estimate D2E/DX2                !
 ! D4    D(1,2,3,4)              2.7928         estimate D2E/DX2                !
 ! D5    D(1,2,3,10)          -176.9639         estimate D2E/DX2                !
 ! D6    D(2,3,4,5)           -179.5634         estimate D2E/DX2                !
 ! D7    D(2,3,4,21)             0.0694         estimate D2E/DX2                !
 ! D8    D(10,3,4,5)             0.1837         estimate D2E/DX2                !
 ! D9    D(10,3,4,21)          179.8166         estimate D2E/DX2                !
 ! D10   D(2,3,10,7)           179.4157         estimate D2E/DX2                !
 ! D11   D(2,3,10,11)            1.1642         estimate D2E/DX2                !
 ! D12   D(4,3,10,7)            -0.3557         estimate D2E/DX2                !
 ! D13   D(4,3,10,11)         -178.6072         estimate D2E/DX2                !
 ! D14   D(3,4,5,6)             -0.0309         estimate D2E/DX2                !
 ! D15   D(3,4,5,22)           179.7744         estimate D2E/DX2                !
 ! D16   D(21,4,5,6)          -179.6695         estimate D2E/DX2                !
 ! D17   D(21,4,5,22)            0.1357         estimate D2E/DX2                !
 ! D18   D(4,5,6,7)              0.0466         estimate D2E/DX2                !
 ! D19   D(4,5,6,23)           179.6863         estimate D2E/DX2                !
 ! D20   D(22,5,6,7)          -179.7586         estimate D2E/DX2                !
 ! D21   D(22,5,6,23)           -0.1189         estimate D2E/DX2                !
 ! D22   D(5,6,7,8)            179.7545         estimate D2E/DX2                !
 ! D23   D(5,6,7,10)            -0.2149         estimate D2E/DX2                !
 ! D24   D(23,6,7,8)             0.1206         estimate D2E/DX2                !
 ! D25   D(23,6,7,10)         -179.8489         estimate D2E/DX2                !
 ! D26   D(6,7,8,9)             -2.6832         estimate D2E/DX2                !
 ! D27   D(10,7,8,9)           177.2875         estimate D2E/DX2                !
 ! D28   D(6,7,10,3)             0.3714         estimate D2E/DX2                !
 ! D29   D(6,7,10,11)          178.6236         estimate D2E/DX2                !
 ! D30   D(8,7,10,3)          -179.601          estimate D2E/DX2                !
 ! D31   D(8,7,10,11)           -1.3488         estimate D2E/DX2                !
 ! D32   D(7,8,9,24)            62.9808         estimate D2E/DX2                !
 ! D33   D(7,8,9,25)           -59.8244         estimate D2E/DX2                !
 ! D34   D(7,8,9,26)          -178.4224         estimate D2E/DX2                !
 ! D35   D(3,10,11,12)         -87.795          estimate D2E/DX2                !
 ! D36   D(3,10,11,16)          92.1748         estimate D2E/DX2                !
 ! D37   D(7,10,11,12)          93.9403         estimate D2E/DX2                !
 ! D38   D(7,10,11,16)         -86.0899         estimate D2E/DX2                !
 ! D39   D(10,11,12,13)        179.9861         estimate D2E/DX2                !
 ! D40   D(10,11,12,27)         -0.0573         estimate D2E/DX2                !
 ! D41   D(16,11,12,13)          0.0155         estimate D2E/DX2                !
 ! D42   D(16,11,12,27)        179.9721         estimate D2E/DX2                !
 ! D43   D(10,11,16,15)       -179.9314         estimate D2E/DX2                !
 ! D44   D(10,11,16,17)         -0.0953         estimate D2E/DX2                !
 ! D45   D(12,11,16,15)          0.0393         estimate D2E/DX2                !
 ! D46   D(12,11,16,17)        179.8754         estimate D2E/DX2                !
 ! D47   D(11,12,13,14)         -0.0496         estimate D2E/DX2                !
 ! D48   D(11,12,13,28)        179.9442         estimate D2E/DX2                !
 ! D49   D(27,12,13,14)        179.9945         estimate D2E/DX2                !
 ! D50   D(27,12,13,28)         -0.0116         estimate D2E/DX2                !
 ! D51   D(12,13,14,15)          0.0294         estimate D2E/DX2                !
 ! D52   D(12,13,14,29)       -179.9584         estimate D2E/DX2                !
 ! D53   D(28,13,14,15)       -179.9644         estimate D2E/DX2                !
 ! D54   D(28,13,14,29)          0.0478         estimate D2E/DX2                !
 ! D55   D(13,14,15,16)          0.024          estimate D2E/DX2                !
 ! D56   D(13,14,15,30)       -179.9366         estimate D2E/DX2                !
 ! D57   D(29,14,15,16)       -179.9881         estimate D2E/DX2                !
 ! D58   D(29,14,15,30)          0.0513         estimate D2E/DX2                !
 ! D59   D(14,15,16,11)         -0.0592         estimate D2E/DX2                !
 ! D60   D(14,15,16,17)       -179.896          estimate D2E/DX2                !
 ! D61   D(30,15,16,11)        179.9017         estimate D2E/DX2                !
 ! D62   D(30,15,16,17)          0.0649         estimate D2E/DX2                !
 --------------------------------------------------------------------------------
 Trust Radius=3.00D-01 FncErr=1.00D-07 GrdErr=1.00D-06 EigMax=2.50D+02 EigMin=1.00D-04
 Number of steps in this run=    153 maximum allowed number of steps=    180.
 GradGradGradGradGradGradGradGradGradGradGradGradGradGradGradGradGradGrad

 Leave Link  103 at Tue Sep 17 09:48:25 2024, MaxMem=  1342177280 cpu:               0.1 elap:               0.0
 (Enter /groups/ReismanLab/Software/Gaussian16_RevC/Linux_Binary_AVX2-enabled-CPU/g16/l202.exe)
                          Input orientation:                          
 ---------------------------------------------------------------------
 Center     Atomic      Atomic             Coordinates (Angstroms)
 Number     Number       Type             X           Y           Z
 ---------------------------------------------------------------------
      1          6           0        0.551840   -3.835236   -0.316678
      2          8           0        0.610364   -2.488395    0.083336
      3          6           0       -0.543460   -1.877541    0.474710
      4          6           0       -1.785821   -2.495387    0.566136
      5          6           0       -2.883030   -1.757274    0.969322
      6          6           0       -2.777872   -0.415727    1.286068
      7          6           0       -1.540100    0.211585    1.197584
      8          8           0       -1.303292    1.524377    1.475876
      9          6           0       -2.392289    2.339861    1.831437
     10          6           0       -0.422748   -0.523529    0.794925
     11          6           0        0.890387    0.146733    0.669859
     12          6           0        1.800529    0.144395    1.718492
     13          6           0        3.026725    0.772947    1.594398
     14          6           0        3.362608    1.414945    0.414391
     15          6           0        2.470993    1.429320   -0.643516
     16          6           0        1.249025    0.797438   -0.503234
     17         35           0        0.030483    0.820211   -1.965374
     18          1           0        1.566673   -4.097037   -0.612164
     19          1           0        0.235649   -4.486281    0.505030
     20          1           0       -0.119979   -3.971485   -1.169989
     21          1           0       -1.907927   -3.537848    0.322331
     22          1           0       -3.846638   -2.239850    1.035493
     23          1           0       -3.656471    0.128073    1.591642
     24          1           0       -2.860148    2.003349    2.762472
     25          1           0       -3.143588    2.374509    1.036283
     26          1           0       -1.976731    3.335725    1.977683
     27          1           0        1.533536   -0.357777    2.636339
     28          1           0        3.722198    0.762105    2.420342
     29          1           0        4.318637    1.906198    0.312792
     30          1           0        2.719951    1.925089   -1.569653
 ---------------------------------------------------------------------
                    Distance matrix (angstroms):
                    1          2          3          4          5
     1  C    0.000000
     2  O    1.406207   0.000000
     3  C    2.378770   1.362948   0.000000
     4  C    2.835351   2.444351   1.390523   0.000000
     5  C    4.215454   3.677406   2.394305   1.382475   0.000000
     6  C    5.034761   4.150019   2.790663   2.414012   1.382438
     7  C    4.800621   3.627111   2.424929   2.790484   2.394154
     8  O    5.948127   4.658711   3.626668   4.149574   3.677146
     9  C    7.170364   5.948432   4.800558   5.034721   4.215517
    10  C    3.626691   2.331175   1.396588   2.408016   2.757813
    11  C    4.116302   2.714097   2.488310   3.762134   4.237169
    12  C    4.640970   3.319912   3.336091   4.599814   5.110121
    13  C    5.568897   4.331103   4.585303   5.907616   6.458943
    14  C    5.999941   4.787537   5.108960   6.466843   7.027014
    15  C    5.612979   4.397584   4.612232   5.914986   6.435930
    16  C    4.688554   3.398330   3.365247   4.603970   5.076303
    17  Br   4.966206   3.934507   3.682565   4.549801   4.872825
    18  H    1.088916   1.996490   3.249633   3.897805   5.270241
    19  H    1.095007   2.076003   2.722766   2.837910   4.170037
    20  H    1.094552   2.074555   2.696103   2.822769   4.136887
    21  H    2.558754   2.738660   2.154439   1.077532   2.130697
    22  H    4.870342   4.564345   3.369975   2.128981   1.079722
    23  H    6.087642   5.227502   3.867927   3.381351   2.130734
    24  H    7.430470   6.276781   5.065787   5.120224   4.166316
    25  H    7.351709   6.216760   5.015572   5.077446   4.140533
    26  H    7.942320   6.648457   5.611714   6.002564   5.270371
    27  H    4.666557   3.451030   3.360987   4.457943   4.923779
    28  H    6.219164   5.070588   5.380433   6.662403   7.216770
    29  H    6.895583   5.754684   6.163025   7.530109   8.106545
    30  H    6.281083   5.163484   5.411956   6.663646   7.169351
                    6          7          8          9         10
     6  C    0.000000
     7  C    1.390478   0.000000
     8  O    2.444262   1.362699   0.000000
     9  C    2.835378   2.378562   1.406184   0.000000
    10  C    2.408206   1.396783   2.330873   3.626631   0.000000
    11  C    3.761941   2.487964   2.712894   4.115221   1.479600
    12  C    4.632763   3.381666   3.405425   4.734190   2.498411
    13  C    5.933073   4.618276   4.396333   5.645983   3.770791
    14  C    6.466582   5.108621   4.786371   5.998528   4.269825
    15  C    5.888810   4.578361   4.329675   5.532268   3.775774
    16  C    4.570478   3.318918   3.310534   4.592268   2.494993
    17  Br   4.470601   3.583497   3.757260   4.753413   3.103273
    18  H    6.002532   5.611723   6.648075   7.942179   4.325234
    19  H    5.124523   5.069799   6.280039   7.433817   4.027522
    20  H    5.073463   5.012007   6.213318   7.348812   3.980069
    21  H    3.381306   3.867766   5.227080   6.087649   3.393409
    22  H    2.128961   3.369856   4.564204   4.870566   3.837533
    23  H    1.077511   2.154364   2.738707   2.558840   3.393569
    24  H    2.835219   2.720628   2.075703   1.094970   4.024583
    25  H    2.825166   2.697302   2.074285   1.094495   3.982443
    26  H    3.897890   3.249531   1.996575   1.088954   4.325231
    27  H    4.518278   3.441138   3.596773   4.830862   2.691714
    28  H    6.702595   5.430469   5.169973   6.342167   4.634157
    29  H    7.529876   6.162740   5.753662   6.894263   5.349463
    30  H    6.622735   5.361131   5.061847   6.154221   4.632873
                   11         12         13         14         15
    11  C    0.000000
    12  C    1.388522   0.000000
    13  C    2.410571   1.383485   0.000000
    14  C    2.790251   2.398972   1.384701   0.000000
    15  C    2.422457   2.771215   2.397482   1.383601   0.000000
    16  C    1.388591   2.380480   2.749704   2.385494   1.382809
    17  Br   2.852623   4.142542   4.653135   4.137638   2.841551
    18  H    4.484476   4.845244   5.542328   5.887372   5.599947
    19  H    4.681952   5.036319   6.052793   6.679114   6.427306
    20  H    4.622293   5.382578   6.328760   6.606989   6.013236
    21  H    4.639771   5.409328   6.674720   7.233061   6.691828
    22  H    5.316849   6.167789   7.525453   8.106574   7.496289
    23  H    4.639391   5.458499   6.714237   7.232526   6.650939
    24  H    4.678949   5.125184   6.126463   6.677005   6.352269
    25  H    4.622793   5.466545   6.399161   6.605914   5.936213
    26  H    4.483352   4.951713   5.634653   5.885730   5.503391
    27  H    2.129604   1.079772   2.143313   3.380104   3.850973
    28  H    3.385562   2.137047   1.079808   2.139941   3.376080
    29  H    3.869898   3.379468   2.143784   1.079649   2.134414
    30  H    3.394888   3.850727   3.381236   2.147017   1.079581
                   16         17         18         19         20
    16  C    0.000000
    17  Br   1.903475   0.000000
    18  H    4.905981   5.326385   0.000000
    19  H    5.473684   5.856949   1.780802   0.000000
    20  H    5.006132   4.859590   1.780934   1.788065   0.000000
    21  H    5.426104   5.289963   3.641265   2.351132   2.368928
    22  H    6.128506   5.779381   5.955489   4.689660   4.663764
    23  H    5.375913   5.169627   7.070328   6.133644   6.077808
    24  H    5.385569   5.666400   8.258305   7.536265   7.659726
    25  H    4.914500   4.636865   8.172199   7.666285   7.367597
    26  H    4.796181   5.089638   8.631857   8.261181   8.170109
    27  H    3.357437   4.982227   4.953376   4.824058   5.502829
    28  H    3.829508   5.732943   6.119938   6.585591   7.075286
    29  H    3.364188   4.975708   6.668409   7.587591   7.513129
    30  H    2.138333   2.934380   6.205871   7.182043   6.557020
                   21         22         23         24         25
    21  H    0.000000
    22  H    2.439672   0.000000
    23  H    4.255295   2.439780   0.000000
    24  H    6.129100   4.686188   2.349815   0.000000
    25  H    6.082151   4.667612   2.370222   1.788247   0.000000
    26  H    7.070426   5.955780   3.641371   1.780883   1.780933
    27  H    5.226007   5.920404   5.316354   4.989517   5.648102
    28  H    7.388474   8.259348   7.452080   6.707087   7.187105
    29  H    8.270902   9.186062   8.270401   7.585863   7.511827
    30  H    7.405440   8.200829   7.340422   7.064766   6.432260
                   26         27         28         29         30
    26  H    0.000000
    27  H    5.137875   0.000000
    28  H    6.268752   2.468002   0.000000
    29  H    6.666863   4.275657   2.471124   0.000000
    30  H    6.052463   4.930459   4.275171   2.469768   0.000000
 Stoichiometry    C14H13BrO2
 Framework group  C1[X(C14H13BrO2)]
 Deg. of freedom    84
 Full point group                 C1      NOp   1
 Largest Abelian subgroup         C1      NOp   1
 Largest concise Abelian subgroup C1      NOp   1
                         Standard orientation:                         
 ---------------------------------------------------------------------
 Center     Atomic      Atomic             Coordinates (Angstroms)
 Number     Number       Type             X           Y           Z
 ---------------------------------------------------------------------
      1          6           0       -1.388603    3.592706    0.000807
      2          8           0       -0.745877    2.383988   -0.320629
      3          6           0       -1.473153    1.232029   -0.279554
      4          6           0       -2.831926    1.152211    0.004909
      5          6           0       -3.450117   -0.084208    0.023471
      6          6           0       -2.750963   -1.248496   -0.234893
      7          6           0       -1.391797   -1.179567   -0.520107
      8          8           0       -0.590076   -2.248728   -0.786726
      9          6           0       -1.149565   -3.537169   -0.721583
     10          6           0       -0.755707    0.063712   -0.545569
     11          6           0        0.696538    0.139454   -0.818446
     12          6           0        1.175506    0.347775   -2.104986
     13          6           0        2.534823    0.417789   -2.352751
     14          6           0        3.438973    0.280936   -1.312953
     15          6           0        2.983723    0.073086   -0.023032
     16          6           0        1.622060    0.004453    0.207892
     17         35           0        1.005619   -0.278782    1.986372
     18          1           0       -0.618931    4.360095   -0.065950
     19          1           0       -2.190927    3.823334   -0.707803
     20          1           0       -1.793430    3.573796    1.017568
     21          1           0       -3.408846    2.037311    0.216652
     22          1           0       -4.504556   -0.142233    0.248394
     23          1           0       -3.266033   -2.194497   -0.206358
     24          1           0       -1.941087   -3.670496   -1.466349
     25          1           0       -1.545815   -3.752178    0.275752
     26          1           0       -0.331992   -4.222644   -0.939575
     27          1           0        0.466090    0.453907   -2.912062
     28          1           0        2.889925    0.579434   -3.359607
     29          1           0        4.500630    0.335545   -1.501488
     30          1           0        3.677165   -0.034337    0.797391
 ---------------------------------------------------------------------
 Rotational constants (GHZ):           0.4321321           0.3347750           0.3043277
 Leave Link  202 at Tue Sep 17 09:48:25 2024, MaxMem=  1342177280 cpu:               0.1 elap:               0.0
 (Enter /groups/ReismanLab/Software/Gaussian16_RevC/Linux_Binary_AVX2-enabled-CPU/g16/l301.exe)
 Standard basis: 6-31G(d,p) (6D, 7F)
 Ernie: Thresh=  0.10000D-02 Tol=  0.10000D-05 Strict=F.
 There are   335 symmetry adapted cartesian basis functions of A   symmetry.
 There are   335 symmetry adapted basis functions of A   symmetry.
   335 basis functions,   622 primitive gaussians,   335 cartesian basis functions
    74 alpha electrons       74 beta electrons
       nuclear repulsion energy      1596.3161544854 Hartrees.
 IExCor=  402 DFT=T Ex+Corr=B3LYP ExCW=0 ScaHFX=  0.200000
 ScaDFX=  0.800000  0.720000  1.000000  0.810000 ScalE2=  1.000000  1.000000
 IRadAn=      5 IRanWt=     -1 IRanGd=            0 ICorTp=0 IEmpDi=141
 NAtoms=   30 NActive=   30 NUniq=   30 SFac= 1.00D+00 NAtFMM=   60 NAOKFM=F Big=F
 Integral buffers will be    131072 words long.
 Raffenetti 2 integral format.
 Two-electron integral symmetry is turned on.
 R6Disp:  Grimme-D3(BJ) Dispersion energy=       -0.0686329966 Hartrees.
 Nuclear repulsion after empirical dispersion term =     1596.2475214889 Hartrees.
 Leave Link  301 at Tue Sep 17 09:48:25 2024, MaxMem=  1342177280 cpu:               0.1 elap:               0.1
 (Enter /groups/ReismanLab/Software/Gaussian16_RevC/Linux_Binary_AVX2-enabled-CPU/g16/l302.exe)
 NPDir=0 NMtPBC=     1 NCelOv=     1 NCel=       1 NClECP=     1 NCelD=      1
         NCelK=      1 NCelE2=     1 NClLst=     1 CellRange=     0.0.
 One-electron integrals computed using PRISM.
 One-electron integral symmetry used in STVInt
 NBasis=   335 RedAO= T EigKep=  3.25D-04  NBF=   335
 NBsUse=   335 1.00D-06 EigRej= -1.00D+00 NBFU=   335
 Precomputing XC quadrature grid using
 IXCGrd= 4 IRadAn=           5 IRanWt=          -1 IRanGd=           0 AccXCQ= 0.00D+00.
 Generated NRdTot=       0 NPtTot=           0 NUsed=           0 NTot=          32
 NSgBfM=   334   334   334   334   334 MxSgAt=    30 MxSgA2=    30.
 Leave Link  302 at Tue Sep 17 09:48:25 2024, MaxMem=  1342177280 cpu:               1.8 elap:               0.3
 (Enter /groups/ReismanLab/Software/Gaussian16_RevC/Linux_Binary_AVX2-enabled-CPU/g16/l303.exe)
 DipDrv:  MaxL=1.
 Leave Link  303 at Tue Sep 17 09:48:26 2024, MaxMem=  1342177280 cpu:               0.1 elap:               0.1
 (Enter /groups/ReismanLab/Software/Gaussian16_RevC/Linux_Binary_AVX2-enabled-CPU/g16/l401.exe)
 ExpMin= 1.43D-01 ExpMax= 5.74D+05 ExpMxC= 5.74D+03 IAcc=3 IRadAn=         5 AccDes= 0.00D+00
 Harris functional with IExCor=  402 and IRadAn=       5 diagonalized for initial guess.
 HarFok:  IExCor=  402 AccDes= 0.00D+00 IRadAn=         5 IDoV= 1 UseB2=F ITyADJ=14
 ICtDFT=  3500011 ScaDFX=  1.000000  1.000000  1.000000  1.000000
 FoFCou: FMM=F IPFlag=           0 FMFlag=      100000 FMFlg1=           0
         NFxFlg=           0 DoJE=T BraDBF=F KetDBF=T FulRan=T
         wScrn=  0.000000 ICntrl=       500 IOpCl=  0 I1Cent=   200000004 NGrid=           0
         NMat0=    1 NMatS0=      1 NMatT0=    0 NMatD0=    1 NMtDS0=    0 NMtDT0=    0
 Petite list used in FoFCou.
 Harris En= -3263.66531345583    
 JPrj=0 DoOrth=F DoCkMO=F.
 Leave Link  401 at Tue Sep 17 09:48:27 2024, MaxMem=  1342177280 cpu:              10.2 elap:               1.4
 (Enter /groups/ReismanLab/Software/Gaussian16_RevC/Linux_Binary_AVX2-enabled-CPU/g16/l502.exe)
 Integral symmetry usage will be decided dynamically.
 Closed shell SCF:
 Using DIIS extrapolation, IDIIS=  1040.
 NGot=  1342177280 LenX=  1341945904 LenY=  1341833238
 Requested convergence on RMS density matrix=1.00D-08 within  32 cycles.
 Requested convergence on MAX density matrix=1.00D-06.
 Requested convergence on             energy=1.00D-06.
 No special actions if energy rises.
 Fock matrices will be formed incrementally for  20 cycles.
 Integral accuracy reduced to 1.0D-05 until final iterations.

 Cycle   1  Pass 0  IDiag  1:
 FoFJK:  IHMeth= 1 ICntrl=       0 DoSepK=F KAlg= 0 I1Cent=           0 FoldK=F
 IRaf= 810000000 NMat=       1 IRICut=       1 DoRegI=T DoRafI=F ISym2E= 0 IDoP0=0 IntGTp=1.
 FoFCou: FMM=F IPFlag=           0 FMFlag=      100000 FMFlg1=           0
         NFxFlg=           0 DoJE=F BraDBF=F KetDBF=F FulRan=T
         wScrn=  0.000000 ICntrl=         0 IOpCl=  0 I1Cent=           0 NGrid=           0
         NMat0=    1 NMatS0=      1 NMatT0=    0 NMatD0=    1 NMtDS0=    0 NMtDT0=    0
 Symmetry not used in FoFCou.
 E= -3263.18249364002    
 DIIS: error= 1.49D-01 at cycle   1 NSaved=   1.
 NSaved= 1 IEnMin= 1 EnMin= -3263.18249364002     IErMin= 1 ErrMin= 1.49D-01
 ErrMax= 1.49D-01  0.00D+00 EMaxC= 1.00D-01 BMatC= 6.86D-01 BMatP= 6.86D-01
 IDIUse=3 WtCom= 0.00D+00 WtEn= 1.00D+00
 Coeff-Com:  0.100D+01
 Coeff-En:   0.100D+01
 Coeff:      0.100D+01
 Gap=     0.233 Goal=   None    Shift=    0.000
 GapD=    0.233 DampG=1.000 DampE=0.250 DampFc=0.2500 IDamp=-1.
 Damping current iteration by 2.50D-01
 RMSDP=4.11D-03 MaxDP=1.42D-01              OVMax= 2.01D-01

 Cycle   2  Pass 0  IDiag  1:
 RMSU=  9.97D-04    CP:  9.91D-01
 E= -3263.30740343533     Delta-E=       -0.124909795306 Rises=F Damp=T
 DIIS: error= 1.10D-01 at cycle   2 NSaved=   2.
 NSaved= 2 IEnMin= 2 EnMin= -3263.30740343533     IErMin= 2 ErrMin= 1.10D-01
 ErrMax= 1.10D-01  0.00D+00 EMaxC= 1.00D-01 BMatC= 2.88D-01 BMatP= 6.86D-01
 IDIUse=3 WtCom= 0.00D+00 WtEn= 1.00D+00
 Coeff-Com: -0.142D+01 0.242D+01
 Coeff-En:   0.000D+00 0.100D+01
 Coeff:      0.000D+00 0.100D+01
 Gap=     0.218 Goal=   None    Shift=    0.000
 RMSDP=2.22D-03 MaxDP=1.12D-01 DE=-1.25D-01 OVMax= 6.76D-02

 Cycle   3  Pass 0  IDiag  1:
 RMSU=  6.67D-04    CP:  9.67D-01  3.00D+00
 E= -3263.46069431834     Delta-E=       -0.153290883013 Rises=F Damp=F
 DIIS: error= 1.09D-02 at cycle   3 NSaved=   3.
 NSaved= 3 IEnMin= 3 EnMin= -3263.46069431834     IErMin= 3 ErrMin= 1.09D-02
 ErrMax= 1.09D-02  0.00D+00 EMaxC= 1.00D-01 BMatC= 7.03D-02 BMatP= 2.88D-01
 IDIUse=3 WtCom= 8.91D-01 WtEn= 1.09D-01
 Coeff-Com:  0.199D+01-0.258D+01 0.159D+01
 Coeff-En:   0.924D-01 0.000D+00 0.908D+00
 Coeff:      0.179D+01-0.230D+01 0.151D+01
 Gap=     0.239 Goal=   None    Shift=    0.000
 RMSDP=1.06D-03 MaxDP=3.62D-02 DE=-1.53D-01 OVMax= 4.30D-02

 Cycle   4  Pass 0  IDiag  1:
 RMSU=  4.24D-04    CP:  9.69D-01  2.06D+00  1.37D+00
 E= -3263.52913408488     Delta-E=       -0.068439766536 Rises=F Damp=F
 DIIS: error= 2.70D-03 at cycle   4 NSaved=   4.
 NSaved= 4 IEnMin= 4 EnMin= -3263.52913408488     IErMin= 4 ErrMin= 2.70D-03
 ErrMax= 2.70D-03  0.00D+00 EMaxC= 1.00D-01 BMatC= 4.45D-03 BMatP= 7.03D-02
 IDIUse=3 WtCom= 9.73D-01 WtEn= 2.70D-02
 Coeff-Com:  0.975D+00-0.128D+01 0.782D+00 0.525D+00
 Coeff-En:   0.000D+00 0.000D+00 0.000D+00 0.100D+01
 Coeff:      0.948D+00-0.125D+01 0.761D+00 0.538D+00
 Gap=     0.218 Goal=   None    Shift=    0.000
 RMSDP=3.51D-04 MaxDP=1.50D-02 DE=-6.84D-02 OVMax= 3.18D-02

 Cycle   5  Pass 0  IDiag  1:
 RMSU=  1.46D-04    CP:  9.69D-01  2.17D+00  1.43D+00  3.09D-01
 E= -3263.53303079038     Delta-E=       -0.003896705502 Rises=F Damp=F
 DIIS: error= 1.59D-03 at cycle   5 NSaved=   5.
 NSaved= 5 IEnMin= 5 EnMin= -3263.53303079038     IErMin= 5 ErrMin= 1.59D-03
 ErrMax= 1.59D-03  0.00D+00 EMaxC= 1.00D-01 BMatC= 8.88D-04 BMatP= 4.45D-03
 IDIUse=3 WtCom= 9.84D-01 WtEn= 1.59D-02
 Coeff-Com:  0.326D+00-0.429D+00 0.271D+00 0.337D+00 0.496D+00
 Coeff-En:   0.000D+00 0.000D+00 0.000D+00 0.171D+00 0.829D+00
 Coeff:      0.320D+00-0.422D+00 0.267D+00 0.334D+00 0.501D+00
 Gap=     0.215 Goal=   None    Shift=    0.000
 RMSDP=1.33D-04 MaxDP=6.13D-03 DE=-3.90D-03 OVMax= 1.44D-02

 Cycle   6  Pass 0  IDiag  1:
 RMSU=  6.32D-05    CP:  9.69D-01  2.16D+00  1.44D+00  4.69D-01  3.55D-01
 E= -3263.53390869880     Delta-E=       -0.000877908424 Rises=F Damp=F
 DIIS: error= 4.75D-04 at cycle   6 NSaved=   6.
 NSaved= 6 IEnMin= 6 EnMin= -3263.53390869880     IErMin= 6 ErrMin= 4.75D-04
 ErrMax= 4.75D-04  0.00D+00 EMaxC= 1.00D-01 BMatC= 1.25D-04 BMatP= 8.88D-04
 IDIUse=3 WtCom= 9.95D-01 WtEn= 4.75D-03
 Coeff-Com:  0.718D-01-0.949D-01 0.647D-01 0.151D+00 0.329D+00 0.479D+00
 Coeff-En:   0.000D+00 0.000D+00 0.000D+00 0.000D+00 0.945D-01 0.905D+00
 Coeff:      0.715D-01-0.945D-01 0.644D-01 0.150D+00 0.327D+00 0.481D+00
 Gap=     0.216 Goal=   None    Shift=    0.000
 RMSDP=4.18D-05 MaxDP=1.75D-03 DE=-8.78D-04 OVMax= 3.43D-03

 Cycle   7  Pass 0  IDiag  1:
 RMSU=  1.65D-05    CP:  9.69D-01  2.16D+00  1.43D+00  4.77D-01  4.91D-01
                    CP:  4.95D-01
 E= -3263.53403399990     Delta-E=       -0.000125301092 Rises=F Damp=F
 DIIS: error= 1.17D-04 at cycle   7 NSaved=   7.
 NSaved= 7 IEnMin= 7 EnMin= -3263.53403399990     IErMin= 7 ErrMin= 1.17D-04
 ErrMax= 1.17D-04  0.00D+00 EMaxC= 1.00D-01 BMatC= 4.60D-06 BMatP= 1.25D-04
 IDIUse=3 WtCom= 9.99D-01 WtEn= 1.17D-03
 Coeff-Com:  0.243D-01-0.321D-01 0.227D-01 0.660D-01 0.154D+00 0.261D+00
 Coeff-Com:  0.504D+00
 Coeff-En:   0.000D+00 0.000D+00 0.000D+00 0.000D+00 0.000D+00 0.000D+00
 Coeff-En:   0.100D+01
 Coeff:      0.242D-01-0.320D-01 0.227D-01 0.659D-01 0.154D+00 0.261D+00
 Coeff:      0.505D+00
 Gap=     0.216 Goal=   None    Shift=    0.000
 RMSDP=9.08D-06 MaxDP=4.28D-04 DE=-1.25D-04 OVMax= 1.06D-03

 Initial convergence to 1.0D-05 achieved.  Increase integral accuracy.
 Cycle   8  Pass 1  IDiag  1:
 E= -3263.53405027129     Delta-E=       -0.000016271393 Rises=F Damp=F
 DIIS: error= 1.02D-04 at cycle   1 NSaved=   1.
 NSaved= 1 IEnMin= 1 EnMin= -3263.53405027129     IErMin= 1 ErrMin= 1.02D-04
 ErrMax= 1.02D-04  0.00D+00 EMaxC= 1.00D-01 BMatC= 1.63D-06 BMatP= 1.63D-06
 IDIUse=3 WtCom= 9.99D-01 WtEn= 1.02D-03
 Coeff-Com:  0.100D+01
 Coeff-En:   0.100D+01
 Coeff:      0.100D+01
 Gap=     0.216 Goal=   None    Shift=    0.000
 RMSDP=9.08D-06 MaxDP=4.28D-04 DE=-1.63D-05 OVMax= 7.37D-04

 Cycle   9  Pass 1  IDiag  1:
 RMSU=  5.99D-05    CP:  1.00D+00
 E= -3263.53405005393     Delta-E=        0.000000217364 Rises=F Damp=F
 DIIS: error= 7.21D-05 at cycle   2 NSaved=   2.
 NSaved= 2 IEnMin= 1 EnMin= -3263.53405027129     IErMin= 2 ErrMin= 7.21D-05
 ErrMax= 7.21D-05  0.00D+00 EMaxC= 1.00D-01 BMatC= 1.38D-06 BMatP= 1.63D-06
 IDIUse=1 WtCom= 1.00D+00 WtEn= 0.00D+00
 Coeff-Com:  0.473D+00 0.527D+00
 Coeff:      0.473D+00 0.527D+00
 Gap=     0.216 Goal=   None    Shift=    0.000
 RMSDP=5.86D-06 MaxDP=3.00D-04 DE= 2.17D-07 OVMax= 7.14D-04

 Cycle  10  Pass 1  IDiag  1:
 RMSU=  5.85D-06    CP:  1.00D+00  9.97D-01
 E= -3263.53405112776     Delta-E=       -0.000001073839 Rises=F Damp=F
 DIIS: error= 4.39D-05 at cycle   3 NSaved=   3.
 NSaved= 3 IEnMin= 3 EnMin= -3263.53405112776     IErMin= 3 ErrMin= 4.39D-05
 ErrMax= 4.39D-05  0.00D+00 EMaxC= 1.00D-01 BMatC= 4.30D-07 BMatP= 1.38D-06
 IDIUse=1 WtCom= 1.00D+00 WtEn= 0.00D+00
 Coeff-Com:  0.348D-01 0.354D+00 0.611D+00
 Coeff:      0.348D-01 0.354D+00 0.611D+00
 Gap=     0.216 Goal=   None    Shift=    0.000
 RMSDP=2.52D-06 MaxDP=1.27D-04 DE=-1.07D-06 OVMax= 2.83D-04

 Cycle  11  Pass 1  IDiag  1:
 RMSU=  1.30D-06    CP:  1.00D+00  1.01D+00  6.40D-01
 E= -3263.53405155088     Delta-E=       -0.000000423116 Rises=F Damp=F
 DIIS: error= 8.97D-06 at cycle   4 NSaved=   4.
 NSaved= 4 IEnMin= 4 EnMin= -3263.53405155088     IErMin= 4 ErrMin= 8.97D-06
 ErrMax= 8.97D-06  0.00D+00 EMaxC= 1.00D-01 BMatC= 5.02D-08 BMatP= 4.30D-07
 IDIUse=1 WtCom= 1.00D+00 WtEn= 0.00D+00
 Coeff-Com: -0.413D-03 0.208D+00 0.404D+00 0.389D+00
 Coeff:     -0.413D-03 0.208D+00 0.404D+00 0.389D+00
 Gap=     0.216 Goal=   None    Shift=    0.000
 RMSDP=8.33D-07 MaxDP=4.12D-05 DE=-4.23D-07 OVMax= 9.59D-05

 Cycle  12  Pass 1  IDiag  1:
 RMSU=  2.54D-07    CP:  1.00D+00  1.01D+00  6.60D-01  3.99D-01
 E= -3263.53405160422     Delta-E=       -0.000000053341 Rises=F Damp=F
 DIIS: error= 1.50D-06 at cycle   5 NSaved=   5.
 NSaved= 5 IEnMin= 5 EnMin= -3263.53405160422     IErMin= 5 ErrMin= 1.50D-06
 ErrMax= 1.50D-06  0.00D+00 EMaxC= 1.00D-01 BMatC= 1.14D-09 BMatP= 5.02D-08
 IDIUse=1 WtCom= 1.00D+00 WtEn= 0.00D+00
 Coeff-Com: -0.143D-02 0.111D+00 0.217D+00 0.231D+00 0.442D+00
 Coeff:     -0.143D-02 0.111D+00 0.217D+00 0.231D+00 0.442D+00
 Gap=     0.216 Goal=   None    Shift=    0.000
 RMSDP=1.45D-07 MaxDP=4.66D-06 DE=-5.33D-08 OVMax= 1.56D-05

 Cycle  13  Pass 1  IDiag  1:
 RMSU=  7.54D-08    CP:  1.00D+00  1.01D+00  6.58D-01  4.08D-01  5.18D-01
 E= -3263.53405160545     Delta-E=       -0.000000001227 Rises=F Damp=F
 DIIS: error= 2.60D-07 at cycle   6 NSaved=   6.
 NSaved= 6 IEnMin= 6 EnMin= -3263.53405160545     IErMin= 6 ErrMin= 2.60D-07
 ErrMax= 2.60D-07  0.00D+00 EMaxC= 1.00D-01 BMatC= 5.51D-11 BMatP= 1.14D-09
 IDIUse=1 WtCom= 1.00D+00 WtEn= 0.00D+00
 Coeff-Com: -0.747D-03 0.435D-01 0.861D-01 0.952D-01 0.239D+00 0.537D+00
 Coeff:     -0.747D-03 0.435D-01 0.861D-01 0.952D-01 0.239D+00 0.537D+00
 Gap=     0.216 Goal=   None    Shift=    0.000
 RMSDP=3.03D-08 MaxDP=8.82D-07 DE=-1.23D-09 OVMax= 2.43D-06

 Cycle  14  Pass 1  IDiag  1:
 RMSU=  1.96D-08    CP:  1.00D+00  1.01D+00  6.59D-01  4.11D-01  5.66D-01
                    CP:  7.53D-01
 E= -3263.53405160550     Delta-E=       -0.000000000054 Rises=F Damp=F
 DIIS: error= 1.12D-07 at cycle   7 NSaved=   7.
 NSaved= 7 IEnMin= 7 EnMin= -3263.53405160550     IErMin= 7 ErrMin= 1.12D-07
 ErrMax= 1.12D-07  0.00D+00 EMaxC= 1.00D-01 BMatC= 4.59D-12 BMatP= 5.51D-11
 IDIUse=1 WtCom= 1.00D+00 WtEn= 0.00D+00
 Coeff-Com: -0.347D-03 0.185D-01 0.369D-01 0.413D-01 0.112D+00 0.310D+00
 Coeff-Com:  0.481D+00
 Coeff:     -0.347D-03 0.185D-01 0.369D-01 0.413D-01 0.112D+00 0.310D+00
 Coeff:      0.481D+00
 Gap=     0.216 Goal=   None    Shift=    0.000
 RMSDP=8.69D-09 MaxDP=4.11D-07 DE=-5.37D-11 OVMax= 1.05D-06

 SCF Done:  E(RB3LYP) =  -3263.53405161     A.U. after   14 cycles
            NFock= 14  Conv=0.87D-08     -V/T= 2.0067
 KE= 3.241695485347D+03 PE=-1.093539307221D+04 EE= 2.833916013768D+03
 Leave Link  502 at Tue Sep 17 09:48:52 2024, MaxMem=  1342177280 cpu:             185.3 elap:              24.6
 (Enter /groups/ReismanLab/Software/Gaussian16_RevC/Linux_Binary_AVX2-enabled-CPU/g16/l508.exe)
 QCSCF skips out because SCF is already converged.
 Leave Link  508 at Tue Sep 17 09:48:52 2024, MaxMem=  1342177280 cpu:               0.0 elap:               0.0
 (Enter /groups/ReismanLab/Software/Gaussian16_RevC/Linux_Binary_AVX2-enabled-CPU/g16/l601.exe)
 Copying SCF densities to generalized density rwf, IOpCl= 0 IROHF=0.

 **********************************************************************

            Population analysis using the SCF Density.

 **********************************************************************

 Orbital symmetries:
       Occupied  (A) (A) (A) (A) (A) (A) (A) (A) (A) (A) (A) (A)
                 (A) (A) (A) (A) (A) (A) (A) (A) (A) (A) (A) (A)
                 (A) (A) (A) (A) (A) (A) (A) (A) (A) (A) (A) (A)
                 (A) (A) (A) (A) (A) (A) (A) (A) (A) (A) (A) (A)
                 (A) (A) (A) (A) (A) (A) (A) (A) (A) (A) (A) (A)
                 (A) (A) (A) (A) (A) (A) (A) (A) (A) (A) (A) (A)
                 (A) (A)
       Virtual   (A) (A) (A) (A) (A) (A) (A) (A) (A) (A) (A) (A)
                 (A) (A) (A) (A) (A) (A) (A) (A) (A) (A) (A) (A)
                 (A) (A) (A) (A) (A) (A) (A) (A) (A) (A) (A) (A)
                 (A) (A) (A) (A) (A) (A) (A) (A) (A) (A) (A) (A)
                 (A) (A) (A) (A) (A) (A) (A) (A) (A) (A) (A) (A)
                 (A) (A) (A) (A) (A) (A) (A) (A) (A) (A) (A) (A)
                 (A) (A) (A) (A) (A) (A) (A) (A) (A) (A) (A) (A)
                 (A) (A) (A) (A) (A) (A) (A) (A) (A) (A) (A) (A)
                 (A) (A) (A) (A) (A) (A) (A) (A) (A) (A) (A) (A)
                 (A) (A) (A) (A) (A) (A) (A) (A) (A) (A) (A) (A)
                 (A) (A) (A) (A) (A) (A) (A) (A) (A) (A) (A) (A)
                 (A) (A) (A) (A) (A) (A) (A) (A) (A) (A) (A) (A)
                 (A) (A) (A) (A) (A) (A) (A) (A) (A) (A) (A) (A)
                 (A) (A) (A) (A) (A) (A) (A) (A) (A) (A) (A) (A)
                 (A) (A) (A) (A) (A) (A) (A) (A) (A) (A) (A) (A)
                 (A) (A) (A) (A) (A) (A) (A) (A) (A) (A) (A) (A)
                 (A) (A) (A) (A) (A) (A) (A) (A) (A) (A) (A) (A)
                 (A) (A) (A) (A) (A) (A) (A) (A) (A) (A) (A) (A)
                 (A) (A) (A) (A) (A) (A) (A) (A) (A) (A) (A) (A)
                 (A) (A) (A) (A) (A) (A) (A) (A) (A) (A) (A) (A)
                 (A) (A) (A) (A) (A) (A) (A) (A) (A) (A) (A) (A)
                 (A) (A) (A) (A) (A) (A) (A) (A) (A)
 The electronic state is 1-A.
 Alpha  occ. eigenvalues -- -482.89615 -61.85746 -56.37841 -56.37430 -56.37421
 Alpha  occ. eigenvalues --  -19.17431 -19.17416 -10.24320 -10.24307 -10.23664
 Alpha  occ. eigenvalues --  -10.23634 -10.22974 -10.19541 -10.18792 -10.18679
 Alpha  occ. eigenvalues --  -10.18616 -10.18424 -10.18312 -10.18146 -10.17625
 Alpha  occ. eigenvalues --  -10.17617  -8.56811  -6.52180  -6.50933  -6.50884
 Alpha  occ. eigenvalues --   -2.63754  -2.63402  -2.63365  -2.62369  -2.62369
 Alpha  occ. eigenvalues --   -1.06573  -1.06376  -0.87341  -0.84762  -0.79064
 Alpha  occ. eigenvalues --   -0.77830  -0.75367  -0.73550  -0.71098  -0.70197
 Alpha  occ. eigenvalues --   -0.68309  -0.62444  -0.59726  -0.58368  -0.57725
 Alpha  occ. eigenvalues --   -0.53953  -0.50941  -0.49946  -0.48648  -0.47390
 Alpha  occ. eigenvalues --   -0.47198  -0.46466  -0.45649  -0.44270  -0.44165
 Alpha  occ. eigenvalues --   -0.41986  -0.40735  -0.40524  -0.38817  -0.38151
 Alpha  occ. eigenvalues --   -0.37915  -0.36248  -0.35047  -0.34065  -0.33985
 Alpha  occ. eigenvalues --   -0.33258  -0.31663  -0.30020  -0.29813  -0.27192
 Alpha  occ. eigenvalues --   -0.24655  -0.22821  -0.21798  -0.21452
 Alpha virt. eigenvalues --    0.00149   0.00249   0.00622   0.02595   0.02787
 Alpha virt. eigenvalues --    0.09458   0.10836   0.10968   0.11863   0.13746
 Alpha virt. eigenvalues --    0.14447   0.15395   0.15642   0.16064   0.16395
 Alpha virt. eigenvalues --    0.16986   0.17104   0.17350   0.18674   0.19088
 Alpha virt. eigenvalues --    0.19453   0.20724   0.24622   0.25600   0.25733
 Alpha virt. eigenvalues --    0.28818   0.30233   0.30545   0.31961   0.34322
 Alpha virt. eigenvalues --    0.35192   0.37289   0.38229   0.40024   0.43386
 Alpha virt. eigenvalues --    0.44851   0.45849   0.46102   0.47082   0.48457
 Alpha virt. eigenvalues --    0.48798   0.50299   0.50347   0.51430   0.53184
 Alpha virt. eigenvalues --    0.53237   0.53677   0.55495   0.55966   0.56175
 Alpha virt. eigenvalues --    0.57148   0.57374   0.57644   0.58624   0.59406
 Alpha virt. eigenvalues --    0.60594   0.60829   0.61424   0.61949   0.62650
 Alpha virt. eigenvalues --    0.62761   0.63913   0.64130   0.65569   0.67758
 Alpha virt. eigenvalues --    0.67989   0.68806   0.70474   0.73175   0.74634
 Alpha virt. eigenvalues --    0.75172   0.75735   0.78876   0.79948   0.81435
 Alpha virt. eigenvalues --    0.81832   0.82646   0.82974   0.83104   0.83616
 Alpha virt. eigenvalues --    0.84248   0.84636   0.85480   0.85724   0.86968
 Alpha virt. eigenvalues --    0.87655   0.88696   0.91027   0.91747   0.92417
 Alpha virt. eigenvalues --    0.94981   0.95504   0.98138   0.98843   0.99813
 Alpha virt. eigenvalues --    1.00304   1.02026   1.05083   1.06139   1.06687
 Alpha virt. eigenvalues --    1.07173   1.09333   1.09868   1.10871   1.13795
 Alpha virt. eigenvalues --    1.15457   1.18481   1.20068   1.20919   1.23167
 Alpha virt. eigenvalues --    1.24575   1.26205   1.28071   1.30480   1.32019
 Alpha virt. eigenvalues --    1.32901   1.33805   1.35917   1.36219   1.37816
 Alpha virt. eigenvalues --    1.41136   1.41358   1.42178   1.42859   1.44367
 Alpha virt. eigenvalues --    1.44877   1.46642   1.47562   1.51144   1.56686
 Alpha virt. eigenvalues --    1.56810   1.62279   1.64253   1.69105   1.70623
 Alpha virt. eigenvalues --    1.72594   1.73258   1.77376   1.79856   1.79992
 Alpha virt. eigenvalues --    1.82900   1.85876   1.88086   1.89033   1.89485
 Alpha virt. eigenvalues --    1.90771   1.91247   1.91618   1.91934   1.93233
 Alpha virt. eigenvalues --    1.93635   1.94518   1.96016   1.96292   1.98677
 Alpha virt. eigenvalues --    2.00278   2.00465   2.00916   2.01246   2.02307
 Alpha virt. eigenvalues --    2.02765   2.03166   2.03688   2.03787   2.04950
 Alpha virt. eigenvalues --    2.06085   2.06802   2.09353   2.11722   2.12407
 Alpha virt. eigenvalues --    2.14166   2.19216   2.19950   2.22507   2.24436
 Alpha virt. eigenvalues --    2.25758   2.30120   2.30684   2.32881   2.35150
 Alpha virt. eigenvalues --    2.36757   2.37186   2.39204   2.39987   2.40732
 Alpha virt. eigenvalues --    2.42182   2.45252   2.45500   2.46203   2.47377
 Alpha virt. eigenvalues --    2.48646   2.52256   2.52981   2.53246   2.53933
 Alpha virt. eigenvalues --    2.54315   2.57258   2.57545   2.58416   2.58790
 Alpha virt. eigenvalues --    2.60627   2.61337   2.64462   2.66524   2.67008
 Alpha virt. eigenvalues --    2.70544   2.72071   2.72179   2.72550   2.73405
 Alpha virt. eigenvalues --    2.73566   2.74652   2.78229   2.79403   2.82040
 Alpha virt. eigenvalues --    2.83128   2.84841   2.85335   2.89238   2.95121
 Alpha virt. eigenvalues --    2.99423   3.04641   3.05313   3.06818   3.11039
 Alpha virt. eigenvalues --    3.17938   3.19417   3.19582   3.24011   3.25634
 Alpha virt. eigenvalues --    3.26140   3.31316   3.34400   3.35079   3.38476
 Alpha virt. eigenvalues --    3.40782   3.40876   3.44408   3.45258   3.47362
 Alpha virt. eigenvalues --    3.49025   3.83550   3.87560   4.10404   4.12817
 Alpha virt. eigenvalues --    4.14486   4.15323   4.18288   4.22322   4.35470
 Alpha virt. eigenvalues --    4.39281   4.41436   4.46097   4.47765   4.52798
 Alpha virt. eigenvalues --    4.61085   4.65259   4.84922   4.98951   8.66178
 Alpha virt. eigenvalues --   73.53598
          Condensed to atoms (all electrons):
               1          2          3          4          5          6
     1  C    4.715848   0.255767  -0.043851  -0.006678   0.000284  -0.000003
     2  O    0.255767   8.206416   0.308735  -0.072227   0.004348   0.000005
     3  C   -0.043851   0.308735   4.585708   0.432461   0.005741  -0.059419
     4  C   -0.006678  -0.072227   0.432461   5.084035   0.503207  -0.027542
     5  C    0.000284   0.004348   0.005741   0.503207   4.813028   0.502977
     6  C   -0.000003   0.000005  -0.059419  -0.027542   0.502977   5.083374
     7  C   -0.000026   0.003363   0.001364  -0.059363   0.005767   0.433139
     8  O    0.000000  -0.000008   0.003389   0.000006   0.004353  -0.072174
     9  C   -0.000000   0.000000  -0.000026  -0.000003   0.000285  -0.006621
    10  C    0.006508  -0.076691   0.512339  -0.069321  -0.034164  -0.068886
    11  C   -0.000088  -0.001066  -0.055745   0.010583  -0.000627   0.010578
    12  C   -0.000023   0.001800  -0.001849   0.000015   0.000009  -0.000028
    13  C    0.000003  -0.000148   0.000090   0.000004  -0.000000   0.000004
    14  C   -0.000001   0.000040   0.000042   0.000000   0.000000   0.000000
    15  C    0.000001  -0.000174   0.000033   0.000004  -0.000000   0.000004
    16  C   -0.000012   0.000491  -0.002805   0.000080   0.000020   0.000137
    17  Br  -0.000003   0.000619  -0.001298   0.000091  -0.000082  -0.000078
    18  H    0.397528  -0.034851   0.002952  -0.000011  -0.000001  -0.000000
    19  H    0.372906  -0.035945  -0.006159   0.005890  -0.000093   0.000001
    20  H    0.374022  -0.035362  -0.005947   0.006186  -0.000120  -0.000004
    21  H    0.005211  -0.007849  -0.044215   0.362469  -0.037260   0.005145
    22  H   -0.000004  -0.000058   0.003286  -0.036239   0.365168  -0.036236
    23  H   -0.000000   0.000002   0.000858   0.005148  -0.037279   0.362452
    24  H    0.000000  -0.000000  -0.000022  -0.000000  -0.000092   0.005902
    25  H    0.000000   0.000000  -0.000025  -0.000003  -0.000120   0.006122
    26  H    0.000000  -0.000000   0.000008  -0.000000  -0.000001  -0.000010
    27  H   -0.000010  -0.000007   0.000940  -0.000056  -0.000016  -0.000041
    28  H    0.000000  -0.000001  -0.000003  -0.000000   0.000000  -0.000000
    29  H   -0.000000   0.000000   0.000000   0.000000  -0.000000   0.000000
    30  H    0.000000  -0.000001  -0.000001  -0.000000   0.000000  -0.000000
               7          8          9         10         11         12
     1  C   -0.000026   0.000000  -0.000000   0.006508  -0.000088  -0.000023
     2  O    0.003363  -0.000008   0.000000  -0.076691  -0.001066   0.001800
     3  C    0.001364   0.003389  -0.000026   0.512339  -0.055745  -0.001849
     4  C   -0.059363   0.000006  -0.000003  -0.069321   0.010583   0.000015
     5  C    0.005767   0.004353   0.000285  -0.034164  -0.000627   0.000009
     6  C    0.433139  -0.072174  -0.006621  -0.068886   0.010578  -0.000028
     7  C    4.584944   0.306904  -0.043786   0.512335  -0.055279  -0.001197
     8  O    0.306904   8.208468   0.255789  -0.077112  -0.000272   0.000872
     9  C   -0.043786   0.255789   4.715592   0.006517  -0.000129  -0.000012
    10  C    0.512335  -0.077112   0.006517   5.292894   0.247190  -0.055390
    11  C   -0.055279  -0.000272  -0.000129   0.247190   4.898601   0.521847
    12  C   -0.001197   0.000872  -0.000012  -0.055390   0.521847   4.864064
    13  C    0.000054  -0.000124   0.000002   0.007518  -0.021195   0.511265
    14  C    0.000041   0.000040  -0.000001  -0.000024  -0.038763  -0.030514
    15  C    0.000055  -0.000226   0.000002   0.009332  -0.022329  -0.059455
    16  C   -0.003983   0.000778  -0.000023  -0.062146   0.510061  -0.019028
    17  Br  -0.002119   0.001041   0.000041  -0.013825  -0.067685   0.007384
    18  H    0.000008  -0.000000   0.000000   0.000065  -0.000075   0.000010
    19  H   -0.000023  -0.000000   0.000000  -0.000439   0.000069  -0.000006
    20  H   -0.000023   0.000000   0.000000  -0.000254   0.000018   0.000001
    21  H    0.000858   0.000002  -0.000000   0.004098  -0.000170  -0.000002
    22  H    0.003283  -0.000058  -0.000004   0.001054   0.000005   0.000000
    23  H   -0.044103  -0.007841   0.005222   0.004087  -0.000169  -0.000001
    24  H   -0.006227  -0.035932   0.372828  -0.000433   0.000065  -0.000003
    25  H   -0.005892  -0.035362   0.374074  -0.000254   0.000020  -0.000001
    26  H    0.002967  -0.034802   0.397532   0.000063  -0.000076   0.000008
    27  H    0.000738  -0.000024  -0.000006  -0.006067  -0.041565   0.367297
    28  H   -0.000003  -0.000000   0.000000  -0.000231   0.004003  -0.036071
    29  H    0.000000   0.000000   0.000000   0.000006   0.000928   0.004536
    30  H   -0.000002  -0.000002   0.000000  -0.000182   0.004743   0.000694
              13         14         15         16         17         18
     1  C    0.000003  -0.000001   0.000001  -0.000012  -0.000003   0.397528
     2  O   -0.000148   0.000040  -0.000174   0.000491   0.000619  -0.034851
     3  C    0.000090   0.000042   0.000033  -0.002805  -0.001298   0.002952
     4  C    0.000004   0.000000   0.000004   0.000080   0.000091  -0.000011
     5  C   -0.000000   0.000000  -0.000000   0.000020  -0.000082  -0.000001
     6  C    0.000004   0.000000   0.000004   0.000137  -0.000078  -0.000000
     7  C    0.000054   0.000041   0.000055  -0.003983  -0.002119   0.000008
     8  O   -0.000124   0.000040  -0.000226   0.000778   0.001041  -0.000000
     9  C    0.000002  -0.000001   0.000002  -0.000023   0.000041   0.000000
    10  C    0.007518  -0.000024   0.009332  -0.062146  -0.013825   0.000065
    11  C   -0.021195  -0.038763  -0.022329   0.510061  -0.067685  -0.000075
    12  C    0.511265  -0.030514  -0.059455  -0.019028   0.007384   0.000010
    13  C    4.838672   0.543733  -0.026666  -0.049186  -0.000059   0.000001
    14  C    0.543733   4.819056   0.517474  -0.029392   0.006113  -0.000001
    15  C   -0.026666   0.517474   4.930524   0.490218  -0.072540   0.000001
    16  C   -0.049186  -0.029392   0.490218   4.858646   0.270296   0.000009
    17  Br  -0.000059   0.006113  -0.072540   0.270296  35.017618  -0.000007
    18  H    0.000001  -0.000001   0.000001   0.000009  -0.000007   0.576509
    19  H    0.000000   0.000000  -0.000000  -0.000000   0.000004  -0.034077
    20  H   -0.000000   0.000000   0.000000  -0.000006   0.000036  -0.032429
    21  H   -0.000000   0.000000  -0.000000  -0.000003   0.000011  -0.000140
    22  H    0.000000  -0.000000   0.000000   0.000000  -0.000002  -0.000000
    23  H   -0.000000   0.000000  -0.000000  -0.000004   0.000014  -0.000000
    24  H    0.000000   0.000000  -0.000000  -0.000000   0.000009   0.000000
    25  H   -0.000000   0.000000   0.000001  -0.000006   0.000084  -0.000000
    26  H    0.000000  -0.000001   0.000001   0.000014  -0.000015  -0.000000
    27  H   -0.043681   0.004913   0.000516   0.006161  -0.000138  -0.000001
    28  H    0.364585  -0.042240   0.004539   0.001183   0.000010   0.000000
    29  H   -0.040485   0.368166  -0.039436   0.004415  -0.000172  -0.000000
    30  H    0.004637  -0.040761   0.367264  -0.038770  -0.003047   0.000000
              19         20         21         22         23         24
     1  C    0.372906   0.374022   0.005211  -0.000004  -0.000000   0.000000
     2  O   -0.035945  -0.035362  -0.007849  -0.000058   0.000002  -0.000000
     3  C   -0.006159  -0.005947  -0.044215   0.003286   0.000858  -0.000022
     4  C    0.005890   0.006186   0.362469  -0.036239   0.005148  -0.000000
     5  C   -0.000093  -0.000120  -0.037260   0.365168  -0.037279  -0.000092
     6  C    0.000001  -0.000004   0.005145  -0.036236   0.362452   0.005902
     7  C   -0.000023  -0.000023   0.000858   0.003283  -0.044103  -0.006227
     8  O   -0.000000   0.000000   0.000002  -0.000058  -0.007841  -0.035932
     9  C    0.000000   0.000000  -0.000000  -0.000004   0.005222   0.372828
    10  C   -0.000439  -0.000254   0.004098   0.001054   0.004087  -0.000433
    11  C    0.000069   0.000018  -0.000170   0.000005  -0.000169   0.000065
    12  C   -0.000006   0.000001  -0.000002   0.000000  -0.000001  -0.000003
    13  C    0.000000  -0.000000  -0.000000   0.000000  -0.000000   0.000000
    14  C    0.000000   0.000000   0.000000  -0.000000   0.000000   0.000000
    15  C   -0.000000   0.000000  -0.000000   0.000000  -0.000000  -0.000000
    16  C   -0.000000  -0.000006  -0.000003   0.000000  -0.000004  -0.000000
    17  Br   0.000004   0.000036   0.000011  -0.000002   0.000014   0.000009
    18  H   -0.034077  -0.032429  -0.000140  -0.000000  -0.000000   0.000000
    19  H    0.639660  -0.051090   0.001439   0.000002   0.000000  -0.000000
    20  H   -0.051090   0.630340   0.001569   0.000003   0.000000   0.000000
    21  H    0.001439   0.001569   0.636096  -0.006635  -0.000201   0.000000
    22  H    0.000002   0.000003  -0.006635   0.628816  -0.006633   0.000003
    23  H    0.000000   0.000000  -0.000201  -0.006633   0.635927   0.001407
    24  H   -0.000000   0.000000   0.000000   0.000003   0.001407   0.639762
    25  H    0.000000  -0.000000   0.000000   0.000003   0.001594  -0.051026
    26  H    0.000000  -0.000000  -0.000000  -0.000000  -0.000140  -0.034039
    27  H    0.000004  -0.000000   0.000002  -0.000000   0.000001   0.000003
    28  H   -0.000000   0.000000   0.000000  -0.000000   0.000000  -0.000000
    29  H    0.000000   0.000000  -0.000000  -0.000000  -0.000000   0.000000
    30  H    0.000000  -0.000000   0.000000  -0.000000   0.000000  -0.000000
              25         26         27         28         29         30
     1  C    0.000000   0.000000  -0.000010   0.000000  -0.000000   0.000000
     2  O    0.000000  -0.000000  -0.000007  -0.000001   0.000000  -0.000001
     3  C   -0.000025   0.000008   0.000940  -0.000003   0.000000  -0.000001
     4  C   -0.000003  -0.000000  -0.000056  -0.000000   0.000000  -0.000000
     5  C   -0.000120  -0.000001  -0.000016   0.000000  -0.000000   0.000000
     6  C    0.006122  -0.000010  -0.000041  -0.000000   0.000000  -0.000000
     7  C   -0.005892   0.002967   0.000738  -0.000003   0.000000  -0.000002
     8  O   -0.035362  -0.034802  -0.000024  -0.000000   0.000000  -0.000002
     9  C    0.374074   0.397532  -0.000006   0.000000   0.000000   0.000000
    10  C   -0.000254   0.000063  -0.006067  -0.000231   0.000006  -0.000182
    11  C    0.000020  -0.000076  -0.041565   0.004003   0.000928   0.004743
    12  C   -0.000001   0.000008   0.367297  -0.036071   0.004536   0.000694
    13  C   -0.000000   0.000000  -0.043681   0.364585  -0.040485   0.004637
    14  C    0.000000  -0.000001   0.004913  -0.042240   0.368166  -0.040761
    15  C    0.000001   0.000001   0.000516   0.004539  -0.039436   0.367264
    16  C   -0.000006   0.000014   0.006161   0.001183   0.004415  -0.038770
    17  Br   0.000084  -0.000015  -0.000138   0.000010  -0.000172  -0.003047
    18  H   -0.000000  -0.000000  -0.000001   0.000000  -0.000000   0.000000
    19  H    0.000000   0.000000   0.000004  -0.000000   0.000000   0.000000
    20  H   -0.000000  -0.000000  -0.000000   0.000000   0.000000  -0.000000
    21  H    0.000000  -0.000000   0.000002   0.000000  -0.000000   0.000000
    22  H    0.000003  -0.000000  -0.000000  -0.000000  -0.000000  -0.000000
    23  H    0.001594  -0.000140   0.000001   0.000000  -0.000000   0.000000
    24  H   -0.051026  -0.034039   0.000003  -0.000000   0.000000  -0.000000
    25  H    0.630010  -0.032446  -0.000000   0.000000   0.000000  -0.000000
    26  H   -0.032446   0.576362  -0.000000   0.000000  -0.000000   0.000000
    27  H   -0.000000  -0.000000   0.627718  -0.006214  -0.000213   0.000020
    28  H    0.000000   0.000000  -0.006214   0.633101  -0.006236  -0.000199
    29  H    0.000000  -0.000000  -0.000213  -0.006236   0.628011  -0.006483
    30  H   -0.000000   0.000000   0.000020  -0.000199  -0.006483   0.610437
 Mulliken charges:
               1
     1  C   -0.077378
     2  O   -0.517199
     3  C    0.363420
     4  C   -0.138735
     5  C   -0.095331
     6  C   -0.138799
     7  C    0.366206
     8  O   -0.517705
     9  C   -0.077275
    10  C   -0.138587
    11  C    0.096522
    12  C   -0.076222
    13  C   -0.089023
    14  C   -0.077920
    15  C   -0.099142
    16  C    0.062851
    17  Br  -0.142304
    18  H    0.124510
    19  H    0.107857
    20  H    0.113060
    21  H    0.079576
    22  H    0.084244
    23  H    0.079659
    24  H    0.107796
    25  H    0.113226
    26  H    0.124575
    27  H    0.089727
    28  H    0.083776
    29  H    0.086963
    30  H    0.101654
 Sum of Mulliken charges =  -0.00000
 Mulliken charges with hydrogens summed into heavy atoms:
               1
     1  C    0.268048
     2  O   -0.517199
     3  C    0.363420
     4  C   -0.059159
     5  C   -0.011087
     6  C   -0.059139
     7  C    0.366206
     8  O   -0.517705
     9  C    0.268322
    10  C   -0.138587
    11  C    0.096522
    12  C    0.013504
    13  C   -0.005247
    14  C    0.009043
    15  C    0.002512
    16  C    0.062851
    17  Br  -0.142304
 Electronic spatial extent (au):  <R**2>=           4431.1286
 Charge=             -0.0000 electrons
 Dipole moment (field-independent basis, Debye):
    X=             -1.4490    Y=              0.1231    Z=             -1.0619  Tot=              1.8006
 Quadrupole moment (field-independent basis, Debye-Ang):
   XX=            -99.0694   YY=            -95.3970   ZZ=           -109.4983
   XY=              0.1691   XZ=             -2.9794   YZ=              1.1037
 Traceless Quadrupole moment (field-independent basis, Debye-Ang):
   XX=              2.2522   YY=              5.9245   ZZ=             -8.1767
   XY=              0.1691   XZ=             -2.9794   YZ=              1.1037
 Octapole moment (field-independent basis, Debye-Ang**2):
  XXX=             34.1937  YYY=            -10.5234  ZZZ=             50.7321  XYY=            -26.6832
  XXY=              0.1938  XXZ=             17.3809  XZZ=             17.3504  YZZ=             -1.0176
  YYZ=             19.0293  XYZ=             -5.0466
 Hexadecapole moment (field-independent basis, Debye-Ang**3):
 XXXX=          -2499.9993 YYYY=          -1551.4001 ZZZZ=          -1032.2328 XXXY=             -3.8336
 XXXZ=             20.0377 YYYX=            -24.9521 YYYZ=             23.7138 ZZZX=             34.5978
 ZZZY=            -27.0507 XXYY=           -726.6338 XXZZ=           -635.6432 YYZZ=           -495.8549
 XXYZ=             -4.4336 YYXZ=             32.4140 ZZXY=              4.4786
 N-N= 1.596247521489D+03 E-N=-1.093539308146D+04  KE= 3.241695485347D+03
 No NMR shielding tensors so no spin-rotation constants.
 Leave Link  601 at Tue Sep 17 09:48:52 2024, MaxMem=  1342177280 cpu:               0.7 elap:               0.1
 (Enter /groups/ReismanLab/Software/Gaussian16_RevC/Linux_Binary_AVX2-enabled-CPU/g16/l701.exe)
 ... and contract with generalized density number  0.
 Compute integral first derivatives.
 R6Disp: Adding Grimme-D3(BJ) dispersion energy 1st derivatives to the gradient.
 Leave Link  701 at Tue Sep 17 09:48:52 2024, MaxMem=  1342177280 cpu:               0.7 elap:               0.1
 (Enter /groups/ReismanLab/Software/Gaussian16_RevC/Linux_Binary_AVX2-enabled-CPU/g16/l702.exe)
 L702 exits ... SP integral derivatives will be done elsewhere.
 Leave Link  702 at Tue Sep 17 09:48:52 2024, MaxMem=  1342177280 cpu:               0.0 elap:               0.0
 (Enter /groups/ReismanLab/Software/Gaussian16_RevC/Linux_Binary_AVX2-enabled-CPU/g16/l703.exe)
 Integral derivatives from FoFJK, PRISM(SPDF).
 Compute integral first derivatives, UseDBF=F ICtDFT=           0.
 Calling FoFJK, ICntrl=      2127 FMM=F ISym2X=0 I1Cent= 0 IOpClX= 0 NMat=1 NMatS=1 NMatT=0.
 FoFJK:  IHMeth= 1 ICntrl=    2127 DoSepK=F KAlg= 0 I1Cent=           0 FoldK=F
 IRaf=         0 NMat=       1 IRICut=       1 DoRegI=T DoRafI=F ISym2E= 0 IDoP0=0 IntGTp=1.
 FoFCou: FMM=F IPFlag=           0 FMFlag=      100000 FMFlg1=         800
         NFxFlg=           0 DoJE=F BraDBF=F KetDBF=F FulRan=T
         wScrn=  0.000000 ICntrl=      2127 IOpCl=  0 I1Cent=           0 NGrid=           0
         NMat0=    1 NMatS0=      1 NMatT0=    0 NMatD0=    1 NMtDS0=    0 NMtDT0=    0
 Symmetry not used in FoFCou.
 Leave Link  703 at Tue Sep 17 09:49:00 2024, MaxMem=  1342177280 cpu:              59.3 elap:               7.5
 (Enter /groups/ReismanLab/Software/Gaussian16_RevC/Linux_Binary_AVX2-enabled-CPU/g16/l716.exe)
 Dipole        =-5.70085184D-01 4.84278168D-02-4.17766659D-01
 ***** Axes restored to original set *****
 -------------------------------------------------------------------
 Center     Atomic                   Forces (Hartrees/Bohr)
 Number     Number              X              Y              Z
 -------------------------------------------------------------------
      1        6           0.000557812   -0.003514476   -0.001206599
      2        8          -0.000694752    0.007072279    0.002162086
      3        6           0.001982120    0.003409046    0.000030650
      4        6           0.001092308   -0.010958554   -0.002703472
      5        6          -0.003421662   -0.001687067   -0.000175895
      6        6          -0.007531721    0.007665117    0.003578947
      7        6           0.003567553   -0.000325641   -0.000799565
      8        8           0.005085942   -0.005170513   -0.002099296
      9        6          -0.002399401    0.002772977    0.000851489
     10        6           0.007519284    0.002979376    0.001666197
     11        6          -0.006626715   -0.002768813   -0.000431251
     12        6           0.000075742   -0.001485012    0.003592987
     13        6           0.004838416   -0.000192924    0.006011884
     14        6           0.004896208    0.002389053   -0.000206922
     15        6           0.001538102    0.003520771   -0.006622824
     16        6          -0.001987565    0.000718261   -0.004531415
     17       35          -0.001962632    0.000253665   -0.002817109
     18        1           0.000932227   -0.001451770   -0.000608836
     19        1          -0.000949929   -0.001700326    0.000734621
     20        1          -0.001339340   -0.001064375   -0.001138566
     21        1           0.000034124   -0.003888086   -0.000968987
     22        1          -0.003679020   -0.001885586    0.000360347
     23        1          -0.002968762    0.002402118    0.001236336
     24        1          -0.001652806   -0.000230239    0.001253108
     25        1          -0.001932609    0.000174548   -0.000720454
     26        1          -0.000564135    0.001631668    0.000458507
     27        1          -0.001212725   -0.001849069    0.003026099
     28        1           0.002686370   -0.000089114    0.003237664
     29        1           0.003765566    0.001954922   -0.000426248
     30        1           0.000352000    0.001317763   -0.002743483
 -------------------------------------------------------------------
 Cartesian Forces:  Max     0.010958554 RMS     0.003150448
 Leave Link  716 at Tue Sep 17 09:49:00 2024, MaxMem=  1342177280 cpu:               0.1 elap:               0.0
 (Enter /groups/ReismanLab/Software/Gaussian16_RevC/Linux_Binary_AVX2-enabled-CPU/g16/l103.exe)

 GradGradGradGradGradGradGradGradGradGradGradGradGradGradGradGradGradGrad
 Berny optimization.
 FormGI is forming the generalized inverse of G from B-inverse, IUseBI=4.
 Internal  Forces:  Max     0.011177952 RMS     0.003421722
 Search for a local minimum.
 Step number   1 out of a maximum of  153
 All quantities printed in internal units (Hartrees-Bohrs-Radians)
 RMS Force = .34217D-02 SwitMx=.10000D-02 MixMth= 1
 Mixed Optimization -- RFO/linear search
 Second derivative matrix not updated -- first step.
 ITU=  0
     Eigenvalues ---    0.01036   0.01610   0.01610   0.01807   0.01860
     Eigenvalues ---    0.02144   0.02177   0.02182   0.02183   0.02185
     Eigenvalues ---    0.02218   0.02248   0.02259   0.02270   0.02272
     Eigenvalues ---    0.02279   0.02292   0.02297   0.02297   0.02301
     Eigenvalues ---    0.02304   0.02311   0.02321   0.10093   0.10096
     Eigenvalues ---    0.10748   0.10749   0.16000   0.16000   0.16000
     Eigenvalues ---    0.16000   0.16000   0.16000   0.16000   0.16000
     Eigenvalues ---    0.16000   0.16000   0.16000   0.16000   0.16000
     Eigenvalues ---    0.18082   0.22000   0.22080   0.22492   0.23473
     Eigenvalues ---    0.24487   0.24909   0.24988   0.25000   0.25000
     Eigenvalues ---    0.25000   0.25000   0.25000   0.25000   0.34240
     Eigenvalues ---    0.34245   0.34292   0.34298   0.34615   0.34934
     Eigenvalues ---    0.34938   0.36018   0.36022   0.36028   0.36037
     Eigenvalues ---    0.36045   0.36294   0.36297   0.42805   0.43034
     Eigenvalues ---    0.43575   0.43653   0.44607   0.44611   0.46415
     Eigenvalues ---    0.47232   0.47682   0.47752   0.47978   0.48394
     Eigenvalues ---    0.48458   0.48538   0.52356   0.52406
 RFO step:  Lambda=-4.17585131D-03 EMin= 1.03580264D-02
 Linear search not attempted -- first point.
 Iteration  1 RMS(Cart)=  0.04190276 RMS(Int)=  0.00022167
 Iteration  2 RMS(Cart)=  0.00061036 RMS(Int)=  0.00002221
 Iteration  3 RMS(Cart)=  0.00000013 RMS(Int)=  0.00002221
 ITry= 1 IFail=0 DXMaxC= 1.58D-01 DCOld= 1.00D+10 DXMaxT= 3.00D-01 DXLimC= 3.00D+00 Rises=F
 Variable       Old X    -DE/DX   Delta X   Delta X   Delta X     New X
                                 (Linear)    (Quad)   (Total)
    R1        2.65735   0.00807   0.00000   0.01792   0.01792   2.67527
    R2        2.05775   0.00138   0.00000   0.00391   0.00391   2.06166
    R3        2.06926   0.00184   0.00000   0.00530   0.00530   2.07456
    R4        2.06840   0.00184   0.00000   0.00531   0.00531   2.07371
    R5        2.57560  -0.00095   0.00000  -0.00181  -0.00181   2.57379
    R6        2.62771   0.00932   0.00000   0.01957   0.01957   2.64728
    R7        2.63917   0.00645   0.00000   0.01337   0.01337   2.65254
    R8        2.61250   0.00990   0.00000   0.02065   0.02064   2.63314
    R9        2.03624   0.00398   0.00000   0.01083   0.01083   2.04707
   R10        2.61243   0.01003   0.00000   0.02089   0.02089   2.63331
   R11        2.04038   0.00415   0.00000   0.01138   0.01138   2.05176
   R12        2.62762   0.00915   0.00000   0.01921   0.01921   2.64683
   R13        2.03620   0.00398   0.00000   0.01085   0.01085   2.04705
   R14        2.57513  -0.00110   0.00000  -0.00208  -0.00208   2.57305
   R15        2.63954   0.00646   0.00000   0.01337   0.01338   2.65292
   R16        2.65730   0.00806   0.00000   0.01790   0.01790   2.67520
   R17        2.06919   0.00184   0.00000   0.00531   0.00531   2.07451
[...]
     28          1           0        2.026401    3.345663   -2.226439
     29          1           0        3.987249    2.491648   -0.944772
     30          1           0        3.700062    0.562396    0.597779
 ---------------------------------------------------------------------
 Rotational constants (GHZ):           0.4419538           0.3587522           0.2676007
 Leave Link  202 at Tue Sep 17 10:05:24 2024, MaxMem=  1342177280 cpu:               0.0 elap:               0.0
 (Enter /groups/ReismanLab/Software/Gaussian16_RevC/Linux_Binary_AVX2-enabled-CPU/g16/l301.exe)
 Standard basis: def2TZVP (5D, 7F)
 Ernie: Thresh=  0.10000D-02 Tol=  0.10000D-05 Strict=F.
 There are   709 symmetry adapted cartesian basis functions of A   symmetry.
 There are   622 symmetry adapted basis functions of A   symmetry.
   622 basis functions,  1034 primitive gaussians,   709 cartesian basis functions
    74 alpha electrons       74 beta electrons
       nuclear repulsion energy      1592.1784473823 Hartrees.
 IExCor= 4336 DFT=T Ex+Corr=M062X ExCW=0 ScaHFX=  0.540000
 ScaDFX=  1.000000  1.000000  1.000000  1.000000 ScalE2=  1.000000  1.000000
 IRadAn=      5 IRanWt=     -1 IRanGd=            0 ICorTp=0 IEmpDi=  4
 NAtoms=   30 NActive=   30 NUniq=   30 SFac= 1.00D+00 NAtFMM=   60 NAOKFM=F Big=F
 Integral buffers will be    131072 words long.
 Raffenetti 2 integral format.
 Two-electron integral symmetry is turned on.
 ------------------------------------------------------------------------------
 Polarizable Continuum Model (PCM)
 =================================
 Model                : PCM.
 Atomic radii         : SMD-Coulomb.
 Polarization charges : Total charges.
 Charge compensation  : None.
 Solution method      : On-the-fly selection.
 Cavity type          : VdW (van der Waals Surface) (Alpha=1.000).
 Cavity algorithm     : GePol (No added spheres)
                        Default sphere list used, NSphG=   30.
                        Lebedev-Laikov grids with approx.  5.0 points / Ang**2.
                        Smoothing algorithm: York/Karplus (Gamma=1.0000).
                        Polarization charges: spherical gaussians, with
                                              point-specific exponents (IZeta= 3).
                        Self-potential: point-specific (ISelfS= 7).
                        Self-field    : sphere-specific E.n sum rule (ISelfD= 2).
 Solvent              : 1,4-Dioxane, Eps=   2.209900 Eps(inf)=   2.023222
 ------------------------------------------------------------------------------
 GePol: Number of generator spheres                  =      30
 GePol: Total number of spheres                      =      30
 GePol: Number of exposed spheres                    =      30 (100.00%)
 GePol: Number of points                             =    2359
 GePol: Average weight of points                     =       0.12
 GePol: Minimum weight of points                     =   0.17D-09
 GePol: Maximum weight of points                     =    0.21647
 GePol: Number of points with low weight             =     126
 GePol: Fraction of low-weight points (<1% of avg)   =       5.34%
 GePol: Cavity surface area                          =    283.584 Ang**2
 GePol: Cavity volume                                =    295.381 Ang**3
 ------------------------------------------------------------------------------
 Atomic radii for non-electrostatic terms: SMD-CDS.
 ------------------------------------------------------------------------------
 PCM non-electrostatic energy =        -0.0038448906 Hartrees.
 Nuclear repulsion after PCM non-electrostatic terms =     1592.1746024917 Hartrees.
 Leave Link  301 at Tue Sep 17 10:05:25 2024, MaxMem=  1342177280 cpu:               0.1 elap:               0.1
 (Enter /groups/ReismanLab/Software/Gaussian16_RevC/Linux_Binary_AVX2-enabled-CPU/g16/l302.exe)
 NPDir=0 NMtPBC=     1 NCelOv=     1 NCel=       1 NClECP=     1 NCelD=      1
         NCelK=      1 NCelE2=     1 NClLst=     1 CellRange=     0.0.
 One-electron integrals computed using PRISM.
 One-electron integral symmetry used in STVInt
   1 Symmetry operations used in ECPInt.
 ECPInt:  NShTT=   29890 NPrTT=   96160 LenC2=   27533 LenP2D=   63674.
 LDataN:  DoStor=T MaxTD1= 6 Len=  172
 NBasis=   622 RedAO= T EigKep=  6.66D-06  NBF=   622
 NBsUse=   622 1.00D-06 EigRej= -1.00D+00 NBFU=   622
 Precomputing XC quadrature grid using
 IXCGrd= 4 IRadAn=           5 IRanWt=          -1 IRanGd=           0 AccXCQ= 0.00D+00.
 Generated NRdTot=       0 NPtTot=           0 NUsed=           0 NTot=          32
 NSgBfM=   703   703   703   703   703 MxSgAt=    30 MxSgA2=    30.
 Leave Link  302 at Tue Sep 17 10:05:26 2024, MaxMem=  1342177280 cpu:               0.9 elap:               0.9
 (Enter /groups/ReismanLab/Software/Gaussian16_RevC/Linux_Binary_AVX2-enabled-CPU/g16/l303.exe)
 DipDrv:  MaxL=1.
 Leave Link  303 at Tue Sep 17 10:05:26 2024, MaxMem=  1342177280 cpu:               0.1 elap:               0.1
 (Enter /groups/ReismanLab/Software/Gaussian16_RevC/Linux_Binary_AVX2-enabled-CPU/g16/l401.exe)
 Initial guess from the checkpoint file:  "smiles_00036_conf_1.chk"
 B after Tr=    -0.000000    0.000000   -0.000000
         Rot=    1.000000   -0.000000    0.000000   -0.000000 Ang=   0.00 deg.
 Guess basis will be translated and rotated to current coordinates.
 JPrj=2 DoOrth=T DoCkMO=T.
 Leave Link  401 at Tue Sep 17 10:05:26 2024, MaxMem=  1342177280 cpu:               0.3 elap:               0.4
 (Enter /groups/ReismanLab/Software/Gaussian16_RevC/Linux_Binary_AVX2-enabled-CPU/g16/l502.exe)
 Integral symmetry usage will be decided dynamically.
 Closed shell SCF:
 Using DIIS extrapolation, IDIIS=  1040.
 NGot=  1342177280 LenX=  1341160758 LenY=  1340657368
 Requested convergence on RMS density matrix=1.00D-08 within  32 cycles.
 Requested convergence on MAX density matrix=1.00D-06.
 Requested convergence on             energy=1.00D-06.
 No special actions if energy rises.
 Fock matrices will be formed incrementally for  20 cycles.

 Cycle   1  Pass 1  IDiag  1:
 FoFJK:  IHMeth= 1 ICntrl=       0 DoSepK=F KAlg= 0 I1Cent=           0 FoldK=F
 IRaf= 870000000 NMat=       1 IRICut=       1 DoRegI=T DoRafI=F ISym2E= 0 IDoP0=0 IntGTp=1.
 FoFCou: FMM=F IPFlag=           0 FMFlag=      100000 FMFlg1=           0
         NFxFlg=           0 DoJE=F BraDBF=F KetDBF=F FulRan=T
         wScrn=  0.000000 ICntrl=         0 IOpCl=  0 I1Cent=           0 NGrid=           0
         NMat0=    1 NMatS0=      1 NMatT0=    0 NMatD0=    1 NMtDS0=    0 NMtDT0=    0
 Symmetry not used in FoFCou.
 Inv3:  Mode=1 IEnd=    16694643.
 Iteration    1 A*A^-1 deviation from unit magnitude is 2.78D-15 for   2165.
 Iteration    1 A*A^-1 deviation from orthogonality  is 2.80D-15 for   1900    195.
 Iteration    1 A^-1*A deviation from unit magnitude is 2.66D-15 for    612.
 Iteration    1 A^-1*A deviation from orthogonality  is 1.32D-14 for    975    951.
 E= -3265.69909069959    
 DIIS: error= 1.04D-01 at cycle   1 NSaved=   1.
 NSaved= 1 IEnMin= 1 EnMin= -3265.69909069959     IErMin= 1 ErrMin= 1.04D-01
 ErrMax= 1.04D-01  0.00D+00 EMaxC= 1.00D-01 BMatC= 4.17D+00 BMatP= 4.17D+00
 IDIUse=3 WtCom= 0.00D+00 WtEn= 1.00D+00
 Coeff-Com:  0.100D+01
 Coeff-En:   0.100D+01
 Coeff:      0.100D+01
 Gap=     0.821 Goal=   None    Shift=    0.000
 GapD=    0.821 DampG=2.000 DampE=0.250 DampFc=0.5000 IDamp=-1.
 Damping current iteration by 5.00D-01
 RMSDP=9.98D-03 MaxDP=9.91D-01              OVMax= 4.29D-02

 Cycle   2  Pass 1  IDiag  1:
 RMSU=  3.37D-03    CP:  7.41D-01
 E= -3265.80841709791     Delta-E=       -0.109326398327 Rises=F Damp=T
 DIIS: error= 5.19D-02 at cycle   2 NSaved=   2.
 NSaved= 2 IEnMin= 2 EnMin= -3265.80841709791     IErMin= 2 ErrMin= 5.19D-02
 ErrMax= 5.19D-02  0.00D+00 EMaxC= 1.00D-01 BMatC= 1.05D+00 BMatP= 4.17D+00
 IDIUse=3 WtCom= 4.81D-01 WtEn= 5.19D-01
 Coeff-Com: -0.100D+01 0.200D+01
 Coeff-En:   0.000D+00 0.100D+01
 Coeff:     -0.483D+00 0.148D+01
 Gap=     0.280 Goal=   None    Shift=    0.000
 RMSDP=5.15D-03 MaxDP=4.95D-01 DE=-1.09D-01 OVMax= 5.35D-03

 Cycle   3  Pass 1  IDiag  1:
 RMSU=  4.03D-04    CP:  4.76D-01  2.03D+00
 E= -3265.92095148059     Delta-E=       -0.112534382679 Rises=F Damp=F
 DIIS: error= 5.98D-04 at cycle   3 NSaved=   3.
 NSaved= 3 IEnMin= 3 EnMin= -3265.92095148059     IErMin= 3 ErrMin= 5.98D-04
 ErrMax= 5.98D-04  0.00D+00 EMaxC= 1.00D-01 BMatC= 3.29D-04 BMatP= 1.05D+00
 IDIUse=3 WtCom= 9.94D-01 WtEn= 5.98D-03
 Coeff-Com: -0.141D+00 0.278D+00 0.863D+00
 Coeff-En:   0.000D+00 0.000D+00 0.100D+01
 Coeff:     -0.140D+00 0.276D+00 0.864D+00
 Gap=     0.280 Goal=   None    Shift=    0.000
 RMSDP=2.15D-04 MaxDP=9.34D-03 DE=-1.13D-01 OVMax= 5.13D-03

 Cycle   4  Pass 1  IDiag  1:
 RMSU=  1.15D-04    CP:  4.73D-01  2.04D+00  1.43D+00
 E= -3265.92113550839     Delta-E=       -0.000184027802 Rises=F Damp=F
 DIIS: error= 3.46D-04 at cycle   4 NSaved=   4.
 NSaved= 4 IEnMin= 4 EnMin= -3265.92113550839     IErMin= 4 ErrMin= 3.46D-04
 ErrMax= 3.46D-04  0.00D+00 EMaxC= 1.00D-01 BMatC= 8.50D-05 BMatP= 3.29D-04
 IDIUse=3 WtCom= 9.97D-01 WtEn= 3.46D-03
 Coeff-Com: -0.963D-03 0.858D-03 0.312D+00 0.688D+00
 Coeff-En:   0.000D+00 0.000D+00 0.221D-01 0.978D+00
 Coeff:     -0.960D-03 0.855D-03 0.311D+00 0.689D+00
 Gap=     0.279 Goal=   None    Shift=    0.000
 RMSDP=6.18D-05 MaxDP=3.25D-03 DE=-1.84D-04 OVMax= 3.40D-03

 Cycle   5  Pass 1  IDiag  1:
 RMSU=  3.18D-05    CP:  4.73D-01  2.05D+00  1.55D+00  1.13D+00
 E= -3265.92119104432     Delta-E=       -0.000055535926 Rises=F Damp=F
 DIIS: error= 2.40D-04 at cycle   5 NSaved=   5.
 NSaved= 5 IEnMin= 5 EnMin= -3265.92119104432     IErMin= 5 ErrMin= 2.40D-04
 ErrMax= 2.40D-04  0.00D+00 EMaxC= 1.00D-01 BMatC= 2.68D-05 BMatP= 8.50D-05
 IDIUse=3 WtCom= 9.98D-01 WtEn= 2.40D-03
 Coeff-Com:  0.218D-01-0.437D-01 0.414D-01 0.398D+00 0.582D+00
 Coeff-En:   0.000D+00 0.000D+00 0.000D+00 0.234D+00 0.766D+00
 Coeff:      0.218D-01-0.436D-01 0.413D-01 0.398D+00 0.583D+00
 Gap=     0.279 Goal=   None    Shift=    0.000
 RMSDP=1.59D-05 MaxDP=1.08D-03 DE=-5.55D-05 OVMax= 1.53D-03

 Cycle   6  Pass 1  IDiag  1:
 RMSU=  1.05D-05    CP:  4.73D-01  2.05D+00  1.58D+00  1.19D+00  8.62D-01
 E= -3265.92121655474     Delta-E=       -0.000025510418 Rises=F Damp=F
 DIIS: error= 3.03D-05 at cycle   6 NSaved=   6.
 NSaved= 6 IEnMin= 6 EnMin= -3265.92121655474     IErMin= 6 ErrMin= 3.03D-05
 ErrMax= 3.03D-05  0.00D+00 EMaxC= 1.00D-01 BMatC= 9.76D-07 BMatP= 2.68D-05
 IDIUse=1 WtCom= 1.00D+00 WtEn= 0.00D+00
 Coeff-Com:  0.571D-02-0.113D-01-0.145D-01 0.929D-01 0.225D+00 0.703D+00
 Coeff:      0.571D-02-0.113D-01-0.145D-01 0.929D-01 0.225D+00 0.703D+00
 Gap=     0.279 Goal=   None    Shift=    0.000
 RMSDP=5.28D-06 MaxDP=2.41D-04 DE=-2.55D-05 OVMax= 2.93D-04

 Cycle   7  Pass 1  IDiag  1:
 RMSU=  2.52D-06    CP:  4.73D-01  2.05D+00  1.59D+00  1.21D+00  8.94D-01
                    CP:  9.31D-01
 E= -3265.92121756197     Delta-E=       -0.000001007230 Rises=F Damp=F
 DIIS: error= 9.97D-06 at cycle   7 NSaved=   7.
 NSaved= 7 IEnMin= 7 EnMin= -3265.92121756197     IErMin= 7 ErrMin= 9.97D-06
 ErrMax= 9.97D-06  0.00D+00 EMaxC= 1.00D-01 BMatC= 9.90D-08 BMatP= 9.76D-07
 IDIUse=1 WtCom= 1.00D+00 WtEn= 0.00D+00
 Coeff-Com:  0.289D-03-0.550D-03-0.902D-02 0.182D-02 0.375D-01 0.300D+00
 Coeff-Com:  0.670D+00
 Coeff:      0.289D-03-0.550D-03-0.902D-02 0.182D-02 0.375D-01 0.300D+00
 Coeff:      0.670D+00
 Gap=     0.279 Goal=   None    Shift=    0.000
 RMSDP=1.77D-06 MaxDP=1.10D-04 DE=-1.01D-06 OVMax= 7.68D-05

 Cycle   8  Pass 1  IDiag  1:
 RMSU=  8.68D-07    CP:  4.73D-01  2.05D+00  1.59D+00  1.21D+00  9.07D-01
                    CP:  9.80D-01  1.01D+00
 E= -3265.92121765913     Delta-E=       -0.000000097161 Rises=F Damp=F
 DIIS: error= 2.75D-06 at cycle   8 NSaved=   8.
 NSaved= 8 IEnMin= 8 EnMin= -3265.92121765913     IErMin= 8 ErrMin= 2.75D-06
 ErrMax= 2.75D-06  0.00D+00 EMaxC= 1.00D-01 BMatC= 1.13D-08 BMatP= 9.90D-08
 IDIUse=1 WtCom= 1.00D+00 WtEn= 0.00D+00
 Coeff-Com: -0.501D-03 0.100D-02-0.139D-02-0.119D-01-0.161D-01 0.339D-01
 Coeff-Com:  0.280D+00 0.715D+00
 Coeff:     -0.501D-03 0.100D-02-0.139D-02-0.119D-01-0.161D-01 0.339D-01
 Coeff:      0.280D+00 0.715D+00
 Gap=     0.279 Goal=   None    Shift=    0.000
 RMSDP=4.17D-07 MaxDP=1.93D-05 DE=-9.72D-08 OVMax= 2.75D-05

 Cycle   9  Pass 1  IDiag  1:
 RMSU=  2.59D-07    CP:  4.73D-01  2.05D+00  1.59D+00  1.22D+00  9.10D-01
                    CP:  1.00D+00  1.06D+00  9.44D-01
 E= -3265.92121766971     Delta-E=       -0.000000010585 Rises=F Damp=F
 DIIS: error= 8.85D-07 at cycle   9 NSaved=   9.
 NSaved= 9 IEnMin= 9 EnMin= -3265.92121766971     IErMin= 9 ErrMin= 8.85D-07
 ErrMax= 8.85D-07  0.00D+00 EMaxC= 1.00D-01 BMatC= 1.07D-09 BMatP= 1.13D-08
 IDIUse=1 WtCom= 1.00D+00 WtEn= 0.00D+00
 Coeff-Com: -0.221D-03 0.440D-03 0.103D-03-0.507D-02-0.974D-02-0.666D-02
 Coeff-Com:  0.756D-01 0.310D+00 0.635D+00
 Coeff:     -0.221D-03 0.440D-03 0.103D-03-0.507D-02-0.974D-02-0.666D-02
 Coeff:      0.756D-01 0.310D+00 0.635D+00
 Gap=     0.279 Goal=   None    Shift=    0.000
 RMSDP=9.97D-08 MaxDP=4.66D-06 DE=-1.06D-08 OVMax= 1.13D-05

 Cycle  10  Pass 1  IDiag  1:
 RMSU=  7.55D-08    CP:  4.73D-01  2.05D+00  1.59D+00  1.22D+00  9.11D-01
                    CP:  1.00D+00  1.07D+00  9.85D-01  1.00D+00
 E= -3265.92121767079     Delta-E=       -0.000000001079 Rises=F Damp=F
 DIIS: error= 2.65D-07 at cycle  10 NSaved=  10.
 NSaved=10 IEnMin=10 EnMin= -3265.92121767079     IErMin=10 ErrMin= 2.65D-07
 ErrMax= 2.65D-07  0.00D+00 EMaxC= 1.00D-01 BMatC= 8.14D-11 BMatP= 1.07D-09
 IDIUse=1 WtCom= 1.00D+00 WtEn= 0.00D+00
 Coeff-Com:  0.529D-05-0.111D-04 0.182D-03 0.435D-03-0.325D-03-0.689D-02
 Coeff-Com: -0.187D-01-0.273D-01 0.172D+00 0.880D+00
 Coeff:      0.529D-05-0.111D-04 0.182D-03 0.435D-03-0.325D-03-0.689D-02
 Coeff:     -0.187D-01-0.273D-01 0.172D+00 0.880D+00
 Gap=     0.279 Goal=   None    Shift=    0.000
 RMSDP=4.43D-08 MaxDP=2.00D-06 DE=-1.08D-09 OVMax= 4.09D-06

 Cycle  11  Pass 1  IDiag  1:
 RMSU=  2.83D-08    CP:  4.73D-01  2.05D+00  1.59D+00  1.22D+00  9.11D-01
                    CP:  1.00D+00  1.08D+00  9.99D-01  1.09D+00  1.16D+00
 E= -3265.92121767100     Delta-E=       -0.000000000206 Rises=F Damp=F
 DIIS: error= 1.09D-07 at cycle  11 NSaved=  11.
 NSaved=11 IEnMin=11 EnMin= -3265.92121767100     IErMin=11 ErrMin= 1.09D-07
 ErrMax= 1.09D-07  0.00D+00 EMaxC= 1.00D-01 BMatC= 1.10D-11 BMatP= 8.14D-11
 IDIUse=1 WtCom= 1.00D+00 WtEn= 0.00D+00
 Coeff-Com:  0.152D-04-0.306D-04 0.613D-04 0.541D-03 0.572D-03-0.233D-02
 Coeff-Com: -0.134D-01-0.366D-01 0.281D-01 0.364D+00 0.659D+00
 Coeff:      0.152D-04-0.306D-04 0.613D-04 0.541D-03 0.572D-03-0.233D-02
 Coeff:     -0.134D-01-0.366D-01 0.281D-01 0.364D+00 0.659D+00
 Gap=     0.279 Goal=   None    Shift=    0.000
 RMSDP=1.14D-08 MaxDP=4.28D-07 DE=-2.06D-10 OVMax= 1.91D-06

 Cycle  12  Pass 1  IDiag  1:
 RMSU=  7.53D-09    CP:  4.73D-01  2.05D+00  1.59D+00  1.22D+00  9.11D-01
                    CP:  1.00D+00  1.08D+00  1.00D+00  1.11D+00  1.21D+00
                    CP:  1.08D+00
 E= -3265.92121767103     Delta-E=       -0.000000000030 Rises=F Damp=F
 DIIS: error= 6.60D-08 at cycle  12 NSaved=  12.
 NSaved=12 IEnMin=12 EnMin= -3265.92121767103     IErMin=12 ErrMin= 6.60D-08
 ErrMax= 6.60D-08  0.00D+00 EMaxC= 1.00D-01 BMatC= 1.46D-12 BMatP= 1.10D-11
 IDIUse=1 WtCom= 1.00D+00 WtEn= 0.00D+00
 Coeff-Com:  0.592D-05-0.118D-04-0.514D-05 0.148D-03 0.300D-03 0.303D-03
 Coeff-Com: -0.194D-02-0.107D-01-0.164D-01-0.146D-01 0.238D+00 0.804D+00
 Coeff:      0.592D-05-0.118D-04-0.514D-05 0.148D-03 0.300D-03 0.303D-03
 Coeff:     -0.194D-02-0.107D-01-0.164D-01-0.146D-01 0.238D+00 0.804D+00
 Gap=     0.279 Goal=   None    Shift=    0.000
 RMSDP=5.91D-09 MaxDP=3.07D-07 DE=-3.00D-11 OVMax= 9.09D-07

 Error on total polarization charges =  0.02761
 SCF Done:  E(RM062X) =  -3265.92121767     A.U. after   12 cycles
            NFock= 12  Conv=0.59D-08     -V/T= 2.0022
 KE= 3.258910368723D+03 PE=-1.094845145748D+04 EE= 2.831445268599D+03
 SMD-CDS (non-electrostatic) energy       (kcal/mol) =      -2.41
 (included in total energy above)
 Leave Link  502 at Tue Sep 17 10:42:43 2024, MaxMem=  1342177280 cpu:            2230.4 elap:            2237.2
 (Enter /groups/ReismanLab/Software/Gaussian16_RevC/Linux_Binary_AVX2-enabled-CPU/g16/l508.exe)
 QCSCF skips out because SCF is already converged.
 Leave Link  508 at Tue Sep 17 10:42:43 2024, MaxMem=  1342177280 cpu:               0.0 elap:               0.0
 (Enter /groups/ReismanLab/Software/Gaussian16_RevC/Linux_Binary_AVX2-enabled-CPU/g16/l801.exe)
 DoSCS=F DFT=T ScalE2(SS,OS)=  1.000000  1.000000
 Range of M.O.s used for correlation:     1   622
 NBasis=   622 NAE=    74 NBE=    74 NFC=     0 NFV=     0
 NROrb=    622 NOA=    74 NOB=    74 NVA=   548 NVB=   548

 **** Warning!!: The largest alpha MO coefficient is  0.56444857D+02

 Leave Link  801 at Tue Sep 17 10:42:43 2024, MaxMem=  1342177280 cpu:               0.0 elap:               0.0
 (Enter /groups/ReismanLab/Software/Gaussian16_RevC/Linux_Binary_AVX2-enabled-CPU/g16/l1002.exe)
 Minotr:  Closed shell wavefunction.
 NEqPCM:  Using equilibrium solvation (IEInf=0, Eps=   2.2099, EpsInf=   2.0232)
          Direct CPHF calculation.
          Differentiating once with respect to electric field.
                with respect to dipole field.
          Electric field/nuclear overlap derivatives assumed to be zero.
          Requested convergence is 1.0D-08 RMS, and 1.0D-07 maximum.
          Secondary convergence is 1.0D-12 RMS, and 1.0D-12 maximum.
          NewPWx=F KeepS1=T KeepF1=T KeepIn=T MapXYZ=F SortEE=F KeepMc=T.
         9039 words used for storage of precomputed grid.
 Two-electron integral symmetry used by symmetrizing perturbed Fock matrices.
          MDV=    1342177280 using IRadAn=       1.
          Solving linear equations simultaneously, MaxMat=     384.
          There are     3 degrees of freedom in the 1st order CPHF.  IDoFFX=0 NUNeed=     3.
      3 vectors produced by pass  0 Test12= 1.35D-12 3.33D-08 XBig12= 1.43D+02 5.43D+00.
 AX will form     3 AO Fock derivatives at one time.
 FoFJK:  IHMeth= 1 ICntrl=       0 DoSepK=F KAlg= 0 I1Cent=           0 FoldK=F
 IRaf= 850000000 NMat=       3 IRICut=       1 DoRegI=T DoRafI=F ISym2E=-1 IDoP0=0 IntGTp=1.
 FoFCou: FMM=F IPFlag=           0 FMFlag=      100000 FMFlg1=           0
         NFxFlg=           0 DoJE=F BraDBF=F KetDBF=F FulRan=T
         wScrn=  0.000000 ICntrl=         0 IOpCl=  0 I1Cent=           0 NGrid=           0
         NMat0=    3 NMatS0=      3 NMatT0=    0 NMatD0=    3 NMtDS0=    0 NMtDT0=    0
 Petite list used in FoFCou.
      3 vectors produced by pass  1 Test12= 1.35D-12 3.33D-08 XBig12= 2.54D+01 7.55D-01.
      3 vectors produced by pass  2 Test12= 1.35D-12 3.33D-08 XBig12= 5.04D+00 4.86D-01.
      3 vectors produced by pass  3 Test12= 1.35D-12 3.33D-08 XBig12= 7.72D-01 2.28D-01.
      3 vectors produced by pass  4 Test12= 1.35D-12 3.33D-08 XBig12= 1.63D-01 1.18D-01.
      3 vectors produced by pass  5 Test12= 1.35D-12 3.33D-08 XBig12= 4.12D-02 4.99D-02.
      3 vectors produced by pass  6 Test12= 1.35D-12 3.33D-08 XBig12= 1.35D-02 3.51D-02.
      3 vectors produced by pass  7 Test12= 1.35D-12 3.33D-08 XBig12= 2.20D-03 1.04D-02.
      3 vectors produced by pass  8 Test12= 1.35D-12 3.33D-08 XBig12= 3.73D-04 4.58D-03.
      3 vectors produced by pass  9 Test12= 1.35D-12 3.33D-08 XBig12= 1.02D-04 2.00D-03.
      3 vectors produced by pass 10 Test12= 1.35D-12 3.33D-08 XBig12= 8.93D-06 4.70D-04.
      3 vectors produced by pass 11 Test12= 1.35D-12 3.33D-08 XBig12= 9.11D-07 1.81D-04.
      3 vectors produced by pass 12 Test12= 1.35D-12 3.33D-08 XBig12= 2.18D-07 9.01D-05.
      3 vectors produced by pass 13 Test12= 1.35D-12 3.33D-08 XBig12= 2.61D-08 2.67D-05.
      3 vectors produced by pass 14 Test12= 1.35D-12 3.33D-08 XBig12= 1.52D-09 6.58D-06.
      3 vectors produced by pass 15 Test12= 1.35D-12 3.33D-08 XBig12= 1.47D-10 1.65D-06.
