 Entering Gaussian System, Link 0=g16
 Input=smiles_00105_conf_8.gjf
 Output=smiles_00105_conf_8.log
 Initial command:
 /groups/ReismanLab/Software/Gaussian16_RevC/Linux_Binary_AVX2-enabled-CPU/g16/l1.exe "/central/groups/ReismanLab/DM/dft_final/smiles_00105/Gau-3834592.inp" -scrdir="/central/groups/ReismanLab/DM/dft_final/smiles_00105/"
 Entering Link 1 = /groups/ReismanLab/Software/Gaussian16_RevC/Linux_Binary_AVX2-enabled-CPU/g16/l1.exe PID=   3834597.
  
 Copyright (c) 1988-2021, Gaussian, Inc.  All Rights Reserved.
  
 This is part of the Gaussian(R) 16 program.  It is based on
 the Gaussian(R) 09 system (copyright 2009, Gaussian, Inc.),
 the Gaussian(R) 03 system (copyright 2003, Gaussian, Inc.),
 the Gaussian(R) 98 system (copyright 1998, Gaussian, Inc.),
 the Gaussian(R) 94 system (copyright 1995, Gaussian, Inc.),
 the Gaussian 92(TM) system (copyright 1992, Gaussian, Inc.),
 the Gaussian 90(TM) system (copyright 1990, Gaussian, Inc.),
 the Gaussian 88(TM) system (copyright 1988, Gaussian, Inc.),
 the Gaussian 86(TM) system (copyright 1986, Carnegie Mellon
 University), and the Gaussian 82(TM) system (copyright 1983,
 Carnegie Mellon University). Gaussian is a federally registered
 trademark of Gaussian, Inc.
  
 This software contains proprietary and confidential information,
 including trade secrets, belonging to Gaussian, Inc.
  
 This software is provided under written license and may be
 used, copied, transmitted, or stored only in accord with that
 written license.
  
 The following legend is applicable only to US Government
 contracts under FAR:
  
                    RESTRICTED RIGHTS LEGEND
  
 Use, reproduction and disclosure by the US Government is
 subject to restrictions as set forth in subparagraphs (a)
 and (c) of the Commercial Computer Software - Restricted
 Rights clause in FAR 52.227-19.
  
 Gaussian, Inc.
 340 Quinnipiac St., Bldg. 40, Wallingford CT 06492
  
  
 ---------------------------------------------------------------
 Warning -- This program may not be used in any manner that
 competes with the business of Gaussian, Inc. or will provide
 assistance to any competitor of Gaussian, Inc.  The licensee
 of this program is prohibited from giving any competitor of
 Gaussian, Inc. access to this program.  By using this program,
 the user acknowledges that Gaussian, Inc. is engaged in the
 business of creating and licensing software in the field of
 computational chemistry and represents and warrants to the
 licensee that it is not a competitor of Gaussian, Inc. and that
 it will not use this program in any manner prohibited above.
 ---------------------------------------------------------------
  

 Cite this work as:
 Gaussian 16, Revision C.02,
 M. J. Frisch, G. W. Trucks, H. B. Schlegel, G. E. Scuseria, 
 M. A. Robb, J. R. Cheeseman, G. Scalmani, V. Barone, 
 G. A. Petersson, H. Nakatsuji, X. Li, M. Caricato, A. V. Marenich, 
 J. Bloino, B. G. Janesko, R. Gomperts, B. Mennucci, H. P. Hratchian, 
 J. V. Ortiz, A. F. Izmaylov, J. L. Sonnenberg, D. Williams-Young, 
 F. Ding, F. Lipparini, F. Egidi, J. Goings, B. Peng, A. Petrone, 
 T. Henderson, D. Ranasinghe, V. G. Zakrzewski, J. Gao, N. Rega, 
 G. Zheng, W. Liang, M. Hada, M. Ehara, K. Toyota, R. Fukuda, 
 J. Hasegawa, M. Ishida, T. Nakajima, Y. Honda, O. Kitao, H. Nakai, 
 T. Vreven, K. Throssell, J. A. Montgomery, Jr., J. E. Peralta, 
 F. Ogliaro, M. J. Bearpark, J. J. Heyd, E. N. Brothers, K. N. Kudin, 
 V. N. Staroverov, T. A. Keith, R. Kobayashi, J. Normand, 
 K. Raghavachari, A. P. Rendell, J. C. Burant, S. S. Iyengar, 
 J. Tomasi, M. Cossi, J. M. Millam, M. Klene, C. Adamo, R. Cammi, 
 J. W. Ochterski, R. L. Martin, K. Morokuma, O. Farkas, 
 J. B. Foresman, and D. J. Fox, Gaussian, Inc., Wallingford CT, 2019.
 
 ******************************************
 Gaussian 16:  ES64L-G16RevC.02  7-Dec-2021
                17-Sep-2024 
 ******************************************
 %nprocshared=8
 Will use up to    8 processors via shared memory.
 %Mem=10GB
 %Chk=smiles_00105_conf_8.chk
 ----------------------------------------------------------------------
 #p B3LYP/6-31G(d,p) EmpiricalDispersion=GD3BJ opt freq scf(xqc,tight) 
 integral(grid=ultrafine)
 ----------------------------------------------------------------------
 1/18=20,19=15,26=4,38=1/1,3;
 2/9=110,12=2,17=6,18=5,40=1/2;
 3/5=1,6=6,7=101,11=2,25=1,30=1,71=1,74=-5,75=-5,124=41/1,2,3;
 4//1;
 5/5=2,8=3,13=1,32=2,38=5/2,8;
 6/7=2,8=2,9=2,10=2,28=1/1;
 7//1,2,3,16;
 1/18=20,19=15,26=4/3(2);
 2/9=110/2;
 99//99;
 2/9=110/2;
 3/5=1,6=6,7=101,11=2,25=1,30=1,71=1,74=-5,75=-5,124=41/1,2,3;
 4/5=5,16=3,69=1/1;
 5/5=2,8=3,13=1,32=2,38=5/2,8;
 7//1,2,3,16;
 1/18=20,19=15,26=4/3(-5);
 2/9=110/2;
 6/7=2,8=2,9=2,10=2,19=2,28=1/1;
 99/9=1/99;
 Leave Link    1 at Tue Sep 17 09:47:08 2024, MaxMem=  1342177280 cpu:               0.1 elap:               0.7
 (Enter /groups/ReismanLab/Software/Gaussian16_RevC/Linux_Binary_AVX2-enabled-CPU/g16/l101.exe)
 ----------------------------------
 opt-freq conformers_unique/conf_ai
 ----------------------------------
 Symbolic Z-matrix:
 Charge =  0 Multiplicity = 1
 C                    -4.20665   1.01973   1.03221 
 C                    -3.66199   0.29548  -0.2007 
 C                    -4.06626   1.02495  -1.48345 
 C                    -2.1627    0.15059  -0.11546 
 C                    -1.33511   1.26125  -0.07908 
 C                     0.04615   1.15106   0.00017 
 C                     0.87471   2.41313   0.02986 
 C                     0.50631   3.27949   1.2363 
 C                     0.70944   3.192    -1.2773 
 C                     0.59028  -0.13139   0.04093 
 Br                    2.50064  -0.32611   0.1388 
 C                    -0.20117  -1.27679   0.009 
 C                     0.35369  -2.68032   0.05133 
 C                    -0.16355  -3.43116   1.2804 
 C                     0.01139  -3.43274  -1.23669 
 C                    -1.57745  -1.10307  -0.06972 
 H                    -3.91407   0.4959    1.93974 
 H                    -5.29276   1.06434   0.99256 
 H                    -3.82405   2.036     1.08494 
 H                    -4.10025  -0.70853  -0.22726 
 H                    -5.15002   1.05938  -1.57002 
 H                    -3.66516   0.51084  -2.35431 
 H                    -3.69077   2.04523  -1.4847 
 H                    -1.77105   2.24711  -0.11407 
 H                     1.93127   2.15184   0.12599 
 H                    -0.51776   3.63841   1.1684 
 H                     0.61041   2.71062   2.15792 
 H                     1.16706   4.14185   1.28745 
 H                    -0.31832   3.52108  -1.41146 
 H                     0.98393   2.56996  -2.12676 
 H                     1.35249   4.06907  -1.2707 
 H                     1.44289  -2.63804   0.12782 
 H                    -1.24182  -3.56387   1.23718 
 H                     0.07912  -2.88408   2.18908 
 H                     0.30003  -4.41344   1.33575 
 H                     0.46694  -4.42019  -1.22131 
 H                     0.38839  -2.89295  -2.10295 
 H                    -1.06357  -3.55266  -1.34828 
 H                    -2.21091  -1.97714  -0.09715 
 
 ITRead=  0  0  0  0  0  0  0  0  0  0  0  0  0  0  0  0  0  0  0  0
 ITRead=  0  0  0  0  0  0  0  0  0  0  0  0  0  0  0  0  0  0  0
 MicOpt= -1 -1 -1 -1 -1 -1 -1 -1 -1 -1 -1 -1 -1 -1 -1 -1 -1 -1 -1 -1
 MicOpt= -1 -1 -1 -1 -1 -1 -1 -1 -1 -1 -1 -1 -1 -1 -1 -1 -1 -1 -1
 NAtoms=     39 NQM=       39 NQMF=       0 NMMI=      0 NMMIF=      0
                NMic=       0 NMicF=      0.
                    Isotopes and Nuclear Properties:
 (Nuclear quadrupole moments (NQMom) in fm**2, nuclear magnetic moments (NMagM)
  in nuclear magnetons)

  Atom         1           2           3           4           5           6           7           8           9          10
 IAtWgt=          12          12          12          12          12          12          12          12          12          12
 AtmWgt=  12.0000000  12.0000000  12.0000000  12.0000000  12.0000000  12.0000000  12.0000000  12.0000000  12.0000000  12.0000000
 NucSpn=           0           0           0           0           0           0           0           0           0           0
 AtZEff=  -0.0000000  -0.0000000  -0.0000000  -0.0000000  -0.0000000  -0.0000000  -0.0000000  -0.0000000  -0.0000000  -0.0000000
 NQMom=    0.0000000   0.0000000   0.0000000   0.0000000   0.0000000   0.0000000   0.0000000   0.0000000   0.0000000   0.0000000
 NMagM=    0.0000000   0.0000000   0.0000000   0.0000000   0.0000000   0.0000000   0.0000000   0.0000000   0.0000000   0.0000000
 AtZNuc=   6.0000000   6.0000000   6.0000000   6.0000000   6.0000000   6.0000000   6.0000000   6.0000000   6.0000000   6.0000000

  Atom        11          12          13          14          15          16          17          18          19          20
 IAtWgt=          79          12          12          12          12          12           1           1           1           1
 AtmWgt=  78.9183361  12.0000000  12.0000000  12.0000000  12.0000000  12.0000000   1.0078250   1.0078250   1.0078250   1.0078250
 NucSpn=           3           0           0           0           0           0           1           1           1           1
 AtZEff=  -0.0000000  -0.0000000  -0.0000000  -0.0000000  -0.0000000  -0.0000000  -0.0000000  -0.0000000  -0.0000000  -0.0000000
 NQMom=   31.3000000   0.0000000   0.0000000   0.0000000   0.0000000   0.0000000   0.0000000   0.0000000   0.0000000   0.0000000
 NMagM=    2.1063990   0.0000000   0.0000000   0.0000000   0.0000000   0.0000000   2.7928460   2.7928460   2.7928460   2.7928460
 AtZNuc=  35.0000000   6.0000000   6.0000000   6.0000000   6.0000000   6.0000000   1.0000000   1.0000000   1.0000000   1.0000000

  Atom        21          22          23          24          25          26          27          28          29          30
 IAtWgt=           1           1           1           1           1           1           1           1           1           1
 AtmWgt=   1.0078250   1.0078250   1.0078250   1.0078250   1.0078250   1.0078250   1.0078250   1.0078250   1.0078250   1.0078250
 NucSpn=           1           1           1           1           1           1           1           1           1           1
 AtZEff=  -0.0000000  -0.0000000  -0.0000000  -0.0000000  -0.0000000  -0.0000000  -0.0000000  -0.0000000  -0.0000000  -0.0000000
 NQMom=    0.0000000   0.0000000   0.0000000   0.0000000   0.0000000   0.0000000   0.0000000   0.0000000   0.0000000   0.0000000
 NMagM=    2.7928460   2.7928460   2.7928460   2.7928460   2.7928460   2.7928460   2.7928460   2.7928460   2.7928460   2.7928460
 AtZNuc=   1.0000000   1.0000000   1.0000000   1.0000000   1.0000000   1.0000000   1.0000000   1.0000000   1.0000000   1.0000000

  Atom        31          32          33          34          35          36          37          38          39
 IAtWgt=           1           1           1           1           1           1           1           1           1
 AtmWgt=   1.0078250   1.0078250   1.0078250   1.0078250   1.0078250   1.0078250   1.0078250   1.0078250   1.0078250
 NucSpn=           1           1           1           1           1           1           1           1           1
 AtZEff=  -0.0000000  -0.0000000  -0.0000000  -0.0000000  -0.0000000  -0.0000000  -0.0000000  -0.0000000  -0.0000000
 NQMom=    0.0000000   0.0000000   0.0000000   0.0000000   0.0000000   0.0000000   0.0000000   0.0000000   0.0000000
 NMagM=    2.7928460   2.7928460   2.7928460   2.7928460   2.7928460   2.7928460   2.7928460   2.7928460   2.7928460
 AtZNuc=   1.0000000   1.0000000   1.0000000   1.0000000   1.0000000   1.0000000   1.0000000   1.0000000   1.0000000
 Leave Link  101 at Tue Sep 17 09:47:08 2024, MaxMem=  1342177280 cpu:               0.2 elap:               0.3
 (Enter /groups/ReismanLab/Software/Gaussian16_RevC/Linux_Binary_AVX2-enabled-CPU/g16/l103.exe)

 GradGradGradGradGradGradGradGradGradGradGradGradGradGradGradGradGradGrad
 Berny optimization.
 Initialization pass.
                           ----------------------------
                           !    Initial Parameters    !
                           ! (Angstroms and Degrees)  !
 --------------------------                            --------------------------
 ! Name  Definition              Value          Derivative Info.                !
 --------------------------------------------------------------------------------
 ! R1    R(1,2)                  1.5301         estimate D2E/DX2                !
 ! R2    R(1,17)                 1.0879         estimate D2E/DX2                !
 ! R3    R(1,18)                 1.0877         estimate D2E/DX2                !
 ! R4    R(1,19)                 1.0872         estimate D2E/DX2                !
 ! R5    R(2,3)                  1.53           estimate D2E/DX2                !
 ! R6    R(2,4)                  1.5087         estimate D2E/DX2                !
 ! R7    R(2,20)                 1.0958         estimate D2E/DX2                !
 ! R8    R(3,21)                 1.0878         estimate D2E/DX2                !
 ! R9    R(3,22)                 1.0879         estimate D2E/DX2                !
 ! R10   R(3,23)                 1.0872         estimate D2E/DX2                !
 ! R11   R(4,5)                  1.3856         estimate D2E/DX2                !
 ! R12   R(4,16)                 1.3843         estimate D2E/DX2                !
 ! R13   R(5,6)                  1.3879         estimate D2E/DX2                !
 ! R14   R(5,24)                 1.0785         estimate D2E/DX2                !
 ! R15   R(6,7)                  1.51           estimate D2E/DX2                !
 ! R16   R(6,10)                 1.3937         estimate D2E/DX2                !
 ! R17   R(7,8)                  1.5303         estimate D2E/DX2                !
 ! R18   R(7,9)                  1.5306         estimate D2E/DX2                !
 ! R19   R(7,25)                 1.0926         estimate D2E/DX2                !
 ! R20   R(8,26)                 1.0873         estimate D2E/DX2                !
 ! R21   R(8,27)                 1.088          estimate D2E/DX2                !
 ! R22   R(8,28)                 1.0876         estimate D2E/DX2                !
 ! R23   R(9,29)                 1.0875         estimate D2E/DX2                !
 ! R24   R(9,30)                 1.0881         estimate D2E/DX2                !
 ! R25   R(9,31)                 1.0876         estimate D2E/DX2                !
 ! R26   R(10,11)                1.9228         estimate D2E/DX2                !
 ! R27   R(10,12)                1.3926         estimate D2E/DX2                !
 ! R28   R(12,13)                1.5098         estimate D2E/DX2                !
 ! R29   R(12,16)                1.3894         estimate D2E/DX2                !
 ! R30   R(13,14)                1.5303         estimate D2E/DX2                !
 ! R31   R(13,15)                1.5305         estimate D2E/DX2                !
 ! R32   R(13,32)                1.0927         estimate D2E/DX2                !
 ! R33   R(14,33)                1.0873         estimate D2E/DX2                !
 ! R34   R(14,34)                1.0881         estimate D2E/DX2                !
 ! R35   R(14,35)                1.0876         estimate D2E/DX2                !
 ! R36   R(15,36)                1.0876         estimate D2E/DX2                !
 ! R37   R(15,37)                1.0881         estimate D2E/DX2                !
 ! R38   R(15,38)                1.0874         estimate D2E/DX2                !
 ! R39   R(16,39)                1.0798         estimate D2E/DX2                !
 ! A1    A(2,1,17)             110.396          estimate D2E/DX2                !
 ! A2    A(2,1,18)             110.2103         estimate D2E/DX2                !
 ! A3    A(2,1,19)             110.8715         estimate D2E/DX2                !
 ! A4    A(17,1,18)            108.5828         estimate D2E/DX2                !
 ! A5    A(17,1,19)            108.3595         estimate D2E/DX2                !
 ! A6    A(18,1,19)            108.3503         estimate D2E/DX2                !
 ! A7    A(1,2,3)              110.8432         estimate D2E/DX2                !
 ! A8    A(1,2,4)              110.7121         estimate D2E/DX2                !
 ! A9    A(1,2,20)             108.1103         estimate D2E/DX2                !
 ! A10   A(3,2,4)              110.8383         estimate D2E/DX2                !
 ! A11   A(3,2,20)             108.1093         estimate D2E/DX2                !
 ! A12   A(4,2,20)             108.109          estimate D2E/DX2                !
 ! A13   A(2,3,21)             110.1859         estimate D2E/DX2                !
 ! A14   A(2,3,22)             110.3888         estimate D2E/DX2                !
 ! A15   A(2,3,23)             110.9243         estimate D2E/DX2                !
 ! A16   A(21,3,22)            108.5769         estimate D2E/DX2                !
 ! A17   A(21,3,23)            108.319          estimate D2E/DX2                !
 ! A18   A(22,3,23)            108.3747         estimate D2E/DX2                !
 ! A19   A(2,4,5)              121.2038         estimate D2E/DX2                !
 ! A20   A(2,4,16)             120.5962         estimate D2E/DX2                !
 ! A21   A(5,4,16)             118.2            estimate D2E/DX2                !
 ! A22   A(4,5,6)              122.1608         estimate D2E/DX2                !
 ! A23   A(4,5,24)             119.3695         estimate D2E/DX2                !
 ! A24   A(6,5,24)             118.4696         estimate D2E/DX2                !
 ! A25   A(5,6,7)              118.7406         estimate D2E/DX2                !
 ! A26   A(5,6,10)             117.5983         estimate D2E/DX2                !
 ! A27   A(7,6,10)             123.6602         estimate D2E/DX2                !
 ! A28   A(6,7,8)              110.8899         estimate D2E/DX2                !
 ! A29   A(6,7,9)              110.4426         estimate D2E/DX2                !
 ! A30   A(6,7,25)             109.4179         estimate D2E/DX2                !
 ! A31   A(8,7,9)              111.0517         estimate D2E/DX2                !
 ! A32   A(8,7,25)             107.3865         estimate D2E/DX2                !
 ! A33   A(9,7,25)             107.5329         estimate D2E/DX2                !
 ! A34   A(7,8,26)             111.3704         estimate D2E/DX2                !
 ! A35   A(7,8,27)             110.411          estimate D2E/DX2                !
 ! A36   A(7,8,28)             109.8592         estimate D2E/DX2                !
 ! A37   A(26,8,27)            108.3981         estimate D2E/DX2                !
 ! A38   A(26,8,28)            108.265          estimate D2E/DX2                !
 ! A39   A(27,8,28)            108.4571         estimate D2E/DX2                !
 ! A40   A(7,9,29)             111.1868         estimate D2E/DX2                !
 ! A41   A(7,9,30)             110.4013         estimate D2E/DX2                !
 ! A42   A(7,9,31)             109.9591         estimate D2E/DX2                !
 ! A43   A(29,9,30)            108.3678         estimate D2E/DX2                !
 ! A44   A(29,9,31)            108.3923         estimate D2E/DX2                !
 ! A45   A(30,9,31)            108.4583         estimate D2E/DX2                !
 ! A46   A(6,10,11)            118.8537         estimate D2E/DX2                !
 ! A47   A(6,10,12)            122.2948         estimate D2E/DX2                !
 ! A48   A(11,10,12)           118.8511         estimate D2E/DX2                !
 ! A49   A(10,12,13)           123.7164         estimate D2E/DX2                !
 ! A50   A(10,12,16)           117.4782         estimate D2E/DX2                !
 ! A51   A(13,12,16)           118.8053         estimate D2E/DX2                !
 ! A52   A(12,13,14)           110.7571         estimate D2E/DX2                !
 ! A53   A(12,13,15)           110.5623         estimate D2E/DX2                !
 ! A54   A(12,13,32)           109.4093         estimate D2E/DX2                !
 ! A55   A(14,13,15)           111.0451         estimate D2E/DX2                !
 ! A56   A(14,13,32)           107.4381         estimate D2E/DX2                !
 ! A57   A(15,13,32)           107.5106         estimate D2E/DX2                !
 ! A58   A(13,14,33)           111.2941         estimate D2E/DX2                !
 ! A59   A(13,14,34)           110.405          estimate D2E/DX2                !
 ! A60   A(13,14,35)           109.8736         estimate D2E/DX2                !
 ! A61   A(33,14,34)           108.406          estimate D2E/DX2                !
 ! A62   A(33,14,35)           108.3308         estimate D2E/DX2                !
 ! A63   A(34,14,35)           108.4543         estimate D2E/DX2                !
 ! A64   A(13,15,36)           109.9247         estimate D2E/DX2                !
 ! A65   A(13,15,37)           110.4032         estimate D2E/DX2                !
 ! A66   A(13,15,38)           111.2044         estimate D2E/DX2                !
 ! A67   A(36,15,37)           108.4548         estimate D2E/DX2                !
 ! A68   A(36,15,38)           108.3854         estimate D2E/DX2                !
 ! A69   A(37,15,38)           108.3935         estimate D2E/DX2                !
 ! A70   A(4,16,12)            122.2676         estimate D2E/DX2                !
 ! A71   A(4,16,39)            118.9609         estimate D2E/DX2                !
 ! A72   A(12,16,39)           118.7715         estimate D2E/DX2                !
 ! D1    D(17,1,2,3)          -179.9294         estimate D2E/DX2                !
 ! D2    D(17,1,2,4)           -56.5007         estimate D2E/DX2                !
 ! D3    D(17,1,2,20)           61.747          estimate D2E/DX2                !
 ! D4    D(18,1,2,3)            60.1251         estimate D2E/DX2                !
 ! D5    D(18,1,2,4)          -176.4461         estimate D2E/DX2                !
 ! D6    D(18,1,2,20)          -58.1984         estimate D2E/DX2                !
 ! D7    D(19,1,2,3)           -59.8356         estimate D2E/DX2                !
 ! D8    D(19,1,2,4)            63.5931         estimate D2E/DX2                !
 ! D9    D(19,1,2,20)         -178.1592         estimate D2E/DX2                !
 ! D10   D(1,2,3,21)           -60.7732         estimate D2E/DX2                !
 ! D11   D(1,2,3,22)           179.309          estimate D2E/DX2                !
 ! D12   D(1,2,3,23)            59.1666         estimate D2E/DX2                !
 ! D13   D(4,2,3,21)           175.8706         estimate D2E/DX2                !
 ! D14   D(4,2,3,22)            55.9528         estimate D2E/DX2                !
 ! D15   D(4,2,3,23)           -64.1896         estimate D2E/DX2                !
 ! D16   D(20,2,3,21)           57.5509         estimate D2E/DX2                !
 ! D17   D(20,2,3,22)          -62.3669         estimate D2E/DX2                !
 ! D18   D(20,2,3,23)          177.4907         estimate D2E/DX2                !
 ! D19   D(1,2,4,5)            -62.3571         estimate D2E/DX2                !
 ! D20   D(1,2,4,16)           117.5598         estimate D2E/DX2                !
 ! D21   D(3,2,4,5)             61.0745         estimate D2E/DX2                !
 ! D22   D(3,2,4,16)          -119.0086         estimate D2E/DX2                !
 ! D23   D(20,2,4,5)           179.3944         estimate D2E/DX2                !
 ! D24   D(20,2,4,16)           -0.6887         estimate D2E/DX2                !
 ! D25   D(2,4,5,6)            179.9547         estimate D2E/DX2                !
 ! D26   D(2,4,5,24)            -0.106          estimate D2E/DX2                !
 ! D27   D(16,4,5,6)             0.0359         estimate D2E/DX2                !
 ! D28   D(16,4,5,24)          179.9751         estimate D2E/DX2                !
 ! D29   D(2,4,16,12)         -179.9979         estimate D2E/DX2                !
 ! D30   D(2,4,16,39)            0.07           estimate D2E/DX2                !
 ! D31   D(5,4,16,12)           -0.0785         estimate D2E/DX2                !
 ! D32   D(5,4,16,39)          179.9894         estimate D2E/DX2                !
 ! D33   D(4,5,6,7)            179.7703         estimate D2E/DX2                !
 ! D34   D(4,5,6,10)             0.0998         estimate D2E/DX2                !
 ! D35   D(24,5,6,7)            -0.1694         estimate D2E/DX2                !
 ! D36   D(24,5,6,10)         -179.84           estimate D2E/DX2                !
 ! D37   D(5,6,7,8)             59.888          estimate D2E/DX2                !
 ! D38   D(5,6,7,9)            -63.6566         estimate D2E/DX2                !
 ! D39   D(5,6,7,25)           178.1606         estimate D2E/DX2                !
 ! D40   D(10,6,7,8)          -120.4628         estimate D2E/DX2                !
 ! D41   D(10,6,7,9)           115.9927         estimate D2E/DX2                !
 ! D42   D(10,6,7,25)           -2.1901         estimate D2E/DX2                !
 ! D43   D(5,6,10,11)          179.5899         estimate D2E/DX2                !
 ! D44   D(5,6,10,12)           -0.2024         estimate D2E/DX2                !
 ! D45   D(7,6,10,11)           -0.0631         estimate D2E/DX2                !
 ! D46   D(7,6,10,12)         -179.8554         estimate D2E/DX2                !
 ! D47   D(6,7,8,26)           -64.6812         estimate D2E/DX2                !
 ! D48   D(6,7,8,27)            55.7986         estimate D2E/DX2                !
 ! D49   D(6,7,8,28)           175.3739         estimate D2E/DX2                !
 ! D50   D(9,7,8,26)            58.513          estimate D2E/DX2                !
 ! D51   D(9,7,8,27)           178.9928         estimate D2E/DX2                !
 ! D52   D(9,7,8,28)           -61.4319         estimate D2E/DX2                !
 ! D53   D(25,7,8,26)          175.8211         estimate D2E/DX2                !
 ! D54   D(25,7,8,27)          -63.6992         estimate D2E/DX2                !
 ! D55   D(25,7,8,28)           55.8762         estimate D2E/DX2                !
 ! D56   D(6,7,9,29)            63.1714         estimate D2E/DX2                !
 ! D57   D(6,7,9,30)           -57.1426         estimate D2E/DX2                !
 ! D58   D(6,7,9,31)          -176.7767         estimate D2E/DX2                !
 ! D59   D(8,7,9,29)           -60.2794         estimate D2E/DX2                !
 ! D60   D(8,7,9,30)           179.4066         estimate D2E/DX2                !
 ! D61   D(8,7,9,31)            59.7725         estimate D2E/DX2                !
 ! D62   D(25,7,9,29)         -177.4981         estimate D2E/DX2                !
 ! D63   D(25,7,9,30)           62.1879         estimate D2E/DX2                !
 ! D64   D(25,7,9,31)          -57.4461         estimate D2E/DX2                !
 ! D65   D(6,10,12,13)         179.9953         estimate D2E/DX2                !
 ! D66   D(6,10,12,16)           0.1627         estimate D2E/DX2                !
 ! D67   D(11,10,12,13)          0.203          estimate D2E/DX2                !
 ! D68   D(11,10,12,16)       -179.6296         estimate D2E/DX2                !
 ! D69   D(10,12,13,14)        119.2871         estimate D2E/DX2                !
 ! D70   D(10,12,13,15)       -117.1854         estimate D2E/DX2                !
 ! D71   D(10,12,13,32)          1.0366         estimate D2E/DX2                !
 ! D72   D(16,12,13,14)        -60.8824         estimate D2E/DX2                !
 ! D73   D(16,12,13,15)         62.6451         estimate D2E/DX2                !
 ! D74   D(16,12,13,32)       -179.1328         estimate D2E/DX2                !
 ! D75   D(10,12,16,4)          -0.0177         estimate D2E/DX2                !
 ! D76   D(10,12,16,39)        179.9145         estimate D2E/DX2                !
 ! D77   D(13,12,16,4)        -179.8588         estimate D2E/DX2                !
 ! D78   D(13,12,16,39)          0.0734         estimate D2E/DX2                !
 ! D79   D(12,13,14,33)         64.0813         estimate D2E/DX2                !
 ! D80   D(12,13,14,34)        -56.3539         estimate D2E/DX2                !
 ! D81   D(12,13,14,35)       -175.9311         estimate D2E/DX2                !
 ! D82   D(15,13,14,33)        -59.1679         estimate D2E/DX2                !
 ! D83   D(15,13,14,34)       -179.603          estimate D2E/DX2                !
 ! D84   D(15,13,14,35)         60.8198         estimate D2E/DX2                !
 ! D85   D(32,13,14,33)       -176.4761         estimate D2E/DX2                !
 ! D86   D(32,13,14,34)         63.0888         estimate D2E/DX2                !
 ! D87   D(32,13,14,35)        -56.4884         estimate D2E/DX2                !
 ! D88   D(12,13,15,36)        176.5574         estimate D2E/DX2                !
 ! D89   D(12,13,15,37)         56.9484         estimate D2E/DX2                !
 ! D90   D(12,13,15,38)        -63.4108         estimate D2E/DX2                !
 ! D91   D(14,13,15,36)        -60.0817         estimate D2E/DX2                !
 ! D92   D(14,13,15,37)       -179.6907         estimate D2E/DX2                !
 ! D93   D(14,13,15,38)         59.9502         estimate D2E/DX2                !
 ! D94   D(32,13,15,36)         57.1823         estimate D2E/DX2                !
 ! D95   D(32,13,15,37)        -62.4267         estimate D2E/DX2                !
 ! D96   D(32,13,15,38)        177.2141         estimate D2E/DX2                !
 --------------------------------------------------------------------------------
 Trust Radius=3.00D-01 FncErr=1.00D-07 GrdErr=1.00D-06 EigMax=2.50D+02 EigMin=1.00D-04
 Number of steps in this run=    217 maximum allowed number of steps=    234.
 GradGradGradGradGradGradGradGradGradGradGradGradGradGradGradGradGradGrad

 Leave Link  103 at Tue Sep 17 09:47:09 2024, MaxMem=  1342177280 cpu:               0.1 elap:               0.0
 (Enter /groups/ReismanLab/Software/Gaussian16_RevC/Linux_Binary_AVX2-enabled-CPU/g16/l202.exe)
                          Input orientation:                          
 ---------------------------------------------------------------------
 Center     Atomic      Atomic             Coordinates (Angstroms)
 Number     Number       Type             X           Y           Z
 ---------------------------------------------------------------------
      1          6           0       -4.206652    1.019735    1.032207
      2          6           0       -3.661990    0.295480   -0.200703
      3          6           0       -4.066257    1.024948   -1.483451
      4          6           0       -2.162702    0.150594   -0.115460
      5          6           0       -1.335106    1.261245   -0.079081
      6          6           0        0.046146    1.151059    0.000172
      7          6           0        0.874715    2.413130    0.029859
      8          6           0        0.506307    3.279490    1.236304
      9          6           0        0.709436    3.191999   -1.277303
     10          6           0        0.590276   -0.131395    0.040934
     11         35           0        2.500644   -0.326108    0.138799
     12          6           0       -0.201167   -1.276787    0.008997
     13          6           0        0.353695   -2.680320    0.051331
     14          6           0       -0.163547   -3.431162    1.280397
     15          6           0        0.011389   -3.432743   -1.236693
     16          6           0       -1.577450   -1.103073   -0.069721
     17          1           0       -3.914065    0.495900    1.939738
     18          1           0       -5.292757    1.064338    0.992564
     19          1           0       -3.824053    2.036003    1.084942
     20          1           0       -4.100245   -0.708529   -0.227265
     21          1           0       -5.150022    1.059382   -1.570023
     22          1           0       -3.665160    0.510838   -2.354307
     23          1           0       -3.690769    2.045232   -1.484697
     24          1           0       -1.771051    2.247111   -0.114071
     25          1           0        1.931270    2.151844    0.125992
     26          1           0       -0.517762    3.638406    1.168396
     27          1           0        0.610411    2.710622    2.157917
     28          1           0        1.167057    4.141848    1.287454
     29          1           0       -0.318322    3.521079   -1.411461
     30          1           0        0.983930    2.569958   -2.126764
     31          1           0        1.352493    4.069066   -1.270702
     32          1           0        1.442893   -2.638036    0.127822
     33          1           0       -1.241823   -3.563867    1.237175
     34          1           0        0.079122   -2.884081    2.189083
     35          1           0        0.300025   -4.413443    1.335751
     36          1           0        0.466936   -4.420191   -1.221313
     37          1           0        0.388395   -2.892946   -2.102949
     38          1           0       -1.063565   -3.552661   -1.348284
     39          1           0       -2.210909   -1.977137   -0.097155
 ---------------------------------------------------------------------
                    Distance matrix (angstroms):
                    1          2          3          4          5
     1  C    0.000000
     2  C    1.530120   0.000000
     3  C    2.519578   1.530031   0.000000
     4  C    2.500055   1.508682   2.501882   0.000000
     5  C    3.088538   2.522278   3.080142   1.385563   0.000000
     6  C    4.378200   3.810859   4.373659   2.427615   1.387905
     7  C    5.363445   5.011915   5.350734   3.790262   2.494396
     8  C    5.230692   5.323909   5.778267   4.329072   3.032219
     9  C    5.849828   5.353341   5.248414   4.341566   3.056746
    10  C    5.031723   4.280465   5.034300   2.771798   2.379274
    11  Br   6.899080   6.203201   6.897915   4.694539   4.156939
    12  C    4.729153   3.807006   4.739652   2.429100   2.781220
    13  C    5.953931   5.004462   5.968294   3.791326   4.290104
    14  C    6.018205   5.321713   6.536583   4.332900   5.023885
    15  C    6.539445   5.335414   6.046411   4.338680   5.018629
    16  C    3.554330   2.513646   3.566688   1.384303   2.376725
    17  H    1.087944   2.164532   3.467171   2.722195   3.363394
    18  H    1.087743   2.162043   2.763423   3.443819   4.104900
    19  H    1.087181   2.169923   2.770836   2.784926   2.854831
    20  H    2.141142   1.095814   2.141051   2.122420   3.398230
    21  H    2.768234   2.161671   1.087763   3.444667   4.100883
    22  H    3.467083   2.164347   1.087924   2.720219   3.341993
    23  H    2.766331   2.170508   1.087186   2.792750   2.852988
    24  H    2.958472   2.718826   2.938852   2.132785   1.078519
    25  H    6.306900   5.902320   6.311143   4.563322   3.391819
    26  H    4.525914   4.789129   5.143371   4.064350   2.806269
    27  H    5.227850   5.445127   6.162165   4.405921   3.299983
    28  H    6.220088   6.350500   6.691827   5.383825   4.052914
    29  H    5.229469   4.801098   4.503650   4.054815   2.813527
    30  H    6.270920   5.519741   5.320272   4.449715   3.359116
    31  H    6.745807   6.366309   6.218904   5.389397   4.065342
    32  H    6.790771   5.896888   6.809140   4.564643   4.792128
    33  H    5.462749   4.776951   6.036261   4.058924   5.002293
    34  H    5.911515   5.460459   6.778803   4.421080   4.932377
    35  H    7.065529   6.342887   7.522527   5.385302   6.072684
    36  H    7.517551   6.350372   7.089999   5.387948   6.068836
    37  H    6.800936   5.494563   5.964696   4.440873   4.931917
    38  H    6.037594   4.782985   5.476215   4.054881   4.985810
    39  H    3.773552   2.698361   3.791655   2.128356   3.354769
                    6          7          8          9         10
     6  C    0.000000
     7  C    1.510043   0.000000
     8  C    2.503995   1.530299   0.000000
     9  C    2.497464   1.530564   2.523319   0.000000
    10  C    1.393709   2.560397   3.615259   3.577274   0.000000
    11  Br   2.868066   3.187310   4.264064   4.194145   1.922758
    12  C    2.440426   3.843624   4.771422   4.738545   1.392597
    13  C    3.844043   5.120074   6.078387   6.031248   2.559902
    14  C    4.762321   6.066101   6.744146   7.153334   3.604578
    15  C    4.747871   6.043485   7.170407   6.661540   3.586968
    16  C    2.778860   4.287973   5.025396   5.013556   2.378117
    17  H    4.458074   5.500529   5.270947   6.244603   4.928290
    18  H    5.431045   6.386216   6.212524   6.760589   6.078277
    19  H    4.115616   4.830512   4.507903   5.241093   5.027312
    20  H    4.549984   5.878868   6.266311   6.280902   4.733498
    21  H    5.429004   6.378849   6.693161   6.242354   6.079815
    22  H    4.441537   5.469317   6.161093   5.242676   4.925280
    23  H    4.119334   4.824196   5.151959   4.551910   5.039107
    24  H    2.125226   2.654874   2.841774   2.898058   3.355172
    25  H    2.138011   1.092621   2.129530   2.131675   2.649279
    26  H    2.805287   2.176363   1.087267   2.772496   4.087825
    27  H    2.721488   2.164945   1.088034   3.470196   3.543879
    28  H    3.443596   2.157655   1.087597   2.773014   4.488551
    29  H    2.782542   2.174464   2.783710   1.087465   4.034299
    30  H    2.723338   2.165075   3.470129   1.088057   3.485855
    31  H    3.440411   2.159133   2.761257   1.087572   4.466009
    32  H    4.040352   5.083966   6.092869   6.041659   2.649105
    33  H    5.041782   6.454598   7.063108   7.468047   4.070558
    34  H    4.590727   5.775436   6.251390   7.023665   3.528895
    35  H    5.728168   6.974075   7.696341   8.052230   4.482938
    36  H    5.719083   6.958878   8.082482   7.616257   4.472388
    37  H    4.571021   5.739323   7.018795   6.149091   3.501879
    38  H    5.017447   6.422373   7.471471   6.974167   4.046008
    39  H    3.858676   5.367648   6.065765   6.053192   3.357450
                   11         12         13         14         15
    11  Br   0.000000
    12  C    2.867128   0.000000
    13  C    3.187374   1.509824   0.000000
    14  C    4.247649   2.501841   1.530329   0.000000
    15  C    4.211834   2.499013   1.530464   2.523162   0.000000
    16  C    4.156683   1.389435   2.496334   3.040056   3.051819
    17  H    6.713239   4.544865   5.645196   5.470186   6.397901
    18  H    7.962372   5.689689   6.840380   6.826505   7.302554
    19  H    6.817372   5.025688   6.384797   6.582356   7.071618
    20  H    6.622084   3.947347   4.878848   5.018303   5.034463
    21  H    7.960675   5.695801   6.848727   7.290735   6.850581
    22  H    6.703223   4.558515   5.667608   6.404041   5.506170
    23  H    6.825877   5.044230   6.406865   7.076577   6.616320
    24  H    4.993274   3.859733   5.368564   6.063942   6.057896
    25  H    2.542557   4.039367   5.083712   6.073785   6.060566
    26  H    5.088047   5.059996   6.475614   7.079323   7.487697
    27  H    4.107499   4.601733   5.793605   6.252245   7.044369
    28  H    4.802134   5.733070   6.980797   7.689020   8.067299
    29  H    5.015051   5.005092   6.406928   7.456790   6.963828
    30  H    3.977486   4.556685   5.718978   6.995634   6.145769
    31  H    4.756312   5.712235   6.949790   8.065972   7.620817
    32  H    2.542434   2.137768   1.092699   2.130288   2.131352
    33  H    5.069080   2.796806   2.175445   1.087271   2.776285
    34  H    4.075617   2.723000   2.164923   1.088070   3.470095
    35  H    4.793926   3.442395   2.157853   1.087584   2.768132
    36  H    4.769422   3.441077   2.158610   2.763012   1.087572
    37  H    4.009450   2.723943   2.165025   3.470064   1.088077
    38  H    5.032459   2.786673   2.174518   2.781143   1.087364
    39  H    4.998030   2.130920   2.663401   2.864180   2.890665
                   16         17         18         19         20
    16  C    0.000000
    17  H    3.471946   0.000000
    18  H    4.430533   1.766650   0.000000
    19  H    4.029177   1.763716   1.763450   0.000000
    20  H    2.558316   2.486205   2.460310   3.054607   0.000000
    21  H    4.437385   3.763446   2.566564   3.124231   2.455716
    22  H    3.490355   4.301279   3.762577   3.765608   2.490073
    23  H    4.047234   3.765243   3.108914   2.573110   3.054834
    24  H    3.356066   3.446357   3.876339   2.386842   3.764806
    25  H    4.789980   6.340329   7.356642   5.835816   6.684736
    26  H    5.013731   4.690969   5.427460   3.675082   5.803266
    27  H    4.928831   5.042170   6.238244   4.612034   6.290466
    28  H    6.073174   6.287783   7.161510   5.420957   7.318812
    29  H    4.976792   5.771622   6.046480   4.552761   5.796107
    30  H    4.927804   6.695410   7.168955   5.806623   6.340774
    31  H    6.064482   7.128189   7.636106   6.039788   7.324379
    32  H    3.393761   6.465416   7.734619   7.106578   5.880091
    33  H    2.806444   4.910822   6.155500   6.168438   4.297454
    34  H    3.319400   5.237556   6.773386   6.376608   5.295175
    35  H    4.056946   6.498077   7.836011   7.659391   5.960854
    36  H    4.063121   7.304339   8.255627   8.087882   5.968560
    37  H    3.346970   6.807258   7.584048   7.225089   5.332706
    38  H    2.810567   5.943676   6.684483   6.691341   4.308967
    39  H    1.079819   3.628442   4.464958   4.483846   2.279449
                   21         22         23         24         25
    21  H    0.000000
    22  H    1.766583   0.000000
    23  H    1.763123   1.763871   0.000000
    24  H    3.866256   3.408951   2.367422   0.000000
    25  H    7.363059   6.337572   5.849189   3.711319   0.000000
    26  H    5.967255   5.665442   4.432277   2.269616   3.048644
    27  H    7.057387   6.593915   5.675520   3.323873   2.487090
    28  H    7.587639   7.056697   5.973198   3.766535   2.427577
    29  H    5.424981   4.599112   3.681967   2.327367   3.049465
    30  H    6.341701   5.089773   4.747673   3.427111   2.479352
    31  H    7.171506   6.245961   5.438399   3.796557   2.441614
    32  H    7.747265   6.493734   7.133562   5.852573   4.814714
    33  H    6.672991   5.947649   6.698352   5.989441   6.631183
    34  H    7.551538   6.796140   7.211579   5.920877   5.748681
    35  H    8.252173   7.320367   8.099127   7.124206   6.872224
    36  H    7.854778   6.532453   7.691396   7.119514   6.866669
    37  H    6.824879   5.299079   6.434860   5.919377   5.727002
    38  H    6.165974   4.928733   6.185242   5.971697   6.609380
    39  H    4.475285   3.660547   4.504966   4.247120   5.852856
                   26         27         28         29         30
    26  H    0.000000
    27  H    1.764287   0.000000
    28  H    1.762454   1.765210   0.000000
    29  H    2.590213   3.776221   3.142586   0.000000
    30  H    3.775545   4.303231   3.763145   1.764130   0.000000
    31  H    3.103630   3.761846   2.565901   1.764008   1.765221
    32  H    6.657379   5.781216   6.883870   6.588321   5.693594
    33  H    7.238904   6.606644   8.073615   7.620012   7.341244
    34  H    6.628794   5.619959   7.166604   7.358530   7.013683
    35  H    8.095002   7.178063   8.599248   8.419393   7.824616
    36  H    8.462938   7.892292   8.949446   7.982265   7.067482
    37  H    7.360800   7.043028   7.847896   6.489787   5.495321
    38  H    7.638261   7.370506   8.433757   7.113170   6.502671
    39  H    6.000224   5.917793   7.125291   5.961516   5.916281
                   31         32         33         34         35
    31  H    0.000000
    32  H    6.851953   0.000000
    33  H    8.442842   3.048857   0.000000
    34  H    7.870059   2.483788   1.764407   0.000000
    35  H    8.936120   2.432552   1.763177   1.765197   0.000000
    36  H    8.535463   2.439002   3.114051   3.760430   2.562515
    37  H    7.077551   2.480581   3.776794   4.303169   3.760901
    38  H    7.995879   3.049223   2.591621   3.776996   3.131193
    39  H    7.115590   3.719902   2.288509   3.360605   3.780687
                   36         37         38         39
    36  H    0.000000
    37  H    1.765198   0.000000
    38  H    1.763849   1.764350   0.000000
    39  H    3.795141   3.408562   2.316030   0.000000
 Stoichiometry    C15H23Br
 Framework group  C1[X(C15H23Br)]
 Deg. of freedom   111
 Full point group                 C1      NOp   1
 Largest Abelian subgroup         C1      NOp   1
 Largest concise Abelian subgroup C1      NOp   1
                         Standard orientation:                         
 ---------------------------------------------------------------------
 Center     Atomic      Atomic             Coordinates (Angstroms)
 Number     Number       Type             X           Y           Z
 ---------------------------------------------------------------------
      1          6           0        4.052369   -0.556925   -1.254974
      2          6           0        3.342518   -1.038962    0.011920
      3          6           0        4.052118   -0.520396    1.264339
      4          6           0        1.893263   -0.619775    0.003830
      5          6           0        1.533007    0.718113   -0.003512
      6          6           0        0.206404    1.125953   -0.011950
      7          6           0       -0.098561    2.604878   -0.014283
      8          6           0        0.501476    3.283808   -1.247500
      9          6           0        0.408703    3.257338    1.273974
     10          6           0       -0.773722    0.135105   -0.010715
     11         35           0       -2.623518    0.659751   -0.010171
     12          6           0       -0.460059   -1.221698   -0.005595
     13          6           0       -1.494887   -2.321106   -0.004013
     14          6           0       -1.354397   -3.199959   -1.248917
     15          6           0       -1.389137   -3.157012    1.273641
     16          6           0        0.885338   -1.568657    0.001836
     17          1           0        3.541378   -0.928578   -2.140629
     18          1           0        5.078841   -0.916507   -1.270506
     19          1           0        4.069462    0.529191   -1.299954
     20          1           0        3.380268   -2.134010    0.027824
     21          1           0        5.075058   -0.888941    1.295907
     22          1           0        3.534583   -0.857195    2.160052
     23          1           0        4.080041    0.566398    1.272865
     24          1           0        2.303033    1.473268   -0.001700
     25          1           0       -1.180412    2.752622   -0.054188
     26          1           0        1.587750    3.239016   -1.235258
     27          1           0        0.148085    2.800873   -2.156184
     28          1           0        0.203728    4.329489   -1.275160
     29          1           0        1.490770    3.182925    1.352531
     30          1           0       -0.032236    2.773687    2.143182
     31          1           0        0.135070    4.309807    1.289746
     32          1           0       -2.494057   -1.879335   -0.026112
     33          1           0       -0.400410   -3.721473   -1.258466
     34          1           0       -1.424097   -2.594695   -2.150412
     35          1           0       -2.149778   -3.941427   -1.269718
     36          1           0       -2.176941   -3.906563    1.292416
     37          1           0       -1.495802   -2.523147    2.151564
     38          1           0       -0.430036   -3.665964    1.332392
     39          1           0        1.152230   -2.614959    0.007318
 ---------------------------------------------------------------------
 Rotational constants (GHZ):           0.4566049           0.3255646           0.2165062
 Leave Link  202 at Tue Sep 17 09:47:09 2024, MaxMem=  1342177280 cpu:               0.1 elap:               0.0
 (Enter /groups/ReismanLab/Software/Gaussian16_RevC/Linux_Binary_AVX2-enabled-CPU/g16/l301.exe)
 Standard basis: 6-31G(d,p) (6D, 7F)
 Ernie: Thresh=  0.10000D-02 Tol=  0.10000D-05 Strict=F.
 There are   370 symmetry adapted cartesian basis functions of A   symmetry.
 There are   370 symmetry adapted basis functions of A   symmetry.
   370 basis functions,   664 primitive gaussians,   370 cartesian basis functions
    74 alpha electrons       74 beta electrons
       nuclear repulsion energy      1526.0865805011 Hartrees.
 IExCor=  402 DFT=T Ex+Corr=B3LYP ExCW=0 ScaHFX=  0.200000
 ScaDFX=  0.800000  0.720000  1.000000  0.810000 ScalE2=  1.000000  1.000000
 IRadAn=      5 IRanWt=     -1 IRanGd=            0 ICorTp=0 IEmpDi=141
 NAtoms=   39 NActive=   39 NUniq=   39 SFac= 1.00D+00 NAtFMM=   60 NAOKFM=F Big=F
 Integral buffers will be    131072 words long.
 Raffenetti 2 integral format.
 Two-electron integral symmetry is turned on.
 R6Disp:  Grimme-D3(BJ) Dispersion energy=       -0.0809930831 Hartrees.
 Nuclear repulsion after empirical dispersion term =     1526.0055874180 Hartrees.
 Leave Link  301 at Tue Sep 17 09:47:09 2024, MaxMem=  1342177280 cpu:               0.1 elap:               0.1
 (Enter /groups/ReismanLab/Software/Gaussian16_RevC/Linux_Binary_AVX2-enabled-CPU/g16/l302.exe)
 NPDir=0 NMtPBC=     1 NCelOv=     1 NCel=       1 NClECP=     1 NCelD=      1
         NCelK=      1 NCelE2=     1 NClLst=     1 CellRange=     0.0.
 One-electron integrals computed using PRISM.
 One-electron integral symmetry used in STVInt
 NBasis=   370 RedAO= T EigKep=  3.06D-04  NBF=   370
 NBsUse=   370 1.00D-06 EigRej= -1.00D+00 NBFU=   370
 Precomputing XC quadrature grid using
 IXCGrd= 4 IRadAn=           5 IRanWt=          -1 IRanGd=           0 AccXCQ= 0.00D+00.
 Generated NRdTot=       0 NPtTot=           0 NUsed=           0 NTot=          32
 NSgBfM=   369   369   369   369   369 MxSgAt=    39 MxSgA2=    39.
 Leave Link  302 at Tue Sep 17 09:47:09 2024, MaxMem=  1342177280 cpu:               2.6 elap:               0.4
 (Enter /groups/ReismanLab/Software/Gaussian16_RevC/Linux_Binary_AVX2-enabled-CPU/g16/l303.exe)
 DipDrv:  MaxL=1.
 Leave Link  303 at Tue Sep 17 09:47:09 2024, MaxMem=  1342177280 cpu:               0.1 elap:               0.1
 (Enter /groups/ReismanLab/Software/Gaussian16_RevC/Linux_Binary_AVX2-enabled-CPU/g16/l401.exe)
 ExpMin= 1.43D-01 ExpMax= 5.74D+05 ExpMxC= 5.74D+03 IAcc=3 IRadAn=         5 AccDes= 0.00D+00
 Harris functional with IExCor=  402 and IRadAn=       5 diagonalized for initial guess.
 HarFok:  IExCor=  402 AccDes= 0.00D+00 IRadAn=         5 IDoV= 1 UseB2=F ITyADJ=14
 ICtDFT=  3500011 ScaDFX=  1.000000  1.000000  1.000000  1.000000
 FoFCou: FMM=F IPFlag=           0 FMFlag=      100000 FMFlg1=           0
         NFxFlg=           0 DoJE=T BraDBF=F KetDBF=T FulRan=T
         wScrn=  0.000000 ICntrl=       500 IOpCl=  0 I1Cent=   200000004 NGrid=           0
         NMat0=    1 NMatS0=      1 NMatT0=    0 NMatD0=    1 NMtDS0=    0 NMtDT0=    0
 Petite list used in FoFCou.
 Harris En= -3157.52239453101    
 JPrj=0 DoOrth=F DoCkMO=F.
 Leave Link  401 at Tue Sep 17 09:47:11 2024, MaxMem=  1342177280 cpu:              14.3 elap:               2.0
 (Enter /groups/ReismanLab/Software/Gaussian16_RevC/Linux_Binary_AVX2-enabled-CPU/g16/l502.exe)
 Integral symmetry usage will be decided dynamically.
 Closed shell SCF:
 Using DIIS extrapolation, IDIIS=  1040.
 NGot=  1342177280 LenX=  1341895517 LenY=  1341758176
 Requested convergence on RMS density matrix=1.00D-08 within  32 cycles.
 Requested convergence on MAX density matrix=1.00D-06.
 Requested convergence on             energy=1.00D-06.
 No special actions if energy rises.
 Fock matrices will be formed incrementally for  20 cycles.
 Integral accuracy reduced to 1.0D-05 until final iterations.

 Cycle   1  Pass 0  IDiag  1:
 FoFJK:  IHMeth= 1 ICntrl=       0 DoSepK=F KAlg= 0 I1Cent=           0 FoldK=F
 IRaf= 810000000 NMat=       1 IRICut=       1 DoRegI=T DoRafI=F ISym2E= 0 IDoP0=0 IntGTp=1.
 FoFCou: FMM=F IPFlag=           0 FMFlag=      100000 FMFlg1=           0
         NFxFlg=           0 DoJE=F BraDBF=F KetDBF=F FulRan=T
         wScrn=  0.000000 ICntrl=         0 IOpCl=  0 I1Cent=           0 NGrid=           0
         NMat0=    1 NMatS0=      1 NMatT0=    0 NMatD0=    1 NMtDS0=    0 NMtDT0=    0
 Symmetry not used in FoFCou.
 E= -3156.75114836685    
 DIIS: error= 1.53D-01 at cycle   1 NSaved=   1.
 NSaved= 1 IEnMin= 1 EnMin= -3156.75114836685     IErMin= 1 ErrMin= 1.53D-01
 ErrMax= 1.53D-01  0.00D+00 EMaxC= 1.00D-01 BMatC= 8.48D-01 BMatP= 8.48D-01
 IDIUse=3 WtCom= 0.00D+00 WtEn= 1.00D+00
 Coeff-Com:  0.100D+01
 Coeff-En:   0.100D+01
 Coeff:      0.100D+01
 Gap=     0.299 Goal=   None    Shift=    0.000
 GapD=    0.299 DampG=1.000 DampE=0.250 DampFc=0.2500 IDamp=-1.
 Damping current iteration by 2.50D-01
 RMSDP=4.52D-03 MaxDP=1.40D-01              OVMax= 1.72D-01

 Cycle   2  Pass 0  IDiag  1:
 RMSU=  1.10D-03    CP:  9.91D-01
 E= -3156.94965330276     Delta-E=       -0.198504935905 Rises=F Damp=T
 DIIS: error= 1.13D-01 at cycle   2 NSaved=   2.
 NSaved= 2 IEnMin= 2 EnMin= -3156.94965330276     IErMin= 2 ErrMin= 1.13D-01
 ErrMax= 1.13D-01  0.00D+00 EMaxC= 1.00D-01 BMatC= 3.16D-01 BMatP= 8.48D-01
 IDIUse=3 WtCom= 0.00D+00 WtEn= 1.00D+00
 Coeff-Com: -0.118D+01 0.218D+01
 Coeff-En:   0.000D+00 0.100D+01
 Coeff:      0.000D+00 0.100D+01
 Gap=     0.225 Goal=   None    Shift=    0.000
 RMSDP=2.20D-03 MaxDP=1.12D-01 DE=-1.99D-01 OVMax= 6.97D-02

 Cycle   3  Pass 0  IDiag  1:
 RMSU=  7.93D-04    CP:  9.64D-01  2.75D+00
 E= -3157.16369353025     Delta-E=       -0.214040227490 Rises=F Damp=F
 DIIS: error= 1.61D-02 at cycle   3 NSaved=   3.
 NSaved= 3 IEnMin= 3 EnMin= -3157.16369353025     IErMin= 3 ErrMin= 1.61D-02
 ErrMax= 1.61D-02  0.00D+00 EMaxC= 1.00D-01 BMatC= 1.22D-01 BMatP= 3.16D-01
 IDIUse=3 WtCom= 8.39D-01 WtEn= 1.61D-01
 EnCoef did   100 forward-backward iterations
 Coeff-Com:  0.198D+01-0.256D+01 0.159D+01
 Coeff-En:   0.152D+00 0.219D-02 0.846D+00
 Coeff:      0.168D+01-0.215D+01 0.147D+01
 Gap=     0.246 Goal=   None    Shift=    0.000
 RMSDP=1.16D-03 MaxDP=3.71D-02 DE=-2.14D-01 OVMax= 4.91D-02

 Cycle   4  Pass 0  IDiag  1:
 RMSU=  3.81D-04    CP:  9.67D-01  1.78D+00  1.26D+00
 E= -3157.28798513462     Delta-E=       -0.124291604371 Rises=F Damp=F
 DIIS: error= 3.63D-03 at cycle   4 NSaved=   4.
 NSaved= 4 IEnMin= 4 EnMin= -3157.28798513462     IErMin= 4 ErrMin= 3.63D-03
 ErrMax= 3.63D-03  0.00D+00 EMaxC= 1.00D-01 BMatC= 5.99D-03 BMatP= 1.22D-01
 IDIUse=3 WtCom= 9.64D-01 WtEn= 3.63D-02
 Coeff-Com:  0.872D+00-0.114D+01 0.743D+00 0.526D+00
 Coeff-En:   0.000D+00 0.000D+00 0.000D+00 0.100D+01
 Coeff:      0.841D+00-0.110D+01 0.716D+00 0.543D+00
 Gap=     0.224 Goal=   None    Shift=    0.000
 RMSDP=3.19D-04 MaxDP=2.05D-02 DE=-1.24D-01 OVMax= 3.76D-02

 Cycle   5  Pass 0  IDiag  1:
 RMSU=  1.51D-04    CP:  9.67D-01  1.86D+00  1.35D+00  3.22D-01
 E= -3157.29283507014     Delta-E=       -0.004849935523 Rises=F Damp=F
 DIIS: error= 2.40D-03 at cycle   5 NSaved=   5.
 NSaved= 5 IEnMin= 5 EnMin= -3157.29283507014     IErMin= 5 ErrMin= 2.40D-03
 ErrMax= 2.40D-03  0.00D+00 EMaxC= 1.00D-01 BMatC= 1.35D-03 BMatP= 5.99D-03
 IDIUse=3 WtCom= 9.76D-01 WtEn= 2.40D-02
 Coeff-Com:  0.162D+00-0.211D+00 0.167D+00 0.345D+00 0.538D+00
 Coeff-En:   0.000D+00 0.000D+00 0.000D+00 0.195D+00 0.805D+00
 Coeff:      0.158D+00-0.206D+00 0.163D+00 0.341D+00 0.544D+00
 Gap=     0.223 Goal=   None    Shift=    0.000
 RMSDP=1.36D-04 MaxDP=7.49D-03 DE=-4.85D-03 OVMax= 1.52D-02

 Cycle   6  Pass 0  IDiag  1:
 RMSU=  6.18D-05    CP:  9.67D-01  1.85D+00  1.34D+00  5.29D-01  3.94D-01
 E= -3157.29416783884     Delta-E=       -0.001332768697 Rises=F Damp=F
 DIIS: error= 5.59D-04 at cycle   6 NSaved=   6.
 NSaved= 6 IEnMin= 6 EnMin= -3157.29416783884     IErMin= 6 ErrMin= 5.59D-04
 ErrMax= 5.59D-04  0.00D+00 EMaxC= 1.00D-01 BMatC= 1.35D-04 BMatP= 1.35D-03
 IDIUse=3 WtCom= 9.94D-01 WtEn= 5.59D-03
 Coeff-Com:  0.316D-01-0.410D-01 0.438D-01 0.162D+00 0.329D+00 0.475D+00
 Coeff-En:   0.000D+00 0.000D+00 0.000D+00 0.000D+00 0.479D-01 0.952D+00
 Coeff:      0.314D-01-0.407D-01 0.435D-01 0.161D+00 0.327D+00 0.478D+00
 Gap=     0.224 Goal=   None    Shift=    0.000
 RMSDP=4.03D-05 MaxDP=1.98D-03 DE=-1.33D-03 OVMax= 3.73D-03

 Cycle   7  Pass 0  IDiag  1:
 RMSU=  1.38D-05    CP:  9.67D-01  1.86D+00  1.33D+00  5.08D-01  5.19D-01
                    CP:  5.36D-01
 E= -3157.29430811653     Delta-E=       -0.000140277693 Rises=F Damp=F
 DIIS: error= 8.40D-05 at cycle   7 NSaved=   7.
 NSaved= 7 IEnMin= 7 EnMin= -3157.29430811653     IErMin= 7 ErrMin= 8.40D-05
 ErrMax= 8.40D-05  0.00D+00 EMaxC= 1.00D-01 BMatC= 2.31D-06 BMatP= 1.35D-04
 IDIUse=1 WtCom= 1.00D+00 WtEn= 0.00D+00
 Coeff-Com:  0.566D-02-0.713D-02 0.111D-01 0.547D-01 0.118D+00 0.211D+00
 Coeff-Com:  0.607D+00
 Coeff:      0.566D-02-0.713D-02 0.111D-01 0.547D-01 0.118D+00 0.211D+00
 Coeff:      0.607D+00
 Gap=     0.224 Goal=   None    Shift=    0.000
 RMSDP=7.08D-06 MaxDP=2.72D-04 DE=-1.40D-04 OVMax= 6.67D-04

 Initial convergence to 1.0D-05 achieved.  Increase integral accuracy.
 Cycle   8  Pass 1  IDiag  1:
 E= -3157.29424207728     Delta-E=        0.000066039254 Rises=F Damp=F
 DIIS: error= 1.17D-04 at cycle   1 NSaved=   1.
 NSaved= 1 IEnMin= 1 EnMin= -3157.29424207728     IErMin= 1 ErrMin= 1.17D-04
 ErrMax= 1.17D-04  0.00D+00 EMaxC= 1.00D-01 BMatC= 8.32D-07 BMatP= 8.32D-07
 IDIUse=3 WtCom= 9.99D-01 WtEn= 1.17D-03
 Coeff-Com:  0.100D+01
 Coeff-En:   0.100D+01
 Coeff:      0.100D+01
 Gap=     0.224 Goal=   None    Shift=    0.000
 RMSDP=7.08D-06 MaxDP=2.72D-04 DE= 6.60D-05 OVMax= 4.26D-04

 Cycle   9  Pass 1  IDiag  1:
 RMSU=  2.68D-05    CP:  1.00D+00
 E= -3157.29424226777     Delta-E=       -0.000000190497 Rises=F Damp=F
 DIIS: error= 2.94D-05 at cycle   2 NSaved=   2.
 NSaved= 2 IEnMin= 2 EnMin= -3157.29424226777     IErMin= 2 ErrMin= 2.94D-05
 ErrMax= 2.94D-05  0.00D+00 EMaxC= 1.00D-01 BMatC= 3.98D-07 BMatP= 8.32D-07
 IDIUse=1 WtCom= 1.00D+00 WtEn= 0.00D+00
 Coeff-Com:  0.373D+00 0.627D+00
 Coeff:      0.373D+00 0.627D+00
 Gap=     0.224 Goal=   None    Shift=    0.000
 RMSDP=3.60D-06 MaxDP=2.10D-04 DE=-1.90D-07 OVMax= 5.06D-04

 Cycle  10  Pass 1  IDiag  1:
 RMSU=  3.59D-06    CP:  1.00D+00  9.93D-01
 E= -3157.29424241803     Delta-E=       -0.000000150256 Rises=F Damp=F
 DIIS: error= 2.26D-05 at cycle   3 NSaved=   3.
 NSaved= 3 IEnMin= 3 EnMin= -3157.29424241803     IErMin= 3 ErrMin= 2.26D-05
 ErrMax= 2.26D-05  0.00D+00 EMaxC= 1.00D-01 BMatC= 2.51D-07 BMatP= 3.98D-07
 IDIUse=1 WtCom= 1.00D+00 WtEn= 0.00D+00
 Coeff-Com:  0.293D-01 0.437D+00 0.533D+00
 Coeff:      0.293D-01 0.437D+00 0.533D+00
 Gap=     0.224 Goal=   None    Shift=    0.000
 RMSDP=1.84D-06 MaxDP=9.91D-05 DE=-1.50D-07 OVMax= 2.49D-04

 Cycle  11  Pass 1  IDiag  1:
 RMSU=  7.08D-07    CP:  1.00D+00  1.01D+00  5.38D-01
 E= -3157.29424267931     Delta-E=       -0.000000261282 Rises=F Damp=F
 DIIS: error= 5.02D-06 at cycle   4 NSaved=   4.
 NSaved= 4 IEnMin= 4 EnMin= -3157.29424267931     IErMin= 4 ErrMin= 5.02D-06
 ErrMax= 5.02D-06  0.00D+00 EMaxC= 1.00D-01 BMatC= 1.67D-08 BMatP= 2.51D-07
 IDIUse=1 WtCom= 1.00D+00 WtEn= 0.00D+00
 Coeff-Com: -0.163D-02 0.240D+00 0.332D+00 0.430D+00
 Coeff:     -0.163D-02 0.240D+00 0.332D+00 0.430D+00
 Gap=     0.224 Goal=   None    Shift=    0.000
 RMSDP=3.91D-07 MaxDP=2.37D-05 DE=-2.61D-07 OVMax= 4.35D-05

 Cycle  12  Pass 1  IDiag  1:
 RMSU=  1.28D-07    CP:  1.00D+00  1.00D+00  5.73D-01  5.13D-01
 E= -3157.29424269622     Delta-E=       -0.000000016910 Rises=F Damp=F
 DIIS: error= 7.03D-07 at cycle   5 NSaved=   5.
 NSaved= 5 IEnMin= 5 EnMin= -3157.29424269622     IErMin= 5 ErrMin= 7.03D-07
 ErrMax= 7.03D-07  0.00D+00 EMaxC= 1.00D-01 BMatC= 2.36D-10 BMatP= 1.67D-08
 IDIUse=1 WtCom= 1.00D+00 WtEn= 0.00D+00
 Coeff-Com: -0.154D-02 0.117D+00 0.163D+00 0.227D+00 0.495D+00
 Coeff:     -0.154D-02 0.117D+00 0.163D+00 0.227D+00 0.495D+00
 Gap=     0.224 Goal=   None    Shift=    0.000
 RMSDP=6.58D-08 MaxDP=4.03D-06 DE=-1.69D-08 OVMax= 6.39D-06

 Cycle  13  Pass 1  IDiag  1:
 RMSU=  3.72D-08    CP:  1.00D+00  1.01D+00  5.69D-01  4.90D-01  6.14D-01
 E= -3157.29424269644     Delta-E=       -0.000000000218 Rises=F Damp=F
 DIIS: error= 1.67D-07 at cycle   6 NSaved=   6.
 NSaved= 6 IEnMin= 6 EnMin= -3157.29424269644     IErMin= 6 ErrMin= 1.67D-07
 ErrMax= 1.67D-07  0.00D+00 EMaxC= 1.00D-01 BMatC= 1.56D-11 BMatP= 2.36D-10
 IDIUse=1 WtCom= 1.00D+00 WtEn= 0.00D+00
 Coeff-Com: -0.756D-03 0.520D-01 0.726D-01 0.102D+00 0.279D+00 0.495D+00
 Coeff:     -0.756D-03 0.520D-01 0.726D-01 0.102D+00 0.279D+00 0.495D+00
 Gap=     0.224 Goal=   None    Shift=    0.000
 RMSDP=1.46D-08 MaxDP=8.02D-07 DE=-2.18D-10 OVMax= 1.56D-06

 Cycle  14  Pass 1  IDiag  1:
 RMSU=  1.19D-08    CP:  1.00D+00  1.01D+00  5.70D-01  4.93D-01  6.47D-01
                    CP:  8.11D-01
 E= -3157.29424269650     Delta-E=       -0.000000000058 Rises=F Damp=F
 DIIS: error= 6.14D-08 at cycle   7 NSaved=   7.
 NSaved= 7 IEnMin= 7 EnMin= -3157.29424269650     IErMin= 7 ErrMin= 6.14D-08
 ErrMax= 6.14D-08  0.00D+00 EMaxC= 1.00D-01 BMatC= 1.70D-12 BMatP= 1.56D-11
 IDIUse=1 WtCom= 1.00D+00 WtEn= 0.00D+00
 Coeff-Com: -0.188D-03 0.112D-01 0.157D-01 0.219D-01 0.848D-01 0.276D+00
 Coeff-Com:  0.590D+00
 Coeff:     -0.188D-03 0.112D-01 0.157D-01 0.219D-01 0.848D-01 0.276D+00
 Coeff:      0.590D+00
 Gap=     0.224 Goal=   None    Shift=    0.000
 RMSDP=5.49D-09 MaxDP=3.04D-07 DE=-5.82D-11 OVMax= 6.07D-07

 SCF Done:  E(RB3LYP) =  -3157.29424270     A.U. after   14 cycles
            NFock= 14  Conv=0.55D-08     -V/T= 2.0067
 KE= 3.136190137210D+03 PE=-1.053953355874D+04 EE= 2.720043591416D+03
 Leave Link  502 at Tue Sep 17 09:47:46 2024, MaxMem=  1342177280 cpu:             269.9 elap:              35.0
 (Enter /groups/ReismanLab/Software/Gaussian16_RevC/Linux_Binary_AVX2-enabled-CPU/g16/l508.exe)
 QCSCF skips out because SCF is already converged.
 Leave Link  508 at Tue Sep 17 09:47:46 2024, MaxMem=  1342177280 cpu:               0.0 elap:               0.0
 (Enter /groups/ReismanLab/Software/Gaussian16_RevC/Linux_Binary_AVX2-enabled-CPU/g16/l601.exe)
 Copying SCF densities to generalized density rwf, IOpCl= 0 IROHF=0.

 **********************************************************************

            Population analysis using the SCF Density.

 **********************************************************************

 Orbital symmetries:
       Occupied  (A) (A) (A) (A) (A) (A) (A) (A) (A) (A) (A) (A)
                 (A) (A) (A) (A) (A) (A) (A) (A) (A) (A) (A) (A)
                 (A) (A) (A) (A) (A) (A) (A) (A) (A) (A) (A) (A)
                 (A) (A) (A) (A) (A) (A) (A) (A) (A) (A) (A) (A)
                 (A) (A) (A) (A) (A) (A) (A) (A) (A) (A) (A) (A)
                 (A) (A) (A) (A) (A) (A) (A) (A) (A) (A) (A) (A)
                 (A) (A)
       Virtual   (A) (A) (A) (A) (A) (A) (A) (A) (A) (A) (A) (A)
                 (A) (A) (A) (A) (A) (A) (A) (A) (A) (A) (A) (A)
                 (A) (A) (A) (A) (A) (A) (A) (A) (A) (A) (A) (A)
                 (A) (A) (A) (A) (A) (A) (A) (A) (A) (A) (A) (A)
                 (A) (A) (A) (A) (A) (A) (A) (A) (A) (A) (A) (A)
                 (A) (A) (A) (A) (A) (A) (A) (A) (A) (A) (A) (A)
                 (A) (A) (A) (A) (A) (A) (A) (A) (A) (A) (A) (A)
                 (A) (A) (A) (A) (A) (A) (A) (A) (A) (A) (A) (A)
                 (A) (A) (A) (A) (A) (A) (A) (A) (A) (A) (A) (A)
                 (A) (A) (A) (A) (A) (A) (A) (A) (A) (A) (A) (A)
                 (A) (A) (A) (A) (A) (A) (A) (A) (A) (A) (A) (A)
                 (A) (A) (A) (A) (A) (A) (A) (A) (A) (A) (A) (A)
                 (A) (A) (A) (A) (A) (A) (A) (A) (A) (A) (A) (A)
                 (A) (A) (A) (A) (A) (A) (A) (A) (A) (A) (A) (A)
                 (A) (A) (A) (A) (A) (A) (A) (A) (A) (A) (A) (A)
                 (A) (A) (A) (A) (A) (A) (A) (A) (A) (A) (A) (A)
                 (A) (A) (A) (A) (A) (A) (A) (A) (A) (A) (A) (A)
                 (A) (A) (A) (A) (A) (A) (A) (A) (A) (A) (A) (A)
                 (A) (A) (A) (A) (A) (A) (A) (A) (A) (A) (A) (A)
                 (A) (A) (A) (A) (A) (A) (A) (A) (A) (A) (A) (A)
                 (A) (A) (A) (A) (A) (A) (A) (A) (A) (A) (A) (A)
                 (A) (A) (A) (A) (A) (A) (A) (A) (A) (A) (A) (A)
                 (A) (A) (A) (A) (A) (A) (A) (A) (A) (A) (A) (A)
                 (A) (A) (A) (A) (A) (A) (A) (A) (A) (A) (A) (A)
                 (A) (A) (A) (A) (A) (A) (A) (A)
 The electronic state is 1-A.
 Alpha  occ. eigenvalues -- -482.90437 -61.86550 -56.38624 -56.38243 -56.38217
 Alpha  occ. eigenvalues --  -10.23230 -10.19623 -10.19573 -10.19245 -10.18859
 Alpha  occ. eigenvalues --  -10.18718 -10.18704 -10.18127 -10.18121 -10.17394
 Alpha  occ. eigenvalues --  -10.17389 -10.17093 -10.17080 -10.17064 -10.17059
 Alpha  occ. eigenvalues --   -8.57585  -6.52918  -6.51704  -6.51681  -2.64495
 Alpha  occ. eigenvalues --   -2.64147  -2.64132  -2.63163  -2.63162  -0.87982
 Alpha  occ. eigenvalues --   -0.82264  -0.81803  -0.78358  -0.77391  -0.72555
 Alpha  occ. eigenvalues --   -0.70674  -0.68658  -0.68351  -0.68325  -0.63500
 Alpha  occ. eigenvalues --   -0.60988  -0.59699  -0.55339  -0.53969  -0.49810
 Alpha  occ. eigenvalues --   -0.48844  -0.45443  -0.44928  -0.43758  -0.43276
 Alpha  occ. eigenvalues --   -0.43186  -0.42392  -0.42062  -0.41116  -0.40847
 Alpha  occ. eigenvalues --   -0.39022  -0.38606  -0.38527  -0.38178  -0.37328
 Alpha  occ. eigenvalues --   -0.36180  -0.35921  -0.34338  -0.34226  -0.34049
 Alpha  occ. eigenvalues --   -0.33952  -0.33175  -0.32951  -0.31414  -0.31063
 Alpha  occ. eigenvalues --   -0.29838  -0.26933  -0.23869  -0.22731
 Alpha virt. eigenvalues --   -0.00370   0.00176   0.01870   0.08198   0.09669
 Alpha virt. eigenvalues --    0.10205   0.11785   0.12298   0.13764   0.14141
 Alpha virt. eigenvalues --    0.14955   0.15135   0.15591   0.15680   0.16281
 Alpha virt. eigenvalues --    0.16724   0.16830   0.17922   0.18992   0.19579
 Alpha virt. eigenvalues --    0.19856   0.20093   0.20174   0.20307   0.20404
 Alpha virt. eigenvalues --    0.20751   0.20781   0.21451   0.22207   0.24618
 Alpha virt. eigenvalues --    0.26914   0.27580   0.27856   0.28386   0.28688
 Alpha virt. eigenvalues --    0.29584   0.32304   0.32596   0.33812   0.36493
 Alpha virt. eigenvalues --    0.39738   0.42434   0.44668   0.45700   0.46250
 Alpha virt. eigenvalues --    0.47444   0.47921   0.49221   0.49818   0.50624
 Alpha virt. eigenvalues --    0.50761   0.51184   0.52544   0.53627   0.54251
 Alpha virt. eigenvalues --    0.54496   0.54821   0.55154   0.56502   0.56964
 Alpha virt. eigenvalues --    0.57608   0.58917   0.59673   0.62170   0.62876
 Alpha virt. eigenvalues --    0.64066   0.64432   0.65194   0.66439   0.68440
 Alpha virt. eigenvalues --    0.69509   0.70442   0.71787   0.72026   0.73284
 Alpha virt. eigenvalues --    0.74358   0.74569   0.75727   0.77993   0.79089
 Alpha virt. eigenvalues --    0.79650   0.80182   0.81329   0.82868   0.83478
 Alpha virt. eigenvalues --    0.83764   0.83927   0.84548   0.84683   0.85672
 Alpha virt. eigenvalues --    0.86216   0.87521   0.87772   0.87900   0.88746
 Alpha virt. eigenvalues --    0.89377   0.89775   0.90126   0.90166   0.91469
 Alpha virt. eigenvalues --    0.91837   0.92346   0.94238   0.94800   0.95440
 Alpha virt. eigenvalues --    0.95454   0.96973   0.97511   0.97683   0.98674
 Alpha virt. eigenvalues --    0.98696   0.99187   0.99710   0.99961   1.06686
 Alpha virt. eigenvalues --    1.08147   1.13019   1.18039   1.18617   1.19761
 Alpha virt. eigenvalues --    1.21556   1.21988   1.27102   1.27807   1.28056
 Alpha virt. eigenvalues --    1.28643   1.35727   1.36576   1.39402   1.43426
 Alpha virt. eigenvalues --    1.43532   1.44462   1.46128   1.47837   1.49777
 Alpha virt. eigenvalues --    1.50864   1.54686   1.55108   1.56297   1.56500
 Alpha virt. eigenvalues --    1.56803   1.56955   1.57751   1.58520   1.59355
 Alpha virt. eigenvalues --    1.64592   1.69808   1.73600   1.77222   1.77683
 Alpha virt. eigenvalues --    1.79898   1.80835   1.81704   1.82045   1.83095
 Alpha virt. eigenvalues --    1.83771   1.84437   1.86145   1.87310   1.87738
 Alpha virt. eigenvalues --    1.88648   1.89358   1.90410   1.91189   1.91837
 Alpha virt. eigenvalues --    1.93617   1.94797   1.97967   2.00507   2.03054
 Alpha virt. eigenvalues --    2.04655   2.04697   2.04906   2.05182   2.05272
 Alpha virt. eigenvalues --    2.05670   2.08685   2.09642   2.10041   2.10697
 Alpha virt. eigenvalues --    2.11406   2.11677   2.11721   2.11788   2.11990
 Alpha virt. eigenvalues --    2.12239   2.12897   2.13107   2.13447   2.13719
 Alpha virt. eigenvalues --    2.14162   2.16247   2.18503   2.20774   2.21008
 Alpha virt. eigenvalues --    2.21755   2.23706   2.26499   2.30045   2.30329
 Alpha virt. eigenvalues --    2.31264   2.31834   2.31969   2.33579   2.34963
 Alpha virt. eigenvalues --    2.35223   2.37383   2.37745   2.41012   2.41745
 Alpha virt. eigenvalues --    2.42503   2.44295   2.49910   2.52591   2.52989
 Alpha virt. eigenvalues --    2.54548   2.56532   2.57580   2.61828   2.62153
 Alpha virt. eigenvalues --    2.63205   2.64270   2.65017   2.69186   2.69467
 Alpha virt. eigenvalues --    2.70109   2.70594   2.70819   2.72200   2.72513
 Alpha virt. eigenvalues --    2.73245   2.74343   2.75443   2.75560   2.75870
 Alpha virt. eigenvalues --    2.75931   2.78962   2.81207   2.87079   2.88982
 Alpha virt. eigenvalues --    2.90564   2.90777   2.90986   2.91295   2.91412
 Alpha virt. eigenvalues --    2.91683   2.92032   2.93285   2.94249   2.98920
 Alpha virt. eigenvalues --    3.00068   3.02003   3.03252   3.09431   3.20830
 Alpha virt. eigenvalues --    3.21481   3.21677   3.22724   3.24801   3.25437
 Alpha virt. eigenvalues --    3.25725   3.27262   3.34800   3.35641   3.37058
 Alpha virt. eigenvalues --    3.43166   3.43453   3.43699   3.43828   3.48734
 Alpha virt. eigenvalues --    3.49202   3.49697   3.49724   3.50036   3.51706
 Alpha virt. eigenvalues --    3.54675   3.56546   3.57497   3.73112   4.12884
 Alpha virt. eigenvalues --    4.21193   4.24279   4.37287   4.38299   4.40047
 Alpha virt. eigenvalues --    4.48662   4.50768   4.51260   4.52384   4.52587
 Alpha virt. eigenvalues --    4.64790   4.71155   4.73228   4.85573   8.65969
 Alpha virt. eigenvalues --   73.64920
          Condensed to atoms (all electrons):
               1          2          3          4          5          6
     1  C    4.953852   0.366277  -0.056605  -0.045754  -0.005737   0.000182
     2  C    0.366277   4.956362   0.366067   0.362225  -0.061360   0.004963
     3  C   -0.056605   0.366067   4.953954  -0.045459  -0.005764   0.000201
     4  C   -0.045754   0.362225  -0.045459   4.719437   0.506665  -0.009372
     5  C   -0.005737  -0.061360  -0.005764   0.506665   5.048404   0.493502
     6  C    0.000182   0.004963   0.000201  -0.009372   0.493502   4.842452
     7  C    0.000000  -0.000193  -0.000000   0.005170  -0.060993   0.366438
     8  C   -0.000009   0.000000   0.000002   0.000228  -0.007283  -0.043222
     9  C    0.000002   0.000001  -0.000009   0.000167  -0.007255  -0.044150
    10  C    0.000018   0.001195   0.000017  -0.040404  -0.042324   0.473465
    11  Br  -0.000000   0.000006  -0.000000  -0.000020   0.006674  -0.071360
    12  C   -0.000315   0.007004  -0.000310  -0.014214  -0.056442  -0.012330
    13  C    0.000003  -0.000208   0.000003   0.005524   0.000645   0.007040
    14  C   -0.000000   0.000001  -0.000000   0.000198   0.000016  -0.000265
    15  C   -0.000000   0.000001   0.000000   0.000164   0.000018  -0.000264
    16  C   -0.000833  -0.040064  -0.000569   0.533335  -0.040861  -0.054818
    17  H    0.379479  -0.032002   0.005640  -0.000996  -0.000012  -0.000069
    18  H    0.373684  -0.030019  -0.003567   0.005110   0.000125   0.000001
    19  H    0.384122  -0.032849  -0.006498  -0.009307   0.003603  -0.000020
    20  H   -0.043437   0.381725  -0.043493  -0.044061   0.006030  -0.000185
    21  H   -0.003499  -0.029865   0.373818   0.005092   0.000124   0.000001
    22  H    0.005632  -0.032115   0.379582  -0.001036   0.000040  -0.000076
    23  H   -0.006514  -0.032846   0.384074  -0.009251   0.003377  -0.000010
    24  H    0.000475  -0.008091   0.000572  -0.044721   0.362277  -0.046048
    25  H   -0.000000   0.000002  -0.000000  -0.000150   0.005833  -0.039025
    26  H    0.000002  -0.000003  -0.000001   0.000078   0.003451  -0.009943
    27  H    0.000001   0.000000  -0.000000  -0.000072   0.000055  -0.001555
    28  H    0.000000  -0.000000  -0.000000  -0.000001   0.000165   0.005102
    29  H   -0.000001  -0.000004   0.000006   0.000034   0.004045  -0.010052
    30  H   -0.000000   0.000000   0.000001  -0.000049  -0.000061  -0.001558
    31  H   -0.000000  -0.000000   0.000000   0.000000   0.000151   0.005177
    32  H   -0.000000   0.000002  -0.000000  -0.000167  -0.000027   0.000400
    33  H   -0.000001   0.000001   0.000000   0.000040  -0.000008   0.000019
    34  H   -0.000000   0.000001  -0.000000  -0.000067  -0.000015  -0.000039
    35  H   -0.000000  -0.000000   0.000000   0.000000  -0.000000   0.000004
    36  H    0.000000  -0.000000  -0.000000   0.000001  -0.000000   0.000004
    37  H   -0.000000   0.000001  -0.000000  -0.000054  -0.000015  -0.000046
    38  H    0.000000   0.000001  -0.000001   0.000020  -0.000008   0.000019
    39  H    0.000255  -0.012034   0.000247  -0.038358   0.006839   0.000630
               7          8          9         10         11         12
     1  C    0.000000  -0.000009   0.000002   0.000018  -0.000000  -0.000315
     2  C   -0.000193   0.000000   0.000001   0.001195   0.000006   0.007004
     3  C   -0.000000   0.000002  -0.000009   0.000017  -0.000000  -0.000310
     4  C    0.005170   0.000228   0.000167  -0.040404  -0.000020  -0.014214
     5  C   -0.060993  -0.007283  -0.007255  -0.042324   0.006674  -0.056442
     6  C    0.366438  -0.043222  -0.044150   0.473465  -0.071360  -0.012330
     7  C    4.982803   0.363149   0.363983  -0.047915  -0.029799   0.007120
     8  C    0.363149   4.949359  -0.054265   0.001043   0.000980  -0.000265
     9  C    0.363983  -0.054265   4.948859   0.000299   0.000937  -0.000272
    10  C   -0.047915   0.001043   0.000299   5.081209   0.268606   0.479587
    11  Br  -0.029799   0.000980   0.000937   0.268606  35.026361  -0.072319
    12  C    0.007120  -0.000265  -0.000272   0.479587  -0.072319   4.858447
    13  C   -0.000152   0.000002   0.000002  -0.049057  -0.029821   0.365993
    14  C    0.000002   0.000000  -0.000000   0.000797   0.000983  -0.043508
    15  C    0.000002  -0.000000   0.000000   0.000434   0.000951  -0.043886
    16  C    0.000708   0.000020   0.000022  -0.043112   0.006526   0.475588
    17  H    0.000000   0.000001  -0.000000  -0.000016  -0.000000  -0.000042
    18  H   -0.000000   0.000000  -0.000000  -0.000000   0.000000   0.000004
    19  H   -0.000006   0.000005  -0.000001  -0.000006  -0.000000   0.000019
    20  H    0.000002  -0.000000  -0.000000  -0.000007  -0.000000   0.000391
    21  H   -0.000000  -0.000000   0.000000  -0.000000   0.000000   0.000004
    22  H    0.000000  -0.000000   0.000001  -0.000016  -0.000000  -0.000039
    23  H   -0.000005  -0.000001   0.000001  -0.000005  -0.000000   0.000019
    24  H   -0.008705   0.000184   0.000018   0.005789  -0.000160   0.000693
    25  H    0.388089  -0.042033  -0.041911  -0.013549   0.016333   0.000380
    26  H   -0.031888   0.382049  -0.006841  -0.000279  -0.000049   0.000018
    27  H   -0.032507   0.381199   0.005509   0.000988   0.000492  -0.000036
    28  H   -0.030982   0.375793  -0.003264  -0.000030  -0.000023   0.000004
    29  H   -0.032108  -0.006798   0.382416  -0.000273  -0.000051   0.000020
    30  H   -0.032291   0.005525   0.381180   0.001122   0.000774  -0.000048
    31  H   -0.031297  -0.003421   0.375410  -0.000019  -0.000030   0.000004
    32  H    0.000010  -0.000000  -0.000000  -0.013147   0.016351  -0.039327
    33  H    0.000000   0.000000   0.000000  -0.000246  -0.000050  -0.009681
    34  H    0.000000  -0.000000   0.000000   0.001034   0.000551  -0.001470
    35  H   -0.000000   0.000000   0.000000  -0.000032  -0.000025   0.005085
    36  H   -0.000000   0.000000   0.000000  -0.000026  -0.000029   0.005118
    37  H    0.000001   0.000000  -0.000000   0.001091   0.000696  -0.001486
    38  H    0.000000   0.000000  -0.000000  -0.000239  -0.000051  -0.009727
    39  H    0.000012   0.000000   0.000000   0.005666  -0.000157  -0.051115
              13         14         15         16         17         18
     1  C    0.000003  -0.000000  -0.000000  -0.000833   0.379479   0.373684
     2  C   -0.000208   0.000001   0.000001  -0.040064  -0.032002  -0.030019
     3  C    0.000003  -0.000000   0.000000  -0.000569   0.005640  -0.003567
     4  C    0.005524   0.000198   0.000164   0.533335  -0.000996   0.005110
     5  C    0.000645   0.000016   0.000018  -0.040861  -0.000012   0.000125
     6  C    0.007040  -0.000265  -0.000264  -0.054818  -0.000069   0.000001
     7  C   -0.000152   0.000002   0.000002   0.000708   0.000000  -0.000000
     8  C    0.000002   0.000000  -0.000000   0.000020   0.000001   0.000000
     9  C    0.000002  -0.000000   0.000000   0.000022  -0.000000  -0.000000
    10  C   -0.049057   0.000797   0.000434  -0.043112  -0.000016  -0.000000
    11  Br  -0.029821   0.000983   0.000951   0.006526  -0.000000   0.000000
    12  C    0.365993  -0.043508  -0.043886   0.475588  -0.000042   0.000004
    13  C    4.983244   0.363184   0.363609  -0.058675   0.000000  -0.000000
    14  C    0.363184   4.949714  -0.054402  -0.007387   0.000000   0.000000
    15  C    0.363609  -0.054402   4.949420  -0.007384   0.000000  -0.000000
    16  C   -0.058675  -0.007387  -0.007384   5.045993   0.001357  -0.000043
    17  H    0.000000   0.000000   0.000000   0.001357   0.603068  -0.029789
    18  H   -0.000000   0.000000  -0.000000  -0.000043  -0.029789   0.617122
    19  H    0.000000   0.000000  -0.000000   0.000023  -0.031040  -0.030898
    20  H   -0.000009  -0.000003  -0.000003  -0.008466  -0.003516  -0.004618
    21  H   -0.000000  -0.000000   0.000000  -0.000047  -0.000078   0.003338
    22  H    0.000000   0.000000   0.000000   0.001272  -0.000230  -0.000076
    23  H    0.000000  -0.000000   0.000000   0.000024   0.000008  -0.000319
    24  H    0.000013   0.000000   0.000000   0.006217   0.000105  -0.000143
    25  H    0.000011  -0.000000  -0.000000  -0.000033  -0.000000   0.000000
    26  H    0.000000   0.000000   0.000000  -0.000009  -0.000000   0.000000
    27  H    0.000000  -0.000000   0.000000  -0.000014  -0.000000  -0.000000
    28  H   -0.000000   0.000000  -0.000000  -0.000000  -0.000000   0.000000
    29  H    0.000000   0.000000  -0.000000  -0.000010  -0.000000  -0.000000
    30  H    0.000001   0.000000  -0.000000  -0.000014   0.000000   0.000000
    31  H   -0.000000   0.000000   0.000000  -0.000000   0.000000  -0.000000
    32  H    0.388276  -0.041957  -0.041911   0.005591  -0.000000   0.000000
    33  H   -0.032006   0.382481  -0.006724   0.003333   0.000000   0.000000
    34  H   -0.032501   0.381079   0.005518  -0.000001   0.000000  -0.000000
    35  H   -0.031003   0.375667  -0.003366   0.000184   0.000000  -0.000000
    36  H   -0.031135  -0.003435   0.375495   0.000177  -0.000000   0.000000
    37  H   -0.032396   0.005524   0.381075  -0.000048  -0.000000   0.000000
    38  H   -0.032145  -0.006703   0.382651   0.003610  -0.000000   0.000000
    39  H   -0.008841   0.000049   0.000003   0.361437   0.000062  -0.000025
              19         20         21         22         23         24
     1  C    0.384122  -0.043437  -0.003499   0.005632  -0.006514   0.000475
     2  C   -0.032849   0.381725  -0.029865  -0.032115  -0.032846  -0.008091
     3  C   -0.006498  -0.043493   0.373818   0.379582   0.384074   0.000572
     4  C   -0.009307  -0.044061   0.005092  -0.001036  -0.009251  -0.044721
     5  C    0.003603   0.006030   0.000124   0.000040   0.003377   0.362277
     6  C   -0.000020  -0.000185   0.000001  -0.000076  -0.000010  -0.046048
[...]
     30          1           0       -1.462095    2.363467    1.637947
     31          1           0       -1.028968    4.043841    1.274623
     32          1           0       -2.193934   -2.064609   -0.778308
     33          1           0       -0.120007   -4.173906    0.021288
     34          1           0       -0.385485   -3.609032   -1.637811
     35          1           0       -1.681321   -4.430854   -0.751587
     36          1           0       -2.750179   -3.315973    1.298496
     37          1           0       -2.392838   -1.615646    1.651519
     38          1           0       -1.181678   -2.865534    1.995775
     39          1           0        1.347188   -2.586569   -0.016964
 ---------------------------------------------------------------------
 Rotational constants (GHZ):           0.4707618           0.3200565           0.2122448
 Leave Link  202 at Tue Sep 17 10:09:23 2024, MaxMem=  1342177280 cpu:               0.0 elap:               0.0
 (Enter /groups/ReismanLab/Software/Gaussian16_RevC/Linux_Binary_AVX2-enabled-CPU/g16/l301.exe)
 Standard basis: def2TZVP (5D, 7F)
 Ernie: Thresh=  0.10000D-02 Tol=  0.10000D-05 Strict=F.
 There are   733 symmetry adapted cartesian basis functions of A   symmetry.
 There are   651 symmetry adapted basis functions of A   symmetry.
   651 basis functions,  1063 primitive gaussians,   733 cartesian basis functions
    74 alpha electrons       74 beta electrons
       nuclear repulsion energy      1526.4900084863 Hartrees.
 IExCor= 4336 DFT=T Ex+Corr=M062X ExCW=0 ScaHFX=  0.540000
 ScaDFX=  1.000000  1.000000  1.000000  1.000000 ScalE2=  1.000000  1.000000
 IRadAn=      5 IRanWt=     -1 IRanGd=            0 ICorTp=0 IEmpDi=  4
 NAtoms=   39 NActive=   39 NUniq=   39 SFac= 1.00D+00 NAtFMM=   60 NAOKFM=F Big=F
 Integral buffers will be    131072 words long.
 Raffenetti 2 integral format.
 Two-electron integral symmetry is turned on.
 ------------------------------------------------------------------------------
 Polarizable Continuum Model (PCM)
 =================================
 Model                : PCM.
 Atomic radii         : SMD-Coulomb.
 Polarization charges : Total charges.
 Charge compensation  : None.
 Solution method      : On-the-fly selection.
 Cavity type          : VdW (van der Waals Surface) (Alpha=1.000).
 Cavity algorithm     : GePol (No added spheres)
                        Default sphere list used, NSphG=   39.
                        Lebedev-Laikov grids with approx.  5.0 points / Ang**2.
                        Smoothing algorithm: York/Karplus (Gamma=1.0000).
                        Polarization charges: spherical gaussians, with
                                              point-specific exponents (IZeta= 3).
                        Self-potential: point-specific (ISelfS= 7).
                        Self-field    : sphere-specific E.n sum rule (ISelfD= 2).
 Solvent              : 1,4-Dioxane, Eps=   2.209900 Eps(inf)=   2.023222
 ------------------------------------------------------------------------------
 GePol: Number of generator spheres                  =      39
 GePol: Total number of spheres                      =      39
 GePol: Number of exposed spheres                    =      39 (100.00%)
 GePol: Number of points                             =    2695
 GePol: Average weight of points                     =       0.12
 GePol: Minimum weight of points                     =   0.37D-11
 GePol: Maximum weight of points                     =    0.21647
 GePol: Number of points with low weight             =     155
 GePol: Fraction of low-weight points (<1% of avg)   =       5.75%
 GePol: Cavity surface area                          =    310.039 Ang**2
 GePol: Cavity volume                                =    297.752 Ang**3
 ------------------------------------------------------------------------------
 Atomic radii for non-electrostatic terms: SMD-CDS.
 ------------------------------------------------------------------------------
 PCM non-electrostatic energy =        -0.0046349076 Hartrees.
 Nuclear repulsion after PCM non-electrostatic terms =     1526.4853735787 Hartrees.
 Leave Link  301 at Tue Sep 17 10:09:23 2024, MaxMem=  1342177280 cpu:               0.1 elap:               0.1
 (Enter /groups/ReismanLab/Software/Gaussian16_RevC/Linux_Binary_AVX2-enabled-CPU/g16/l302.exe)
 NPDir=0 NMtPBC=     1 NCelOv=     1 NCel=       1 NClECP=     1 NCelD=      1
         NCelK=      1 NCelE2=     1 NClLst=     1 CellRange=     0.0.
 One-electron integrals computed using PRISM.
 One-electron integral symmetry used in STVInt
   1 Symmetry operations used in ECPInt.
 ECPInt:  NShTT=   37401 NPrTT=  114468 LenC2=   34212 LenP2D=   76047.
 LDataN:  DoStor=T MaxTD1= 6 Len=  172
 NBasis=   651 RedAO= T EigKep=  4.17D-06  NBF=   651
 NBsUse=   651 1.00D-06 EigRej= -1.00D+00 NBFU=   651
 Precomputing XC quadrature grid using
 IXCGrd= 4 IRadAn=           5 IRanWt=          -1 IRanGd=           0 AccXCQ= 0.00D+00.
 Generated NRdTot=       0 NPtTot=           0 NUsed=           0 NTot=          32
 NSgBfM=   725   725   725   725   725 MxSgAt=    39 MxSgA2=    39.
 Leave Link  302 at Tue Sep 17 10:09:24 2024, MaxMem=  1342177280 cpu:               1.4 elap:               1.4
 (Enter /groups/ReismanLab/Software/Gaussian16_RevC/Linux_Binary_AVX2-enabled-CPU/g16/l303.exe)
 DipDrv:  MaxL=1.
 Leave Link  303 at Tue Sep 17 10:09:24 2024, MaxMem=  1342177280 cpu:               0.1 elap:               0.1
 (Enter /groups/ReismanLab/Software/Gaussian16_RevC/Linux_Binary_AVX2-enabled-CPU/g16/l401.exe)
 Initial guess from the checkpoint file:  "smiles_00105_conf_8.chk"
 B after Tr=    -0.000000    0.000000    0.000000
         Rot=    1.000000    0.000000   -0.000000    0.000000 Ang=   0.00 deg.
 Guess basis will be translated and rotated to current coordinates.
 JPrj=2 DoOrth=T DoCkMO=T.
 Leave Link  401 at Tue Sep 17 10:09:25 2024, MaxMem=  1342177280 cpu:               0.3 elap:               0.5
 (Enter /groups/ReismanLab/Software/Gaussian16_RevC/Linux_Binary_AVX2-enabled-CPU/g16/l502.exe)
 Integral symmetry usage will be decided dynamically.
 Closed shell SCF:
 Using DIIS extrapolation, IDIIS=  1040.
 NGot=  1342177280 LenX=  1341090710 LenY=  1340552688
 Requested convergence on RMS density matrix=1.00D-08 within  32 cycles.
 Requested convergence on MAX density matrix=1.00D-06.
 Requested convergence on             energy=1.00D-06.
 No special actions if energy rises.
 Fock matrices will be formed incrementally for  20 cycles.

 Cycle   1  Pass 1  IDiag  1:
 FoFJK:  IHMeth= 1 ICntrl=       0 DoSepK=F KAlg= 0 I1Cent=           0 FoldK=F
 IRaf= 860000000 NMat=       1 IRICut=       1 DoRegI=T DoRafI=F ISym2E= 0 IDoP0=0 IntGTp=1.
 FoFCou: FMM=F IPFlag=           0 FMFlag=      100000 FMFlg1=           0
         NFxFlg=           0 DoJE=F BraDBF=F KetDBF=F FulRan=T
         wScrn=  0.000000 ICntrl=         0 IOpCl=  0 I1Cent=           0 NGrid=           0
         NMat0=    1 NMatS0=      1 NMatT0=    0 NMatD0=    1 NMtDS0=    0 NMtDT0=    0
 Symmetry not used in FoFCou.
 Inv3:  Mode=1 IEnd=    21789075.
 Iteration    1 A*A^-1 deviation from unit magnitude is 3.55D-15 for   1665.
 Iteration    1 A*A^-1 deviation from orthogonality  is 2.39D-15 for   1374     12.
 Iteration    1 A^-1*A deviation from unit magnitude is 3.33D-15 for   1665.
 Iteration    1 A^-1*A deviation from orthogonality  is 1.50D-14 for   2318   2264.
 E= -3159.40313550907    
 DIIS: error= 1.32D-01 at cycle   1 NSaved=   1.
 NSaved= 1 IEnMin= 1 EnMin= -3159.40313550907     IErMin= 1 ErrMin= 1.32D-01
 ErrMax= 1.32D-01  0.00D+00 EMaxC= 1.00D-01 BMatC= 4.26D+00 BMatP= 4.26D+00
 IDIUse=3 WtCom= 0.00D+00 WtEn= 1.00D+00
 Coeff-Com:  0.100D+01
 Coeff-En:   0.100D+01
 Coeff:      0.100D+01
 Gap=     0.733 Goal=   None    Shift=    0.000
 GapD=    0.733 DampG=2.000 DampE=0.250 DampFc=0.5000 IDamp=-1.
 Damping current iteration by 5.00D-01
 RMSDP=8.93D-03 MaxDP=1.17D+00              OVMax= 3.80D-02

 Cycle   2  Pass 1  IDiag  1:
 RMSU=  3.01D-03    CP:  7.57D-01
 E= -3159.50239824298     Delta-E=       -0.099262733911 Rises=F Damp=T
 DIIS: error= 6.63D-02 at cycle   2 NSaved=   2.
 NSaved= 2 IEnMin= 2 EnMin= -3159.50239824298     IErMin= 2 ErrMin= 6.63D-02
 ErrMax= 6.63D-02  0.00D+00 EMaxC= 1.00D-01 BMatC= 1.07D+00 BMatP= 4.26D+00
 IDIUse=3 WtCom= 3.37D-01 WtEn= 6.63D-01
 Coeff-Com: -0.100D+01 0.200D+01
 Coeff-En:   0.000D+00 0.100D+01
 Coeff:     -0.339D+00 0.134D+01
 Gap=     0.299 Goal=   None    Shift=    0.000
 RMSDP=4.55D-03 MaxDP=5.91D-01 DE=-9.93D-02 OVMax= 4.41D-03

 Cycle   3  Pass 1  IDiag  1:
 RMSU=  3.16D-04    CP:  5.11D-01  2.02D+00
 E= -3159.60420930802     Delta-E=       -0.101811065043 Rises=F Damp=F
 DIIS: error= 3.60D-04 at cycle   3 NSaved=   3.
 NSaved= 3 IEnMin= 3 EnMin= -3159.60420930802     IErMin= 3 ErrMin= 3.60D-04
 ErrMax= 3.60D-04  0.00D+00 EMaxC= 1.00D-01 BMatC= 1.99D-04 BMatP= 1.07D+00
 IDIUse=3 WtCom= 9.96D-01 WtEn= 3.60D-03
 Coeff-Com: -0.594D-01 0.115D+00 0.944D+00
 Coeff-En:   0.000D+00 0.000D+00 0.100D+01
 Coeff:     -0.592D-01 0.115D+00 0.944D+00
 Gap=     0.300 Goal=   None    Shift=    0.000
 RMSDP=1.79D-04 MaxDP=1.44D-02 DE=-1.02D-01 OVMax= 5.70D-03

 Cycle   4  Pass 1  IDiag  1:
 RMSU=  1.01D-04    CP:  5.06D-01  2.04D+00  1.37D+00
 E= -3159.60437389407     Delta-E=       -0.000164586049 Rises=F Damp=F
 DIIS: error= 1.83D-04 at cycle   4 NSaved=   4.
 NSaved= 4 IEnMin= 4 EnMin= -3159.60437389407     IErMin= 4 ErrMin= 1.83D-04
 ErrMax= 1.83D-04  0.00D+00 EMaxC= 1.00D-01 BMatC= 4.44D-05 BMatP= 1.99D-04
 IDIUse=3 WtCom= 9.98D-01 WtEn= 1.83D-03
 Coeff-Com:  0.412D-01-0.829D-01 0.250D+00 0.792D+00
 Coeff-En:   0.000D+00 0.000D+00 0.000D+00 0.100D+01
 Coeff:      0.411D-01-0.827D-01 0.249D+00 0.792D+00
 Gap=     0.299 Goal=   None    Shift=    0.000
 RMSDP=2.96D-05 MaxDP=2.15D-03 DE=-1.65D-04 OVMax= 2.39D-03

 Cycle   5  Pass 1  IDiag  1:
 RMSU=  1.91D-05    CP:  5.05D-01  2.04D+00  1.44D+00  1.05D+00
 E= -3159.60441225926     Delta-E=       -0.000038365190 Rises=F Damp=F
 DIIS: error= 6.82D-05 at cycle   5 NSaved=   5.
 NSaved= 5 IEnMin= 5 EnMin= -3159.60441225926     IErMin= 5 ErrMin= 6.82D-05
 ErrMax= 6.82D-05  0.00D+00 EMaxC= 1.00D-01 BMatC= 7.64D-06 BMatP= 4.44D-05
 IDIUse=1 WtCom= 1.00D+00 WtEn= 0.00D+00
 Coeff-Com:  0.201D-01-0.402D-01 0.321D-01 0.354D+00 0.634D+00
 Coeff:      0.201D-01-0.402D-01 0.321D-01 0.354D+00 0.634D+00
 Gap=     0.299 Goal=   None    Shift=    0.000
 RMSDP=8.03D-06 MaxDP=3.61D-04 DE=-3.84D-05 OVMax= 1.47D-03

 Cycle   6  Pass 1  IDiag  1:
 RMSU=  5.87D-06    CP:  5.05D-01  2.04D+00  1.45D+00  1.08D+00  9.44D-01
 E= -3159.60441929534     Delta-E=       -0.000007036072 Rises=F Damp=F
 DIIS: error= 2.90D-05 at cycle   6 NSaved=   6.
 NSaved= 6 IEnMin= 6 EnMin= -3159.60441929534     IErMin= 6 ErrMin= 2.90D-05
 ErrMax= 2.90D-05  0.00D+00 EMaxC= 1.00D-01 BMatC= 1.34D-06 BMatP= 7.64D-06
 IDIUse=1 WtCom= 1.00D+00 WtEn= 0.00D+00
 Coeff-Com:  0.396D-02-0.785D-02-0.170D-01 0.909D-01 0.349D+00 0.581D+00
 Coeff:      0.396D-02-0.785D-02-0.170D-01 0.909D-01 0.349D+00 0.581D+00
 Gap=     0.300 Goal=   None    Shift=    0.000
 RMSDP=3.35D-06 MaxDP=2.69D-04 DE=-7.04D-06 OVMax= 3.82D-04

 Cycle   7  Pass 1  IDiag  1:
 RMSU=  2.21D-06    CP:  5.05D-01  2.04D+00  1.46D+00  1.09D+00  9.86D-01
                    CP:  9.45D-01
 E= -3159.60442067849     Delta-E=       -0.000001383159 Rises=F Damp=F
 DIIS: error= 5.31D-06 at cycle   7 NSaved=   7.
 NSaved= 7 IEnMin= 7 EnMin= -3159.60442067849     IErMin= 7 ErrMin= 5.31D-06
 ErrMax= 5.31D-06  0.00D+00 EMaxC= 1.00D-01 BMatC= 3.17D-08 BMatP= 1.34D-06
 IDIUse=1 WtCom= 1.00D+00 WtEn= 0.00D+00
 Coeff-Com: -0.112D-02 0.226D-02-0.689D-02-0.151D-01 0.285D-01 0.142D+00
 Coeff-Com:  0.851D+00
 Coeff:     -0.112D-02 0.226D-02-0.689D-02-0.151D-01 0.285D-01 0.142D+00
 Coeff:      0.851D+00
 Gap=     0.300 Goal=   None    Shift=    0.000
 RMSDP=9.13D-07 MaxDP=6.52D-05 DE=-1.38D-06 OVMax= 7.85D-05

 Cycle   8  Pass 1  IDiag  1:
 RMSU=  4.76D-07    CP:  5.05D-01  2.04D+00  1.46D+00  1.09D+00  1.01D+00
                    CP:  1.02D+00  1.06D+00
 E= -3159.60442071766     Delta-E=       -0.000000039167 Rises=F Damp=F
 DIIS: error= 1.95D-06 at cycle   8 NSaved=   8.
 NSaved= 8 IEnMin= 8 EnMin= -3159.60442071766     IErMin= 8 ErrMin= 1.95D-06
 ErrMax= 1.95D-06  0.00D+00 EMaxC= 1.00D-01 BMatC= 5.56D-09 BMatP= 3.17D-08
 IDIUse=1 WtCom= 1.00D+00 WtEn= 0.00D+00
 Coeff-Com: -0.580D-03 0.116D-02-0.778D-03-0.128D-01-0.167D-01 0.267D-02
 Coeff-Com:  0.345D+00 0.682D+00
 Coeff:     -0.580D-03 0.116D-02-0.778D-03-0.128D-01-0.167D-01 0.267D-02
 Coeff:      0.345D+00 0.682D+00
 Gap=     0.300 Goal=   None    Shift=    0.000
 RMSDP=2.61D-07 MaxDP=1.46D-05 DE=-3.92D-08 OVMax= 4.17D-05

 Cycle   9  Pass 1  IDiag  1:
 RMSU=  1.56D-07    CP:  5.05D-01  2.04D+00  1.46D+00  1.09D+00  1.01D+00
                    CP:  1.04D+00  1.11D+00  9.24D-01
 E= -3159.60442072439     Delta-E=       -0.000000006733 Rises=F Damp=F
 DIIS: error= 4.96D-07 at cycle   9 NSaved=   9.
 NSaved= 9 IEnMin= 9 EnMin= -3159.60442072439     IErMin= 9 ErrMin= 4.96D-07
 ErrMax= 4.96D-07  0.00D+00 EMaxC= 1.00D-01 BMatC= 4.98D-10 BMatP= 5.56D-09
 IDIUse=1 WtCom= 1.00D+00 WtEn= 0.00D+00
 Coeff-Com: -0.635D-04 0.126D-03 0.376D-03-0.261D-02-0.742D-02-0.146D-01
 Coeff-Com:  0.272D-01 0.234D+00 0.763D+00
 Coeff:     -0.635D-04 0.126D-03 0.376D-03-0.261D-02-0.742D-02-0.146D-01
 Coeff:      0.272D-01 0.234D+00 0.763D+00
 Gap=     0.300 Goal=   None    Shift=    0.000
 RMSDP=8.88D-08 MaxDP=4.99D-06 DE=-6.73D-09 OVMax= 1.26D-05

 Cycle  10  Pass 1  IDiag  1:
 RMSU=  6.03D-08    CP:  5.05D-01  2.04D+00  1.46D+00  1.09D+00  1.01D+00
                    CP:  1.04D+00  1.13D+00  9.58D-01  1.17D+00
 E= -3159.60442072509     Delta-E=       -0.000000000691 Rises=F Damp=F
 DIIS: error= 2.41D-07 at cycle  10 NSaved=  10.
 NSaved=10 IEnMin=10 EnMin= -3159.60442072509     IErMin=10 ErrMin= 2.41D-07
 ErrMax= 2.41D-07  0.00D+00 EMaxC= 1.00D-01 BMatC= 8.70D-11 BMatP= 4.98D-10
 IDIUse=1 WtCom= 1.00D+00 WtEn= 0.00D+00
 Coeff-Com:  0.592D-04-0.119D-03 0.260D-03 0.123D-02 0.499D-03-0.701D-02
 Coeff-Com: -0.580D-01-0.191D-01 0.305D+00 0.778D+00
 Coeff:      0.592D-04-0.119D-03 0.260D-03 0.123D-02 0.499D-03-0.701D-02
 Coeff:     -0.580D-01-0.191D-01 0.305D+00 0.778D+00
 Gap=     0.300 Goal=   None    Shift=    0.000
 RMSDP=3.96D-08 MaxDP=2.77D-06 DE=-6.91D-10 OVMax= 7.36D-06

 Cycle  11  Pass 1  IDiag  1:
 RMSU=  2.43D-08    CP:  5.05D-01  2.04D+00  1.46D+00  1.09D+00  1.01D+00
                    CP:  1.04D+00  1.13D+00  9.83D-01  1.29D+00  1.10D+00
 E= -3159.60442072508     Delta-E=        0.000000000008 Rises=F Damp=F
 DIIS: error= 1.00D-07 at cycle  11 NSaved=  11.
 NSaved=11 IEnMin=10 EnMin= -3159.60442072509     IErMin=11 ErrMin= 1.00D-07
 ErrMax= 1.00D-07  0.00D+00 EMaxC= 1.00D-01 BMatC= 1.33D-11 BMatP= 8.70D-11
 IDIUse=1 WtCom= 1.00D+00 WtEn= 0.00D+00
 Coeff-Com:  0.268D-04-0.536D-04 0.616D-04 0.709D-03 0.110D-02-0.136D-02
 Coeff-Com: -0.261D-01-0.242D-01 0.529D-01 0.346D+00 0.651D+00
 Coeff:      0.268D-04-0.536D-04 0.616D-04 0.709D-03 0.110D-02-0.136D-02
 Coeff:     -0.261D-01-0.242D-01 0.529D-01 0.346D+00 0.651D+00
 Gap=     0.300 Goal=   None    Shift=    0.000
 RMSDP=1.05D-08 MaxDP=5.30D-07 DE= 7.73D-12 OVMax= 2.36D-06

 Cycle  12  Pass 1  IDiag  1:
 RMSU=  8.14D-09    CP:  5.05D-01  2.04D+00  1.46D+00  1.09D+00  1.01D+00
                    CP:  1.04D+00  1.13D+00  9.89D-01  1.31D+00  1.18D+00
                    CP:  1.00D+00
 E= -3159.60442072511     Delta-E=       -0.000000000028 Rises=F Damp=F
 DIIS: error= 3.04D-08 at cycle  12 NSaved=  12.
 NSaved=12 IEnMin=12 EnMin= -3159.60442072511     IErMin=12 ErrMin= 3.04D-08
 ErrMax= 3.04D-08  0.00D+00 EMaxC= 1.00D-01 BMatC= 1.64D-12 BMatP= 1.33D-11
 IDIUse=1 WtCom= 1.00D+00 WtEn= 0.00D+00
 Coeff-Com:  0.516D-05-0.103D-04-0.102D-04 0.924D-04 0.383D-03 0.593D-03
 Coeff-Com: -0.129D-02-0.614D-02-0.383D-01-0.942D-02 0.243D+00 0.811D+00
 Coeff:      0.516D-05-0.103D-04-0.102D-04 0.924D-04 0.383D-03 0.593D-03
 Coeff:     -0.129D-02-0.614D-02-0.383D-01-0.942D-02 0.243D+00 0.811D+00
 Gap=     0.300 Goal=   None    Shift=    0.000
 RMSDP=5.01D-09 MaxDP=2.62D-07 DE=-2.82D-11 OVMax= 8.37D-07

 Error on total polarization charges =  0.03860
 SCF Done:  E(RM062X) =  -3159.60442073     A.U. after   12 cycles
            NFock= 12  Conv=0.50D-08     -V/T= 2.0021
 KE= 3.152845371019D+03 PE=-1.056123238354D+04 EE= 2.722297218213D+03
 SMD-CDS (non-electrostatic) energy       (kcal/mol) =      -2.91
 (included in total energy above)
 Leave Link  502 at Tue Sep 17 10:53:09 2024, MaxMem=  1342177280 cpu:            2617.5 elap:            2624.0
 (Enter /groups/ReismanLab/Software/Gaussian16_RevC/Linux_Binary_AVX2-enabled-CPU/g16/l508.exe)
 QCSCF skips out because SCF is already converged.
 Leave Link  508 at Tue Sep 17 10:53:09 2024, MaxMem=  1342177280 cpu:               0.0 elap:               0.0
 (Enter /groups/ReismanLab/Software/Gaussian16_RevC/Linux_Binary_AVX2-enabled-CPU/g16/l801.exe)
 DoSCS=F DFT=T ScalE2(SS,OS)=  1.000000  1.000000
 Range of M.O.s used for correlation:     1   651
 NBasis=   651 NAE=    74 NBE=    74 NFC=     0 NFV=     0
 NROrb=    651 NOA=    74 NOB=    74 NVA=   577 NVB=   577

 **** Warning!!: The largest alpha MO coefficient is  0.63598797D+02

 Leave Link  801 at Tue Sep 17 10:53:09 2024, MaxMem=  1342177280 cpu:               0.0 elap:               0.0
 (Enter /groups/ReismanLab/Software/Gaussian16_RevC/Linux_Binary_AVX2-enabled-CPU/g16/l1002.exe)
 Minotr:  Closed shell wavefunction.
 NEqPCM:  Using equilibrium solvation (IEInf=0, Eps=   2.2099, EpsInf=   2.0232)
          Direct CPHF calculation.
          Differentiating once with respect to electric field.
                with respect to dipole field.
          Electric field/nuclear overlap derivatives assumed to be zero.
          Requested convergence is 1.0D-08 RMS, and 1.0D-07 maximum.
          Secondary convergence is 1.0D-12 RMS, and 1.0D-12 maximum.
          NewPWx=F KeepS1=T KeepF1=T KeepIn=T MapXYZ=F SortEE=F KeepMc=T.
        11777 words used for storage of precomputed grid.
 Two-electron integral symmetry used by symmetrizing perturbed Fock matrices.
          MDV=    1342177280 using IRadAn=       1.
          Solving linear equations simultaneously, MaxMat=     384.
          There are     3 degrees of freedom in the 1st order CPHF.  IDoFFX=0 NUNeed=     3.
      3 vectors produced by pass  0 Test12= 1.42D-12 3.33D-08 XBig12= 1.40D+02 4.25D+00.
 AX will form     3 AO Fock derivatives at one time.
 FoFJK:  IHMeth= 1 ICntrl=       0 DoSepK=F KAlg= 0 I1Cent=           0 FoldK=F
 IRaf= 830000000 NMat=       3 IRICut=       1 DoRegI=T DoRafI=F ISym2E=-1 IDoP0=0 IntGTp=1.
 FoFCou: FMM=F IPFlag=           0 FMFlag=      100000 FMFlg1=           0
         NFxFlg=           0 DoJE=F BraDBF=F KetDBF=F FulRan=T
         wScrn=  0.000000 ICntrl=         0 IOpCl=  0 I1Cent=           0 NGrid=           0
         NMat0=    3 NMatS0=      3 NMatT0=    0 NMatD0=    3 NMtDS0=    0 NMtDT0=    0
 Petite list used in FoFCou.
      3 vectors produced by pass  1 Test12= 1.42D-12 3.33D-08 XBig12= 2.18D+01 9.14D-01.
      3 vectors produced by pass  2 Test12= 1.42D-12 3.33D-08 XBig12= 5.87D+00 6.14D-01.
      3 vectors produced by pass  3 Test12= 1.42D-12 3.33D-08 XBig12= 1.00D+00 2.17D-01.
      3 vectors produced by pass  4 Test12= 1.42D-12 3.33D-08 XBig12= 2.58D-01 1.48D-01.
      3 vectors produced by pass  5 Test12= 1.42D-12 3.33D-08 XBig12= 3.02D-02 3.18D-02.
      3 vectors produced by pass  6 Test12= 1.42D-12 3.33D-08 XBig12= 7.97D-03 2.88D-02.
      3 vectors produced by pass  7 Test12= 1.42D-12 3.33D-08 XBig12= 8.03D-04 5.97D-03.
      3 vectors produced by pass  8 Test12= 1.42D-12 3.33D-08 XBig12= 1.42D-04 4.25D-03.
      3 vectors produced by pass  9 Test12= 1.42D-12 3.33D-08 XBig12= 2.26D-05 8.87D-04.
      3 vectors produced by pass 10 Test12= 1.42D-12 3.33D-08 XBig12= 2.79D-06 3.29D-04.
