 Entering Gaussian System, Link 0=g16
 Input=smiles_00066_conf_0.gjf
 Output=smiles_00066_conf_0.log
 Initial command:
 /groups/ReismanLab/Software/Gaussian16_RevC/Linux_Binary_AVX2-enabled-CPU/g16/l1.exe "/central/groups/ReismanLab/DM/dft_final/smiles_00066/Gau-846435.inp" -scrdir="/central/groups/ReismanLab/DM/dft_final/smiles_00066/"
 Entering Link 1 = /groups/ReismanLab/Software/Gaussian16_RevC/Linux_Binary_AVX2-enabled-CPU/g16/l1.exe PID=    846438.
  
 Copyright (c) 1988-2021, Gaussian, Inc.  All Rights Reserved.
  
 This is part of the Gaussian(R) 16 program.  It is based on
 the Gaussian(R) 09 system (copyright 2009, Gaussian, Inc.),
 the Gaussian(R) 03 system (copyright 2003, Gaussian, Inc.),
 the Gaussian(R) 98 system (copyright 1998, Gaussian, Inc.),
 the Gaussian(R) 94 system (copyright 1995, Gaussian, Inc.),
 the Gaussian 92(TM) system (copyright 1992, Gaussian, Inc.),
 the Gaussian 90(TM) system (copyright 1990, Gaussian, Inc.),
 the Gaussian 88(TM) system (copyright 1988, Gaussian, Inc.),
 the Gaussian 86(TM) system (copyright 1986, Carnegie Mellon
 University), and the Gaussian 82(TM) system (copyright 1983,
 Carnegie Mellon University). Gaussian is a federally registered
 trademark of Gaussian, Inc.
  
 This software contains proprietary and confidential information,
 including trade secrets, belonging to Gaussian, Inc.
  
 This software is provided under written license and may be
 used, copied, transmitted, or stored only in accord with that
 written license.
  
 The following legend is applicable only to US Government
 contracts under FAR:
  
                    RESTRICTED RIGHTS LEGEND
  
 Use, reproduction and disclosure by the US Government is
 subject to restrictions as set forth in subparagraphs (a)
 and (c) of the Commercial Computer Software - Restricted
 Rights clause in FAR 52.227-19.
  
 Gaussian, Inc.
 340 Quinnipiac St., Bldg. 40, Wallingford CT 06492
  
  
 ---------------------------------------------------------------
 Warning -- This program may not be used in any manner that
 competes with the business of Gaussian, Inc. or will provide
 assistance to any competitor of Gaussian, Inc.  The licensee
 of this program is prohibited from giving any competitor of
 Gaussian, Inc. access to this program.  By using this program,
 the user acknowledges that Gaussian, Inc. is engaged in the
 business of creating and licensing software in the field of
 computational chemistry and represents and warrants to the
 licensee that it is not a competitor of Gaussian, Inc. and that
 it will not use this program in any manner prohibited above.
 ---------------------------------------------------------------
  

 Cite this work as:
 Gaussian 16, Revision C.02,
 M. J. Frisch, G. W. Trucks, H. B. Schlegel, G. E. Scuseria, 
 M. A. Robb, J. R. Cheeseman, G. Scalmani, V. Barone, 
 G. A. Petersson, H. Nakatsuji, X. Li, M. Caricato, A. V. Marenich, 
 J. Bloino, B. G. Janesko, R. Gomperts, B. Mennucci, H. P. Hratchian, 
 J. V. Ortiz, A. F. Izmaylov, J. L. Sonnenberg, D. Williams-Young, 
 F. Ding, F. Lipparini, F. Egidi, J. Goings, B. Peng, A. Petrone, 
 T. Henderson, D. Ranasinghe, V. G. Zakrzewski, J. Gao, N. Rega, 
 G. Zheng, W. Liang, M. Hada, M. Ehara, K. Toyota, R. Fukuda, 
 J. Hasegawa, M. Ishida, T. Nakajima, Y. Honda, O. Kitao, H. Nakai, 
 T. Vreven, K. Throssell, J. A. Montgomery, Jr., J. E. Peralta, 
 F. Ogliaro, M. J. Bearpark, J. J. Heyd, E. N. Brothers, K. N. Kudin, 
 V. N. Staroverov, T. A. Keith, R. Kobayashi, J. Normand, 
 K. Raghavachari, A. P. Rendell, J. C. Burant, S. S. Iyengar, 
 J. Tomasi, M. Cossi, J. M. Millam, M. Klene, C. Adamo, R. Cammi, 
 J. W. Ochterski, R. L. Martin, K. Morokuma, O. Farkas, 
 J. B. Foresman, and D. J. Fox, Gaussian, Inc., Wallingford CT, 2019.
 
 ******************************************
 Gaussian 16:  ES64L-G16RevC.02  7-Dec-2021
                17-Sep-2024 
 ******************************************
 %nprocshared=8
 Will use up to    8 processors via shared memory.
 %Mem=10GB
 %Chk=smiles_00066_conf_0.chk
 ----------------------------------------------------------------------
 #p B3LYP/6-31G(d,p) EmpiricalDispersion=GD3BJ opt freq scf(xqc,tight) 
 integral(grid=ultrafine)
 ----------------------------------------------------------------------
 1/18=20,19=15,26=4,38=1/1,3;
 2/9=110,12=2,17=6,18=5,40=1/2;
 3/5=1,6=6,7=101,11=2,25=1,30=1,71=1,74=-5,75=-5,124=41/1,2,3;
 4//1;
 5/5=2,8=3,13=1,32=2,38=5/2,8;
 6/7=2,8=2,9=2,10=2,28=1/1;
 7//1,2,3,16;
 1/18=20,19=15,26=4/3(2);
 2/9=110/2;
 99//99;
 2/9=110/2;
 3/5=1,6=6,7=101,11=2,25=1,30=1,71=1,74=-5,75=-5,124=41/1,2,3;
 4/5=5,16=3,69=1/1;
 5/5=2,8=3,13=1,32=2,38=5/2,8;
 7//1,2,3,16;
 1/18=20,19=15,26=4/3(-5);
 2/9=110/2;
 6/7=2,8=2,9=2,10=2,19=2,28=1/1;
 99/9=1/99;
 Leave Link    1 at Tue Sep 17 09:55:50 2024, MaxMem=  1342177280 cpu:               0.2 elap:               0.8
 (Enter /groups/ReismanLab/Software/Gaussian16_RevC/Linux_Binary_AVX2-enabled-CPU/g16/l101.exe)
 ----------------------------------
 opt-freq conformers_unique/conf_aa
 ----------------------------------
 Symbolic Z-matrix:
 Charge =  0 Multiplicity = 1
 C                     2.62751  -2.50385  -0.00495 
 C                     1.86785  -1.21313   0.007 
 C                     2.54577   0.00116   0.00241 
 C                     1.86996   1.21178  -0.00308 
 C                     2.60586   2.5163    0.00063 
 C                     0.47901   1.20618  -0.00377 
 C                    -0.19211   0.00012   0.00019 
 Br                   -2.10298  -0.00232  -0.00022 
 C                     0.48071  -1.20863   0.00534 
 H                     3.03691  -2.68509  -0.99899 
 H                     1.98305  -3.339     0.25659 
 H                     3.45893  -2.46562   0.696 
 H                     3.62656  -0.00257   0.00354 
 H                     2.26592   3.14737  -0.81885 
 H                     3.6767    2.35972  -0.09848 
 H                     2.41807   3.05086   0.93133 
 H                    -0.06872   2.13632  -0.00652 
 H                    -0.07077  -2.13651   0.00814 
 
 ITRead=  0  0  0  0  0  0  0  0  0  0  0  0  0  0  0  0  0  0
 MicOpt= -1 -1 -1 -1 -1 -1 -1 -1 -1 -1 -1 -1 -1 -1 -1 -1 -1 -1
 NAtoms=     18 NQM=       18 NQMF=       0 NMMI=      0 NMMIF=      0
                NMic=       0 NMicF=      0.
                    Isotopes and Nuclear Properties:
 (Nuclear quadrupole moments (NQMom) in fm**2, nuclear magnetic moments (NMagM)
  in nuclear magnetons)

  Atom         1           2           3           4           5           6           7           8           9          10
 IAtWgt=          12          12          12          12          12          12          12          79          12           1
 AtmWgt=  12.0000000  12.0000000  12.0000000  12.0000000  12.0000000  12.0000000  12.0000000  78.9183361  12.0000000   1.0078250
 NucSpn=           0           0           0           0           0           0           0           3           0           1
 AtZEff=  -0.0000000  -0.0000000  -0.0000000  -0.0000000  -0.0000000  -0.0000000  -0.0000000  -0.0000000  -0.0000000  -0.0000000
 NQMom=    0.0000000   0.0000000   0.0000000   0.0000000   0.0000000   0.0000000   0.0000000  31.3000000   0.0000000   0.0000000
 NMagM=    0.0000000   0.0000000   0.0000000   0.0000000   0.0000000   0.0000000   0.0000000   2.1063990   0.0000000   2.7928460
 AtZNuc=   6.0000000   6.0000000   6.0000000   6.0000000   6.0000000   6.0000000   6.0000000  35.0000000   6.0000000   1.0000000

  Atom        11          12          13          14          15          16          17          18
 IAtWgt=           1           1           1           1           1           1           1           1
 AtmWgt=   1.0078250   1.0078250   1.0078250   1.0078250   1.0078250   1.0078250   1.0078250   1.0078250
 NucSpn=           1           1           1           1           1           1           1           1
 AtZEff=  -0.0000000  -0.0000000  -0.0000000  -0.0000000  -0.0000000  -0.0000000  -0.0000000  -0.0000000
 NQMom=    0.0000000   0.0000000   0.0000000   0.0000000   0.0000000   0.0000000   0.0000000   0.0000000
 NMagM=    2.7928460   2.7928460   2.7928460   2.7928460   2.7928460   2.7928460   2.7928460   2.7928460
 AtZNuc=   1.0000000   1.0000000   1.0000000   1.0000000   1.0000000   1.0000000   1.0000000   1.0000000
 Leave Link  101 at Tue Sep 17 09:55:51 2024, MaxMem=  1342177280 cpu:               0.2 elap:               0.3
 (Enter /groups/ReismanLab/Software/Gaussian16_RevC/Linux_Binary_AVX2-enabled-CPU/g16/l103.exe)

 GradGradGradGradGradGradGradGradGradGradGradGradGradGradGradGradGradGrad
 Berny optimization.
 Initialization pass.
                           ----------------------------
                           !    Initial Parameters    !
                           ! (Angstroms and Degrees)  !
 --------------------------                            --------------------------
 ! Name  Definition              Value          Derivative Info.                !
 --------------------------------------------------------------------------------
 ! R1    R(1,2)                  1.4977         estimate D2E/DX2                !
 ! R2    R(1,10)                 1.0902         estimate D2E/DX2                !
 ! R3    R(1,11)                 1.0868         estimate D2E/DX2                !
 ! R4    R(1,12)                 1.0881         estimate D2E/DX2                !
 ! R5    R(2,3)                  1.3907         estimate D2E/DX2                !
 ! R6    R(2,9)                  1.3872         estimate D2E/DX2                !
 ! R7    R(3,4)                  1.3865         estimate D2E/DX2                !
 ! R8    R(3,13)                 1.0808         estimate D2E/DX2                !
 ! R9    R(4,5)                  1.4978         estimate D2E/DX2                !
 ! R10   R(4,6)                  1.391          estimate D2E/DX2                !
 ! R11   R(5,14)                 1.0887         estimate D2E/DX2                !
 ! R12   R(5,15)                 1.0868         estimate D2E/DX2                !
 ! R13   R(5,16)                 1.0896         estimate D2E/DX2                !
 ! R14   R(6,7)                  1.3802         estimate D2E/DX2                !
 ! R15   R(6,17)                 1.0794         estimate D2E/DX2                !
 ! R16   R(7,8)                  1.9109         estimate D2E/DX2                !
 ! R17   R(7,9)                  1.3834         estimate D2E/DX2                !
 ! R18   R(9,18)                 1.0794         estimate D2E/DX2                !
 ! A1    A(2,1,10)             109.9377         estimate D2E/DX2                !
 ! A2    A(2,1,11)             111.0719         estimate D2E/DX2                !
 ! A3    A(2,1,12)             110.6174         estimate D2E/DX2                !
 ! A4    A(10,1,11)            108.3215         estimate D2E/DX2                !
 ! A5    A(10,1,12)            107.8338         estimate D2E/DX2                !
 ! A6    A(11,1,12)            108.9694         estimate D2E/DX2                !
 ! A7    A(1,2,3)              120.3443         estimate D2E/DX2                !
 ! A8    A(1,2,9)              120.6629         estimate D2E/DX2                !
 ! A9    A(3,2,9)              118.9876         estimate D2E/DX2                !
 ! A10   A(2,3,4)              121.6545         estimate D2E/DX2                !
 ! A11   A(2,3,13)             118.9754         estimate D2E/DX2                !
 ! A12   A(4,3,13)             119.3701         estimate D2E/DX2                !
 ! A13   A(3,4,5)              121.3989         estimate D2E/DX2                !
 ! A14   A(3,4,6)              118.9411         estimate D2E/DX2                !
 ! A15   A(5,4,6)              119.6588         estimate D2E/DX2                !
 ! A16   A(4,5,14)             110.4611         estimate D2E/DX2                !
 ! A17   A(4,5,15)             111.0028         estimate D2E/DX2                !
 ! A18   A(4,5,16)             110.1658         estimate D2E/DX2                !
 ! A19   A(14,5,15)            108.8162         estimate D2E/DX2                !
 ! A20   A(14,5,16)            107.7427         estimate D2E/DX2                !
 ! A21   A(15,5,16)            108.5663         estimate D2E/DX2                !
 ! A22   A(4,6,7)              119.3248         estimate D2E/DX2                !
 ! A23   A(4,6,17)             120.2612         estimate D2E/DX2                !
 ! A24   A(7,6,17)             120.414          estimate D2E/DX2                !
 ! A25   A(6,7,8)              119.1672         estimate D2E/DX2                !
 ! A26   A(6,7,9)              121.805          estimate D2E/DX2                !
 ! A27   A(8,7,9)              119.0278         estimate D2E/DX2                !
 ! A28   A(2,9,7)              119.287          estimate D2E/DX2                !
 ! A29   A(2,9,18)             120.5385         estimate D2E/DX2                !
 ! A30   A(7,9,18)             120.1744         estimate D2E/DX2                !
 ! D1    D(10,1,2,3)           -74.7652         estimate D2E/DX2                !
 ! D2    D(10,1,2,9)           104.3976         estimate D2E/DX2                !
 ! D3    D(11,1,2,3)           165.3593         estimate D2E/DX2                !
 ! D4    D(11,1,2,9)           -15.478          estimate D2E/DX2                !
 ! D5    D(12,1,2,3)            44.2176         estimate D2E/DX2                !
 ! D6    D(12,1,2,9)          -136.6196         estimate D2E/DX2                !
 ! D7    D(1,2,3,4)            179.2102         estimate D2E/DX2                !
 ! D8    D(1,2,3,13)            -0.8139         estimate D2E/DX2                !
 ! D9    D(9,2,3,4)              0.0335         estimate D2E/DX2                !
 ! D10   D(9,2,3,13)          -179.9905         estimate D2E/DX2                !
 ! D11   D(1,2,9,7)           -179.2222         estimate D2E/DX2                !
 ! D12   D(1,2,9,18)             0.7848         estimate D2E/DX2                !
 ! D13   D(3,2,9,7)             -0.0482         estimate D2E/DX2                !
 ! D14   D(3,2,9,18)           179.9588         estimate D2E/DX2                !
 ! D15   D(2,3,4,5)            179.613          estimate D2E/DX2                !
 ! D16   D(2,3,4,6)              0.0102         estimate D2E/DX2                !
 ! D17   D(13,3,4,5)            -0.3628         estimate D2E/DX2                !
 ! D18   D(13,3,4,6)          -179.9657         estimate D2E/DX2                !
 ! D19   D(3,4,5,14)           126.8095         estimate D2E/DX2                !
 ! D20   D(3,4,5,15)             6.0126         estimate D2E/DX2                !
 ! D21   D(3,4,5,16)          -114.2743         estimate D2E/DX2                !
 ! D22   D(6,4,5,14)           -53.5905         estimate D2E/DX2                !
 ! D23   D(6,4,5,15)          -174.3874         estimate D2E/DX2                !
 ! D24   D(6,4,5,16)            65.3257         estimate D2E/DX2                !
 ! D25   D(3,4,6,7)             -0.0384         estimate D2E/DX2                !
 ! D26   D(3,4,6,17)           179.9089         estimate D2E/DX2                !
 ! D27   D(5,4,6,7)           -179.6483         estimate D2E/DX2                !
 ! D28   D(5,4,6,17)             0.299          estimate D2E/DX2                !
 ! D29   D(4,6,7,8)            179.9809         estimate D2E/DX2                !
 ! D30   D(4,6,7,9)              0.0236         estimate D2E/DX2                !
 ! D31   D(17,6,7,8)             0.0336         estimate D2E/DX2                !
 ! D32   D(17,6,7,9)          -179.9237         estimate D2E/DX2                !
 ! D33   D(6,7,9,2)              0.0204         estimate D2E/DX2                !
 ! D34   D(6,7,9,18)          -179.9866         estimate D2E/DX2                !
 ! D35   D(8,7,9,2)           -179.9369         estimate D2E/DX2                !
 ! D36   D(8,7,9,18)             0.0561         estimate D2E/DX2                !
 --------------------------------------------------------------------------------
 Trust Radius=3.00D-01 FncErr=1.00D-07 GrdErr=1.00D-06 EigMax=2.50D+02 EigMin=1.00D-04
 Number of steps in this run=     94 maximum allowed number of steps=    108.
 GradGradGradGradGradGradGradGradGradGradGradGradGradGradGradGradGradGrad

 Leave Link  103 at Tue Sep 17 09:55:51 2024, MaxMem=  1342177280 cpu:               0.1 elap:               0.0
 (Enter /groups/ReismanLab/Software/Gaussian16_RevC/Linux_Binary_AVX2-enabled-CPU/g16/l202.exe)
                          Input orientation:                          
 ---------------------------------------------------------------------
 Center     Atomic      Atomic             Coordinates (Angstroms)
 Number     Number       Type             X           Y           Z
 ---------------------------------------------------------------------
      1          6           0        2.627508   -2.503854   -0.004949
      2          6           0        1.867854   -1.213127    0.006996
      3          6           0        2.545772    0.001165    0.002406
      4          6           0        1.869956    1.211781   -0.003078
      5          6           0        2.605855    2.516304    0.000630
      6          6           0        0.479008    1.206176   -0.003771
      7          6           0       -0.192111    0.000123    0.000192
      8         35           0       -2.102985   -0.002320   -0.000222
      9          6           0        0.480705   -1.208630    0.005338
     10          1           0        3.036907   -2.685086   -0.998987
     11          1           0        1.983045   -3.338997    0.256585
     12          1           0        3.458932   -2.465623    0.696000
     13          1           0        3.626564   -0.002571    0.003542
     14          1           0        2.265918    3.147368   -0.818846
     15          1           0        3.676696    2.359721   -0.098476
     16          1           0        2.418069    3.050864    0.931332
     17          1           0       -0.068720    2.136323   -0.006517
     18          1           0       -0.070770   -2.136511    0.008137
 ---------------------------------------------------------------------
                    Distance matrix (angstroms):
                    1          2          3          4          5
     1  C    0.000000
     2  C    1.497729   0.000000
     3  C    2.506363   1.390719   0.000000
     4  C    3.792075   2.424930   1.386488   0.000000
     5  C    5.020207   3.801755   2.515857   1.497779   0.000000
     6  C    4.287234   2.789630   2.392405   1.390960   2.497986
     7  C    3.770965   2.390706   2.737884   2.391703   3.762948
     8  Br   5.351192   4.151345   4.648759   4.154312   5.340097
     9  C    2.507284   1.387157   2.393347   2.790784   4.288521
    10  H    1.090212   2.131983   2.908599   4.187981   5.314085
    11  H    1.086829   2.143569   3.396756   4.559582   5.893891
    12  H    1.088143   2.138925   2.720289   4.066552   5.102045
    13  H    2.693437   2.135070   1.080799   2.135501   2.717827
    14  H    5.720969   4.455826   3.263643   2.137466   1.088733
    15  H    4.976335   4.006031   2.617624   2.142703   1.086756
    16  H    5.636966   4.397586   3.190592   2.134427   1.089599
    17  H    5.366646   3.869020   3.375581   2.147848   2.701442
    18  H    2.723200   2.147301   3.378755   3.870090   5.367780
                    6          7          8          9         10
     6  C    0.000000
     7  C    1.380210   0.000000
     8  Br   2.850817   1.910876   0.000000
     9  C    2.414823   1.383398   2.851433   0.000000
    10  H    4.761851   4.316858   5.883303   3.118134   0.000000
    11  H    4.794634   3.993340   5.281573   2.618896   1.764847
    12  H    4.780348   4.460287   6.122704   3.305583   1.760468
    13  H    3.371681   3.818678   5.729550   3.369126   2.923808
    14  H    2.761453   4.076504   5.447751   4.779223   5.885949
    15  H    3.400713   4.532671   6.244486   4.791478   5.164333
    16  H    2.835005   4.121539   5.534407   4.770129   6.083603
    17  H    1.079438   2.139772   2.951621   3.389796   5.820301
    18  H    3.387617   2.140091   2.946988   1.079396   3.312536
                   11         12         13         14         15
    11  H    0.000000
    12  H    1.770341   0.000000
    13  H    3.727858   2.564025   0.000000
    14  H    6.580995   5.934956   3.528426   0.000000
    15  H    5.955662   4.895156   2.365025   1.769072   0.000000
    16  H    6.440098   5.618755   3.412436   1.759428   1.767010
    17  H    5.853041   5.840870   4.269671   2.670697   3.753198
    18  H    2.392877   3.611131   4.268958   5.836385   5.854141
                   16         17         18
    16  H    0.000000
    17  H    2.810705   0.000000
    18  H    5.827132   4.272860   0.000000
 Stoichiometry    C8H9Br
 Framework group  C1[X(C8H9Br)]
 Deg. of freedom    48
 Full point group                 C1      NOp   1
 Largest Abelian subgroup         C1      NOp   1
 Largest concise Abelian subgroup C1      NOp   1
                         Standard orientation:                         
 ---------------------------------------------------------------------
 Center     Atomic      Atomic             Coordinates (Angstroms)
 Number     Number       Type             X           Y           Z
 ---------------------------------------------------------------------
      1          6           0       -2.406588   -2.503239    0.003770
      2          6           0       -1.646345   -1.212854   -0.007681
      3          6           0       -2.323712    0.001745   -0.002753
      4          6           0       -1.647346    1.212051    0.003190
      5          6           0       -2.382652    2.516910   -0.000155
      6          6           0       -0.256400    1.205814    0.004009
      7          6           0        0.414170   -0.000543   -0.000289
      8         35           0        2.325043   -0.003854    0.000299
      9          6           0       -0.259195   -1.208987   -0.005894
     10          1           0       -2.816160   -2.684612    0.997710
     11          1           0       -1.762481   -3.338589   -0.257981
     12          1           0       -3.237929   -2.464399   -0.697243
     13          1           0       -3.404506   -0.001499   -0.003990
     14          1           0       -2.042503    3.147550    0.819559
     15          1           0       -3.453573    2.360782    0.098800
     16          1           0       -2.194538    3.051691   -0.930665
     17          1           0        0.291749    2.135711    0.007111
     18          1           0        0.291859   -2.137118   -0.008949
 ---------------------------------------------------------------------
 Rotational constants (GHZ):           1.7832154           0.6762799           0.4933136
 Leave Link  202 at Tue Sep 17 09:55:51 2024, MaxMem=  1342177280 cpu:               0.1 elap:               0.0
 (Enter /groups/ReismanLab/Software/Gaussian16_RevC/Linux_Binary_AVX2-enabled-CPU/g16/l301.exe)
 Standard basis: 6-31G(d,p) (6D, 7F)
 Ernie: Thresh=  0.10000D-02 Tol=  0.10000D-05 Strict=F.
 There are   195 symmetry adapted cartesian basis functions of A   symmetry.
 There are   195 symmetry adapted basis functions of A   symmetry.
   195 basis functions,   370 primitive gaussians,   195 cartesian basis functions
    46 alpha electrons       46 beta electrons
       nuclear repulsion energy       622.6016418666 Hartrees.
 IExCor=  402 DFT=T Ex+Corr=B3LYP ExCW=0 ScaHFX=  0.200000
 ScaDFX=  0.800000  0.720000  1.000000  0.810000 ScalE2=  1.000000  1.000000
 IRadAn=      5 IRanWt=     -1 IRanGd=            0 ICorTp=0 IEmpDi=141
 NAtoms=   18 NActive=   18 NUniq=   18 SFac= 1.00D+00 NAtFMM=   60 NAOKFM=F Big=F
 Integral buffers will be    131072 words long.
 Raffenetti 2 integral format.
 Two-electron integral symmetry is turned on.
 R6Disp:  Grimme-D3(BJ) Dispersion energy=       -0.0344646979 Hartrees.
 Nuclear repulsion after empirical dispersion term =      622.5671771687 Hartrees.
 Leave Link  301 at Tue Sep 17 09:55:51 2024, MaxMem=  1342177280 cpu:               0.1 elap:               0.1
 (Enter /groups/ReismanLab/Software/Gaussian16_RevC/Linux_Binary_AVX2-enabled-CPU/g16/l302.exe)
 NPDir=0 NMtPBC=     1 NCelOv=     1 NCel=       1 NClECP=     1 NCelD=      1
         NCelK=      1 NCelE2=     1 NClLst=     1 CellRange=     0.0.
 One-electron integrals computed using PRISM.
 One-electron integral symmetry used in STVInt
 NBasis=   195 RedAO= T EigKep=  3.80D-04  NBF=   195
 NBsUse=   195 1.00D-06 EigRej= -1.00D+00 NBFU=   195
 Precomputing XC quadrature grid using
 IXCGrd= 4 IRadAn=           5 IRanWt=          -1 IRanGd=           0 AccXCQ= 0.00D+00.
 Generated NRdTot=       0 NPtTot=           0 NUsed=           0 NTot=          32
 NSgBfM=   195   194   194   194   195 MxSgAt=    18 MxSgA2=    18.
 Leave Link  302 at Tue Sep 17 09:55:51 2024, MaxMem=  1342177280 cpu:               1.3 elap:               0.2
 (Enter /groups/ReismanLab/Software/Gaussian16_RevC/Linux_Binary_AVX2-enabled-CPU/g16/l303.exe)
 DipDrv:  MaxL=1.
 Leave Link  303 at Tue Sep 17 09:55:51 2024, MaxMem=  1342177280 cpu:               0.1 elap:               0.0
 (Enter /groups/ReismanLab/Software/Gaussian16_RevC/Linux_Binary_AVX2-enabled-CPU/g16/l401.exe)
 ExpMin= 1.43D-01 ExpMax= 5.74D+05 ExpMxC= 5.74D+03 IAcc=3 IRadAn=         5 AccDes= 0.00D+00
 Harris functional with IExCor=  402 and IRadAn=       5 diagonalized for initial guess.
 HarFok:  IExCor=  402 AccDes= 0.00D+00 IRadAn=         5 IDoV= 1 UseB2=F ITyADJ=14
 ICtDFT=  3500011 ScaDFX=  1.000000  1.000000  1.000000  1.000000
 FoFCou: FMM=F IPFlag=           0 FMFlag=      100000 FMFlg1=           0
         NFxFlg=           0 DoJE=T BraDBF=F KetDBF=T FulRan=T
         wScrn=  0.000000 ICntrl=       500 IOpCl=  0 I1Cent=   200000004 NGrid=           0
         NMat0=    1 NMatS0=      1 NMatT0=    0 NMatD0=    1 NMtDS0=    0 NMtDT0=    0
 Petite list used in FoFCou.
 Harris En= -2882.19353673394    
 JPrj=0 DoOrth=F DoCkMO=F.
 Leave Link  401 at Tue Sep 17 09:55:52 2024, MaxMem=  1342177280 cpu:               4.3 elap:               0.6
 (Enter /groups/ReismanLab/Software/Gaussian16_RevC/Linux_Binary_AVX2-enabled-CPU/g16/l502.exe)
 Integral symmetry usage will be decided dynamically.
 Closed shell SCF:
 Using DIIS extrapolation, IDIIS=  1040.
 NGot=  1342177280 LenX=  1342097096 LenY=  1342058630
 Requested convergence on RMS density matrix=1.00D-08 within  32 cycles.
 Requested convergence on MAX density matrix=1.00D-06.
 Requested convergence on             energy=1.00D-06.
 No special actions if energy rises.
 Fock matrices will be formed incrementally for  20 cycles.
 Integral accuracy reduced to 1.0D-05 until final iterations.

 Cycle   1  Pass 0  IDiag  1:
 FoFJK:  IHMeth= 1 ICntrl=       0 DoSepK=F KAlg= 0 I1Cent=           0 FoldK=F
 IRaf= 890000000 NMat=       1 IRICut=       1 DoRegI=T DoRafI=F ISym2E= 0 IDoP0=0 IntGTp=1.
 FoFCou: FMM=F IPFlag=           0 FMFlag=      100000 FMFlg1=           0
         NFxFlg=           0 DoJE=F BraDBF=F KetDBF=F FulRan=T
         wScrn=  0.000000 ICntrl=         0 IOpCl=  0 I1Cent=           0 NGrid=           0
         NMat0=    1 NMatS0=      1 NMatT0=    0 NMatD0=    1 NMtDS0=    0 NMtDT0=    0
 Symmetry not used in FoFCou.
 E= -2881.78729142966    
 DIIS: error= 1.75D-01 at cycle   1 NSaved=   1.
 NSaved= 1 IEnMin= 1 EnMin= -2881.78729142966     IErMin= 1 ErrMin= 1.75D-01
 ErrMax= 1.75D-01  0.00D+00 EMaxC= 1.00D-01 BMatC= 5.78D-01 BMatP= 5.78D-01
 IDIUse=3 WtCom= 0.00D+00 WtEn= 1.00D+00
 Coeff-Com:  0.100D+01
 Coeff-En:   0.100D+01
 Coeff:      0.100D+01
 Gap=     0.297 Goal=   None    Shift=    0.000
 GapD=    0.297 DampG=1.000 DampE=0.250 DampFc=0.2500 IDamp=-1.
 Damping current iteration by 2.50D-01
 RMSDP=5.86D-03 MaxDP=1.41D-01              OVMax= 1.74D-01

 Cycle   2  Pass 0  IDiag  1:
 RMSU=  1.42D-03    CP:  9.92D-01
 E= -2881.87718091607     Delta-E=       -0.089889486412 Rises=F Damp=T
 DIIS: error= 1.29D-01 at cycle   2 NSaved=   2.
 NSaved= 2 IEnMin= 2 EnMin= -2881.87718091607     IErMin= 2 ErrMin= 1.29D-01
 ErrMax= 1.29D-01  0.00D+00 EMaxC= 1.00D-01 BMatC= 2.51D-01 BMatP= 5.78D-01
 IDIUse=3 WtCom= 0.00D+00 WtEn= 1.00D+00
 Coeff-Com: -0.149D+01 0.249D+01
 Coeff-En:   0.000D+00 0.100D+01
 Coeff:      0.000D+00 0.100D+01
 Gap=     0.230 Goal=   None    Shift=    0.000
 RMSDP=3.04D-03 MaxDP=1.11D-01 DE=-8.99D-02 OVMax= 6.77D-02

 Cycle   3  Pass 0  IDiag  1:
 RMSU=  1.16D-03    CP:  9.68D-01  2.82D+00
 E= -2881.98012653553     Delta-E=       -0.102945619454 Rises=F Damp=F
 DIIS: error= 1.38D-02 at cycle   3 NSaved=   3.
 NSaved= 3 IEnMin= 3 EnMin= -2881.98012653553     IErMin= 3 ErrMin= 1.38D-02
 ErrMax= 1.38D-02  0.00D+00 EMaxC= 1.00D-01 BMatC= 5.25D-02 BMatP= 2.51D-01
 IDIUse=3 WtCom= 8.62D-01 WtEn= 1.38D-01
 EnCoef did   100 forward-backward iterations
 Coeff-Com:  0.217D+01-0.285D+01 0.168D+01
 Coeff-En:   0.126D+00 0.153D-02 0.872D+00
 Coeff:      0.189D+01-0.246D+01 0.157D+01
 Gap=     0.253 Goal=   None    Shift=    0.000
 RMSDP=1.40D-03 MaxDP=3.63D-02 DE=-1.03D-01 OVMax= 4.84D-02

 Cycle   4  Pass 0  IDiag  1:
 RMSU=  4.13D-04    CP:  9.69D-01  1.92D+00  1.34D+00
 E= -2882.03470473098     Delta-E=       -0.054578195454 Rises=F Damp=F
 DIIS: error= 2.55D-03 at cycle   4 NSaved=   4.
 NSaved= 4 IEnMin= 4 EnMin= -2882.03470473098     IErMin= 4 ErrMin= 2.55D-03
 ErrMax= 2.55D-03  0.00D+00 EMaxC= 1.00D-01 BMatC= 1.92D-03 BMatP= 5.25D-02
 IDIUse=3 WtCom= 9.75D-01 WtEn= 2.55D-02
 Coeff-Com:  0.857D+00-0.113D+01 0.709D+00 0.562D+00
 Coeff-En:   0.000D+00 0.000D+00 0.000D+00 0.100D+01
 Coeff:      0.835D+00-0.110D+01 0.691D+00 0.573D+00
 Gap=     0.229 Goal=   None    Shift=    0.000
 RMSDP=2.58D-04 MaxDP=7.44D-03 DE=-5.46D-02 OVMax= 1.85D-02

 Cycle   5  Pass 0  IDiag  1:
 RMSU=  1.35D-04    CP:  9.68D-01  1.95D+00  1.41D+00  5.16D-01
 E= -2882.03638774875     Delta-E=       -0.001683017769 Rises=F Damp=F
 DIIS: error= 1.06D-03 at cycle   5 NSaved=   5.
 NSaved= 5 IEnMin= 5 EnMin= -2882.03638774875     IErMin= 5 ErrMin= 1.06D-03
 ErrMax= 1.06D-03  0.00D+00 EMaxC= 1.00D-01 BMatC= 1.89D-04 BMatP= 1.92D-03
 IDIUse=3 WtCom= 9.89D-01 WtEn= 1.06D-02
 Coeff-Com:  0.129D+00-0.170D+00 0.123D+00 0.267D+00 0.651D+00
 Coeff-En:   0.000D+00 0.000D+00 0.000D+00 0.000D+00 0.100D+01
 Coeff:      0.128D+00-0.168D+00 0.121D+00 0.264D+00 0.655D+00
 Gap=     0.228 Goal=   None    Shift=    0.000
 RMSDP=9.66D-05 MaxDP=2.63D-03 DE=-1.68D-03 OVMax= 8.37D-03

 Cycle   6  Pass 0  IDiag  1:
 RMSU=  6.40D-05    CP:  9.68D-01  1.97D+00  1.39D+00  6.28D-01  6.38D-01
 E= -2882.03652641215     Delta-E=       -0.000138663399 Rises=F Damp=F
 DIIS: error= 6.28D-04 at cycle   6 NSaved=   6.
 NSaved= 6 IEnMin= 6 EnMin= -2882.03652641215     IErMin= 6 ErrMin= 6.28D-04
 ErrMax= 6.28D-04  0.00D+00 EMaxC= 1.00D-01 BMatC= 4.85D-05 BMatP= 1.89D-04
 IDIUse=3 WtCom= 9.94D-01 WtEn= 6.28D-03
 Coeff-Com:  0.412D-01-0.541D-01 0.445D-01 0.144D+00 0.432D+00 0.392D+00
 Coeff-En:   0.000D+00 0.000D+00 0.000D+00 0.000D+00 0.207D+00 0.793D+00
 Coeff:      0.409D-01-0.538D-01 0.442D-01 0.143D+00 0.430D+00 0.395D+00
 Gap=     0.228 Goal=   None    Shift=    0.000
 RMSDP=4.16D-05 MaxDP=1.20D-03 DE=-1.39D-04 OVMax= 2.87D-03

 Cycle   7  Pass 0  IDiag  1:
 RMSU=  1.72D-05    CP:  9.68D-01  1.97D+00  1.39D+00  6.07D-01  7.27D-01
                    CP:  4.56D-01
 E= -2882.03657864413     Delta-E=       -0.000052231982 Rises=F Damp=F
 DIIS: error= 6.84D-05 at cycle   7 NSaved=   7.
 NSaved= 7 IEnMin= 7 EnMin= -2882.03657864413     IErMin= 7 ErrMin= 6.84D-05
 ErrMax= 6.84D-05  0.00D+00 EMaxC= 1.00D-01 BMatC= 8.80D-07 BMatP= 4.85D-05
 IDIUse=1 WtCom= 1.00D+00 WtEn= 0.00D+00
 Coeff-Com:  0.965D-02-0.127D-01 0.111D-01 0.412D-01 0.138D+00 0.177D+00
 Coeff-Com:  0.636D+00
 Coeff:      0.965D-02-0.127D-01 0.111D-01 0.412D-01 0.138D+00 0.177D+00
 Coeff:      0.636D+00
 Gap=     0.228 Goal=   None    Shift=    0.000
 RMSDP=8.02D-06 MaxDP=3.14D-04 DE=-5.22D-05 OVMax= 5.29D-04

 Initial convergence to 1.0D-05 achieved.  Increase integral accuracy.
 Cycle   8  Pass 1  IDiag  1:
 E= -2882.03658616955     Delta-E=       -0.000007525423 Rises=F Damp=F
 DIIS: error= 6.03D-05 at cycle   1 NSaved=   1.
 NSaved= 1 IEnMin= 1 EnMin= -2882.03658616955     IErMin= 1 ErrMin= 6.03D-05
 ErrMax= 6.03D-05  0.00D+00 EMaxC= 1.00D-01 BMatC= 2.05D-07 BMatP= 2.05D-07
 IDIUse=1 WtCom= 1.00D+00 WtEn= 0.00D+00
 Coeff-Com:  0.100D+01
 Coeff:      0.100D+01
 Gap=     0.228 Goal=   None    Shift=    0.000
 RMSDP=8.02D-06 MaxDP=3.14D-04 DE=-7.53D-06 OVMax= 3.24D-04

 Cycle   9  Pass 1  IDiag  1:
 RMSU=  8.64D-06    CP:  1.00D+00
 E= -2882.03658611026     Delta-E=        0.000000059291 Rises=F Damp=F
 DIIS: error= 3.28D-05 at cycle   2 NSaved=   2.
 NSaved= 2 IEnMin= 1 EnMin= -2882.03658616955     IErMin= 2 ErrMin= 3.28D-05
 ErrMax= 3.28D-05  0.00D+00 EMaxC= 1.00D-01 BMatC= 2.18D-07 BMatP= 2.05D-07
 IDIUse=1 WtCom= 1.00D+00 WtEn= 0.00D+00
 Coeff-Com:  0.509D+00 0.491D+00
 Coeff:      0.509D+00 0.491D+00
 Gap=     0.228 Goal=   None    Shift=    0.000
 RMSDP=2.96D-06 MaxDP=1.60D-04 DE= 5.93D-08 OVMax= 2.39D-04

 Cycle  10  Pass 1  IDiag  1:
 RMSU=  2.73D-06    CP:  1.00D+00  8.71D-01
 E= -2882.03658630155     Delta-E=       -0.000000191288 Rises=F Damp=F
 DIIS: error= 1.10D-05 at cycle   3 NSaved=   3.
 NSaved= 3 IEnMin= 3 EnMin= -2882.03658630155     IErMin= 3 ErrMin= 1.10D-05
 ErrMax= 1.10D-05  0.00D+00 EMaxC= 1.00D-01 BMatC= 2.42D-08 BMatP= 2.05D-07
 IDIUse=1 WtCom= 1.00D+00 WtEn= 0.00D+00
 Coeff-Com:  0.686D-01 0.253D+00 0.678D+00
 Coeff:      0.686D-01 0.253D+00 0.678D+00
 Gap=     0.228 Goal=   None    Shift=    0.000
 RMSDP=1.10D-06 MaxDP=4.56D-05 DE=-1.91D-07 OVMax= 6.95D-05

 Cycle  11  Pass 1  IDiag  1:
 RMSU=  8.23D-07    CP:  1.00D+00  9.14D-01  7.67D-01
 E= -2882.03658631956     Delta-E=       -0.000000018009 Rises=F Damp=F
 DIIS: error= 7.72D-06 at cycle   4 NSaved=   4.
 NSaved= 4 IEnMin= 4 EnMin= -2882.03658631956     IErMin= 4 ErrMin= 7.72D-06
 ErrMax= 7.72D-06  0.00D+00 EMaxC= 1.00D-01 BMatC= 6.53D-09 BMatP= 2.42D-08
 IDIUse=1 WtCom= 1.00D+00 WtEn= 0.00D+00
 Coeff-Com:  0.210D-02 0.126D+00 0.448D+00 0.425D+00
 Coeff:      0.210D-02 0.126D+00 0.448D+00 0.425D+00
 Gap=     0.228 Goal=   None    Shift=    0.000
 RMSDP=4.82D-07 MaxDP=1.30D-05 DE=-1.80D-08 OVMax= 3.98D-05

 Cycle  12  Pass 1  IDiag  1:
 RMSU=  1.56D-07    CP:  1.00D+00  9.10D-01  8.03D-01  4.62D-01
 E= -2882.03658632659     Delta-E=       -0.000000007027 Rises=F Damp=F
 DIIS: error= 8.54D-07 at cycle   5 NSaved=   5.
 NSaved= 5 IEnMin= 5 EnMin= -2882.03658632659     IErMin= 5 ErrMin= 8.54D-07
 ErrMax= 8.54D-07  0.00D+00 EMaxC= 1.00D-01 BMatC= 1.02D-10 BMatP= 6.53D-09
 IDIUse=1 WtCom= 1.00D+00 WtEn= 0.00D+00
 Coeff-Com: -0.147D-02 0.540D-01 0.201D+00 0.219D+00 0.527D+00
 Coeff:     -0.147D-02 0.540D-01 0.201D+00 0.219D+00 0.527D+00
 Gap=     0.228 Goal=   None    Shift=    0.000
 RMSDP=8.03D-08 MaxDP=2.88D-06 DE=-7.03D-09 OVMax= 4.76D-06

 Cycle  13  Pass 1  IDiag  1:
 RMSU=  2.86D-08    CP:  1.00D+00  9.11D-01  7.95D-01  4.63D-01  5.54D-01
 E= -2882.03658632669     Delta-E=       -0.000000000100 Rises=F Damp=F
 DIIS: error= 1.16D-07 at cycle   6 NSaved=   6.
 NSaved= 6 IEnMin= 6 EnMin= -2882.03658632669     IErMin= 6 ErrMin= 1.16D-07
 ErrMax= 1.16D-07  0.00D+00 EMaxC= 1.00D-01 BMatC= 2.51D-12 BMatP= 1.02D-10
 IDIUse=1 WtCom= 1.00D+00 WtEn= 0.00D+00
 Coeff-Com: -0.761D-03 0.234D-01 0.887D-01 0.985D-01 0.263D+00 0.527D+00
 Coeff:     -0.761D-03 0.234D-01 0.887D-01 0.985D-01 0.263D+00 0.527D+00
 Gap=     0.228 Goal=   None    Shift=    0.000
 RMSDP=1.35D-08 MaxDP=3.18D-07 DE=-1.00D-10 OVMax= 6.01D-07

 Cycle  14  Pass 1  IDiag  1:
 RMSU=  1.00D-08    CP:  1.00D+00  9.11D-01  7.96D-01  4.65D-01  5.71D-01
                    CP:  7.21D-01
 E= -2882.03658632666     Delta-E=        0.000000000026 Rises=F Damp=F
 DIIS: error= 2.63D-08 at cycle   7 NSaved=   7.
 NSaved= 7 IEnMin= 6 EnMin= -2882.03658632669     IErMin= 7 ErrMin= 2.63D-08
 ErrMax= 2.63D-08  0.00D+00 EMaxC= 1.00D-01 BMatC= 1.72D-13 BMatP= 2.51D-12
 IDIUse=1 WtCom= 1.00D+00 WtEn= 0.00D+00
 Coeff-Com: -0.556D-04 0.111D-03 0.165D-02 0.308D-02 0.193D-01 0.207D+00
 Coeff-Com:  0.769D+00
 Coeff:     -0.556D-04 0.111D-03 0.165D-02 0.308D-02 0.193D-01 0.207D+00
 Coeff:      0.769D+00
 Gap=     0.228 Goal=   None    Shift=    0.000
 RMSDP=3.67D-09 MaxDP=9.16D-08 DE= 2.64D-11 OVMax= 2.09D-07

 SCF Done:  E(RB3LYP) =  -2882.03658633     A.U. after   14 cycles
            NFock= 14  Conv=0.37D-08     -V/T= 2.0065
 KE= 2.863520851294D+03 PE=-8.096895852649D+03 EE= 1.728771237860D+03
 Leave Link  502 at Tue Sep 17 09:56:01 2024, MaxMem=  1342177280 cpu:              69.6 elap:               9.4
 (Enter /groups/ReismanLab/Software/Gaussian16_RevC/Linux_Binary_AVX2-enabled-CPU/g16/l508.exe)
 QCSCF skips out because SCF is already converged.
 Leave Link  508 at Tue Sep 17 09:56:01 2024, MaxMem=  1342177280 cpu:               0.0 elap:               0.0
 (Enter /groups/ReismanLab/Software/Gaussian16_RevC/Linux_Binary_AVX2-enabled-CPU/g16/l601.exe)
 Copying SCF densities to generalized density rwf, IOpCl= 0 IROHF=0.

 **********************************************************************

            Population analysis using the SCF Density.

 **********************************************************************

 Orbital symmetries:
       Occupied  (A) (A) (A) (A) (A) (A) (A) (A) (A) (A) (A) (A)
                 (A) (A) (A) (A) (A) (A) (A) (A) (A) (A) (A) (A)
                 (A) (A) (A) (A) (A) (A) (A) (A) (A) (A) (A) (A)
                 (A) (A) (A) (A) (A) (A) (A) (A) (A) (A)
       Virtual   (A) (A) (A) (A) (A) (A) (A) (A) (A) (A) (A) (A)
                 (A) (A) (A) (A) (A) (A) (A) (A) (A) (A) (A) (A)
                 (A) (A) (A) (A) (A) (A) (A) (A) (A) (A) (A) (A)
                 (A) (A) (A) (A) (A) (A) (A) (A) (A) (A) (A) (A)
                 (A) (A) (A) (A) (A) (A) (A) (A) (A) (A) (A) (A)
                 (A) (A) (A) (A) (A) (A) (A) (A) (A) (A) (A) (A)
                 (A) (A) (A) (A) (A) (A) (A) (A) (A) (A) (A) (A)
                 (A) (A) (A) (A) (A) (A) (A) (A) (A) (A) (A) (A)
                 (A) (A) (A) (A) (A) (A) (A) (A) (A) (A) (A) (A)
                 (A) (A) (A) (A) (A) (A) (A) (A) (A) (A) (A) (A)
                 (A) (A) (A) (A) (A) (A) (A) (A) (A) (A) (A) (A)
                 (A) (A) (A) (A) (A) (A) (A) (A) (A) (A) (A) (A)
                 (A) (A) (A) (A) (A)
 The electronic state is 1-A.
 Alpha  occ. eigenvalues -- -482.90372 -61.86545 -56.38675 -56.38271 -56.38259
 Alpha  occ. eigenvalues --  -10.23914 -10.20126 -10.20096 -10.19038 -10.19009
 Alpha  occ. eigenvalues --  -10.18584 -10.18574 -10.18478  -8.57685  -6.53068
 Alpha  occ. eigenvalues --   -6.51814  -6.51787  -2.64643  -2.64285  -2.64265
 Alpha  occ. eigenvalues --   -2.63264  -2.63264  -0.87688  -0.80487  -0.79199
 Alpha  occ. eigenvalues --   -0.73154  -0.69517  -0.69112  -0.58542  -0.57997
 Alpha  occ. eigenvalues --   -0.50810  -0.48455  -0.43372  -0.43287  -0.42091
 Alpha  occ. eigenvalues --   -0.41320  -0.41077  -0.40252  -0.38405  -0.36688
 Alpha  occ. eigenvalues --   -0.34628  -0.34125  -0.29952  -0.27999  -0.24483
 Alpha  occ. eigenvalues --   -0.23496
 Alpha virt. eigenvalues --   -0.00657  -0.00253   0.01480   0.10026   0.11625
 Alpha virt. eigenvalues --    0.12871   0.13672   0.14820   0.16215   0.17776
 Alpha virt. eigenvalues --    0.18245   0.18564   0.20450   0.22537   0.24142
 Alpha virt. eigenvalues --    0.27324   0.31024   0.32777   0.32970   0.37604
 Alpha virt. eigenvalues --    0.38576   0.45319   0.46937   0.47018   0.48169
 Alpha virt. eigenvalues --    0.48613   0.49021   0.51930   0.52154   0.53657
 Alpha virt. eigenvalues --    0.54215   0.55293   0.56499   0.57484   0.58156
 Alpha virt. eigenvalues --    0.58512   0.63232   0.64702   0.65575   0.67625
 Alpha virt. eigenvalues --    0.70608   0.73060   0.73475   0.74347   0.75700
 Alpha virt. eigenvalues --    0.78196   0.79485   0.80348   0.81852   0.82462
 Alpha virt. eigenvalues --    0.86311   0.86595   0.86771   0.88651   0.89931
 Alpha virt. eigenvalues --    0.90944   0.93230   0.93927   1.00649   1.03385
 Alpha virt. eigenvalues --    1.07906   1.12028   1.14586   1.17913   1.21627
 Alpha virt. eigenvalues --    1.24620   1.26034   1.27987   1.31114   1.33822
 Alpha virt. eigenvalues --    1.39363   1.40764   1.41557   1.45183   1.53492
 Alpha virt. eigenvalues --    1.53590   1.58768   1.71831   1.72241   1.74357
 Alpha virt. eigenvalues --    1.77351   1.78857   1.79328   1.84903   1.85479
 Alpha virt. eigenvalues --    1.86677   1.93150   1.98774   2.00224   2.00641
 Alpha virt. eigenvalues --    2.01353   2.03766   2.03881   2.06479   2.07625
 Alpha virt. eigenvalues --    2.09020   2.09988   2.11349   2.15138   2.15200
 Alpha virt. eigenvalues --    2.20375   2.22523   2.28724   2.29720   2.35711
 Alpha virt. eigenvalues --    2.36989   2.41433   2.41796   2.44396   2.50355
 Alpha virt. eigenvalues --    2.53068   2.56963   2.60629   2.61471   2.63296
 Alpha virt. eigenvalues --    2.65578   2.67860   2.68640   2.72727   2.76600
 Alpha virt. eigenvalues --    2.78284   2.80363   2.86408   2.87013   2.88032
 Alpha virt. eigenvalues --    2.89232   2.99854   3.08355   3.20028   3.20415
 Alpha virt. eigenvalues --    3.21792   3.26943   3.40320   3.41635   3.43331
 Alpha virt. eigenvalues --    3.43713   3.46161   3.48547   3.75516   4.12143
 Alpha virt. eigenvalues --    4.14358   4.15196   4.35229   4.36196   4.45742
 Alpha virt. eigenvalues --    4.56443   4.82066   8.61469  72.83186
          Condensed to atoms (all electrons):
               1          2          3          4          5          6
     1  C    5.024634   0.350575  -0.059691   0.005926  -0.000245   0.001066
     2  C    0.350575   4.712102   0.520349  -0.011471   0.006602  -0.045481
     3  C   -0.059691   0.520349   4.952068   0.542635  -0.047573  -0.041215
     4  C    0.005926  -0.011471   0.542635   4.705442   0.350640   0.509339
     5  C   -0.000245   0.006602  -0.047573   0.350640   5.024921  -0.066641
     6  C    0.001066  -0.045481  -0.041215   0.509339  -0.066641   4.980341
     7  C    0.007081  -0.014945  -0.050426  -0.010180   0.006144   0.511213
     8  Br  -0.000190   0.005274   0.000744   0.005004  -0.000187  -0.057656
     9  C   -0.054454   0.531018  -0.040565  -0.044164   0.001017  -0.050728
    10  H    0.374140  -0.028021  -0.003153  -0.000160   0.000003   0.000033
    11  H    0.375518  -0.028661   0.003519  -0.000191   0.000003  -0.000009
    12  H    0.375446  -0.028810  -0.003895   0.000094  -0.000002   0.000016
    13  H   -0.008928  -0.052310   0.366092  -0.043264  -0.011165   0.006739
    14  H    0.000003  -0.000196   0.001088  -0.028539   0.375686  -0.003596
    15  H   -0.000002   0.000161  -0.004616  -0.028986   0.374981   0.004035
    16  H    0.000004  -0.000250  -0.000258  -0.027986   0.374540  -0.003176
    17  H    0.000012   0.000337   0.005782  -0.047942  -0.008708   0.372550
    18  H   -0.010965  -0.041458   0.006195   0.000292   0.000011   0.005587
               7          8          9         10         11         12
     1  C    0.007081  -0.000190  -0.054454   0.374140   0.375518   0.375446
     2  C   -0.014945   0.005274   0.531018  -0.028021  -0.028661  -0.028810
     3  C   -0.050426   0.000744  -0.040565  -0.003153   0.003519  -0.003895
     4  C   -0.010180   0.005004  -0.044164  -0.000160  -0.000191   0.000094
     5  C    0.006144  -0.000187   0.001017   0.000003   0.000003  -0.000002
     6  C    0.511213  -0.057656  -0.050728   0.000033  -0.000009   0.000016
     7  C    4.838814   0.246125   0.500169  -0.000228   0.000183  -0.000235
     8  Br   0.246125  35.006327  -0.056026   0.000003  -0.000011   0.000003
     9  C    0.500169  -0.056026   4.962587  -0.000988  -0.004019   0.002082
    10  H   -0.000228   0.000003  -0.000988   0.586579  -0.028489  -0.031331
    11  H    0.000183  -0.000011  -0.004019  -0.028489   0.588923  -0.027562
    12  H   -0.000235   0.000003   0.002082  -0.031331  -0.027562   0.589538
    13  H    0.000313   0.000012   0.006325   0.001265   0.000050   0.003644
    14  H    0.000012  -0.000004   0.000023  -0.000000  -0.000000   0.000000
    15  H   -0.000213   0.000002  -0.000007  -0.000001   0.000000   0.000000
    16  H   -0.000046  -0.000001   0.000024   0.000000  -0.000000  -0.000001
    17  H   -0.044532  -0.003208   0.005628  -0.000000  -0.000000  -0.000000
    18  H   -0.045939  -0.003121   0.368821   0.000329   0.005850   0.000109
              13         14         15         16         17         18
     1  C   -0.008928   0.000003  -0.000002   0.000004   0.000012  -0.010965
     2  C   -0.052310  -0.000196   0.000161  -0.000250   0.000337  -0.041458
     3  C    0.366092   0.001088  -0.004616  -0.000258   0.005782   0.006195
     4  C   -0.043264  -0.028539  -0.028986  -0.027986  -0.047942   0.000292
     5  C   -0.011165   0.375686   0.374981   0.374540  -0.008708   0.000011
     6  C    0.006739  -0.003596   0.004035  -0.003176   0.372550   0.005587
     7  C    0.000313   0.000012  -0.000213  -0.000046  -0.044532  -0.045939
     8  Br   0.000012  -0.000004   0.000002  -0.000001  -0.003208  -0.003121
     9  C    0.006325   0.000023  -0.000007   0.000024   0.005628   0.368821
    10  H    0.001265  -0.000000  -0.000001   0.000000  -0.000000   0.000329
    11  H    0.000050  -0.000000   0.000000  -0.000000  -0.000000   0.005850
    12  H    0.003644   0.000000   0.000000  -0.000001  -0.000000   0.000109
    13  H    0.653177   0.000118   0.006637   0.000212  -0.000184  -0.000181
    14  H    0.000118   0.586632  -0.027673  -0.031601   0.002590  -0.000000
    15  H    0.006637  -0.027673   0.591720  -0.027955   0.000067  -0.000000
    16  H    0.000212  -0.031601  -0.027955   0.586009   0.001717  -0.000000
    17  H   -0.000184   0.002590   0.000067   0.001717   0.621005  -0.000174
    18  H   -0.000181  -0.000000  -0.000000  -0.000000  -0.000174   0.619139
 Mulliken charges:
               1
     1  C   -0.379930
     2  C    0.125186
     3  C   -0.147078
     4  C    0.123510
     5  C   -0.380027
     6  C   -0.122419
     7  C    0.056689
     8  Br  -0.143090
     9  C   -0.126742
    10  H    0.130020
    11  H    0.114896
    12  H    0.120901
    13  H    0.071448
    14  H    0.125458
    15  H    0.111849
    16  H    0.128766
    17  H    0.095060
    18  H    0.095505
 Sum of Mulliken charges =  -0.00000
 Mulliken charges with hydrogens summed into heavy atoms:
               1
     1  C   -0.014113
     2  C    0.125186
     3  C   -0.075631
     4  C    0.123510
     5  C   -0.013955
     6  C   -0.027360
     7  C    0.056689
     8  Br  -0.143090
     9  C   -0.031237
 Electronic spatial extent (au):  <R**2>=           2109.9556
 Charge=              0.0000 electrons
 Dipole moment (field-independent basis, Debye):
    X=             -2.2710    Y=              0.0490    Z=              0.0214  Tot=              2.2716
 Quadrupole moment (field-independent basis, Debye-Ang):
   XX=            -62.7823   YY=            -59.7269   ZZ=            -68.0755
   XY=              0.0769   XZ=             -0.0446   YZ=             -0.0890
 Traceless Quadrupole moment (field-independent basis, Debye-Ang):
   XX=              0.7460   YY=              3.8013   ZZ=             -4.5473
   XY=              0.0769   XZ=             -0.0446   YZ=             -0.0890
 Octapole moment (field-independent basis, Debye-Ang**2):
  XXX=             60.6143  YYY=              0.4978  ZZZ=              0.2975  XYY=             17.9854
  XXY=             -0.8727  XXZ=             -0.0594  XZZ=             24.8810  YZZ=              0.4548
  YYZ=              0.0364  XYZ=              0.4290
 Hexadecapole moment (field-independent basis, Debye-Ang**3):
 XXXX=          -1495.7285 YYYY=           -858.1715 ZZZZ=            -84.9644 XXXY=              2.4179
 XXXZ=              1.1758 YYYX=             -2.0548 YYYZ=              0.8830 ZZZX=             -0.7511
 ZZZY=             -1.8620 XXYY=           -403.4201 XXZZ=           -283.9928 YYZZ=           -160.7320
 XXYZ=             -0.4595 YYXZ=             -0.5508 ZZXY=              1.0194
 N-N= 6.225671771687D+02 E-N=-8.096895860745D+03  KE= 2.863520851294D+03
 No NMR shielding tensors so no spin-rotation constants.
 Leave Link  601 at Tue Sep 17 09:56:01 2024, MaxMem=  1342177280 cpu:               0.9 elap:               0.2
 (Enter /groups/ReismanLab/Software/Gaussian16_RevC/Linux_Binary_AVX2-enabled-CPU/g16/l701.exe)
 ... and contract with generalized density number  0.
 Compute integral first derivatives.
 R6Disp: Adding Grimme-D3(BJ) dispersion energy 1st derivatives to the gradient.
 Leave Link  701 at Tue Sep 17 09:56:01 2024, MaxMem=  1342177280 cpu:               1.0 elap:               0.2
 (Enter /groups/ReismanLab/Software/Gaussian16_RevC/Linux_Binary_AVX2-enabled-CPU/g16/l702.exe)
 L702 exits ... SP integral derivatives will be done elsewhere.
 Leave Link  702 at Tue Sep 17 09:56:02 2024, MaxMem=  1342177280 cpu:               0.1 elap:               0.0
 (Enter /groups/ReismanLab/Software/Gaussian16_RevC/Linux_Binary_AVX2-enabled-CPU/g16/l703.exe)
 Integral derivatives from FoFJK, PRISM(SPDF).
 Compute integral first derivatives, UseDBF=F ICtDFT=           0.
 Calling FoFJK, ICntrl=      2127 FMM=F ISym2X=0 I1Cent= 0 IOpClX= 0 NMat=1 NMatS=1 NMatT=0.
 FoFJK:  IHMeth= 1 ICntrl=    2127 DoSepK=F KAlg= 0 I1Cent=           0 FoldK=F
 IRaf=         0 NMat=       1 IRICut=       1 DoRegI=T DoRafI=F ISym2E= 0 IDoP0=0 IntGTp=1.
 FoFCou: FMM=F IPFlag=           0 FMFlag=      100000 FMFlg1=         800
         NFxFlg=           0 DoJE=F BraDBF=F KetDBF=F FulRan=T
         wScrn=  0.000000 ICntrl=      2127 IOpCl=  0 I1Cent=           0 NGrid=           0
         NMat0=    1 NMatS0=      1 NMatT0=    0 NMatD0=    1 NMtDS0=    0 NMtDT0=    0
 Symmetry not used in FoFCou.
 Leave Link  703 at Tue Sep 17 09:56:04 2024, MaxMem=  1342177280 cpu:              19.9 elap:               2.6
 (Enter /groups/ReismanLab/Software/Gaussian16_RevC/Linux_Binary_AVX2-enabled-CPU/g16/l716.exe)
 Dipole        =-8.93485803D-01 1.92777888D-02 8.41334551D-03
 ***** Axes restored to original set *****
 -------------------------------------------------------------------
 Center     Atomic                   Forces (Hartrees/Bohr)
 Number     Number              X              Y              Z
 -------------------------------------------------------------------
      1        6          -0.000335276    0.000709198   -0.000896375
      2        6           0.001265975   -0.002959309    0.000739921
      3        6           0.003782285    0.000249374    0.000059727
      4        6           0.002479454    0.002191229   -0.000533642
      5        6          -0.000411369   -0.000602851    0.000420887
      6        6          -0.004273113    0.003804096   -0.000075674
      7        6          -0.007017886    0.001153263   -0.000142620
      8       35          -0.002080395   -0.000022301    0.000006364
      9        6          -0.003335194   -0.004889043    0.000155093
     10        1           0.002402076   -0.002686170   -0.002963715
     11        1          -0.000937521   -0.003950983    0.000843269
     12        1           0.003391688   -0.001646694    0.002221743
     13        1           0.004572194    0.000403575    0.000097927
     14        1           0.000136235    0.003666004   -0.002566022
     15        1           0.003979058    0.001052707   -0.000320933
     16        1           0.000696372    0.003554883    0.002835435
     17        1          -0.002405653    0.002822290   -0.000020880
     18        1          -0.001908930   -0.002849272    0.000139497
 -------------------------------------------------------------------
 Cartesian Forces:  Max     0.007017886 RMS     0.002450773
 Leave Link  716 at Tue Sep 17 09:56:04 2024, MaxMem=  1342177280 cpu:               0.1 elap:               0.0
 (Enter /groups/ReismanLab/Software/Gaussian16_RevC/Linux_Binary_AVX2-enabled-CPU/g16/l103.exe)

 GradGradGradGradGradGradGradGradGradGradGradGradGradGradGradGradGradGrad
 Berny optimization.
 FormGI is forming the generalized inverse of G from B-inverse, IUseBI=4.
 Internal  Forces:  Max     0.010968825 RMS     0.003373787
 Search for a local minimum.
 Step number   1 out of a maximum of   94
 All quantities printed in internal units (Hartrees-Bohrs-Radians)
 RMS Force = .33738D-02 SwitMx=.10000D-02 MixMth= 1
 Mixed Optimization -- RFO/linear search
 Second derivative matrix not updated -- first step.
 ITU=  0
     Eigenvalues ---    0.00795   0.00796   0.01630   0.01678   0.02232
     Eigenvalues ---    0.02237   0.02253   0.02278   0.02285   0.02311
     Eigenvalues ---    0.02331   0.07256   0.07272   0.07412   0.07429
     Eigenvalues ---    0.16000   0.16000   0.16000   0.16000   0.16000
     Eigenvalues ---    0.16000   0.16000   0.16000   0.16000   0.17730
     Eigenvalues ---    0.23473   0.23478   0.23505   0.24997   0.24999
     Eigenvalues ---    0.25000   0.32611   0.32617   0.34788   0.34859
     Eigenvalues ---    0.34959   0.35028   0.35182   0.35190   0.35898
     Eigenvalues ---    0.36062   0.36067   0.43420   0.43582   0.47350
     Eigenvalues ---    0.47643   0.48229   0.48695
 RFO step:  Lambda=-2.47759183D-03 EMin= 7.95326819D-03
 Linear search not attempted -- first point.
 Iteration  1 RMS(Cart)=  0.02330623 RMS(Int)=  0.00006157
 Iteration  2 RMS(Cart)=  0.00005850 RMS(Int)=  0.00003035
 Iteration  3 RMS(Cart)=  0.00000000 RMS(Int)=  0.00003035
 ITry= 1 IFail=0 DXMaxC= 7.14D-02 DCOld= 1.00D+10 DXMaxT= 3.00D-01 DXLimC= 3.00D+00 Rises=F
 Variable       Old X    -DE/DX   Delta X   Delta X   Delta X     New X
                                 (Linear)    (Quad)   (Total)
    R1        2.83030   0.00883   0.00000   0.02686   0.02686   2.85716
    R2        2.06020   0.00405   0.00000   0.01156   0.01156   2.07176
    R3        2.05381   0.00379   0.00000   0.01071   0.01071   2.06452
    R4        2.05629   0.00396   0.00000   0.01124   0.01124   2.06753
    R5        2.62808   0.01066   0.00000   0.02254   0.02255   2.65062
    R6        2.62135   0.01006   0.00000   0.02092   0.02092   2.64227
    R7        2.62008   0.01001   0.00000   0.02083   0.02084   2.64092
    R8        2.04241   0.00457   0.00000   0.01265   0.01265   2.05506
    R9        2.83039   0.00884   0.00000   0.02691   0.02691   2.85731
   R10        2.62853   0.01097   0.00000   0.02314   0.02314   2.65168
   R11        2.05741   0.00401   0.00000   0.01140   0.01140   2.06881
   R12        2.05367   0.00380   0.00000   0.01072   0.01072   2.06439
   R13        2.05904   0.00405   0.00000   0.01152   0.01152   2.07057
   R14        2.60822   0.00847   0.00000   0.01712   0.01712   2.62534
   R15        2.03984   0.00365   0.00000   0.01006   0.01006   2.04990
   R16        3.61103   0.00208   0.00000   0.01157   0.01157   3.62260
   R17        2.61424   0.00972   0.00000   0.01987   0.01987   2.63411
   R18        2.03976   0.00342   0.00000   0.00943   0.00943   2.04919
    A1        1.91878   0.00268   0.00000   0.01734   0.01724   1.93602
    A2        1.93857   0.00136   0.00000   0.00771   0.00766   1.94623
    A3        1.93064   0.00174   0.00000   0.01048   0.01041   1.94104
    A4        1.89057  -0.00203   0.00000  -0.01210  -0.01217   1.87839
    A5        1.88205  -0.00201   0.00000  -0.01113  -0.01123   1.87082
    A6        1.90187  -0.00194   0.00000  -0.01354  -0.01357   1.88831
    A7        2.10040   0.00083   0.00000   0.00329   0.00329   2.10369
    A8        2.10596   0.00023   0.00000   0.00091   0.00090   2.10687
    A9        2.07673  -0.00106   0.00000  -0.00423  -0.00423   2.07249
   A10        2.12327   0.00088   0.00000   0.00412   0.00412   2.12739
   A11        2.07651  -0.00001   0.00000   0.00058   0.00057   2.07709
   A12        2.08340  -0.00087   0.00000  -0.00469  -0.00469   2.07871
   A13        2.11881  -0.00025   0.00000  -0.00099  -0.00099   2.11782
   A14        2.07591  -0.00086   0.00000  -0.00342  -0.00342   2.07250
   A15        2.08844   0.00111   0.00000   0.00439   0.00439   2.09283
   A16        1.92791   0.00203   0.00000   0.01263   0.01255   1.94046
   A17        1.93737   0.00126   0.00000   0.00698   0.00694   1.94430
   A18        1.92276   0.00244   0.00000   0.01559   0.01550   1.93826
   A19        1.89920  -0.00195   0.00000  -0.01311  -0.01315   1.88606
   A20        1.88046  -0.00199   0.00000  -0.01070  -0.01082   1.86964
   A21        1.89484  -0.00200   0.00000  -0.01265  -0.01270   1.88214
   A22        2.08261   0.00024   0.00000   0.00081   0.00080   2.08341
   A23        2.09895   0.00053   0.00000   0.00362   0.00362   2.10257
   A24        2.10162  -0.00077   0.00000  -0.00443  -0.00443   2.09719
   A25        2.07986  -0.00015   0.00000  -0.00040  -0.00040   2.07946
   A26        2.12590   0.00037   0.00000   0.00108   0.00107   2.12697
   A27        2.07743  -0.00022   0.00000  -0.00068  -0.00068   2.07675
   A28        2.08195   0.00043   0.00000   0.00165   0.00165   2.08360
   A29        2.10379  -0.00003   0.00000   0.00033   0.00034   2.10413
   A30        2.09744  -0.00041   0.00000  -0.00199  -0.00199   2.09545
    D1       -1.30490  -0.00003   0.00000   0.00101   0.00100  -1.30390
    D2        1.82208  -0.00009   0.00000  -0.00183  -0.00185   1.82023
    D3        2.88606  -0.00011   0.00000  -0.00014  -0.00016   2.88591
    D4       -0.27014  -0.00018   0.00000  -0.00298  -0.00301  -0.27315
    D5        0.77174   0.00025   0.00000   0.00472   0.00475   0.77650
    D6       -2.38446   0.00019   0.00000   0.00188   0.00191  -2.38256
    D7        3.12781  -0.00015   0.00000  -0.00648  -0.00648   3.12132
    D8       -0.01420  -0.00014   0.00000  -0.00631  -0.00631  -0.02051
    D9        0.00058  -0.00010   0.00000  -0.00373  -0.00373  -0.00315
   D10       -3.14143  -0.00009   0.00000  -0.00356  -0.00356   3.13820
   D11       -3.12802   0.00018   0.00000   0.00768   0.00767  -3.12034
   D12        0.01370   0.00013   0.00000   0.00578   0.00578   0.01947
   D13       -0.00084   0.00014   0.00000   0.00494   0.00494   0.00410
   D14        3.14087   0.00009   0.00000   0.00304   0.00304  -3.13927
   D15        3.13484  -0.00005   0.00000  -0.00265  -0.00264   3.13220
   D16        0.00018  -0.00000   0.00000   0.00009   0.00009   0.00027
   D17       -0.00633  -0.00006   0.00000  -0.00283  -0.00282  -0.00915
   D18       -3.14099  -0.00001   0.00000  -0.00009  -0.00009  -3.14108
   D19        2.21324  -0.00017   0.00000  -0.00120  -0.00123   2.21201
   D20        0.10494   0.00009   0.00000   0.00224   0.00225   0.10719
   D21       -1.99446   0.00017   0.00000   0.00327   0.00330  -1.99117
   D22       -0.93533  -0.00023   0.00000  -0.00399  -0.00403  -0.93936
   D23       -3.04363   0.00003   0.00000  -0.00055  -0.00055  -3.04418
   D24        1.14015   0.00011   0.00000   0.00048   0.00050   1.14065
   D25       -0.00067   0.00007   0.00000   0.00229   0.00230   0.00163
   D26        3.14000   0.00000   0.00000  -0.00009  -0.00009   3.13991
   D27       -3.13545   0.00012   0.00000   0.00500   0.00501  -3.13045
   D28        0.00522   0.00006   0.00000   0.00262   0.00262   0.00784
   D29        3.14126  -0.00006   0.00000  -0.00217  -0.00217   3.13908
   D30        0.00041  -0.00003   0.00000  -0.00103  -0.00103  -0.00062
   D31        0.00059   0.00000   0.00000   0.00021   0.00020   0.00079
   D32       -3.14026   0.00003   0.00000   0.00135   0.00134  -3.13892
   D33        0.00036  -0.00007   0.00000  -0.00264  -0.00265  -0.00229
   D34       -3.14136  -0.00002   0.00000  -0.00075  -0.00076   3.14107
   D35       -3.14049  -0.00004   0.00000  -0.00150  -0.00151   3.14118
   D36        0.00098   0.00001   0.00000   0.00038   0.00038   0.00136
         Item               Value     Threshold  Converged?
 Maximum Force            0.010969     0.000450     NO 
 RMS     Force            0.003374     0.000300     NO 
 Maximum Displacement     0.071449     0.001800     NO 
 RMS     Displacement     0.023323     0.001200     NO 
 Predicted change in Energy=-1.248328D-03
 Lowest energy point so far.  Saving SCF results.
 GradGradGradGradGradGradGradGradGradGradGradGradGradGradGradGradGradGrad

 Leave Link  103 at Tue Sep 17 09:56:04 2024, MaxMem=  1342177280 cpu:               0.1 elap:               0.0
 (Enter /groups/ReismanLab/Software/Gaussian16_RevC/Linux_Binary_AVX2-enabled-CPU/g16/l202.exe)
                          Input orientation:                          
 ---------------------------------------------------------------------
 Center     Atomic      Atomic             Coordinates (Angstroms)
 Number     Number       Type             X           Y           Z
 ---------------------------------------------------------------------
      1          6           0        2.634111   -2.526695   -0.008542
      2          6           0        1.867452   -1.223661    0.008906
      3          6           0        2.547270    0.003225    0.003765
      4          6           0        1.867211    1.224083   -0.004528
      5          6           0        2.612582    2.539601    0.002132
      6          6           0        0.464037    1.214920   -0.007437
      7          6           0       -0.209438   -0.000170   -0.000063
      8         35           0       -2.126431   -0.005089    0.000108
      9          6           0        0.469238   -1.217667    0.009457
     10          1           0        3.050203   -2.722896   -1.003687
     11          1           0        1.993763   -3.371792    0.254738
     12          1           0        3.472882   -2.501958    0.693517
     13          1           0        3.634758    0.003572    0.006541
     14          1           0        2.284972    3.184013   -0.820011
     15          1           0        3.690021    2.387766   -0.095178
     16          1           0        2.433730    3.088647    0.933321
     17          1           0       -0.092093    2.146265   -0.012269
     18          1           0       -0.086067   -2.149061    0.015543
 ---------------------------------------------------------------------
                    Distance matrix (angstroms):
                    1          2          3          4          5
     1  C    0.000000
     2  C    1.511942   0.000000
     3  C    2.531440   1.402650   0.000000
     4  C    3.828380   2.447781   1.397513   0.000000
     5  C    5.066354   3.836327   2.537218   1.512022   0.000000
     6  C    4.325380   2.813631   2.410019   1.403207   2.524107
     7  C    3.803837   2.410495   2.756713   2.410662   3.796609
     8  Br   5.387146   4.175656   4.673710   4.178525   5.379005
     9  C    2.529932   1.398227   2.410151   2.813657   4.325626
    10  H    1.096331   2.161469   2.949514   4.239862   5.375599
    11  H    1.092497   2.165838   3.429299   4.604921   5.949060
    12  H    1.094091   2.163363   2.758343   4.116895   5.160954
    13  H    2.720988   2.151621   1.087491   2.148020   2.734284
    14  H    5.778630   4.504333   3.296183   2.163530   1.094766
    15  H    5.027363   4.046602   2.646074   2.164489   1.092428
    16  H    5.697309   4.446483   3.224407   2.162661   1.095697
    17  H    5.410062   3.898290   3.399870   2.165492   2.733164
    18  H    2.746371   2.161631   3.401020   3.897923   5.409846
                    6          7          8          9         10
     6  C    0.000000
     7  C    1.389269   0.000000
     8  Br   2.863391   1.916999   0.000000
     9  C    2.432652   1.393912   2.864949   0.000000
    10  H    4.815305   4.364144   5.932252   3.154925   0.000000
    11  H    4.842182   4.035697   5.326868   2.650395   1.766569
    12  H    4.833184   4.505494   6.169885   3.337546   1.762944
    13  H    3.394264   3.844203   5.761199   3.392926   2.965787
    14  H    2.802393   4.127156   5.504856   4.833187   5.959101
    15  H    3.433692   4.573518   6.290147   4.835653   5.230068
    16  H    2.876728   4.171131   5.589021   4.822561   6.156791
    17  H    1.084761   2.149675   2.960913   3.410514   5.879257
    18  H    3.408741   2.152486   2.959720   1.084387   3.347283
                   11         12         13         14         15
    11  H    0.000000
    12  H    1.771138   0.000000
    13  H    3.761322   2.603041   0.000000
    14  H    6.649696   6.002679   3.552508   0.000000
    15  H    6.014336   4.957679   2.387002   1.770185   0.000000
    16  H    6.510862   5.691415   3.437889   1.762213   1.768422
    17  H    5.905171   5.900268   4.298942   2.716580   3.790724
    18  H    2.424454   3.640096   4.298656   5.895901   5.903719
                   16         17         18
    16  H    0.000000
    17  H    2.856923   0.000000
    18  H    5.884325   4.295421   0.000000
 Stoichiometry    C8H9Br
 Framework group  C1[X(C8H9Br)]
 Deg. of freedom    48
 Full point group                 C1      NOp   1
 RotChk:  IX=0 Diff= 1.69D-03
 Largest Abelian subgroup         C1      NOp   1
 Largest concise Abelian subgroup C1      NOp   1
                         Standard orientation:                         
 ---------------------------------------------------------------------
 Center     Atomic      Atomic             Coordinates (Angstroms)
 Number     Number       Type             X           Y           Z
 ---------------------------------------------------------------------
      1          6           0       -2.420612   -2.528126    0.007117
      2          6           0       -1.654904   -1.224524   -0.009696
      3          6           0       -2.335621    0.001861   -0.004221
      4          6           0       -1.656458    1.223214    0.004661
      5          6           0       -2.402790    2.538188   -0.001644
      6          6           0       -0.253278    1.215077    0.007830
      7          6           0        0.421089    0.000483    0.000126
      8         35           0        2.338085   -0.003032    0.000314
      9          6           0       -0.256694   -1.217507   -0.009982
     10          1           0       -2.836747   -2.725006    1.002110
     11          1           0       -1.779596   -3.372654   -0.256361
     12          1           0       -3.259268   -2.503738   -0.695091
     13          1           0       -3.423108    0.001413   -0.007201
     14          1           0       -2.075807    3.182530    0.820803
     15          1           0       -3.480136    2.385527    0.095406
     16          1           0       -2.224165    3.087716   -0.932593
     17          1           0        0.302170    2.146827    0.013118
     18          1           0        0.299294   -2.148492   -0.016313
 ---------------------------------------------------------------------
 Rotational constants (GHZ):           1.7504816           0.6682477           0.4865428
 Leave Link  202 at Tue Sep 17 09:56:04 2024, MaxMem=  1342177280 cpu:               0.1 elap:               0.0
 (Enter /groups/ReismanLab/Software/Gaussian16_RevC/Linux_Binary_AVX2-enabled-CPU/g16/l301.exe)
 Standard basis: 6-31G(d,p) (6D, 7F)
 Ernie: Thresh=  0.10000D-02 Tol=  0.10000D-05 Strict=F.
 There are   195 symmetry adapted cartesian basis functions of A   symmetry.
 There are   195 symmetry adapted basis functions of A   symmetry.
   195 basis functions,   370 primitive gaussians,   195 cartesian basis functions
    46 alpha electrons       46 beta electrons
       nuclear repulsion energy       618.3206410318 Hartrees.
 IExCor=  402 DFT=T Ex+Corr=B3LYP ExCW=0 ScaHFX=  0.200000
 ScaDFX=  0.800000  0.720000  1.000000  0.810000 ScalE2=  1.000000  1.000000
 IRadAn=      5 IRanWt=     -1 IRanGd=            0 ICorTp=0 IEmpDi=141
 NAtoms=   18 NActive=   18 NUniq=   18 SFac= 1.00D+00 NAtFMM=   60 NAOKFM=F Big=F
 Integral buffers will be    131072 words long.
 Raffenetti 2 integral format.
 Two-electron integral symmetry is turned on.
 R6Disp:  Grimme-D3(BJ) Dispersion energy=       -0.0342116379 Hartrees.
 Nuclear repulsion after empirical dispersion term =      618.2864293939 Hartrees.
 Leave Link  301 at Tue Sep 17 09:56:04 2024, MaxMem=  1342177280 cpu:               0.1 elap:               0.0
 (Enter /groups/ReismanLab/Software/Gaussian16_RevC/Linux_Binary_AVX2-enabled-CPU/g16/l302.exe)
 NPDir=0 NMtPBC=     1 NCelOv=     1 NCel=       1 NClECP=     1 NCelD=      1
         NCelK=      1 NCelE2=     1 NClLst=     1 CellRange=     0.0.
 One-electron integrals computed using PRISM.
 One-electron integral symmetry used in STVInt
 NBasis=   195 RedAO= T EigKep=  4.12D-04  NBF=   195
 NBsUse=   195 1.00D-06 EigRej= -1.00D+00 NBFU=   195
 Precomputing XC quadrature grid using
 IXCGrd= 4 IRadAn=           5 IRanWt=          -1 IRanGd=           0 AccXCQ= 0.00D+00.
 Generated NRdTot=       0 NPtTot=           0 NUsed=           0 NTot=          32
 NSgBfM=   195   194   194   194   195 MxSgAt=    18 MxSgA2=    18.
 Leave Link  302 at Tue Sep 17 09:56:05 2024, MaxMem=  1342177280 cpu:               1.5 elap:               0.2
 (Enter /groups/ReismanLab/Software/Gaussian16_RevC/Linux_Binary_AVX2-enabled-CPU/g16/l303.exe)
 DipDrv:  MaxL=1.
 Leave Link  303 at Tue Sep 17 09:56:05 2024, MaxMem=  1342177280 cpu:               0.1 elap:               0.0
 (Enter /groups/ReismanLab/Software/Gaussian16_RevC/Linux_Binary_AVX2-enabled-CPU/g16/l401.exe)
 Initial guess from the checkpoint file:  "smiles_00066_conf_0.chk"
 B after Tr=    -0.000000   -0.000000    0.000000
         Rot=    1.000000   -0.000033    0.000008   -0.000329 Ang=  -0.04 deg.
 Guess basis will be translated and rotated to current coordinates.
 JPrj=2 DoOrth=T DoCkMO=T.
 Generating alternative initial guess.
 ExpMin= 1.43D-01 ExpMax= 5.74D+05 ExpMxC= 5.74D+03 IAcc=3 IRadAn=         5 AccDes= 0.00D+00
 Harris functional with IExCor=  402 and IRadAn=       5 diagonalized for initial guess.
 HarFok:  IExCor=  402 AccDes= 0.00D+00 IRadAn=         5 IDoV= 1 UseB2=F ITyADJ=14
 ICtDFT=  3500011 ScaDFX=  1.000000  1.000000  1.000000  1.000000
 FoFCou: FMM=F IPFlag=           0 FMFlag=      100000 FMFlg1=           0
         NFxFlg=           0 DoJE=T BraDBF=F KetDBF=T FulRan=T
         wScrn=  0.000000 ICntrl=       500 IOpCl=  0 I1Cent=   200000004 NGrid=           0
         NMat0=    1 NMatS0=      1 NMatT0=    0 NMatD0=    1 NMtDS0=    0 NMtDT0=    0
 Petite list used in FoFCou.
 Harris En= -2882.18484621369    
 Leave Link  401 at Tue Sep 17 09:56:05 2024, MaxMem=  1342177280 cpu:               4.2 elap:               0.6
 (Enter /groups/ReismanLab/Software/Gaussian16_RevC/Linux_Binary_AVX2-enabled-CPU/g16/l502.exe)
 Integral symmetry usage will be decided dynamically.
 Closed shell SCF:
 Using DIIS extrapolation, IDIIS=  1040.
 NGot=  1342177280 LenX=  1342097096 LenY=  1342058630
 Requested convergence on RMS density matrix=1.00D-08 within  32 cycles.
 Requested convergence on MAX density matrix=1.00D-06.
 Requested convergence on             energy=1.00D-06.
 No special actions if energy rises.
 Fock matrices will be formed incrementally for  20 cycles.
 Integral accuracy reduced to 1.0D-05 until final iterations.

 Cycle   1  Pass 0  IDiag  1:
 FoFJK:  IHMeth= 1 ICntrl=       0 DoSepK=F KAlg= 0 I1Cent=           0 FoldK=F
 IRaf= 890000000 NMat=       1 IRICut=       1 DoRegI=T DoRafI=F ISym2E= 0 IDoP0=0 IntGTp=1.
 FoFCou: FMM=F IPFlag=           0 FMFlag=      100000 FMFlg1=           0
         NFxFlg=           0 DoJE=F BraDBF=F KetDBF=F FulRan=T
         wScrn=  0.000000 ICntrl=         0 IOpCl=  0 I1Cent=           0 NGrid=           0
         NMat0=    1 NMatS0=      1 NMatT0=    0 NMatD0=    1 NMtDS0=    0 NMtDT0=    0
 Symmetry not used in FoFCou.
 E= -2882.03735118277    
 DIIS: error= 1.83D-03 at cycle   1 NSaved=   1.
 NSaved= 1 IEnMin= 1 EnMin= -2882.03735118277     IErMin= 1 ErrMin= 1.83D-03
 ErrMax= 1.83D-03  0.00D+00 EMaxC= 1.00D-01 BMatC= 6.05D-04 BMatP= 6.05D-04
 IDIUse=3 WtCom= 9.82D-01 WtEn= 1.83D-02
 Coeff-Com:  0.100D+01
 Coeff-En:   0.100D+01
 Coeff:      0.100D+01
 Gap=     1.914 Goal=   None    Shift=    0.000
 GapD=    1.914 DampG=2.000 DampE=1.000 DampFc=2.0000 IDamp=-1.
 RMSDP=1.88D-04 MaxDP=2.36D-03              OVMax= 3.72D-03

 Cycle   2  Pass 0  IDiag  1:
 RMSU=  1.87D-04    CP:  1.00D+00
 E= -2882.03759807834     Delta-E=       -0.000246895568 Rises=F Damp=F
 DIIS: error= 4.99D-04 at cycle   2 NSaved=   2.
 NSaved= 2 IEnMin= 2 EnMin= -2882.03759807834     IErMin= 2 ErrMin= 4.99D-04
 ErrMax= 4.99D-04  0.00D+00 EMaxC= 1.00D-01 BMatC= 5.77D-05 BMatP= 6.05D-04
 IDIUse=3 WtCom= 9.95D-01 WtEn= 4.99D-03
 Coeff-Com:  0.145D+00 0.855D+00
 Coeff-En:   0.000D+00 0.100D+01
 Coeff:      0.144D+00 0.856D+00
 Gap=     0.225 Goal=   None    Shift=    0.000
 RMSDP=8.82D-05 MaxDP=2.01D-03 DE=-2.47D-04 OVMax= 3.50D-03

 Cycle   3  Pass 0  IDiag  1:
 RMSU=  8.73D-05    CP:  1.00D+00  9.33D-01
 E= -2882.03761136783     Delta-E=       -0.000013289492 Rises=F Damp=F
 DIIS: error= 4.16D-04 at cycle   3 NSaved=   3.
 NSaved= 3 IEnMin= 3 EnMin= -2882.03761136783     IErMin= 3 ErrMin= 4.16D-04
 ErrMax= 4.16D-04  0.00D+00 EMaxC= 1.00D-01 BMatC= 4.49D-05 BMatP= 5.77D-05
 IDIUse=3 WtCom= 9.96D-01 WtEn= 4.16D-03
 Coeff-Com:  0.192D-02 0.468D+00 0.530D+00
 Coeff-En:   0.000D+00 0.447D+00 0.553D+00
 Coeff:      0.191D-02 0.468D+00 0.530D+00
 Gap=     0.226 Goal=   None    Shift=    0.000
 RMSDP=4.92D-05 MaxDP=1.36D-03 DE=-1.33D-05 OVMax= 1.93D-03

 Cycle   4  Pass 0  IDiag  1:
 RMSU=  1.42D-05    CP:  1.00D+00  9.70D-01  4.67D-01
 E= -2882.03766208343     Delta-E=       -0.000050715599 Rises=F Damp=F
 DIIS: error= 5.01D-05 at cycle   4 NSaved=   4.
 NSaved= 4 IEnMin= 4 EnMin= -2882.03766208343     IErMin= 4 ErrMin= 5.01D-05
 ErrMax= 5.01D-05  0.00D+00 EMaxC= 1.00D-01 BMatC= 7.30D-07 BMatP= 4.49D-05
 IDIUse=1 WtCom= 1.00D+00 WtEn= 0.00D+00
 Coeff-Com: -0.150D-02 0.196D+00 0.248D+00 0.558D+00
 Coeff:     -0.150D-02 0.196D+00 0.248D+00 0.558D+00
 Gap=     0.226 Goal=   None    Shift=    0.000
 RMSDP=6.48D-06 MaxDP=2.57D-04 DE=-5.07D-05 OVMax= 2.72D-04

 Initial convergence to 1.0D-05 achieved.  Increase integral accuracy.
 Cycle   5  Pass 1  IDiag  1:
 E= -2882.03766994776     Delta-E=       -0.000007864328 Rises=F Damp=F
 DIIS: error= 5.44D-05 at cycle   1 NSaved=   1.
 NSaved= 1 IEnMin= 1 EnMin= -2882.03766994776     IErMin= 1 ErrMin= 5.44D-05
 ErrMax= 5.44D-05  0.00D+00 EMaxC= 1.00D-01 BMatC= 1.50D-07 BMatP= 1.50D-07
 IDIUse=1 WtCom= 1.00D+00 WtEn= 0.00D+00
 Coeff-Com:  0.100D+01
 Coeff:      0.100D+01
 Gap=     0.226 Goal=   None    Shift=    0.000
 RMSDP=6.48D-06 MaxDP=2.57D-04 DE=-7.86D-06 OVMax= 1.74D-04

 Cycle   6  Pass 1  IDiag  1:
 RMSU=  7.34D-06    CP:  1.00D+00
 E= -2882.03766990793     Delta-E=        0.000000039825 Rises=F Damp=F
 DIIS: error= 2.24D-05 at cycle   2 NSaved=   2.
 NSaved= 2 IEnMin= 1 EnMin= -2882.03766994776     IErMin= 2 ErrMin= 2.24D-05
 ErrMax= 2.24D-05  0.00D+00 EMaxC= 1.00D-01 BMatC= 1.47D-07 BMatP= 1.50D-07
 IDIUse=1 WtCom= 1.00D+00 WtEn= 0.00D+00
 Coeff-Com:  0.497D+00 0.503D+00
 Coeff:      0.497D+00 0.503D+00
 Gap=     0.226 Goal=   None    Shift=    0.000
 RMSDP=2.52D-06 MaxDP=1.17D-04 DE= 3.98D-08 OVMax= 1.73D-04

 Cycle   7  Pass 1  IDiag  1:
 RMSU=  2.32D-06    CP:  1.00D+00  8.68D-01
 E= -2882.03767003239     Delta-E=       -0.000000124455 Rises=F Damp=F
 DIIS: error= 8.97D-06 at cycle   3 NSaved=   3.
 NSaved= 3 IEnMin= 3 EnMin= -2882.03767003239     IErMin= 3 ErrMin= 8.97D-06
 ErrMax= 8.97D-06  0.00D+00 EMaxC= 1.00D-01 BMatC= 2.25D-08 BMatP= 1.47D-07
 IDIUse=1 WtCom= 1.00D+00 WtEn= 0.00D+00
 Coeff-Com:  0.647D-01 0.282D+00 0.653D+00
 Coeff:      0.647D-01 0.282D+00 0.653D+00
 Gap=     0.226 Goal=   None    Shift=    0.000
 RMSDP=1.03D-06 MaxDP=3.81D-05 DE=-1.24D-07 OVMax= 6.74D-05

 Cycle   8  Pass 1  IDiag  1:
 RMSU=  5.67D-07    CP:  1.00D+00  9.18D-01  6.66D-01
 E= -2882.03767005126     Delta-E=       -0.000000018875 Rises=F Damp=F
 DIIS: error= 4.96D-06 at cycle   4 NSaved=   4.
 NSaved= 4 IEnMin= 4 EnMin= -2882.03767005126     IErMin= 4 ErrMin= 4.96D-06
 ErrMax= 4.96D-06  0.00D+00 EMaxC= 1.00D-01 BMatC= 4.81D-09 BMatP= 2.25D-08
 IDIUse=1 WtCom= 1.00D+00 WtEn= 0.00D+00
 Coeff-Com: -0.785D-03 0.143D+00 0.428D+00 0.430D+00
 Coeff:     -0.785D-03 0.143D+00 0.428D+00 0.430D+00
 Gap=     0.226 Goal=   None    Shift=    0.000
 RMSDP=3.79D-07 MaxDP=1.24D-05 DE=-1.89D-08 OVMax= 3.36D-05

 Cycle   9  Pass 1  IDiag  1:
 RMSU=  9.89D-08    CP:  1.00D+00  9.13D-01  7.28D-01  4.09D-01
 E= -2882.03767005637     Delta-E=       -0.000000005106 Rises=F Damp=F
 DIIS: error= 7.05D-07 at cycle   5 NSaved=   5.
 NSaved= 5 IEnMin= 5 EnMin= -2882.03767005637     IErMin= 5 ErrMin= 7.05D-07
 ErrMax= 7.05D-07  0.00D+00 EMaxC= 1.00D-01 BMatC= 7.12D-11 BMatP= 4.81D-09
 IDIUse=1 WtCom= 1.00D+00 WtEn= 0.00D+00
 Coeff-Com: -0.168D-02 0.741D-01 0.224D+00 0.240D+00 0.463D+00
 Coeff:     -0.168D-02 0.741D-01 0.224D+00 0.240D+00 0.463D+00
 Gap=     0.226 Goal=   None    Shift=    0.000
 RMSDP=5.27D-08 MaxDP=1.48D-06 DE=-5.11D-09 OVMax= 3.83D-06

 Cycle  10  Pass 1  IDiag  1:
 RMSU=  2.63D-08    CP:  1.00D+00  9.14D-01  7.26D-01  4.39D-01  5.75D-01
 E= -2882.03767005644     Delta-E=       -0.000000000073 Rises=F Damp=F
 DIIS: error= 6.64D-08 at cycle   6 NSaved=   6.
 NSaved= 6 IEnMin= 6 EnMin= -2882.03767005644     IErMin= 6 ErrMin= 6.64D-08
 ErrMax= 6.64D-08  0.00D+00 EMaxC= 1.00D-01 BMatC= 1.56D-12 BMatP= 7.12D-11
 IDIUse=1 WtCom= 1.00D+00 WtEn= 0.00D+00
 Coeff-Com: -0.527D-03 0.177D-01 0.522D-01 0.569D-01 0.176D+00 0.698D+00
 Coeff:     -0.527D-03 0.177D-01 0.522D-01 0.569D-01 0.176D+00 0.698D+00
 Gap=     0.226 Goal=   None    Shift=    0.000
 RMSDP=1.11D-08 MaxDP=2.94D-07 DE=-7.28D-11 OVMax= 7.60D-07

 Cycle  11  Pass 1  IDiag  1:
 RMSU=  9.01D-09    CP:  1.00D+00  9.14D-01  7.26D-01  4.37D-01  6.13D-01
                    CP:  8.06D-01
 E= -2882.03767005647     Delta-E=       -0.000000000030 Rises=F Damp=F
 DIIS: error= 4.41D-08 at cycle   7 NSaved=   7.
 NSaved= 7 IEnMin= 7 EnMin= -2882.03767005647     IErMin= 7 ErrMin= 4.41D-08
 ErrMax= 4.41D-08  0.00D+00 EMaxC= 1.00D-01 BMatC= 4.84D-13 BMatP= 1.56D-12
 IDIUse=1 WtCom= 1.00D+00 WtEn= 0.00D+00
 Coeff-Com: -0.170D-03 0.372D-02 0.988D-02 0.109D-01 0.647D-01 0.425D+00
 Coeff-Com:  0.486D+00
 Coeff:     -0.170D-03 0.372D-02 0.988D-02 0.109D-01 0.647D-01 0.425D+00
 Coeff:      0.486D+00
 Gap=     0.226 Goal=   None    Shift=    0.000
 RMSDP=4.84D-09 MaxDP=1.13D-07 DE=-3.00D-11 OVMax= 3.69D-07

 SCF Done:  E(RB3LYP) =  -2882.03767006     A.U. after   11 cycles
            NFock= 11  Conv=0.48D-08     -V/T= 2.0066
 KE= 2.863215793066D+03 PE=-8.088073386626D+03 EE= 1.724533494110D+03
 Leave Link  502 at Tue Sep 17 09:56:15 2024, MaxMem=  1342177280 cpu:              59.8 elap:               9.3
 (Enter /groups/ReismanLab/Software/Gaussian16_RevC/Linux_Binary_AVX2-enabled-CPU/g16/l508.exe)
 QCSCF skips out because SCF is already converged.
 Leave Link  508 at Tue Sep 17 09:56:15 2024, MaxMem=  1342177280 cpu:               0.1 elap:               0.0
 (Enter /groups/ReismanLab/Software/Gaussian16_RevC/Linux_Binary_AVX2-enabled-CPU/g16/l701.exe)
 ... and contract with generalized density number  0.
 Compute integral first derivatives.
 R6Disp: Adding Grimme-D3(BJ) dispersion energy 1st derivatives to the gradient.
 Leave Link  701 at Tue Sep 17 09:56:15 2024, MaxMem=  1342177280 cpu:               0.9 elap:               0.2
 (Enter /groups/ReismanLab/Software/Gaussian16_RevC/Linux_Binary_AVX2-enabled-CPU/g16/l702.exe)
 L702 exits ... SP integral derivatives will be done elsewhere.
 Leave Link  702 at Tue Sep 17 09:56:15 2024, MaxMem=  1342177280 cpu:               0.1 elap:               0.0
 (Enter /groups/ReismanLab/Software/Gaussian16_RevC/Linux_Binary_AVX2-enabled-CPU/g16/l703.exe)
 Integral derivatives from FoFJK, PRISM(SPDF).
 Compute integral first derivatives, UseDBF=F ICtDFT=           0.
 Calling FoFJK, ICntrl=      2127 FMM=F ISym2X=0 I1Cent= 0 IOpClX= 0 NMat=1 NMatS=1 NMatT=0.
[...]
   XY=    -1.0038   YY=    48.2352   ZY=    -0.3881
   XZ=    -0.3362   YZ=    -0.1599   ZZ=   116.0495
   Eigenvalues:   -88.8980    48.2511   116.0508
      8  Br   Isotropic =  2091.5415   Anisotropy =  1297.4777
   XX=  2956.5258   YX=    -2.4398   ZX=    -0.1215
   XY=     0.5303   YY=  1714.9451   ZY=     0.3321
   XZ=    -0.5715   YZ=     6.3196   ZZ=  1603.1537
   Eigenvalues:  1603.0547  1715.0432  2956.5266
      9  C    Isotropic =    34.5735   Anisotropy =   158.1673
   XX=    14.1947   YX=    48.3247   ZX=     0.8716
   XY=    46.2624   YY=   -50.3975   ZY=    -0.7459
   XZ=     5.1563   YZ=     2.4570   ZZ=   139.9232
   Eigenvalues:   -75.3722    39.0743   140.0183
     10  H    Isotropic =    29.3253   Anisotropy =     8.4102
   XX=    28.7475   YX=     1.5690   ZX=    -2.9514
   XY=     2.1713   YY=    29.2875   ZY=    -2.3667
   XZ=    -3.9637   YZ=    -3.4247   ZZ=    29.9408
   Eigenvalues:    25.7363    27.3074    34.9321
     11  H    Isotropic =    29.6734   Anisotropy =     7.3995
   XX=    30.4304   YX=    -0.1133   ZX=    -0.6496
   XY=    -2.7294   YY=    33.7136   ZY=     1.6475
   XZ=    -0.7199   YZ=     1.8531   ZZ=    24.8762
   Eigenvalues:    24.5131    29.9007    34.6064
     12  H    Isotropic =    29.4128   Anisotropy =     8.0649
   XX=    31.8855   YX=     0.4145   ZX=     3.6980
   XY=     2.2330   YY=    29.2800   ZY=     0.9656
   XZ=     4.5410   YZ=     1.3405   ZZ=    27.0728
   Eigenvalues:    24.6813    28.7677    34.7894
     13  H    Isotropic =    24.1020   Anisotropy =     9.3167
   XX=    20.9259   YX=     0.0909   ZX=     0.0141
   XY=    -0.1198   YY=    30.3121   ZY=     0.0130
   XZ=     0.1678   YZ=    -0.2027   ZZ=    21.0680
   Eigenvalues:    20.8814    21.1115    30.3131
     14  H    Isotropic =    29.3386   Anisotropy =     7.9374
   XX=    28.5111   YX=    -1.0768   ZX=     0.6768
   XY=     0.3562   YY=    31.5174   ZY=     3.9805
   XZ=     0.7742   YZ=     5.1095   ZZ=    27.9874
   Eigenvalues:    24.7074    28.6782    34.6302
     15  H    Isotropic =    29.7367   Anisotropy =     7.8234
   XX=    34.8350   YX=     0.7672   ZX=    -0.6502
   XY=    -1.9622   YY=    29.6870   ZY=     0.1101
   XZ=    -0.7436   YZ=     0.1636   ZZ=    24.6880
   Eigenvalues:    24.6385    29.6192    34.9522
     16  H    Isotropic =    29.2990   Anisotropy =     8.1496
   XX=    28.0034   YX=    -1.4209   ZX=    -0.0408
   XY=    -0.5004   YY=    30.8020   ZY=    -3.9294
   XZ=     0.0526   YZ=    -5.3196   ZZ=    29.0914
   Eigenvalues:    25.1125    28.0523    34.7320
     17  H    Isotropic =    23.9564   Anisotropy =    12.1955
   XX=    28.2549   YX=    -5.3176   ZX=     0.0076
   XY=    -5.7377   YY=    24.1130   ZY=     0.0514
   XZ=     0.0222   YZ=    -0.0378   ZZ=    19.5014
   Eigenvalues:    19.5011    20.2814    32.0868
     18  H    Isotropic =    24.0347   Anisotropy =    11.7925
   XX=    28.2421   YX=     5.1620   ZX=    -0.0024
   XY=     5.4260   YY=    24.2266   ZY=     0.0572
   XZ=    -0.2217   YZ=     0.1353   ZZ=    19.6354
   Eigenvalues:    19.6140    20.5937    31.8964
 End of Minotr F.D. properties file   721 does not exist.
 End of Minotr F.D. properties file   722 does not exist.
 End of Minotr F.D. properties file   788 does not exist.
 Leave Link 1002 at Tue Sep 17 10:25:17 2024, MaxMem=  1342177280 cpu:             403.8 elap:             404.7
 (Enter /groups/ReismanLab/Software/Gaussian16_RevC/Linux_Binary_AVX2-enabled-CPU/g16/l601.exe)
 Copying SCF densities to generalized density rwf, IOpCl= 0 IROHF=0.

 **********************************************************************

            Population analysis using the SCF Density.

 **********************************************************************

 Orbital symmetries:
       Occupied  (A) (A) (A) (A) (A) (A) (A) (A) (A) (A) (A) (A)
                 (A) (A) (A) (A) (A) (A) (A) (A) (A) (A) (A) (A)
                 (A) (A) (A) (A) (A) (A) (A) (A) (A) (A) (A) (A)
                 (A) (A) (A) (A) (A) (A) (A) (A) (A) (A)
       Virtual   (A) (A) (A) (A) (A) (A) (A) (A) (A) (A) (A) (A)
                 (A) (A) (A) (A) (A) (A) (A) (A) (A) (A) (A) (A)
                 (A) (A) (A) (A) (A) (A) (A) (A) (A) (A) (A) (A)
                 (A) (A) (A) (A) (A) (A) (A) (A) (A) (A) (A) (A)
                 (A) (A) (A) (A) (A) (A) (A) (A) (A) (A) (A) (A)
                 (A) (A) (A) (A) (A) (A) (A) (A) (A) (A) (A) (A)
                 (A) (A) (A) (A) (A) (A) (A) (A) (A) (A) (A) (A)
                 (A) (A) (A) (A) (A) (A) (A) (A) (A) (A) (A) (A)
                 (A) (A) (A) (A) (A) (A) (A) (A) (A) (A) (A) (A)
                 (A) (A) (A) (A) (A) (A) (A) (A) (A) (A) (A) (A)
                 (A) (A) (A) (A) (A) (A) (A) (A) (A) (A) (A) (A)
                 (A) (A) (A) (A) (A) (A) (A) (A) (A) (A) (A) (A)
                 (A) (A) (A) (A) (A) (A) (A) (A) (A) (A) (A) (A)
                 (A) (A) (A) (A) (A) (A) (A) (A) (A) (A) (A) (A)
                 (A) (A) (A) (A) (A) (A) (A) (A) (A) (A) (A) (A)
                 (A) (A) (A) (A) (A) (A) (A) (A) (A) (A) (A) (A)
                 (A) (A) (A) (A) (A) (A) (A) (A) (A) (A) (A) (A)
                 (A) (A) (A) (A) (A) (A) (A) (A) (A) (A) (A) (A)
                 (A) (A) (A) (A) (A) (A) (A) (A) (A) (A) (A) (A)
                 (A) (A) (A) (A) (A) (A) (A) (A) (A) (A) (A) (A)
                 (A) (A) (A) (A) (A) (A) (A) (A) (A) (A) (A) (A)
                 (A) (A) (A) (A) (A) (A) (A) (A) (A) (A) (A) (A)
                 (A) (A) (A) (A) (A) (A) (A) (A) (A) (A) (A) (A)
                 (A) (A) (A) (A) (A) (A) (A) (A) (A) (A) (A) (A)
                 (A) (A) (A) (A) (A) (A) (A) (A) (A) (A) (A) (A)
                 (A) (A) (A) (A)
 The electronic state is 1-A.
 Alpha  occ. eigenvalues -- -485.37122 -63.35603 -57.17546 -57.17313 -57.17307
 Alpha  occ. eigenvalues --  -10.59930 -10.55858 -10.55836 -10.54654 -10.54651
 Alpha  occ. eigenvalues --  -10.54017 -10.53297 -10.53292  -9.02246  -6.84643
 Alpha  occ. eigenvalues --   -6.83784  -6.83764  -2.88020  -2.87709  -2.87685
 Alpha  occ. eigenvalues --   -2.86884  -2.86884  -0.97914  -0.90238  -0.88581
 Alpha  occ. eigenvalues --   -0.82344  -0.78196  -0.77854  -0.66436  -0.65890
 Alpha  occ. eigenvalues --   -0.58082  -0.55220  -0.49936  -0.49794  -0.48015
 Alpha  occ. eigenvalues --   -0.47691  -0.47255  -0.46167  -0.44255  -0.43554
 Alpha  occ. eigenvalues --   -0.40332  -0.39648  -0.36622  -0.34765  -0.29997
 Alpha  occ. eigenvalues --   -0.29193
 Alpha virt. eigenvalues --    0.01236   0.01679   0.04019   0.07654   0.09061
 Alpha virt. eigenvalues --    0.11695   0.11921   0.13032   0.13690   0.15003
 Alpha virt. eigenvalues --    0.16458   0.16784   0.17924   0.18341   0.18576
 Alpha virt. eigenvalues --    0.19475   0.21720   0.22780   0.23628   0.23899
 Alpha virt. eigenvalues --    0.24592   0.24655   0.26447   0.27194   0.29045
 Alpha virt. eigenvalues --    0.29438   0.30242   0.30666   0.32347   0.33113
 Alpha virt. eigenvalues --    0.33527   0.34038   0.35537   0.36213   0.36458
 Alpha virt. eigenvalues --    0.37102   0.38471   0.38980   0.41059   0.42211
 Alpha virt. eigenvalues --    0.43086   0.43489   0.44525   0.45752   0.46407
 Alpha virt. eigenvalues --    0.47733   0.48462   0.49056   0.49904   0.51393
 Alpha virt. eigenvalues --    0.51546   0.52067   0.53138   0.55668   0.56592
 Alpha virt. eigenvalues --    0.57435   0.58785   0.60422   0.60774   0.61742
 Alpha virt. eigenvalues --    0.63945   0.65653   0.67623   0.68060   0.68333
 Alpha virt. eigenvalues --    0.69976   0.71946   0.73227   0.75085   0.76107
 Alpha virt. eigenvalues --    0.78344   0.81047   0.83075   0.84739   0.85159
 Alpha virt. eigenvalues --    0.85772   0.86452   0.90744   0.91252   0.93867
 Alpha virt. eigenvalues --    0.95055   0.97505   0.99256   0.99794   1.00981
 Alpha virt. eigenvalues --    1.04731   1.05554   1.08095   1.08671   1.10563
 Alpha virt. eigenvalues --    1.12737   1.13458   1.14254   1.16613   1.19005
 Alpha virt. eigenvalues --    1.22420   1.23560   1.24242   1.25715   1.26849
 Alpha virt. eigenvalues --    1.29099   1.30370   1.31956   1.32332   1.37456
 Alpha virt. eigenvalues --    1.39097   1.39663   1.41347   1.42482   1.42916
 Alpha virt. eigenvalues --    1.46275   1.48738   1.49148   1.51509   1.51882
 Alpha virt. eigenvalues --    1.53078   1.55898   1.56909   1.57014   1.57652
 Alpha virt. eigenvalues --    1.58113   1.58364   1.59372   1.59961   1.62052
 Alpha virt. eigenvalues --    1.63891   1.64198   1.66098   1.66995   1.67441
 Alpha virt. eigenvalues --    1.68285   1.68737   1.70978   1.71541   1.75905
 Alpha virt. eigenvalues --    1.76388   1.76557   1.78606   1.78951   1.81706
 Alpha virt. eigenvalues --    1.84392   1.88919   1.89809   1.90304   1.95637
 Alpha virt. eigenvalues --    1.98146   1.99622   2.00840   2.01315   2.01879
 Alpha virt. eigenvalues --    2.04286   2.06143   2.06279   2.07141   2.09165
 Alpha virt. eigenvalues --    2.13492   2.15802   2.17444   2.18844   2.19361
 Alpha virt. eigenvalues --    2.21896   2.24254   2.28659   2.29626   2.31621
 Alpha virt. eigenvalues --    2.36204   2.38905   2.39683   2.41501   2.41629
 Alpha virt. eigenvalues --    2.43858   2.48898   2.49513   2.50015   2.53463
 Alpha virt. eigenvalues --    2.53971   2.54922   2.55633   2.57757   2.59985
 Alpha virt. eigenvalues --    2.63517   2.63992   2.65715   2.66297   2.69507
 Alpha virt. eigenvalues --    2.71990   2.72819   2.75752   2.76760   2.78039
 Alpha virt. eigenvalues --    2.82190   2.82959   2.83621   2.84520   2.85653
 Alpha virt. eigenvalues --    2.88468   2.89125   2.92922   2.93433   2.96551
 Alpha virt. eigenvalues --    2.96932   2.99032   2.99990   3.00518   3.02506
 Alpha virt. eigenvalues --    3.04352   3.06720   3.08305   3.10060   3.10633
 Alpha virt. eigenvalues --    3.12214   3.14044   3.14508   3.16767   3.20124
 Alpha virt. eigenvalues --    3.21640   3.21941   3.23680   3.24342   3.25649
 Alpha virt. eigenvalues --    3.27220   3.29288   3.30101   3.30615   3.31823
 Alpha virt. eigenvalues --    3.33296   3.33816   3.38717   3.39351   3.40570
 Alpha virt. eigenvalues --    3.41434   3.43742   3.44443   3.46733   3.46993
 Alpha virt. eigenvalues --    3.49547   3.49957   3.52765   3.60333   3.61548
 Alpha virt. eigenvalues --    3.62936   3.63851   3.68124   3.68963   3.70840
 Alpha virt. eigenvalues --    3.72584   3.74083   3.74672   3.77538   3.80686
 Alpha virt. eigenvalues --    3.81387   3.84896   3.92492   3.99240   4.00233
 Alpha virt. eigenvalues --    4.04330   4.05763   4.07001   4.07622   4.10221
 Alpha virt. eigenvalues --    4.12322   4.14541   4.16012   4.18032   4.18405
 Alpha virt. eigenvalues --    4.19247   4.20802   4.22890   4.24296   4.26855
 Alpha virt. eigenvalues --    4.30035   4.36516   4.38161   4.40229   4.41739
 Alpha virt. eigenvalues --    4.43314   4.46988   4.48738   4.54397   4.58610
 Alpha virt. eigenvalues --    4.62025   4.63826   4.66379   4.70136   4.76224
 Alpha virt. eigenvalues --    4.83132   4.88871   5.10715   5.12390   5.16975
 Alpha virt. eigenvalues --    5.19220   5.25763   5.35425   5.37812   5.55117
 Alpha virt. eigenvalues --    7.85816  22.07288  22.51332  22.52250  22.81794
 Alpha virt. eigenvalues --   22.86915  22.91427  23.04901  23.32490
          Condensed to atoms (all electrons):
               1          2          3          4          5          6
     1  C    5.092431   0.258880  -0.063584   0.004919  -0.000128   0.000994
     2  C    0.258880   5.002856   0.455360  -0.038837   0.011938  -0.082318
     3  C   -0.063584   0.455360   5.178877   0.511056  -0.057849  -0.049976
     4  C    0.004919  -0.038837   0.511056   4.981314   0.261094   0.397254
     5  C   -0.000128   0.011938  -0.057849   0.261094   5.093150  -0.060523
     6  C    0.000994  -0.082318  -0.049976   0.397254  -0.060523   5.280818
     7  C    0.007648  -0.007346  -0.053110  -0.005228   0.001192   0.414007
     8  Br  -0.000963   0.021625  -0.002207   0.019551  -0.000877  -0.097090
     9  C   -0.054301   0.431834  -0.052345  -0.080072   0.000051   0.016062
    10  H    0.394386  -0.021374  -0.007226  -0.001081   0.000001  -0.000105
    11  H    0.433019  -0.058537   0.013478  -0.000794   0.000004   0.000413
    12  H    0.423742  -0.047207  -0.013216   0.001505  -0.000047   0.000149
    13  H   -0.000914  -0.025480   0.386852  -0.023526  -0.007326   0.008545
    14  H   -0.000001  -0.001091   0.005600  -0.040668   0.417468  -0.012122
    15  H   -0.000041   0.002988  -0.013400  -0.058117   0.429600   0.013489
    16  H    0.000008  -0.001139   0.000203  -0.029938   0.404043  -0.008891
    17  H    0.000114  -0.001871   0.007466  -0.030592   0.001001   0.403536
    18  H   -0.003846  -0.030443   0.008094  -0.001729   0.000121   0.011830
               7          8          9         10         11         12
     1  C    0.007648  -0.000963  -0.054301   0.394386   0.433019   0.423742
     2  C   -0.007346   0.021625   0.431834  -0.021374  -0.058537  -0.047207
     3  C   -0.053110  -0.002207  -0.052345  -0.007226   0.013478  -0.013216
     4  C   -0.005228   0.019551  -0.080072  -0.001081  -0.000794   0.001505
     5  C    0.001192  -0.000877   0.000051   0.000001   0.000004  -0.000047
     6  C    0.414007  -0.097090   0.016062  -0.000105   0.000413   0.000149
     7  C    4.876437   0.347091   0.403712  -0.000692   0.002656  -0.000837
     8  Br   0.347091  34.941028  -0.091023   0.000020  -0.000025   0.000021
     9  C    0.403712  -0.091023   5.262527  -0.003172  -0.014273   0.008372
    10  H   -0.000692   0.000020  -0.003172   0.522626  -0.022488  -0.030929
    11  H    0.002656  -0.000025  -0.014273  -0.022488   0.516163  -0.025064
    12  H   -0.000837   0.000021   0.008372  -0.030929  -0.025064   0.521771
    13  H   -0.000486   0.000049   0.006810   0.000373   0.000014  -0.000138
    14  H    0.000317  -0.000006   0.000298   0.000000  -0.000001   0.000001
    15  H   -0.000459   0.000017   0.000166  -0.000011   0.000002   0.000016
    16  H   -0.000225   0.000006   0.000084   0.000002  -0.000000  -0.000002
    17  H   -0.039936  -0.006432   0.011835  -0.000002  -0.000002  -0.000003
    18  H   -0.032856  -0.006715   0.398195   0.000105   0.000882   0.000021
              13         14         15         16         17         18
     1  C   -0.000914  -0.000001  -0.000041   0.000008   0.000114  -0.003846
     2  C   -0.025480  -0.001091   0.002988  -0.001139  -0.001871  -0.030443
     3  C    0.386852   0.005600  -0.013400   0.000203   0.007466   0.008094
     4  C   -0.023526  -0.040668  -0.058117  -0.029938  -0.030592  -0.001729
     5  C   -0.007326   0.417468   0.429600   0.404043   0.001001   0.000121
     6  C    0.008545  -0.012122   0.013489  -0.008891   0.403536   0.011830
     7  C   -0.000486   0.000317  -0.000459  -0.000225  -0.039936  -0.032856
     8  Br   0.000049  -0.000006   0.000017   0.000006  -0.006432  -0.006715
     9  C    0.006810   0.000298   0.000166   0.000084   0.011835   0.398195
    10  H    0.000373   0.000000  -0.000011   0.000002  -0.000002   0.000105
    11  H    0.000014  -0.000001   0.000002  -0.000000  -0.000002   0.000882
    12  H   -0.000138   0.000001   0.000016  -0.000002  -0.000003   0.000021
    13  H    0.488737   0.000151   0.001628   0.000200  -0.000222  -0.000232
    14  H    0.000151   0.520592  -0.023594  -0.032714  -0.000243  -0.000001
    15  H    0.001628  -0.023594   0.518977  -0.022258  -0.000022  -0.000003
    16  H    0.000200  -0.032714  -0.022258   0.521997  -0.000062  -0.000002
    17  H   -0.000222  -0.000243  -0.000022  -0.000062   0.476392  -0.000020
    18  H   -0.000232  -0.000001  -0.000003  -0.000002  -0.000020   0.480238
 Mulliken charges:
               1
     1  C   -0.492363
     2  C    0.130163
     3  C   -0.254073
     4  C    0.133889
     5  C   -0.492913
     6  C   -0.236070
     7  C    0.088116
     8  Br  -0.124070
     9  C   -0.244760
    10  H    0.169567
    11  H    0.154555
    12  H    0.161845
    13  H    0.164967
    14  H    0.166013
    15  H    0.151022
    16  H    0.168688
    17  H    0.179063
    18  H    0.176363
 Sum of Mulliken charges =  -0.00000
 Mulliken charges with hydrogens summed into heavy atoms:
               1
     1  C   -0.006397
     2  C    0.130163
     3  C   -0.089106
     4  C    0.133889
     5  C   -0.007190
     6  C   -0.057007
     7  C    0.088116
     8  Br  -0.124070
     9  C   -0.068397
 Electronic spatial extent (au):  <R**2>=           2135.3824
 Charge=              0.0000 electrons
 Dipole moment (field-independent basis, Debye):
    X=             -2.8017    Y=              0.0433    Z=              0.0180  Tot=              2.8021
 Quadrupole moment (field-independent basis, Debye-Ang):
   XX=            -63.2141   YY=            -59.2487   ZZ=            -70.1336
   XY=              0.0620   XZ=             -0.0332   YZ=             -0.0606
 Traceless Quadrupole moment (field-independent basis, Debye-Ang):
   XX=              0.9847   YY=              4.9501   ZZ=             -5.9348
   XY=              0.0620   XZ=             -0.0332   YZ=             -0.0606
 Octapole moment (field-independent basis, Debye-Ang**2):
  XXX=             52.9905  YYY=              0.2747  ZZZ=              0.3785  XYY=             15.0631
  XXY=             -0.7939  XXZ=             -0.1684  XZZ=             25.6513  YZZ=              0.5991
  YYZ=              0.0087  XYZ=              0.4874
 Hexadecapole moment (field-independent basis, Debye-Ang**3):
 XXXX=          -1530.4150 YYYY=           -871.7013 ZZZZ=            -95.3555 XXXY=              2.0926
 XXXZ=              1.8004 YYYX=             -2.0981 YYYZ=              1.4580 ZZZX=             -0.9755
 ZZZY=             -2.4083 XXYY=           -408.2458 XXZZ=           -296.0083 YYZZ=           -167.4869
 XXYZ=             -0.3901 YYXZ=             -0.6886 ZZXY=              1.3981
 N-N= 6.189909875232D+02 E-N=-8.109815688158D+03  KE= 2.879351776394D+03
 Calculating spin-rotation constants.
 Leave Link  601 at Tue Sep 17 10:25:19 2024, MaxMem=  1342177280 cpu:               2.6 elap:               2.6
 (Enter /groups/ReismanLab/Software/Gaussian16_RevC/Linux_Binary_AVX2-enabled-CPU/g16/l9999.exe)
 Unable to Open any file for archive entry.
 1\1\GINC-HPC-53-14\SP\RM062X\def2TZVP\C8H9Br1\MANTIND\17-Sep-2024\0\\#
 p M062X/def2tzvp geom=check guess=read scf(xqc,tight) integral(grid=ul
 trafine) scrf(SMD, solvent=1,4-Dioxane) nmr=giao\\spe\\0,1\C,0,2.63287
 51972,-2.5218596889,-0.0088346622\C,0,1.8677320576,-1.2213454842,0.008
 0866485\C,0,2.5466998865,0.0043271567,0.0034229634\C,0,1.8660427336,1.
 2231271491,-0.0042931235\C,0,2.6116300244,2.5351993805,0.0024758175\C,
 0,0.4641667175,1.2144013897,-0.0073286051\C,0,-0.2073324907,-0.0005051
 497,-0.0001122557\Br,0,-2.1222968487,-0.0072483989,0.0002015721\C,0,0.
 4709984251,-1.2171997014,0.0087661699\H,0,3.0489555382,-2.7197615045,-
 1.0036740234\H,0,1.9912399675,-3.3661204627,0.2555447002\H,0,3.4712911
 211,-2.4978209947,0.6941808551\H,0,3.6338489163,0.006067258,0.00665571
 32\H,0,2.2853113003,3.1809117419,-0.8194907113\H,0,3.6888598277,2.3803
 389367,-0.0963717743\H,0,2.4357492732,3.084362494,0.9343018406\H,0,-0.
 0933453352,2.1444960423,-0.0127098196\H,0,-0.0842237048,-2.1482649664,
 0.0154908261\\Version=ES64L-G16RevC.02\State=1-A\HF=-2884.4506279\RMSD
 =3.355e-09\Dipole=1.1022555,0.0189264,-0.0073034\Quadrupole=0.7322606,
 3.6800899,-4.4123505,-0.0511642,-0.0259165,0.0490788\PG=C01 [X(C8H9Br1
 )]\\@
 The archive entry for this job was punched.


 In the beginning the Universe was created.
 This has made a lot of people very angry
 and been widely regarded as a bad move.
                               -D.Adams
 Job cpu time:       0 days  0 hours  7 minutes 30.7 seconds.
 Elapsed time:       0 days  0 hours  7 minutes 32.4 seconds.
 File lengths (MBytes):  RWF=    232 Int=      0 D2E=      0 Chk=     24 Scr=     16
 Normal termination of Gaussian 16 at Tue Sep 17 10:25:20 2024.
