 Entering Gaussian System, Link 0=g16
 Input=smiles_00060_conf_1.gjf
 Output=smiles_00060_conf_1.log
 Initial command:
 /groups/ReismanLab/Software/Gaussian16_RevC/Linux_Binary_AVX2-enabled-CPU/g16/l1.exe "/central/groups/ReismanLab/DM/dft_final/smiles_00060/Gau-2623343.inp" -scrdir="/central/groups/ReismanLab/DM/dft_final/smiles_00060/"
 Entering Link 1 = /groups/ReismanLab/Software/Gaussian16_RevC/Linux_Binary_AVX2-enabled-CPU/g16/l1.exe PID=   2623344.
  
 Copyright (c) 1988-2021, Gaussian, Inc.  All Rights Reserved.
  
 This is part of the Gaussian(R) 16 program.  It is based on
 the Gaussian(R) 09 system (copyright 2009, Gaussian, Inc.),
 the Gaussian(R) 03 system (copyright 2003, Gaussian, Inc.),
 the Gaussian(R) 98 system (copyright 1998, Gaussian, Inc.),
 the Gaussian(R) 94 system (copyright 1995, Gaussian, Inc.),
 the Gaussian 92(TM) system (copyright 1992, Gaussian, Inc.),
 the Gaussian 90(TM) system (copyright 1990, Gaussian, Inc.),
 the Gaussian 88(TM) system (copyright 1988, Gaussian, Inc.),
 the Gaussian 86(TM) system (copyright 1986, Carnegie Mellon
 University), and the Gaussian 82(TM) system (copyright 1983,
 Carnegie Mellon University). Gaussian is a federally registered
 trademark of Gaussian, Inc.
  
 This software contains proprietary and confidential information,
 including trade secrets, belonging to Gaussian, Inc.
  
 This software is provided under written license and may be
 used, copied, transmitted, or stored only in accord with that
 written license.
  
 The following legend is applicable only to US Government
 contracts under FAR:
  
                    RESTRICTED RIGHTS LEGEND
  
 Use, reproduction and disclosure by the US Government is
 subject to restrictions as set forth in subparagraphs (a)
 and (c) of the Commercial Computer Software - Restricted
 Rights clause in FAR 52.227-19.
  
 Gaussian, Inc.
 340 Quinnipiac St., Bldg. 40, Wallingford CT 06492
  
  
 ---------------------------------------------------------------
 Warning -- This program may not be used in any manner that
 competes with the business of Gaussian, Inc. or will provide
 assistance to any competitor of Gaussian, Inc.  The licensee
 of this program is prohibited from giving any competitor of
 Gaussian, Inc. access to this program.  By using this program,
 the user acknowledges that Gaussian, Inc. is engaged in the
 business of creating and licensing software in the field of
 computational chemistry and represents and warrants to the
 licensee that it is not a competitor of Gaussian, Inc. and that
 it will not use this program in any manner prohibited above.
 ---------------------------------------------------------------
  

 Cite this work as:
 Gaussian 16, Revision C.02,
 M. J. Frisch, G. W. Trucks, H. B. Schlegel, G. E. Scuseria, 
 M. A. Robb, J. R. Cheeseman, G. Scalmani, V. Barone, 
 G. A. Petersson, H. Nakatsuji, X. Li, M. Caricato, A. V. Marenich, 
 J. Bloino, B. G. Janesko, R. Gomperts, B. Mennucci, H. P. Hratchian, 
 J. V. Ortiz, A. F. Izmaylov, J. L. Sonnenberg, D. Williams-Young, 
 F. Ding, F. Lipparini, F. Egidi, J. Goings, B. Peng, A. Petrone, 
 T. Henderson, D. Ranasinghe, V. G. Zakrzewski, J. Gao, N. Rega, 
 G. Zheng, W. Liang, M. Hada, M. Ehara, K. Toyota, R. Fukuda, 
 J. Hasegawa, M. Ishida, T. Nakajima, Y. Honda, O. Kitao, H. Nakai, 
 T. Vreven, K. Throssell, J. A. Montgomery, Jr., J. E. Peralta, 
 F. Ogliaro, M. J. Bearpark, J. J. Heyd, E. N. Brothers, K. N. Kudin, 
 V. N. Staroverov, T. A. Keith, R. Kobayashi, J. Normand, 
 K. Raghavachari, A. P. Rendell, J. C. Burant, S. S. Iyengar, 
 J. Tomasi, M. Cossi, J. M. Millam, M. Klene, C. Adamo, R. Cammi, 
 J. W. Ochterski, R. L. Martin, K. Morokuma, O. Farkas, 
 J. B. Foresman, and D. J. Fox, Gaussian, Inc., Wallingford CT, 2019.
 
 ******************************************
 Gaussian 16:  ES64L-G16RevC.02  7-Dec-2021
                17-Sep-2024 
 ******************************************
 %nprocshared=8
 Will use up to    8 processors via shared memory.
 %Mem=10GB
 %Chk=smiles_00060_conf_1.chk
 ----------------------------------------------------------------------
 #p B3LYP/6-31G(d,p) EmpiricalDispersion=GD3BJ opt freq scf(xqc,tight) 
 integral(grid=ultrafine)
 ----------------------------------------------------------------------
 1/18=20,19=15,26=4,38=1/1,3;
 2/9=110,12=2,17=6,18=5,40=1/2;
 3/5=1,6=6,7=101,11=2,25=1,30=1,71=1,74=-5,75=-5,124=41/1,2,3;
 4//1;
 5/5=2,8=3,13=1,32=2,38=5/2,8;
 6/7=2,8=2,9=2,10=2,28=1/1;
 7//1,2,3,16;
 1/18=20,19=15,26=4/3(2);
 2/9=110/2;
 99//99;
 2/9=110/2;
 3/5=1,6=6,7=101,11=2,25=1,30=1,71=1,74=-5,75=-5,124=41/1,2,3;
 4/5=5,16=3,69=1/1;
 5/5=2,8=3,13=1,32=2,38=5/2,8;
 7//1,2,3,16;
 1/18=20,19=15,26=4/3(-5);
 2/9=110/2;
 6/7=2,8=2,9=2,10=2,19=2,28=1/1;
 99/9=1/99;
 Leave Link    1 at Tue Sep 17 09:45:05 2024, MaxMem=  1342177280 cpu:               0.1 elap:               0.6
 (Enter /groups/ReismanLab/Software/Gaussian16_RevC/Linux_Binary_AVX2-enabled-CPU/g16/l101.exe)
 ----------------------------------
 opt-freq conformers_unique/conf_ab
 ----------------------------------
 Symbolic Z-matrix:
 Charge =  0 Multiplicity = 1
 F                    -0.44292  -3.18604  -0.0765 
 C                    -0.29368  -1.85325  -0.09761 
 C                     0.98005  -1.32898  -0.22685 
 C                     1.15462   0.05316  -0.25077 
 O                     2.34015   0.67576  -0.37578 
 C                     3.51753  -0.09119  -0.53243 
 C                     4.06276  -0.80001   0.72366 
 C                     5.41509  -0.10214   0.50835 
 C                     4.77122   0.79404  -0.56142 
 C                     0.03547   0.88371  -0.13839 
 C                    -1.22661   0.34219  -0.00812 
 Br                   -2.73277   1.47648   0.14332 
 C                    -1.40929  -1.03625   0.01289 
 F                    -2.63548  -1.56258   0.1396 
 H                     1.80668  -2.01463  -0.30023 
 H                     3.42273  -0.74834  -1.40431 
 H                     3.5499   -0.4684    1.62402 
 H                     4.07489  -1.88738   0.69636 
 H                     6.17287  -0.76785   0.1024 
 H                     5.8228    0.41375   1.37335 
 H                     4.54524   1.79488  -0.20328 
 H                     5.28389   0.85953  -1.51711 
 H                     0.17543   1.95208  -0.1564 
 
 ITRead=  0  0  0  0  0  0  0  0  0  0  0  0  0  0  0  0  0  0  0  0
 ITRead=  0  0  0
 MicOpt= -1 -1 -1 -1 -1 -1 -1 -1 -1 -1 -1 -1 -1 -1 -1 -1 -1 -1 -1 -1
 MicOpt= -1 -1 -1
 NAtoms=     23 NQM=       23 NQMF=       0 NMMI=      0 NMMIF=      0
                NMic=       0 NMicF=      0.
                    Isotopes and Nuclear Properties:
 (Nuclear quadrupole moments (NQMom) in fm**2, nuclear magnetic moments (NMagM)
  in nuclear magnetons)

  Atom         1           2           3           4           5           6           7           8           9          10
 IAtWgt=          19          12          12          12          16          12          12          12          12          12
 AtmWgt=  18.9984032  12.0000000  12.0000000  12.0000000  15.9949146  12.0000000  12.0000000  12.0000000  12.0000000  12.0000000
 NucSpn=           1           0           0           0           0           0           0           0           0           0
 AtZEff=  -0.0000000  -0.0000000  -0.0000000  -0.0000000  -0.0000000  -0.0000000  -0.0000000  -0.0000000  -0.0000000  -0.0000000
 NQMom=    0.0000000   0.0000000   0.0000000   0.0000000   0.0000000   0.0000000   0.0000000   0.0000000   0.0000000   0.0000000
 NMagM=    2.6288670   0.0000000   0.0000000   0.0000000   0.0000000   0.0000000   0.0000000   0.0000000   0.0000000   0.0000000
 AtZNuc=   9.0000000   6.0000000   6.0000000   6.0000000   8.0000000   6.0000000   6.0000000   6.0000000   6.0000000   6.0000000

  Atom        11          12          13          14          15          16          17          18          19          20
 IAtWgt=          12          79          12          19           1           1           1           1           1           1
 AtmWgt=  12.0000000  78.9183361  12.0000000  18.9984032   1.0078250   1.0078250   1.0078250   1.0078250   1.0078250   1.0078250
 NucSpn=           0           3           0           1           1           1           1           1           1           1
 AtZEff=  -0.0000000  -0.0000000  -0.0000000  -0.0000000  -0.0000000  -0.0000000  -0.0000000  -0.0000000  -0.0000000  -0.0000000
 NQMom=    0.0000000  31.3000000   0.0000000   0.0000000   0.0000000   0.0000000   0.0000000   0.0000000   0.0000000   0.0000000
 NMagM=    0.0000000   2.1063990   0.0000000   2.6288670   2.7928460   2.7928460   2.7928460   2.7928460   2.7928460   2.7928460
 AtZNuc=   6.0000000  35.0000000   6.0000000   9.0000000   1.0000000   1.0000000   1.0000000   1.0000000   1.0000000   1.0000000

  Atom        21          22          23
 IAtWgt=           1           1           1
 AtmWgt=   1.0078250   1.0078250   1.0078250
 NucSpn=           1           1           1
 AtZEff=  -0.0000000  -0.0000000  -0.0000000
 NQMom=    0.0000000   0.0000000   0.0000000
 NMagM=    2.7928460   2.7928460   2.7928460
 AtZNuc=   1.0000000   1.0000000   1.0000000
 Leave Link  101 at Tue Sep 17 09:45:06 2024, MaxMem=  1342177280 cpu:               0.2 elap:               0.3
 (Enter /groups/ReismanLab/Software/Gaussian16_RevC/Linux_Binary_AVX2-enabled-CPU/g16/l103.exe)

 GradGradGradGradGradGradGradGradGradGradGradGradGradGradGradGradGradGrad
 Berny optimization.
 Initialization pass.
                           ----------------------------
                           !    Initial Parameters    !
                           ! (Angstroms and Degrees)  !
 --------------------------                            --------------------------
 ! Name  Definition              Value          Derivative Info.                !
 --------------------------------------------------------------------------------
 ! R1    R(1,2)                  1.3413         estimate D2E/DX2                !
 ! R2    R(2,3)                  1.3835         estimate D2E/DX2                !
 ! R3    R(2,13)                 1.3872         estimate D2E/DX2                !
 ! R4    R(3,4)                  1.3933         estimate D2E/DX2                !
 ! R5    R(3,15)                 1.0765         estimate D2E/DX2                !
 ! R6    R(4,5)                  1.3449         estimate D2E/DX2                !
 ! R7    R(4,10)                 1.3982         estimate D2E/DX2                !
 ! R8    R(5,6)                  1.4138         estimate D2E/DX2                !
 ! R9    R(6,7)                  1.5419         estimate D2E/DX2                !
 ! R10   R(6,9)                  1.535          estimate D2E/DX2                !
 ! R11   R(6,16)                 1.0959         estimate D2E/DX2                !
 ! R12   R(7,8)                  1.5369         estimate D2E/DX2                !
 ! R13   R(7,17)                 1.088          estimate D2E/DX2                !
 ! R14   R(7,18)                 1.0878         estimate D2E/DX2                !
 ! R15   R(8,9)                  1.5369         estimate D2E/DX2                !
 ! R16   R(8,19)                 1.0873         estimate D2E/DX2                !
 ! R17   R(8,20)                 1.0866         estimate D2E/DX2                !
 ! R18   R(9,21)                 1.0867         estimate D2E/DX2                !
 ! R19   R(9,22)                 1.0865         estimate D2E/DX2                !
 ! R20   R(10,11)                1.3795         estimate D2E/DX2                !
 ! R21   R(10,23)                1.0776         estimate D2E/DX2                !
 ! R22   R(11,12)                1.8916         estimate D2E/DX2                !
 ! R23   R(11,13)                1.3906         estimate D2E/DX2                !
 ! R24   R(13,14)                1.3404         estimate D2E/DX2                !
 ! A1    A(1,2,3)              118.7155         estimate D2E/DX2                !
 ! A2    A(1,2,13)             119.6367         estimate D2E/DX2                !
 ! A3    A(3,2,13)             121.6476         estimate D2E/DX2                !
 ! A4    A(2,3,4)              119.5289         estimate D2E/DX2                !
 ! A5    A(2,3,15)             118.1642         estimate D2E/DX2                !
 ! A6    A(4,3,15)             122.306          estimate D2E/DX2                !
 ! A7    A(3,4,5)              124.8377         estimate D2E/DX2                !
 ! A8    A(3,4,10)             119.182          estimate D2E/DX2                !
 ! A9    A(5,4,10)             115.9803         estimate D2E/DX2                !
 ! A10   A(4,5,6)              119.5546         estimate D2E/DX2                !
 ! A11   A(5,6,7)              116.9732         estimate D2E/DX2                !
 ! A12   A(5,6,9)              111.6787         estimate D2E/DX2                !
 ! A13   A(5,6,16)             109.9615         estimate D2E/DX2                !
 ! A14   A(7,6,9)               89.5239         estimate D2E/DX2                !
 ! A15   A(7,6,16)             113.7681         estimate D2E/DX2                !
 ! A16   A(9,6,16)             113.6683         estimate D2E/DX2                !
 ! A17   A(6,7,8)               89.328          estimate D2E/DX2                !
 ! A18   A(6,7,17)             111.5527         estimate D2E/DX2                !
 ! A19   A(6,7,18)             116.2973         estimate D2E/DX2                !
 ! A20   A(8,7,17)             113.0986         estimate D2E/DX2                !
 ! A21   A(8,7,18)             116.14           estimate D2E/DX2                !
 ! A22   A(17,7,18)            109.3125         estimate D2E/DX2                !
 ! A23   A(7,8,9)               89.6368         estimate D2E/DX2                !
 ! A24   A(7,8,19)             112.8005         estimate D2E/DX2                !
 ! A25   A(7,8,20)             115.7356         estimate D2E/DX2                !
 ! A26   A(9,8,19)             112.8995         estimate D2E/DX2                !
 ! A27   A(9,8,20)             115.7512         estimate D2E/DX2                !
 ! A28   A(19,8,20)            109.0517         estimate D2E/DX2                !
 ! A29   A(6,9,8)               89.5843         estimate D2E/DX2                !
 ! A30   A(6,9,21)             110.7967         estimate D2E/DX2                !
 ! A31   A(6,9,22)             115.897          estimate D2E/DX2                !
 ! A32   A(8,9,21)             113.2497         estimate D2E/DX2                !
 ! A33   A(8,9,22)             116.7259         estimate D2E/DX2                !
 ! A34   A(21,9,22)            109.4199         estimate D2E/DX2                !
 ! A35   A(4,10,11)            120.4441         estimate D2E/DX2                !
 ! A36   A(4,10,23)            118.921          estimate D2E/DX2                !
 ! A37   A(11,10,23)           120.6349         estimate D2E/DX2                !
 ! A38   A(10,11,12)           120.0415         estimate D2E/DX2                !
 ! A39   A(10,11,13)           120.7109         estimate D2E/DX2                !
 ! A40   A(12,11,13)           119.2475         estimate D2E/DX2                !
 ! A41   A(2,13,11)            118.4861         estimate D2E/DX2                !
 ! A42   A(2,13,14)            120.7952         estimate D2E/DX2                !
 ! A43   A(11,13,14)           120.7185         estimate D2E/DX2                !
 ! D1    D(1,2,3,4)            179.9973         estimate D2E/DX2                !
 ! D2    D(1,2,3,15)            -0.3409         estimate D2E/DX2                !
 ! D3    D(13,2,3,4)            -0.1625         estimate D2E/DX2                !
 ! D4    D(13,2,3,15)          179.4993         estimate D2E/DX2                !
 ! D5    D(1,2,13,11)          179.8267         estimate D2E/DX2                !
 ! D6    D(1,2,13,14)           -0.0499         estimate D2E/DX2                !
 ! D7    D(3,2,13,11)           -0.0121         estimate D2E/DX2                !
 ! D8    D(3,2,13,14)         -179.8887         estimate D2E/DX2                !
 ! D9    D(2,3,4,5)           -179.7889         estimate D2E/DX2                !
 ! D10   D(2,3,4,10)             0.2311         estimate D2E/DX2                !
 ! D11   D(15,3,4,5)             0.5638         estimate D2E/DX2                !
 ! D12   D(15,3,4,10)         -179.4161         estimate D2E/DX2                !
 ! D13   D(3,4,5,6)              1.7807         estimate D2E/DX2                !
 ! D14   D(10,4,5,6)          -178.2388         estimate D2E/DX2                !
 ! D15   D(3,4,10,11)           -0.13           estimate D2E/DX2                !
 ! D16   D(3,4,10,23)          179.9394         estimate D2E/DX2                !
 ! D17   D(5,4,10,11)          179.8883         estimate D2E/DX2                !
 ! D18   D(5,4,10,23)           -0.0423         estimate D2E/DX2                !
 ! D19   D(4,5,6,7)            -75.0073         estimate D2E/DX2                !
 ! D20   D(4,5,6,9)           -176.0931         estimate D2E/DX2                !
 ! D21   D(4,5,6,16)            56.7507         estimate D2E/DX2                !
 ! D22   D(5,6,7,8)           -124.6953         estimate D2E/DX2                !
 ! D23   D(5,6,7,17)           -10.0371         estimate D2E/DX2                !
 ! D24   D(5,6,7,18)           116.2489         estimate D2E/DX2                !
 ! D25   D(9,6,7,8)            -10.4731         estimate D2E/DX2                !
 ! D26   D(9,6,7,17)           104.185          estimate D2E/DX2                !
 ! D27   D(9,6,7,18)          -129.529          estimate D2E/DX2                !
 ! D28   D(16,6,7,8)           105.3122         estimate D2E/DX2                !
 ! D29   D(16,6,7,17)         -140.0297         estimate D2E/DX2                !
 ! D30   D(16,6,7,18)          -13.7436         estimate D2E/DX2                !
 ! D31   D(5,6,9,8)            129.473          estimate D2E/DX2                !
 ! D32   D(5,6,9,21)            14.6696         estimate D2E/DX2                !
 ! D33   D(5,6,9,22)          -110.764          estimate D2E/DX2                !
 ! D34   D(7,6,9,8)             10.4729         estimate D2E/DX2                !
 ! D35   D(7,6,9,21)          -104.3305         estimate D2E/DX2                !
 ! D36   D(7,6,9,22)           130.2359         estimate D2E/DX2                !
 ! D37   D(16,6,9,8)          -105.403          estimate D2E/DX2                !
 ! D38   D(16,6,9,21)          139.7936         estimate D2E/DX2                !
 ! D39   D(16,6,9,22)           14.36           estimate D2E/DX2                !
 ! D40   D(6,7,8,9)             10.4597         estimate D2E/DX2                !
 ! D41   D(6,7,8,19)          -104.3396         estimate D2E/DX2                !
 ! D42   D(6,7,8,20)           129.0968         estimate D2E/DX2                !
 ! D43   D(17,7,8,9)          -102.7688         estimate D2E/DX2                !
 ! D44   D(17,7,8,19)          142.4319         estimate D2E/DX2                !
 ! D45   D(17,7,8,20)           15.8683         estimate D2E/DX2                !
 ! D46   D(18,7,8,9)           129.6546         estimate D2E/DX2                !
 ! D47   D(18,7,8,19)           14.8552         estimate D2E/DX2                !
 ! D48   D(18,7,8,20)         -111.7083         estimate D2E/DX2                !
 ! D49   D(7,8,9,6)            -10.5069         estimate D2E/DX2                !
 ! D50   D(7,8,9,21)           102.033          estimate D2E/DX2                !
 ! D51   D(7,8,9,22)          -129.5426         estimate D2E/DX2                !
 ! D52   D(19,8,9,6)           104.202          estimate D2E/DX2                !
 ! D53   D(19,8,9,21)         -143.258          estimate D2E/DX2                !
 ! D54   D(19,8,9,22)          -14.8337         estimate D2E/DX2                !
 ! D55   D(20,8,9,6)          -129.1302         estimate D2E/DX2                !
 ! D56   D(20,8,9,21)          -16.5903         estimate D2E/DX2                !
 ! D57   D(20,8,9,22)          111.8341         estimate D2E/DX2                !
 ! D58   D(4,10,11,12)         179.9917         estimate D2E/DX2                !
 ! D59   D(4,10,11,13)          -0.0454         estimate D2E/DX2                !
 ! D60   D(23,10,11,12)         -0.0789         estimate D2E/DX2                !
 ! D61   D(23,10,11,13)        179.884          estimate D2E/DX2                !
 ! D62   D(10,11,13,2)           0.1164         estimate D2E/DX2                !
 ! D63   D(10,11,13,14)        179.9932         estimate D2E/DX2                !
 ! D64   D(12,11,13,2)        -179.9204         estimate D2E/DX2                !
 ! D65   D(12,11,13,14)         -0.0436         estimate D2E/DX2                !
 --------------------------------------------------------------------------------
 Trust Radius=3.00D-01 FncErr=1.00D-07 GrdErr=1.00D-06 EigMax=2.50D+02 EigMin=1.00D-04
 Number of steps in this run=    138 maximum allowed number of steps=    138.
 GradGradGradGradGradGradGradGradGradGradGradGradGradGradGradGradGradGrad

 Leave Link  103 at Tue Sep 17 09:45:06 2024, MaxMem=  1342177280 cpu:               0.1 elap:               0.0
 (Enter /groups/ReismanLab/Software/Gaussian16_RevC/Linux_Binary_AVX2-enabled-CPU/g16/l202.exe)
                          Input orientation:                          
 ---------------------------------------------------------------------
 Center     Atomic      Atomic             Coordinates (Angstroms)
 Number     Number       Type             X           Y           Z
 ---------------------------------------------------------------------
      1          9           0       -0.442923   -3.186037   -0.076501
      2          6           0       -0.293685   -1.853248   -0.097613
      3          6           0        0.980055   -1.328985   -0.226848
      4          6           0        1.154621    0.053162   -0.250770
      5          8           0        2.340150    0.675757   -0.375780
      6          6           0        3.517531   -0.091187   -0.532430
      7          6           0        4.062759   -0.800011    0.723664
      8          6           0        5.415091   -0.102139    0.508349
      9          6           0        4.771220    0.794040   -0.561418
     10          6           0        0.035467    0.883713   -0.138392
     11          6           0       -1.226610    0.342187   -0.008122
     12         35           0       -2.732767    1.476480    0.143316
     13          6           0       -1.409286   -1.036247    0.012893
     14          9           0       -2.635484   -1.562576    0.139598
     15          1           0        1.806681   -2.014627   -0.300226
     16          1           0        3.422731   -0.748341   -1.404310
     17          1           0        3.549897   -0.468396    1.624021
     18          1           0        4.074890   -1.887385    0.696361
     19          1           0        6.172867   -0.767850    0.102401
     20          1           0        5.822795    0.413753    1.373351
     21          1           0        4.545239    1.794882   -0.203275
     22          1           0        5.283888    0.859529   -1.517113
     23          1           0        0.175427    1.952081   -0.156400
 ---------------------------------------------------------------------
                    Distance matrix (angstroms):
                    1          2          3          4          5
     1  F    0.000000
     2  C    1.341285   0.000000
     3  C    2.344379   1.383462   0.000000
     4  C    3.615927   2.399051   1.393332   0.000000
     5  O    4.769541   3.662012   2.427144   1.344891   0.000000
     6  C    5.046897   4.221290   2.839773   2.384012   1.413849
     7  C    5.160868   4.556578   3.268999   3.183504   2.520724
     8  C    6.645961   6.001974   4.659958   4.330356   3.292729
     9  C    6.577495   5.733803   4.357993   3.704752   2.441014
    10  C    4.098238   2.756984   2.407509   1.398195   2.326191
    11  C    3.614859   2.387110   2.776693   2.410949   3.601141
    12  Br   5.199112   4.134520   4.668265   4.158476   5.161890
    13  C    2.358696   1.387181   2.419116   2.798205   4.140085
    14  F    2.736722   2.371663   3.641562   4.138586   5.480209
    15  H    2.546168   2.116277   1.076476   2.168728   2.743805
    16  H    4.759067   4.091456   2.773126   2.667842   2.063470
    17  H    5.120543   4.433391   3.281831   3.086132   2.602264
    18  H    4.763869   4.440271   3.277519   3.631907   3.275439
    19  H    7.046155   6.560059   5.233409   5.097213   4.123394
    20  H    7.370196   6.686879   5.389797   4.955769   3.906011
    21  H    7.050346   6.060956   4.740214   3.812103   2.478833
    22  H    7.158096   6.362661   4.997735   4.393711   3.162595
    23  H    5.175809   3.834586   3.379021   2.138603   2.522530
                    6          7          8          9         10
     6  C    0.000000
     7  C    1.541908   0.000000
     8  C    2.164272   1.536941   0.000000
     9  C    1.534992   2.166645   1.536915   0.000000
    10  C    3.637371   4.449399   5.507316   4.755454   0.000000
    11  C    4.792659   5.460545   6.676552   6.040220   1.379514
    12  Br   6.479231   7.190159   8.307398   7.567839   2.844969
    13  C    5.046191   5.523069   6.905806   6.471355   2.407581
    14  F    6.362091   6.766765   8.190276   7.804122   3.632574
    15  H    2.584676   2.759263   4.163175   4.092105   3.400554
    16  H    1.095907   2.222741   2.836431   2.215362   3.967329
    17  H    2.189432   1.087951   2.204045   2.803839   4.157585
    18  H    2.246531   1.087784   2.240221   3.042518   4.969178
    19  H    2.812773   2.199899   1.087286   2.201084   6.360292
    20  H    3.033350   2.234512   1.086553   2.234672   5.999950
    21  H    2.172966   2.797404   2.204935   1.086746   4.601356
    22  H    2.234609   3.044062   2.246000   1.086495   5.426544
    23  H    3.935226   4.843540   5.667079   4.756722   1.077647
                   11         12         13         14         15
    11  C    0.000000
    12  Br   1.891577   0.000000
    13  C    1.390645   2.842957   0.000000
    14  F    2.373789   3.040615   1.340387   0.000000
    15  H    3.852369   5.743791   3.376051   4.486717   0.000000
    16  H    4.975435   6.725706   5.043783   6.304649   2.331115
    17  H    5.112334   6.741431   5.245159   6.454431   3.021979
    18  H    5.794237   7.613516   5.591758   6.741262   2.480756
    19  H    7.483091   9.184171   7.587430   8.844208   4.558524
    20  H    7.183850   8.708618   7.500424   8.773284   4.982677
    21  H    5.955052   7.293207   6.596847   7.934285   4.692702
    22  H    6.703080   8.210019   7.122743   8.445575   4.672532
    23  H    2.139965   2.962029   3.386751   4.510173   4.291439
                   16         17         18         19         20
    16  H    0.000000
    17  H    3.043900   0.000000
    18  H    2.477004   1.774739   0.000000
    19  H    3.135890   3.047125   2.451051   0.000000
    20  H    3.850477   2.450936   2.967949   1.770325   0.000000
    21  H    3.028282   3.074434   3.819641   3.051263   2.454673
    22  H    2.462088   3.825811   3.729166   2.462006   2.973873
    23  H    4.403923   4.518369   5.538458   6.590470   6.049741
                   21         22         23
    21  H    0.000000
    22  H    1.773882   0.000000
    23  H    4.372890   5.398295   0.000000
 Stoichiometry    C10H9BrF2O
 Framework group  C1[X(C10H9BrF2O)]
 Deg. of freedom    63
 Full point group                 C1      NOp   1
 Largest Abelian subgroup         C1      NOp   1
 Largest concise Abelian subgroup C1      NOp   1
                         Standard orientation:                         
 ---------------------------------------------------------------------
 Center     Atomic      Atomic             Coordinates (Angstroms)
 Number     Number       Type             X           Y           Z
 ---------------------------------------------------------------------
      1          9           0        0.363421    3.198298   -0.108294
      2          6           0        0.351457    1.857091   -0.116306
      3          6           0       -0.863655    1.203810   -0.219715
      4          6           0       -0.895788   -0.189116   -0.229715
      5          8           0       -2.013006   -0.931124   -0.329619
      6          6           0       -3.265260   -0.290446   -0.472306
      7          6           0       -3.860079    0.370815    0.787218
      8          6           0       -5.136923   -0.464037    0.600456
      9          6           0       -4.421764   -1.299752   -0.472966
     10          6           0        0.304370   -0.899458   -0.129797
     11          6           0        1.506127   -0.230191   -0.025293
     12         35           0        3.123001   -1.202616    0.109506
     13          6           0        1.546662    1.159845   -0.018307
     14          9           0        2.714236    1.810284    0.083363
     15          1           0       -1.757367    1.800373   -0.284462
     16          1           0       -3.252459    0.364542   -1.350851
     17          1           0       -3.301463    0.102197    1.681327
     18          1           0       -3.984199    1.450905    0.751510
     19          1           0       -5.965464    0.116558    0.202185
     20          1           0       -5.475544   -1.010652    1.476323
     21          1           0       -4.088509   -2.268665   -0.110798
     22          1           0       -4.940317   -1.426641   -1.419260
     23          1           0        0.274542   -1.976668   -0.136959
 ---------------------------------------------------------------------
 Rotational constants (GHZ):           0.9290041           0.2432629           0.1975044
 Leave Link  202 at Tue Sep 17 09:45:06 2024, MaxMem=  1342177280 cpu:               0.0 elap:               0.0
 (Enter /groups/ReismanLab/Software/Gaussian16_RevC/Linux_Binary_AVX2-enabled-CPU/g16/l301.exe)
 Standard basis: 6-31G(d,p) (6D, 7F)
 Ernie: Thresh=  0.10000D-02 Tol=  0.10000D-05 Strict=F.
 There are   270 symmetry adapted cartesian basis functions of A   symmetry.
 There are   270 symmetry adapted basis functions of A   symmetry.
   270 basis functions,   510 primitive gaussians,   270 cartesian basis functions
    65 alpha electrons       65 beta electrons
       nuclear repulsion energy      1180.5721486727 Hartrees.
 IExCor=  402 DFT=T Ex+Corr=B3LYP ExCW=0 ScaHFX=  0.200000
 ScaDFX=  0.800000  0.720000  1.000000  0.810000 ScalE2=  1.000000  1.000000
 IRadAn=      5 IRanWt=     -1 IRanGd=            0 ICorTp=0 IEmpDi=141
 NAtoms=   23 NActive=   23 NUniq=   23 SFac= 1.00D+00 NAtFMM=   60 NAOKFM=F Big=F
 Integral buffers will be    131072 words long.
 Raffenetti 2 integral format.
 Two-electron integral symmetry is turned on.
 R6Disp:  Grimme-D3(BJ) Dispersion energy=       -0.0452248556 Hartrees.
 Nuclear repulsion after empirical dispersion term =     1180.5269238172 Hartrees.
 Leave Link  301 at Tue Sep 17 09:45:06 2024, MaxMem=  1342177280 cpu:               0.1 elap:               0.1
 (Enter /groups/ReismanLab/Software/Gaussian16_RevC/Linux_Binary_AVX2-enabled-CPU/g16/l302.exe)
 NPDir=0 NMtPBC=     1 NCelOv=     1 NCel=       1 NClECP=     1 NCelD=      1
         NCelK=      1 NCelE2=     1 NClLst=     1 CellRange=     0.0.
 One-electron integrals computed using PRISM.
 One-electron integral symmetry used in STVInt
 NBasis=   270 RedAO= T EigKep=  3.83D-04  NBF=   270
 NBsUse=   270 1.00D-06 EigRej= -1.00D+00 NBFU=   270
 Precomputing XC quadrature grid using
 IXCGrd= 4 IRadAn=           5 IRanWt=          -1 IRanGd=           0 AccXCQ= 0.00D+00.
 Generated NRdTot=       0 NPtTot=           0 NUsed=           0 NTot=          32
 NSgBfM=   267   267   267   267   267 MxSgAt=    23 MxSgA2=    23.
 Leave Link  302 at Tue Sep 17 09:45:06 2024, MaxMem=  1342177280 cpu:               1.1 elap:               0.2
 (Enter /groups/ReismanLab/Software/Gaussian16_RevC/Linux_Binary_AVX2-enabled-CPU/g16/l303.exe)
 DipDrv:  MaxL=1.
 Leave Link  303 at Tue Sep 17 09:45:06 2024, MaxMem=  1342177280 cpu:               0.1 elap:               0.0
 (Enter /groups/ReismanLab/Software/Gaussian16_RevC/Linux_Binary_AVX2-enabled-CPU/g16/l401.exe)
 ExpMin= 1.43D-01 ExpMax= 5.74D+05 ExpMxC= 5.74D+03 IAcc=3 IRadAn=         5 AccDes= 0.00D+00
 Harris functional with IExCor=  402 and IRadAn=       5 diagonalized for initial guess.
 HarFok:  IExCor=  402 AccDes= 0.00D+00 IRadAn=         5 IDoV= 1 UseB2=F ITyADJ=14
 ICtDFT=  3500011 ScaDFX=  1.000000  1.000000  1.000000  1.000000
 FoFCou: FMM=F IPFlag=           0 FMFlag=      100000 FMFlg1=           0
         NFxFlg=           0 DoJE=T BraDBF=F KetDBF=T FulRan=T
         wScrn=  0.000000 ICntrl=       500 IOpCl=  0 I1Cent=   200000004 NGrid=           0
         NMat0=    1 NMatS0=      1 NMatT0=    0 NMatD0=    1 NMtDS0=    0 NMtDT0=    0
 Petite list used in FoFCou.
 Harris En= -3233.18958976382    
 JPrj=0 DoOrth=F DoCkMO=F.
 Leave Link  401 at Tue Sep 17 09:45:07 2024, MaxMem=  1342177280 cpu:               5.5 elap:               0.8
 (Enter /groups/ReismanLab/Software/Gaussian16_RevC/Linux_Binary_AVX2-enabled-CPU/g16/l502.exe)
 Integral symmetry usage will be decided dynamically.
 Closed shell SCF:
 Using DIIS extrapolation, IDIIS=  1040.
 NGot=  1342177280 LenX=  1342025931 LenY=  1341952590
 Requested convergence on RMS density matrix=1.00D-08 within  32 cycles.
 Requested convergence on MAX density matrix=1.00D-06.
 Requested convergence on             energy=1.00D-06.
 No special actions if energy rises.
 Fock matrices will be formed incrementally for  20 cycles.
 Integral accuracy reduced to 1.0D-05 until final iterations.

 Cycle   1  Pass 0  IDiag  1:
 FoFJK:  IHMeth= 1 ICntrl=       0 DoSepK=F KAlg= 0 I1Cent=           0 FoldK=F
 IRaf= 810000000 NMat=       1 IRICut=       1 DoRegI=T DoRafI=F ISym2E= 0 IDoP0=0 IntGTp=1.
 FoFCou: FMM=F IPFlag=           0 FMFlag=      100000 FMFlg1=           0
         NFxFlg=           0 DoJE=F BraDBF=F KetDBF=F FulRan=T
         wScrn=  0.000000 ICntrl=         0 IOpCl=  0 I1Cent=           0 NGrid=           0
         NMat0=    1 NMatS0=      1 NMatT0=    0 NMatD0=    1 NMtDS0=    0 NMtDT0=    0
 Symmetry not used in FoFCou.
 E= -3232.82793312423    
 DIIS: error= 1.42D-01 at cycle   1 NSaved=   1.
 NSaved= 1 IEnMin= 1 EnMin= -3232.82793312423     IErMin= 1 ErrMin= 1.42D-01
 ErrMax= 1.42D-01  0.00D+00 EMaxC= 1.00D-01 BMatC= 6.19D-01 BMatP= 6.19D-01
 IDIUse=3 WtCom= 0.00D+00 WtEn= 1.00D+00
 Coeff-Com:  0.100D+01
 Coeff-En:   0.100D+01
 Coeff:      0.100D+01
 Gap=     0.229 Goal=   None    Shift=    0.000
 GapD=    0.229 DampG=1.000 DampE=0.250 DampFc=0.2500 IDamp=-1.
 Damping current iteration by 2.50D-01
 RMSDP=4.43D-03 MaxDP=1.44D-01              OVMax= 1.92D-01

 Cycle   2  Pass 0  IDiag  1:
 RMSU=  1.08D-03    CP:  9.93D-01
 E= -3232.92371374106     Delta-E=       -0.095780616834 Rises=F Damp=T
 DIIS: error= 1.05D-01 at cycle   2 NSaved=   2.
 NSaved= 2 IEnMin= 2 EnMin= -3232.92371374106     IErMin= 2 ErrMin= 1.05D-01
 ErrMax= 1.05D-01  0.00D+00 EMaxC= 1.00D-01 BMatC= 2.61D-01 BMatP= 6.19D-01
 IDIUse=3 WtCom= 0.00D+00 WtEn= 1.00D+00
 Coeff-Com: -0.134D+01 0.234D+01
 Coeff-En:   0.000D+00 0.100D+01
 Coeff:      0.000D+00 0.100D+01
 Gap=     0.217 Goal=   None    Shift=    0.000
 RMSDP=2.26D-03 MaxDP=1.10D-01 DE=-9.58D-02 OVMax= 1.08D-01

 Cycle   3  Pass 0  IDiag  1:
 RMSU=  8.16D-04    CP:  9.73D-01  2.84D+00
 E= -3233.03576473343     Delta-E=       -0.112050992370 Rises=F Damp=F
 DIIS: error= 1.05D-02 at cycle   3 NSaved=   3.
 NSaved= 3 IEnMin= 3 EnMin= -3233.03576473343     IErMin= 3 ErrMin= 1.05D-02
 ErrMax= 1.05D-02  0.00D+00 EMaxC= 1.00D-01 BMatC= 5.98D-02 BMatP= 2.61D-01
 IDIUse=3 WtCom= 8.95D-01 WtEn= 1.05D-01
 Coeff-Com:  0.156D+01-0.199D+01 0.143D+01
 Coeff-En:   0.129D+00 0.000D+00 0.871D+00
 Coeff:      0.141D+01-0.178D+01 0.137D+01
 Gap=     0.221 Goal=   None    Shift=    0.000
 RMSDP=1.09D-03 MaxDP=3.83D-02 DE=-1.12D-01 OVMax= 4.36D-02

 Cycle   4  Pass 0  IDiag  1:
 RMSU=  5.98D-04    CP:  9.73D-01  1.99D+00  1.12D+00
 E= -3233.08557296715     Delta-E=       -0.049808233721 Rises=F Damp=F
 DIIS: error= 6.02D-03 at cycle   4 NSaved=   4.
 NSaved= 4 IEnMin= 4 EnMin= -3233.08557296715     IErMin= 4 ErrMin= 6.02D-03
 ErrMax= 6.02D-03  0.00D+00 EMaxC= 1.00D-01 BMatC= 8.64D-03 BMatP= 5.98D-02
 IDIUse=3 WtCom= 9.40D-01 WtEn= 6.02D-02
 Coeff-Com:  0.911D+00-0.119D+01 0.816D+00 0.465D+00
 Coeff-En:   0.000D+00 0.000D+00 0.000D+00 0.100D+01
 Coeff:      0.857D+00-0.112D+01 0.767D+00 0.497D+00
 Gap=     0.211 Goal=   None    Shift=    0.000
 RMSDP=4.76D-04 MaxDP=1.65D-02 DE=-4.98D-02 OVMax= 5.29D-02

 Cycle   5  Pass 0  IDiag  1:
 RMSU=  1.48D-04    CP:  9.74D-01  2.02D+00  1.32D+00  2.93D-01
 E= -3233.09414505169     Delta-E=       -0.008572084535 Rises=F Damp=F
 DIIS: error= 1.78D-03 at cycle   5 NSaved=   5.
 NSaved= 5 IEnMin= 5 EnMin= -3233.09414505169     IErMin= 5 ErrMin= 1.78D-03
 ErrMax= 1.78D-03  0.00D+00 EMaxC= 1.00D-01 BMatC= 7.23D-04 BMatP= 8.64D-03
 IDIUse=3 WtCom= 9.82D-01 WtEn= 1.78D-02
 Coeff-Com:  0.260D+00-0.342D+00 0.245D+00 0.268D+00 0.570D+00
 Coeff-En:   0.000D+00 0.000D+00 0.000D+00 0.405D-01 0.960D+00
 Coeff:      0.255D+00-0.336D+00 0.240D+00 0.264D+00 0.577D+00
 Gap=     0.208 Goal=   None    Shift=    0.000
 RMSDP=1.24D-04 MaxDP=4.75D-03 DE=-8.57D-03 OVMax= 1.27D-02

 Cycle   6  Pass 0  IDiag  1:
 RMSU=  5.39D-05    CP:  9.74D-01  2.04D+00  1.29D+00  4.21D-01  5.06D-01
 E= -3233.09486120763     Delta-E=       -0.000716155941 Rises=F Damp=F
 DIIS: error= 3.41D-04 at cycle   6 NSaved=   6.
 NSaved= 6 IEnMin= 6 EnMin= -3233.09486120763     IErMin= 6 ErrMin= 3.41D-04
 ErrMax= 3.41D-04  0.00D+00 EMaxC= 1.00D-01 BMatC= 6.38D-05 BMatP= 7.23D-04
 IDIUse=3 WtCom= 9.97D-01 WtEn= 3.41D-03
 Coeff-Com:  0.566D-01-0.746D-01 0.596D-01 0.111D+00 0.337D+00 0.510D+00
 Coeff-En:   0.000D+00 0.000D+00 0.000D+00 0.000D+00 0.000D+00 0.100D+01
 Coeff:      0.564D-01-0.743D-01 0.594D-01 0.110D+00 0.336D+00 0.512D+00
 Gap=     0.209 Goal=   None    Shift=    0.000
 RMSDP=3.21D-05 MaxDP=1.62D-03 DE=-7.16D-04 OVMax= 1.83D-03

 Cycle   7  Pass 0  IDiag  1:
 RMSU=  1.51D-05    CP:  9.74D-01  2.04D+00  1.29D+00  4.22D-01  5.91D-01
                    CP:  5.29D-01
 E= -3233.09490801453     Delta-E=       -0.000046806906 Rises=F Damp=F
 DIIS: error= 5.51D-05 at cycle   7 NSaved=   7.
 NSaved= 7 IEnMin= 7 EnMin= -3233.09490801453     IErMin= 7 ErrMin= 5.51D-05
 ErrMax= 5.51D-05  0.00D+00 EMaxC= 1.00D-01 BMatC= 3.03D-06 BMatP= 6.38D-05
 IDIUse=1 WtCom= 1.00D+00 WtEn= 0.00D+00
 Coeff-Com:  0.147D-01-0.193D-01 0.174D-01 0.418D-01 0.140D+00 0.270D+00
 Coeff-Com:  0.535D+00
 Coeff:      0.147D-01-0.193D-01 0.174D-01 0.418D-01 0.140D+00 0.270D+00
 Coeff:      0.535D+00
 Gap=     0.209 Goal=   None    Shift=    0.000
 RMSDP=7.95D-06 MaxDP=3.31D-04 DE=-4.68D-05 OVMax= 5.71D-04

 Initial convergence to 1.0D-05 achieved.  Increase integral accuracy.
 Cycle   8  Pass 1  IDiag  1:
 E= -3233.09488066627     Delta-E=        0.000027348261 Rises=F Damp=F
 DIIS: error= 4.65D-05 at cycle   1 NSaved=   1.
 NSaved= 1 IEnMin= 1 EnMin= -3233.09488066627     IErMin= 1 ErrMin= 4.65D-05
 ErrMax= 4.65D-05  0.00D+00 EMaxC= 1.00D-01 BMatC= 5.30D-07 BMatP= 5.30D-07
 IDIUse=1 WtCom= 1.00D+00 WtEn= 0.00D+00
 Coeff-Com:  0.100D+01
 Coeff:      0.100D+01
 Gap=     0.209 Goal=   None    Shift=    0.000
 RMSDP=7.95D-06 MaxDP=3.31D-04 DE= 2.73D-05 OVMax= 4.14D-04

 Cycle   9  Pass 1  IDiag  1:
 RMSU=  2.15D-05    CP:  1.00D+00
 E= -3233.09488031824     Delta-E=        0.000000348036 Rises=F Damp=F
 DIIS: error= 4.15D-05 at cycle   2 NSaved=   2.
 NSaved= 2 IEnMin= 1 EnMin= -3233.09488066627     IErMin= 2 ErrMin= 4.15D-05
 ErrMax= 4.15D-05  0.00D+00 EMaxC= 1.00D-01 BMatC= 7.91D-07 BMatP= 5.30D-07
 IDIUse=1 WtCom= 1.00D+00 WtEn= 0.00D+00
 Coeff-Com:  0.560D+00 0.440D+00
 Coeff:      0.560D+00 0.440D+00
 Gap=     0.209 Goal=   None    Shift=    0.000
 RMSDP=4.42D-06 MaxDP=1.42D-04 DE= 3.48D-07 OVMax= 3.97D-04

 Cycle  10  Pass 1  IDiag  1:
 RMSU=  4.25D-06    CP:  1.00D+00  9.45D-01
 E= -3233.09488104984     Delta-E=       -0.000000731605 Rises=F Damp=F
 DIIS: error= 1.52D-05 at cycle   3 NSaved=   3.
 NSaved= 3 IEnMin= 3 EnMin= -3233.09488104984     IErMin= 3 ErrMin= 1.52D-05
 ErrMax= 1.52D-05  0.00D+00 EMaxC= 1.00D-01 BMatC= 7.49D-08 BMatP= 5.30D-07
 IDIUse=1 WtCom= 1.00D+00 WtEn= 0.00D+00
 Coeff-Com:  0.737D-01 0.238D+00 0.688D+00
 Coeff:      0.737D-01 0.238D+00 0.688D+00
 Gap=     0.209 Goal=   None    Shift=    0.000
 RMSDP=1.36D-06 MaxDP=6.75D-05 DE=-7.32D-07 OVMax= 1.26D-04

 Cycle  11  Pass 1  IDiag  1:
 RMSU=  9.29D-07    CP:  1.00D+00  9.62D-01  7.84D-01
 E= -3233.09488111306     Delta-E=       -0.000000063223 Rises=F Damp=F
 DIIS: error= 4.52D-06 at cycle   4 NSaved=   4.
 NSaved= 4 IEnMin= 4 EnMin= -3233.09488111306     IErMin= 4 ErrMin= 4.52D-06
 ErrMax= 4.52D-06  0.00D+00 EMaxC= 1.00D-01 BMatC= 1.31D-08 BMatP= 7.49D-08
 IDIUse=1 WtCom= 1.00D+00 WtEn= 0.00D+00
 Coeff-Com:  0.939D-04 0.111D+00 0.420D+00 0.469D+00
 Coeff:      0.939D-04 0.111D+00 0.420D+00 0.469D+00
 Gap=     0.209 Goal=   None    Shift=    0.000
 RMSDP=4.76D-07 MaxDP=2.06D-05 DE=-6.32D-08 OVMax= 3.90D-05

 Cycle  12  Pass 1  IDiag  1:
 RMSU=  1.27D-07    CP:  1.00D+00  9.64D-01  7.97D-01  5.13D-01
 E= -3233.09488112585     Delta-E=       -0.000000012784 Rises=F Damp=F
 DIIS: error= 7.25D-07 at cycle   5 NSaved=   5.
 NSaved= 5 IEnMin= 5 EnMin= -3233.09488112585     IErMin= 5 ErrMin= 7.25D-07
 ErrMax= 7.25D-07  0.00D+00 EMaxC= 1.00D-01 BMatC= 2.25D-10 BMatP= 1.31D-08
 IDIUse=1 WtCom= 1.00D+00 WtEn= 0.00D+00
 Coeff-Com: -0.137D-02 0.565D-01 0.216D+00 0.254D+00 0.475D+00
 Coeff:     -0.137D-02 0.565D-01 0.216D+00 0.254D+00 0.475D+00
 Gap=     0.209 Goal=   None    Shift=    0.000
 RMSDP=6.83D-08 MaxDP=1.97D-06 DE=-1.28D-08 OVMax= 4.58D-06

 Cycle  13  Pass 1  IDiag  1:
 RMSU=  4.54D-08    CP:  1.00D+00  9.64D-01  7.95D-01  5.05D-01  6.11D-01
 E= -3233.09488112603     Delta-E=       -0.000000000179 Rises=F Damp=F
 DIIS: error= 1.89D-07 at cycle   6 NSaved=   6.
 NSaved= 6 IEnMin= 6 EnMin= -3233.09488112603     IErMin= 6 ErrMin= 1.89D-07
 ErrMax= 1.89D-07  0.00D+00 EMaxC= 1.00D-01 BMatC= 1.38D-11 BMatP= 2.25D-10
 IDIUse=1 WtCom= 1.00D+00 WtEn= 0.00D+00
 Coeff-Com: -0.714D-03 0.182D-01 0.701D-01 0.841D-01 0.243D+00 0.585D+00
 Coeff:     -0.714D-03 0.182D-01 0.701D-01 0.841D-01 0.243D+00 0.585D+00
 Gap=     0.209 Goal=   None    Shift=    0.000
 RMSDP=1.71D-08 MaxDP=6.56D-07 DE=-1.79D-10 OVMax= 1.59D-06

 Cycle  14  Pass 1  IDiag  1:
 RMSU=  1.21D-08    CP:  1.00D+00  9.64D-01  7.95D-01  5.06D-01  6.58D-01
                    CP:  7.80D-01
 E= -3233.09488112601     Delta-E=        0.000000000019 Rises=F Damp=F
 DIIS: error= 3.66D-08 at cycle   7 NSaved=   7.
 NSaved= 7 IEnMin= 6 EnMin= -3233.09488112603     IErMin= 7 ErrMin= 3.66D-08
 ErrMax= 3.66D-08  0.00D+00 EMaxC= 1.00D-01 BMatC= 8.74D-13 BMatP= 1.38D-11
 IDIUse=1 WtCom= 1.00D+00 WtEn= 0.00D+00
 Coeff-Com: -0.244D-03 0.476D-02 0.185D-01 0.224D-01 0.823D-01 0.271D+00
 Coeff-Com:  0.601D+00
 Coeff:     -0.244D-03 0.476D-02 0.185D-01 0.224D-01 0.823D-01 0.271D+00
 Coeff:      0.601D+00
 Gap=     0.209 Goal=   None    Shift=    0.000
 RMSDP=5.68D-09 MaxDP=2.40D-07 DE= 1.91D-11 OVMax= 5.50D-07

 SCF Done:  E(RB3LYP) =  -3233.09488113     A.U. after   14 cycles
            NFock= 14  Conv=0.57D-08     -V/T= 2.0066
 KE= 3.212039269951D+03 PE=-1.004244676023D+04 EE= 2.416785685340D+03
 Leave Link  502 at Tue Sep 17 09:45:22 2024, MaxMem=  1342177280 cpu:             111.0 elap:              14.9
 (Enter /groups/ReismanLab/Software/Gaussian16_RevC/Linux_Binary_AVX2-enabled-CPU/g16/l508.exe)
 QCSCF skips out because SCF is already converged.
 Leave Link  508 at Tue Sep 17 09:45:22 2024, MaxMem=  1342177280 cpu:               0.0 elap:               0.0
 (Enter /groups/ReismanLab/Software/Gaussian16_RevC/Linux_Binary_AVX2-enabled-CPU/g16/l601.exe)
 Copying SCF densities to generalized density rwf, IOpCl= 0 IROHF=0.

 **********************************************************************

            Population analysis using the SCF Density.

 **********************************************************************

 Orbital symmetries:
       Occupied  (A) (A) (A) (A) (A) (A) (A) (A) (A) (A) (A) (A)
                 (A) (A) (A) (A) (A) (A) (A) (A) (A) (A) (A) (A)
                 (A) (A) (A) (A) (A) (A) (A) (A) (A) (A) (A) (A)
                 (A) (A) (A) (A) (A) (A) (A) (A) (A) (A) (A) (A)
                 (A) (A) (A) (A) (A) (A) (A) (A) (A) (A) (A) (A)
                 (A) (A) (A) (A) (A)
       Virtual   (A) (A) (A) (A) (A) (A) (A) (A) (A) (A) (A) (A)
                 (A) (A) (A) (A) (A) (A) (A) (A) (A) (A) (A) (A)
                 (A) (A) (A) (A) (A) (A) (A) (A) (A) (A) (A) (A)
                 (A) (A) (A) (A) (A) (A) (A) (A) (A) (A) (A) (A)
                 (A) (A) (A) (A) (A) (A) (A) (A) (A) (A) (A) (A)
                 (A) (A) (A) (A) (A) (A) (A) (A) (A) (A) (A) (A)
                 (A) (A) (A) (A) (A) (A) (A) (A) (A) (A) (A) (A)
                 (A) (A) (A) (A) (A) (A) (A) (A) (A) (A) (A) (A)
                 (A) (A) (A) (A) (A) (A) (A) (A) (A) (A) (A) (A)
                 (A) (A) (A) (A) (A) (A) (A) (A) (A) (A) (A) (A)
                 (A) (A) (A) (A) (A) (A) (A) (A) (A) (A) (A) (A)
                 (A) (A) (A) (A) (A) (A) (A) (A) (A) (A) (A) (A)
                 (A) (A) (A) (A) (A) (A) (A) (A) (A) (A) (A) (A)
                 (A) (A) (A) (A) (A) (A) (A) (A) (A) (A) (A) (A)
                 (A) (A) (A) (A) (A) (A) (A) (A) (A) (A) (A) (A)
                 (A) (A) (A) (A) (A) (A) (A) (A) (A) (A) (A) (A)
                 (A) (A) (A) (A) (A) (A) (A) (A) (A) (A) (A) (A)
                 (A)
 The electronic state is 1-A.
 Alpha  occ. eigenvalues -- -482.91877 -61.88020 -56.40177 -56.39737 -56.39729
 Alpha  occ. eigenvalues --  -24.71962 -24.71689 -19.19097 -10.28942 -10.28302
 Alpha  occ. eigenvalues --  -10.26823 -10.25756 -10.25433 -10.20594 -10.20356
 Alpha  occ. eigenvalues --  -10.19356 -10.19250 -10.19197  -8.59144  -6.54587
 Alpha  occ. eigenvalues --   -6.53252  -6.53199  -2.66151  -2.65775  -2.65735
 Alpha  occ. eigenvalues --   -2.64668  -2.64668  -1.23796  -1.22465  -1.08705
 Alpha  occ. eigenvalues --   -0.89018  -0.86006  -0.81409  -0.76504  -0.74042
 Alpha  occ. eigenvalues --   -0.68751  -0.68002  -0.63805  -0.61771  -0.57314
 Alpha  occ. eigenvalues --   -0.56127  -0.54640  -0.53294  -0.51809  -0.50152
 Alpha  occ. eigenvalues --   -0.48871  -0.46348  -0.45198  -0.45037  -0.44167
 Alpha  occ. eigenvalues --   -0.43898  -0.41627  -0.40563  -0.40401  -0.38506
 Alpha  occ. eigenvalues --   -0.36668  -0.35876  -0.35081  -0.34167  -0.32250
 Alpha  occ. eigenvalues --   -0.31768  -0.29689  -0.29115  -0.25136  -0.22761
 Alpha virt. eigenvalues --   -0.01901  -0.00377   0.00163   0.06658   0.08136
 Alpha virt. eigenvalues --    0.09602   0.12196   0.12615   0.14050   0.15312
 Alpha virt. eigenvalues --    0.15750   0.16842   0.17160   0.18062   0.18484
 Alpha virt. eigenvalues --    0.20197   0.21551   0.22860   0.24113   0.26201
 Alpha virt. eigenvalues --    0.26532   0.30699   0.31539   0.33697   0.34811
 Alpha virt. eigenvalues --    0.38491   0.43881   0.44745   0.45899   0.45968
 Alpha virt. eigenvalues --    0.46617   0.47285   0.47904   0.48854   0.49687
 Alpha virt. eigenvalues --    0.50431   0.51100   0.51656   0.52900   0.53364
 Alpha virt. eigenvalues --    0.54108   0.55961   0.58238   0.59185   0.59938
 Alpha virt. eigenvalues --    0.60172   0.62924   0.63754   0.64614   0.66827
 Alpha virt. eigenvalues --    0.67864   0.69658   0.70366   0.71125   0.74260
 Alpha virt. eigenvalues --    0.75780   0.76034   0.77912   0.79834   0.80394
 Alpha virt. eigenvalues --    0.81108   0.82326   0.83913   0.84672   0.86496
 Alpha virt. eigenvalues --    0.86852   0.87648   0.90660   0.91016   0.91789
 Alpha virt. eigenvalues --    0.93001   0.94528   0.98116   0.99451   1.02600
 Alpha virt. eigenvalues --    1.04790   1.09206   1.12658   1.15616   1.16363
 Alpha virt. eigenvalues --    1.18454   1.19848   1.21476   1.22186   1.24098
 Alpha virt. eigenvalues --    1.25793   1.27786   1.28664   1.33986   1.36818
 Alpha virt. eigenvalues --    1.37483   1.38541   1.39812   1.41675   1.44063
 Alpha virt. eigenvalues --    1.44892   1.49798   1.50254   1.50656   1.54107
 Alpha virt. eigenvalues --    1.57870   1.63262   1.64157   1.65636   1.67402
 Alpha virt. eigenvalues --    1.71322   1.74201   1.75346   1.78386   1.78634
 Alpha virt. eigenvalues --    1.80266   1.81256   1.82886   1.83417   1.85040
 Alpha virt. eigenvalues --    1.86979   1.87308   1.88093   1.90066   1.90732
 Alpha virt. eigenvalues --    1.92288   1.93591   1.94605   1.96485   1.98703
 Alpha virt. eigenvalues --    2.00575   2.01472   2.01738   2.04237   2.05039
 Alpha virt. eigenvalues --    2.07236   2.10185   2.11214   2.16447   2.21159
 Alpha virt. eigenvalues --    2.23645   2.23912   2.25222   2.26191   2.28925
 Alpha virt. eigenvalues --    2.29475   2.30287   2.31820   2.32670   2.33190
 Alpha virt. eigenvalues --    2.34873   2.36001   2.38378   2.42585   2.45426
 Alpha virt. eigenvalues --    2.47288   2.48163   2.49634   2.52003   2.52760
 Alpha virt. eigenvalues --    2.54362   2.57764   2.58532   2.61335   2.62990
 Alpha virt. eigenvalues --    2.65018   2.66167   2.66828   2.67841   2.68206
 Alpha virt. eigenvalues --    2.73572   2.73885   2.81440   2.83855   2.84984
 Alpha virt. eigenvalues --    2.86421   2.89794   2.91181   2.94037   3.03317
 Alpha virt. eigenvalues --    3.04667   3.09762   3.14949   3.17147   3.20126
 Alpha virt. eigenvalues --    3.21638   3.27419   3.31417   3.37058   3.39334
 Alpha virt. eigenvalues --    3.40944   3.44176   3.45310   3.61687   3.68610
 Alpha virt. eigenvalues --    4.04472   4.07504   4.09777   4.21787   4.34769
 Alpha virt. eigenvalues --    4.36819   4.45029   4.46877   4.58882   4.76442
 Alpha virt. eigenvalues --    4.91684   4.95097   6.14030   8.60406  72.87269
          Condensed to atoms (all electrons):
               1          2          3          4          5          6
     1  F    9.060106   0.294020  -0.039145   0.002614  -0.000002  -0.000003
     2  C    0.294020   4.762738   0.418833   0.023170   0.003401   0.000665
     3  C   -0.039145   0.418833   5.269800   0.396417  -0.055717  -0.000792
     4  C    0.002614   0.023170   0.396417   4.580673   0.273355  -0.031838
     5  O   -0.000002   0.003401  -0.055717   0.273355   8.261927   0.215149
     6  C   -0.000003   0.000665  -0.000792  -0.031838   0.215149   4.766844
     7  C   -0.000000   0.000020   0.002600  -0.004754  -0.040427   0.365765
     8  C   -0.000000  -0.000001   0.000093  -0.000056   0.004393  -0.137119
     9  C   -0.000000  -0.000006  -0.000007   0.003188  -0.038236   0.392772
    10  C    0.000134  -0.039026  -0.079071   0.504114  -0.052194   0.003350
    11  C    0.003361  -0.054965  -0.022428  -0.008622   0.003447  -0.000123
    12  Br  -0.000023   0.006241  -0.000180   0.005079  -0.000051   0.000002
    13  C   -0.038539   0.347114  -0.068829  -0.036224   0.000133   0.000007
    14  F   -0.000614  -0.045537   0.003157  -0.000123  -0.000000  -0.000000
    15  H   -0.000148  -0.029342   0.354742  -0.040216  -0.007369   0.004561
    16  H    0.000001  -0.000229   0.005777  -0.004264  -0.040553   0.358521
    17  H    0.000000  -0.000121  -0.000005   0.002448  -0.001899  -0.028367
    18  H   -0.000002   0.000052  -0.001267   0.000088   0.002434  -0.025827
    19  H    0.000000  -0.000000  -0.000000   0.000016  -0.000152   0.002582
    20  H   -0.000000   0.000000   0.000003  -0.000006  -0.000159   0.006704
    21  H    0.000000  -0.000000   0.000056   0.000388   0.001138  -0.032189
    22  H    0.000000   0.000000   0.000010  -0.000107   0.001980  -0.025220
    23  H    0.000001  -0.000431   0.007895  -0.033399  -0.000206  -0.000126
               7          8          9         10         11         12
     1  F   -0.000000  -0.000000  -0.000000   0.000134   0.003361  -0.000023
     2  C    0.000020  -0.000001  -0.000006  -0.039026  -0.054965   0.006241
     3  C    0.002600   0.000093  -0.000007  -0.079071  -0.022428  -0.000180
     4  C   -0.004754  -0.000056   0.003188   0.504114  -0.008622   0.005079
     5  O   -0.040427   0.004393  -0.038236  -0.052194   0.003447  -0.000051
     6  C    0.365765  -0.137119   0.392772   0.003350  -0.000123   0.000002
     7  C    5.060928   0.356686  -0.178054  -0.000013   0.000004  -0.000000
     8  C    0.356686   4.965917   0.352697   0.000018  -0.000000   0.000000
     9  C   -0.178054   0.352697   5.009654  -0.000230   0.000002  -0.000000
    10  C   -0.000013   0.000018  -0.000230   5.017707   0.484203  -0.058828
    11  C    0.000004  -0.000000   0.000002   0.484203   5.134302   0.252414
    12  Br  -0.000000   0.000000  -0.000000  -0.058828   0.252414  34.932874
    13  C   -0.000005  -0.000000   0.000000  -0.018723   0.330571  -0.047972
    14  F    0.000000  -0.000000  -0.000000   0.002502  -0.066005   0.003808
    15  H    0.001690  -0.000033  -0.000114   0.005072  -0.000006   0.000006
    16  H   -0.054232   0.008188  -0.035957   0.000210   0.000001   0.000000
    17  H    0.368596  -0.023841   0.003415  -0.000114  -0.000002  -0.000000
    18  H    0.367672  -0.029744   0.011290  -0.000019   0.000000   0.000000
    19  H   -0.031534   0.384117  -0.030777  -0.000000   0.000000  -0.000000
    20  H   -0.024323   0.382111  -0.025266  -0.000001   0.000000  -0.000000
    21  H    0.004484  -0.025252   0.370578  -0.000064   0.000000  -0.000000
    22  H    0.010685  -0.029408   0.374253   0.000005  -0.000000   0.000000
    23  H    0.000013   0.000001  -0.000046   0.362186  -0.041967  -0.004168
              13         14         15         16         17         18
     1  F   -0.038539  -0.000614  -0.000148   0.000001   0.000000  -0.000002
     2  C    0.347114  -0.045537  -0.029342  -0.000229  -0.000121   0.000052
     3  C   -0.068829   0.003157   0.354742   0.005777  -0.000005  -0.001267
     4  C   -0.036224  -0.000123  -0.040216  -0.004264   0.002448   0.000088
     5  O    0.000133  -0.000000  -0.007369  -0.040553  -0.001899   0.002434
     6  C    0.000007  -0.000000   0.004561   0.358521  -0.028367  -0.025827
     7  C   -0.000005   0.000000   0.001690  -0.054232   0.368596   0.367672
     8  C   -0.000000  -0.000000  -0.000033   0.008188  -0.023841  -0.029744
     9  C    0.000000  -0.000000  -0.000114  -0.035957   0.003415   0.011290
    10  C   -0.018723   0.002502   0.005072   0.000210  -0.000114  -0.000019
    11  C    0.330571  -0.066005  -0.000006   0.000001  -0.000002   0.000000
    12  Br  -0.047972   0.003808   0.000006   0.000000  -0.000000   0.000000
    13  C    4.904167   0.332287   0.006315  -0.000009   0.000003  -0.000000
    14  F    0.332287   9.038843  -0.000018   0.000000   0.000000  -0.000000
    15  H    0.006315  -0.000018   0.591997   0.000874  -0.000589   0.001846
    16  H   -0.000009   0.000000   0.000874   0.667357   0.005227  -0.006005
    17  H    0.000003   0.000000  -0.000589   0.005227   0.591793  -0.031049
    18  H   -0.000000  -0.000000   0.001846  -0.006005  -0.031049   0.611718
    19  H    0.000000   0.000000  -0.000013   0.000400   0.004173  -0.008618
    20  H    0.000000   0.000000   0.000003  -0.000608  -0.010174   0.003094
    21  H    0.000000   0.000000  -0.000001   0.005093   0.001054  -0.000434
    22  H   -0.000000  -0.000000   0.000004  -0.006787  -0.000400  -0.000611
    23  H    0.005295  -0.000015  -0.000143   0.000039   0.000010  -0.000001
              19         20         21         22         23
     1  F    0.000000  -0.000000   0.000000   0.000000   0.000001
     2  C   -0.000000   0.000000  -0.000000   0.000000  -0.000431
     3  C   -0.000000   0.000003   0.000056   0.000010   0.007895
     4  C    0.000016  -0.000006   0.000388  -0.000107  -0.033399
     5  O   -0.000152  -0.000159   0.001138   0.001980  -0.000206
     6  C    0.002582   0.006704  -0.032189  -0.025220  -0.000126
     7  C   -0.031534  -0.024323   0.004484   0.010685   0.000013
     8  C    0.384117   0.382111  -0.025252  -0.029408   0.000001
     9  C   -0.030777  -0.025266   0.370578   0.374253  -0.000046
    10  C   -0.000000  -0.000001  -0.000064   0.000005   0.362186
    11  C    0.000000   0.000000   0.000000  -0.000000  -0.041967
    12  Br  -0.000000  -0.000000  -0.000000   0.000000  -0.004168
    13  C    0.000000   0.000000   0.000000  -0.000000   0.005295
    14  F    0.000000   0.000000   0.000000  -0.000000  -0.000015
    15  H   -0.000013   0.000003  -0.000001   0.000004  -0.000143
    16  H    0.000400  -0.000608   0.005093  -0.006787   0.000039
    17  H    0.004173  -0.010174   0.001054  -0.000400   0.000010
    18  H   -0.008618   0.003094  -0.000434  -0.000611  -0.000001
    19  H    0.611736  -0.035305   0.004179  -0.008492   0.000000
    20  H   -0.035305   0.601880  -0.009962   0.003103  -0.000000
    21  H    0.004179  -0.009962   0.587439  -0.029232   0.000040
    22  H   -0.008492   0.003103  -0.029232   0.601080   0.000001
    23  H    0.000000  -0.000000   0.000040   0.000001   0.586345
 Mulliken charges:
               1
     1  F   -0.281760
     2  C    0.313402
     3  C   -0.191942
     4  C    0.368057
     5  O   -0.530390
     6  C    0.164682
     7  C   -0.205800
     8  C   -0.208766
     9  C   -0.209158
    10  C   -0.131216
    11  C   -0.014189
    12  Br  -0.089202
    13  C    0.284411
    14  F   -0.268284
    15  H    0.110884
    16  H    0.096954
    17  H    0.119842
    18  H    0.105384
    19  H    0.107689
    20  H    0.108905
    21  H    0.122681
    22  H    0.109135
    23  H    0.118681
 Sum of Mulliken charges =  -0.00000
 Mulliken charges with hydrogens summed into heavy atoms:
               1
     1  F   -0.281760
     2  C    0.313402
     3  C   -0.081058
     4  C    0.368057
     5  O   -0.530390
     6  C    0.261636
     7  C    0.019426
     8  C    0.007828
     9  C    0.022658
    10  C   -0.012535
    11  C   -0.014189
    12  Br  -0.089202
    13  C    0.284411
    14  F   -0.268284
 Electronic spatial extent (au):  <R**2>=           4945.4431
 Charge=             -0.0000 electrons
 Dipole moment (field-independent basis, Debye):
    X=             -3.9227    Y=             -0.6153    Z=             -0.1226  Tot=              3.9726
 Quadrupole moment (field-independent basis, Debye-Ang):
   XX=            -84.2480   YY=            -94.1246   ZZ=            -91.1726
   XY=             -3.4667   XZ=              0.6210   YZ=             -0.7825
 Traceless Quadrupole moment (field-independent basis, Debye-Ang):
   XX=              5.6004   YY=             -4.2762   ZZ=             -1.3242
   XY=             -3.4667   XZ=              0.6210   YZ=             -0.7825
 Octapole moment (field-independent basis, Debye-Ang**2):
  XXX=             59.8675  YYY=            -23.0714  ZZZ=              3.0319  XYY=             31.0441
  XXY=             -8.8904  XXZ=             -3.0964  XZZ=             32.7037  YZZ=             -1.2274
  YYZ=              1.6643  XYZ=              1.9731
 Hexadecapole moment (field-independent basis, Debye-Ang**3):
 XXXX=          -4299.0378 YYYY=          -1052.0622 ZZZZ=           -181.5891 XXXY=           -105.8796
 XXXZ=             41.3085 YYYX=            -84.2137 YYYZ=             -4.8786 ZZZX=             15.4176
 ZZZY=             -5.3886 XXYY=           -902.9095 XXZZ=           -767.9478 YYZZ=           -200.3089
 XXYZ=            -12.8430 YYXZ=              3.5222 ZZXY=            -13.4436
 N-N= 1.180526923817D+03 E-N=-1.004244676914D+04  KE= 3.212039269951D+03
 No NMR shielding tensors so no spin-rotation constants.
 Leave Link  601 at Tue Sep 17 09:45:22 2024, MaxMem=  1342177280 cpu:               0.5 elap:               0.1
 (Enter /groups/ReismanLab/Software/Gaussian16_RevC/Linux_Binary_AVX2-enabled-CPU/g16/l701.exe)
 ... and contract with generalized density number  0.
 Compute integral first derivatives.
 R6Disp: Adding Grimme-D3(BJ) dispersion energy 1st derivatives to the gradient.
 Leave Link  701 at Tue Sep 17 09:45:22 2024, MaxMem=  1342177280 cpu:               0.6 elap:               0.1
 (Enter /groups/ReismanLab/Software/Gaussian16_RevC/Linux_Binary_AVX2-enabled-CPU/g16/l702.exe)
 L702 exits ... SP integral derivatives will be done elsewhere.
 Leave Link  702 at Tue Sep 17 09:45:22 2024, MaxMem=  1342177280 cpu:               0.1 elap:               0.0
 (Enter /groups/ReismanLab/Software/Gaussian16_RevC/Linux_Binary_AVX2-enabled-CPU/g16/l703.exe)
 Integral derivatives from FoFJK, PRISM(SPDF).
 Compute integral first derivatives, UseDBF=F ICtDFT=           0.
 Calling FoFJK, ICntrl=      2127 FMM=F ISym2X=0 I1Cent= 0 IOpClX= 0 NMat=1 NMatS=1 NMatT=0.
 FoFJK:  IHMeth= 1 ICntrl=    2127 DoSepK=F KAlg= 0 I1Cent=           0 FoldK=F
 IRaf=         0 NMat=       1 IRICut=       1 DoRegI=T DoRafI=F ISym2E= 0 IDoP0=0 IntGTp=1.
 FoFCou: FMM=F IPFlag=           0 FMFlag=      100000 FMFlg1=         800
         NFxFlg=           0 DoJE=F BraDBF=F KetDBF=F FulRan=T
         wScrn=  0.000000 ICntrl=      2127 IOpCl=  0 I1Cent=           0 NGrid=           0
         NMat0=    1 NMatS0=      1 NMatT0=    0 NMatD0=    1 NMtDS0=    0 NMtDT0=    0
 Symmetry not used in FoFCou.
 Leave Link  703 at Tue Sep 17 09:45:27 2024, MaxMem=  1342177280 cpu:              35.4 elap:               4.5
 (Enter /groups/ReismanLab/Software/Gaussian16_RevC/Linux_Binary_AVX2-enabled-CPU/g16/l716.exe)
 Dipole        =-1.54331928D+00-2.42062736D-01-4.82449464D-02
 ***** Axes restored to original set *****
 -------------------------------------------------------------------
 Center     Atomic                   Forces (Hartrees/Bohr)
 Number     Number              X              Y              Z
 -------------------------------------------------------------------
      1        9          -0.002755636   -0.001819287    0.000311557
      2        6          -0.001555571   -0.001168128    0.000093577
      3        6           0.005999868   -0.002136382   -0.000784943
      4        6          -0.008934352   -0.002745539    0.000689022
      5        8           0.004240817    0.008818244   -0.001346644
      6        6           0.001092241   -0.001625388   -0.002185242
      7        6          -0.003068515   -0.005391676    0.003110387
      8        6           0.005435610   -0.000615564    0.002185083
      9        6          -0.001157602    0.003129980   -0.004975456
     10        6           0.004527872    0.005793629   -0.000328392
     11        6          -0.001910864   -0.000711584    0.000242645
     12       35          -0.002461039    0.000746757    0.000217086
     13        6          -0.005043036   -0.000879099    0.000554661
     14        9           0.000232629   -0.002963071   -0.000007801
     15        1           0.002754899   -0.002513422   -0.000197123
     16        1          -0.000702677   -0.000819254   -0.000606618
     17        1          -0.002394102    0.000640988    0.002280409
     18        1          -0.001348114   -0.003842160    0.001456987
     19        1           0.003306445   -0.001851561   -0.000449409
     20        1           0.003000248    0.000816803    0.002668182
     21        1          -0.001138977    0.003534587    0.000837774
     22        1           0.001525421    0.002066649   -0.003649353
     23        1           0.000354435    0.003534479   -0.000116389
 -------------------------------------------------------------------
 Cartesian Forces:  Max     0.008934352 RMS     0.002931695
 Leave Link  716 at Tue Sep 17 09:45:27 2024, MaxMem=  1342177280 cpu:               0.1 elap:               0.0
 (Enter /groups/ReismanLab/Software/Gaussian16_RevC/Linux_Binary_AVX2-enabled-CPU/g16/l103.exe)

 GradGradGradGradGradGradGradGradGradGradGradGradGradGradGradGradGradGrad
 Berny optimization.
 FormGI is forming the generalized inverse of G from B-inverse, IUseBI=4.
 Internal  Forces:  Max     0.010065505 RMS     0.002513687
 Search for a local minimum.
 Step number   1 out of a maximum of  138
 All quantities printed in internal units (Hartrees-Bohrs-Radians)
 RMS Force = .25137D-02 SwitMx=.10000D-02 MixMth= 1
 Mixed Optimization -- RFO/linear search
 Second derivative matrix not updated -- first step.
 ITU=  0
     Eigenvalues ---    0.00298   0.01509   0.02155   0.02209   0.02225
     Eigenvalues ---    0.02236   0.02238   0.02267   0.02273   0.02285
     Eigenvalues ---    0.02304   0.02327   0.02421   0.02461   0.03418
     Eigenvalues ---    0.04784   0.04811   0.04866   0.04919   0.05324
     Eigenvalues ---    0.05856   0.06115   0.06311   0.06772   0.06842
     Eigenvalues ---    0.08119   0.08366   0.10437   0.16000   0.16000
     Eigenvalues ---    0.18669   0.20840   0.23485   0.23493   0.25000
     Eigenvalues ---    0.25000   0.25000   0.25000   0.25000   0.25000
     Eigenvalues ---    0.26193   0.26575   0.28395   0.28797   0.34139
     Eigenvalues ---    0.35050   0.35070   0.35128   0.35191   0.35214
     Eigenvalues ---    0.35221   0.36280   0.36423   0.42852   0.43400
     Eigenvalues ---    0.43511   0.46769   0.46992   0.47918   0.48903
     Eigenvalues ---    0.56123   0.56918   0.57118
 RFO step:  Lambda=-2.78189073D-03 EMin= 2.97642334D-03
 Linear search not attempted -- first point.
 Iteration  1 RMS(Cart)=  0.03949901 RMS(Int)=  0.00076010
 Iteration  2 RMS(Cart)=  0.00112167 RMS(Int)=  0.00006357
 Iteration  3 RMS(Cart)=  0.00000063 RMS(Int)=  0.00006357
 ITry= 1 IFail=0 DXMaxC= 1.56D-01 DCOld= 1.00D+10 DXMaxT= 3.00D-01 DXLimC= 3.00D+00 Rises=F
 Variable       Old X    -DE/DX   Delta X   Delta X   Delta X     New X
                                 (Linear)    (Quad)   (Total)
    R1        2.53466   0.00212   0.00000   0.00371   0.00371   2.53837
    R2        2.61436   0.00655   0.00000   0.01322   0.01322   2.62758
    R3        2.62139   0.00210   0.00000   0.00400   0.00399   2.62538
    R4        2.63302   0.00632   0.00000   0.01359   0.01359   2.64661
    R5        2.03424   0.00373   0.00000   0.01016   0.01016   2.04441
    R6        2.54148   0.01007   0.00000   0.01785   0.01785   2.55932
    R7        2.64221   0.00467   0.00000   0.01049   0.01049   2.65270
    R8        2.67179   0.00586   0.00000   0.01341   0.01341   2.68520
    R9        2.91378   0.00641   0.00000   0.02130   0.02129   2.93507
   R10        2.90071   0.00428   0.00000   0.01341   0.01340   2.91412
   R11        2.07096   0.00103   0.00000   0.00301   0.00301   2.07397
   R12        2.90440   0.00905   0.00000   0.03237   0.03239   2.93679
   R13        2.05593   0.00321   0.00000   0.00909   0.00909   2.06502
   R14        2.05561   0.00379   0.00000   0.01072   0.01072   2.06633
   R15        2.90435   0.00942   0.00000   0.03348   0.03348   2.93783
   R16        2.05467   0.00361   0.00000   0.01018   0.01018   2.06486
   R17        2.05329   0.00364   0.00000   0.01025   0.01025   2.06354
   R18        2.05365   0.00377   0.00000   0.01062   0.01062   2.06428
   R19        2.05318   0.00406   0.00000   0.01142   0.01142   2.06460
   R20        2.60690   0.00861   0.00000   0.01760   0.01761   2.62451
   R21        2.03646   0.00355   0.00000   0.00971   0.00971   2.04617
   R22        3.57456   0.00242   0.00000   0.01280   0.01280   3.58736
   R23        2.62794   0.00513   0.00000   0.01066   0.01065   2.63859
   R24        2.53296   0.00095   0.00000   0.00166   0.00166   2.53462
    A1        2.07198   0.00265   0.00000   0.01083   0.01084   2.08282
    A2        2.08805  -0.00381   0.00000  -0.01474  -0.01474   2.07332
    A3        2.12315   0.00116   0.00000   0.00390   0.00389   2.12704
    A4        2.08617  -0.00193   0.00000  -0.00837  -0.00836   2.07781
    A5        2.06235   0.00078   0.00000   0.00306   0.00306   2.06541
    A6        2.13464   0.00115   0.00000   0.00530   0.00530   2.13994
    A7        2.17883  -0.00341   0.00000  -0.01416  -0.01417   2.16466
    A8        2.08012   0.00247   0.00000   0.01111   0.01112   2.09124
    A9        2.02424   0.00094   0.00000   0.00305   0.00304   2.02728
   A10        2.08662  -0.00496   0.00000  -0.01962  -0.01962   2.06701
   A11        2.04157  -0.00030   0.00000   0.00331   0.00332   2.04488
   A12        1.94916  -0.00049   0.00000   0.00430   0.00433   1.95349
   A13        1.91919  -0.00021   0.00000  -0.01112  -0.01118   1.90801
   A14        1.56249   0.00205   0.00000   0.00768   0.00740   1.56989
   A15        1.98563  -0.00052   0.00000  -0.00306  -0.00300   1.98263
   A16        1.98389  -0.00023   0.00000   0.00321   0.00333   1.98721
   A17        1.55907  -0.00103   0.00000  -0.00926  -0.00949   1.54957
   A18        1.94696  -0.00019   0.00000  -0.00631  -0.00627   1.94069
   A19        2.02977   0.00067   0.00000   0.00500   0.00517   2.03494
   A20        1.97394   0.00077   0.00000   0.00820   0.00824   1.98218
   A21        2.02703   0.00077   0.00000   0.01189   0.01191   2.03893
   A22        1.90786  -0.00089   0.00000  -0.00869  -0.00881   1.89906
   A23        1.56446  -0.00061   0.00000  -0.00297  -0.00319   1.56127
   A24        1.96874   0.00053   0.00000   0.00596   0.00598   1.97473
   A25        2.01997   0.00039   0.00000   0.00347   0.00356   2.02353
   A26        1.97047   0.00052   0.00000   0.00614   0.00613   1.97660
   A27        2.02024   0.00040   0.00000   0.00337   0.00351   2.02375
   A28        1.90331  -0.00103   0.00000  -0.01278  -0.01282   1.89049
   A29        1.56354  -0.00045   0.00000  -0.00703  -0.00731   1.55623
   A30        1.93377  -0.00012   0.00000  -0.00331  -0.00325   1.93052
   A31        2.02278   0.00040   0.00000   0.00437   0.00451   2.02729
   A32        1.97658   0.00045   0.00000   0.00461   0.00468   1.98126
   A33        2.03725   0.00049   0.00000   0.00945   0.00950   2.04675
   A34        1.90974  -0.00067   0.00000  -0.00747  -0.00755   1.90219
   A35        2.10215  -0.00286   0.00000  -0.01116  -0.01115   2.09100
   A36        2.07556   0.00153   0.00000   0.00622   0.00621   2.08177
   A37        2.10548   0.00133   0.00000   0.00494   0.00494   2.11041
   A38        2.09512   0.00115   0.00000   0.00430   0.00431   2.09943
   A39        2.10680   0.00086   0.00000   0.00390   0.00390   2.11070
   A40        2.08126  -0.00201   0.00000  -0.00821  -0.00821   2.07306
   A41        2.06797   0.00030   0.00000   0.00062   0.00060   2.06857
   A42        2.10827  -0.00372   0.00000  -0.01442  -0.01441   2.09386
   A43        2.10694   0.00342   0.00000   0.01381   0.01381   2.12075
    D1        3.14155   0.00004   0.00000   0.00142   0.00142  -3.14022
    D2       -0.00595  -0.00001   0.00000  -0.00051  -0.00051  -0.00646
    D3       -0.00284   0.00001   0.00000   0.00034   0.00034  -0.00250
    D4        3.13285  -0.00004   0.00000  -0.00159  -0.00159   3.13126
    D5        3.13857  -0.00000   0.00000  -0.00045  -0.00044   3.13813
    D6       -0.00087  -0.00002   0.00000  -0.00094  -0.00093  -0.00180
    D7       -0.00021   0.00002   0.00000   0.00060   0.00060   0.00039
    D8       -3.13965  -0.00000   0.00000   0.00011   0.00011  -3.13954
    D9       -3.13791  -0.00005   0.00000  -0.00187  -0.00186  -3.13977
   D10        0.00403  -0.00002   0.00000  -0.00092  -0.00092   0.00311
   D11        0.00984   0.00001   0.00000   0.00016   0.00016   0.01000
   D12       -3.13140   0.00003   0.00000   0.00110   0.00110  -3.13030
   D13        0.03108  -0.00009   0.00000  -0.00315  -0.00315   0.02793
   D14       -3.11085  -0.00011   0.00000  -0.00406  -0.00406  -3.11491
   D15       -0.00227   0.00001   0.00000   0.00060   0.00060  -0.00167
   D16        3.14053   0.00004   0.00000   0.00168   0.00168  -3.14097
   D17        3.13964   0.00004   0.00000   0.00147   0.00147   3.14112
   D18       -0.00074   0.00006   0.00000   0.00255   0.00256   0.00182
   D19       -1.30912   0.00099   0.00000   0.00176   0.00164  -1.30749
   D20       -3.07340  -0.00110   0.00000  -0.01192  -0.01180  -3.08521
   D21        0.99049  -0.00026   0.00000  -0.01079  -0.01079   0.97970
   D22       -2.17634  -0.00074   0.00000  -0.04173  -0.04176  -2.21810
   D23       -0.17518  -0.00037   0.00000  -0.03784  -0.03784  -0.21302
   D24        2.02893  -0.00122   0.00000  -0.05148  -0.05143   1.97749
   D25       -0.18279  -0.00022   0.00000  -0.03183  -0.03190  -0.21469
   D26        1.81837   0.00014   0.00000  -0.02794  -0.02799   1.79039
   D27       -2.26071  -0.00071   0.00000  -0.04158  -0.04158  -2.30228
   D28        1.83804   0.00041   0.00000  -0.02515  -0.02523   1.81282
   D29       -2.44398   0.00077   0.00000  -0.02126  -0.02132  -2.46529
   D30       -0.23987  -0.00007   0.00000  -0.03491  -0.03491  -0.27478
   D31        2.25973   0.00069   0.00000   0.03974   0.03976   2.29949
   D32        0.25603   0.00041   0.00000   0.03822   0.03824   0.29427
   D33       -1.93320   0.00111   0.00000   0.04782   0.04778  -1.88542
   D34        0.18279   0.00020   0.00000   0.03175   0.03180   0.21459
   D35       -1.82091  -0.00008   0.00000   0.03023   0.03028  -1.79063
   D36        2.27305   0.00062   0.00000   0.03983   0.03982   2.31286
   D37       -1.83963  -0.00017   0.00000   0.03078   0.03083  -1.80880
   D38        2.43986  -0.00046   0.00000   0.02926   0.02931   2.46917
   D39        0.25063   0.00024   0.00000   0.03886   0.03885   0.28948
   D40        0.18256  -0.00010   0.00000   0.03053   0.03038   0.21294
   D41       -1.82107  -0.00050   0.00000   0.02402   0.02397  -1.79710
   D42        2.25316   0.00013   0.00000   0.03364   0.03355   2.28671
   D43       -1.79365   0.00046   0.00000   0.04033   0.04031  -1.75334
   D44        2.48590   0.00006   0.00000   0.03381   0.03390   2.51980
   D45        0.27695   0.00068   0.00000   0.04344   0.04348   0.32043
   D46        2.26290   0.00030   0.00000   0.03421   0.03408   2.29698
   D47        0.25927  -0.00010   0.00000   0.02769   0.02767   0.28694
   D48       -1.94968   0.00053   0.00000   0.03732   0.03725  -1.91243
   D49       -0.18338  -0.00003   0.00000  -0.03116  -0.03109  -0.21447
   D50        1.78081  -0.00030   0.00000  -0.03727  -0.03727   1.74354
   D51       -2.26095  -0.00037   0.00000  -0.03474  -0.03466  -2.29560
   D52        1.81867   0.00037   0.00000  -0.02482  -0.02481   1.79386
   D53       -2.50032   0.00010   0.00000  -0.03093  -0.03100  -2.53132
   D54       -0.25890   0.00003   0.00000  -0.02839  -0.02838  -0.28728
   D55       -2.25375  -0.00025   0.00000  -0.03435  -0.03430  -2.28805
   D56       -0.28955  -0.00052   0.00000  -0.04047  -0.04049  -0.33005
   D57        1.95187  -0.00059   0.00000  -0.03793  -0.03787   1.91400
   D58        3.14145   0.00003   0.00000   0.00109   0.00109  -3.14064
   D59       -0.00079   0.00001   0.00000   0.00031   0.00032  -0.00048
   D60       -0.00138   0.00000   0.00000  -0.00001  -0.00001  -0.00138
   D61        3.13957  -0.00002   0.00000  -0.00079  -0.00079   3.13878
   D62        0.00203  -0.00002   0.00000  -0.00091  -0.00091   0.00112
   D63        3.14147  -0.00001   0.00000  -0.00045  -0.00045   3.14102
   D64       -3.14020  -0.00004   0.00000  -0.00167  -0.00167   3.14131
   D65       -0.00076  -0.00003   0.00000  -0.00122  -0.00121  -0.00197
         Item               Value     Threshold  Converged?
 Maximum Force            0.010066     0.000450     NO 
 RMS     Force            0.002514     0.000300     NO 
 Maximum Displacement     0.155855     0.001800     NO 
 RMS     Displacement     0.039680     0.001200     NO 
 Predicted change in Energy=-1.463206D-03
 Lowest energy point so far.  Saving SCF results.
 GradGradGradGradGradGradGradGradGradGradGradGradGradGradGradGradGradGrad

 Leave Link  103 at Tue Sep 17 09:45:27 2024, MaxMem=  1342177280 cpu:               0.1 elap:               0.0
 (Enter /groups/ReismanLab/Software/Gaussian16_RevC/Linux_Binary_AVX2-enabled-CPU/g16/l202.exe)
                          Input orientation:                          
 ---------------------------------------------------------------------
 Center     Atomic      Atomic             Coordinates (Angstroms)
 Number     Number       Type             X           Y           Z
 ---------------------------------------------------------------------
      1          9           0       -0.423339   -3.186684   -0.076272
      2          6           0       -0.275022   -1.851883   -0.101125
      3          6           0        0.999334   -1.310295   -0.227872
      4          6           0        1.147196    0.082204   -0.251450
      5          8           0        2.337954    0.715918   -0.372789
      6          6           0        3.511696   -0.071634   -0.518309
      7          6           0        4.046698   -0.788263    0.751559
      8          6           0        5.436724   -0.144931    0.488649
      9          6           0        4.785561    0.796267   -0.563496
     10          6           0        0.015858    0.906218   -0.143827
     11          6           0       -1.244025    0.335826   -0.016560
     12         35           0       -2.783421    1.437173    0.128419
     13          6           0       -1.405167   -1.050949    0.005691
     14          9           0       -2.616260   -1.614062    0.128752
     15          1           0        1.840440   -1.987163   -0.297136
     16          1           0        3.397280   -0.737494   -1.383204
     17          1           0        3.555390   -0.413907    1.653003
     18          1           0        4.000971   -1.880760    0.752992
     19          1           0        6.157818   -0.842462    0.055738
     20          1           0        5.905270    0.346145    1.344055
     21          1           0        4.580906    1.799678   -0.183298
     22          1           0        5.278439    0.877961   -1.535113
     23          1           0        0.140255    1.981654   -0.163649
 ---------------------------------------------------------------------
                    Distance matrix (angstroms):
                    1          2          3          4          5
     1  F    0.000000
     2  C    1.343246   0.000000
     3  C    2.359622   1.390455   0.000000
     4  C    3.630826   2.405409   1.400525   0.000000
     5  O    4.789882   3.673561   2.432785   1.354335   0.000000
     6  C    5.038198   4.205064   2.816132   2.384479   1.420945
     7  C    5.139938   4.531625   3.243183   3.189178   2.539001
     8  C    6.626593   5.990456   4.643480   4.358829   3.329491
     9  C    6.575251   5.730269   4.345775   3.720882   2.456340
    10  C    4.116954   2.773726   2.426359   1.403748   2.341104
    11  C    3.617342   2.394199   2.790524   2.416078   3.619660
    12  Br   5.195377   4.142782   4.688790   4.174924   5.196142
    13  C    2.352035   1.389292   2.429698   2.804409   4.156443
    14  F    2.706303   2.364487   3.645816   4.145536   5.497689
    15  H    2.571445   2.128826   1.081854   2.182877   2.749526
    16  H    4.722683   4.046158   2.722690   2.648707   2.062891
    17  H    5.148687   4.451606   3.297670   3.110059   2.619635
    18  H    4.686965   4.360558   3.208949   3.606406   3.282644
    19  H    6.987449   6.513445   5.187414   5.104479   4.147716
    20  H    7.385764   6.716836   5.411374   5.025393   3.976183
    21  H    7.065248   6.076239   4.743583   3.839886   2.498254
    22  H    7.152610   6.352110   4.980772   4.398658   3.166024
    23  H    5.199711   3.856471   3.402803   2.151639   2.544741
                    6          7          8          9         10
     6  C    0.000000
     7  C    1.553175   0.000000
     8  C    2.173723   1.554082   0.000000
     9  C    1.542085   2.187698   1.554630   0.000000
    10  C    3.649290   4.463256   5.557943   4.789392   0.000000
    11  C    4.799443   5.463088   6.717051   6.071824   1.388830
    12  Br   6.505632   7.210506   8.378759   7.627515   2.862166
[...]
                 (A) (A) (A) (A) (A) (A) (A) (A) (A) (A) (A) (A)
                 (A) (A) (A) (A) (A) (A) (A) (A)
 The electronic state is 1-A.
 Alpha  occ. eigenvalues -- -485.38693 -63.37160 -57.19117 -57.18866 -57.18855
 Alpha  occ. eigenvalues --  -25.27540 -25.27408 -19.66810 -10.65175 -10.64530
 Alpha  occ. eigenvalues --  -10.62855 -10.62089 -10.60351 -10.56483 -10.56270
 Alpha  occ. eigenvalues --  -10.54103 -10.54070 -10.53927  -9.03803  -6.86251
 Alpha  occ. eigenvalues --   -6.85319  -6.85281  -2.89628  -2.89295  -2.89254
 Alpha  occ. eigenvalues --   -2.88386  -2.88386  -1.39651  -1.38266  -1.20423
 Alpha  occ. eigenvalues --   -0.99749  -0.95619  -0.91528  -0.86598  -0.83797
 Alpha  occ. eigenvalues --   -0.77214  -0.76024  -0.73485  -0.70572  -0.66140
 Alpha  occ. eigenvalues --   -0.65131  -0.63297  -0.61783  -0.60114  -0.59822
 Alpha  occ. eigenvalues --   -0.56955  -0.56781  -0.54840  -0.52991  -0.52164
 Alpha  occ. eigenvalues --   -0.51920  -0.49337  -0.48502  -0.46060  -0.45759
 Alpha  occ. eigenvalues --   -0.44289  -0.42736  -0.40760  -0.40048  -0.38465
 Alpha  occ. eigenvalues --   -0.37577  -0.36419  -0.36077  -0.31240  -0.28920
 Alpha virt. eigenvalues --   -0.00110   0.02197   0.02277   0.06681   0.08359
 Alpha virt. eigenvalues --    0.09225   0.09870   0.10483   0.11775   0.12998
 Alpha virt. eigenvalues --    0.13537   0.15322   0.15724   0.16978   0.17567
 Alpha virt. eigenvalues --    0.17644   0.18362   0.19283   0.20158   0.21444
 Alpha virt. eigenvalues --    0.21828   0.22175   0.22797   0.22993   0.23459
 Alpha virt. eigenvalues --    0.23991   0.24750   0.25454   0.25796   0.26950
 Alpha virt. eigenvalues --    0.27666   0.28630   0.29517   0.30629   0.31153
 Alpha virt. eigenvalues --    0.31738   0.33073   0.33646   0.34222   0.35672
 Alpha virt. eigenvalues --    0.36155   0.36334   0.36918   0.37835   0.38905
 Alpha virt. eigenvalues --    0.39099   0.39776   0.40629   0.41109   0.41645
 Alpha virt. eigenvalues --    0.42168   0.43139   0.44017   0.44645   0.45021
 Alpha virt. eigenvalues --    0.45888   0.46431   0.46800   0.47694   0.47827
 Alpha virt. eigenvalues --    0.48233   0.49786   0.50198   0.50441   0.51048
 Alpha virt. eigenvalues --    0.51829   0.52269   0.53814   0.54883   0.55641
 Alpha virt. eigenvalues --    0.56488   0.57449   0.58396   0.61097   0.61658
 Alpha virt. eigenvalues --    0.62181   0.64516   0.66054   0.66795   0.68263
 Alpha virt. eigenvalues --    0.68456   0.68722   0.69891   0.71474   0.73111
 Alpha virt. eigenvalues --    0.73573   0.74873   0.75883   0.76509   0.78210
 Alpha virt. eigenvalues --    0.78727   0.80133   0.81110   0.84516   0.85512
 Alpha virt. eigenvalues --    0.86670   0.87575   0.89869   0.90547   0.90790
 Alpha virt. eigenvalues --    0.91929   0.92237   0.92776   0.94042   0.94878
 Alpha virt. eigenvalues --    0.96617   0.97567   0.98194   0.98395   1.00653
 Alpha virt. eigenvalues --    1.01697   1.01943   1.02870   1.03880   1.04540
 Alpha virt. eigenvalues --    1.05632   1.06725   1.07776   1.09080   1.09858
 Alpha virt. eigenvalues --    1.11650   1.13804   1.14385   1.15332   1.17417
 Alpha virt. eigenvalues --    1.18432   1.19612   1.20345   1.21329   1.21612
 Alpha virt. eigenvalues --    1.22628   1.23943   1.25096   1.26609   1.27922
 Alpha virt. eigenvalues --    1.29422   1.31810   1.33824   1.35376   1.37541
 Alpha virt. eigenvalues --    1.38512   1.39988   1.41249   1.42748   1.44974
 Alpha virt. eigenvalues --    1.45233   1.46553   1.48090   1.49356   1.49798
 Alpha virt. eigenvalues --    1.52365   1.53382   1.55131   1.56145   1.56529
 Alpha virt. eigenvalues --    1.57172   1.58453   1.59205   1.59692   1.62323
 Alpha virt. eigenvalues --    1.63770   1.64176   1.64468   1.65318   1.65609
 Alpha virt. eigenvalues --    1.66372   1.67809   1.71157   1.72823   1.73906
 Alpha virt. eigenvalues --    1.75954   1.76694   1.76836   1.77441   1.78356
 Alpha virt. eigenvalues --    1.78841   1.79763   1.80493   1.81788   1.83155
 Alpha virt. eigenvalues --    1.83897   1.84448   1.86072   1.86804   1.87912
 Alpha virt. eigenvalues --    1.90429   1.92305   1.92580   1.94807   1.96969
 Alpha virt. eigenvalues --    1.98925   2.00490   2.01527   2.02755   2.03048
 Alpha virt. eigenvalues --    2.04800   2.07257   2.09084   2.09695   2.12376
 Alpha virt. eigenvalues --    2.13071   2.15592   2.16593   2.17889   2.19470
 Alpha virt. eigenvalues --    2.20314   2.20906   2.21259   2.24237   2.26430
 Alpha virt. eigenvalues --    2.27608   2.31380   2.32033   2.33593   2.35353
 Alpha virt. eigenvalues --    2.35622   2.41852   2.43333   2.44717   2.47086
 Alpha virt. eigenvalues --    2.48117   2.49197   2.50069   2.50874   2.52328
 Alpha virt. eigenvalues --    2.52884   2.53737   2.55130   2.56037   2.57305
 Alpha virt. eigenvalues --    2.58908   2.59894   2.60603   2.61353   2.61975
 Alpha virt. eigenvalues --    2.63016   2.64879   2.65519   2.65993   2.67379
 Alpha virt. eigenvalues --    2.68451   2.69795   2.70989   2.72011   2.72880
 Alpha virt. eigenvalues --    2.74193   2.75142   2.76738   2.76933   2.79114
 Alpha virt. eigenvalues --    2.81156   2.82009   2.82789   2.83853   2.84464
 Alpha virt. eigenvalues --    2.85758   2.87351   2.87960   2.89184   2.90441
 Alpha virt. eigenvalues --    2.91437   2.92074   2.93178   2.94376   2.97909
 Alpha virt. eigenvalues --    2.98340   2.99628   3.00830   3.02776   3.03376
 Alpha virt. eigenvalues --    3.04781   3.05973   3.06290   3.07744   3.10773
 Alpha virt. eigenvalues --    3.11780   3.12415   3.13461   3.14072   3.15633
 Alpha virt. eigenvalues --    3.17782   3.18987   3.20371   3.20854   3.21785
 Alpha virt. eigenvalues --    3.22983   3.23383   3.24785   3.25064   3.27889
 Alpha virt. eigenvalues --    3.29302   3.29814   3.31020   3.31559   3.32920
 Alpha virt. eigenvalues --    3.34222   3.35103   3.35816   3.37472   3.39150
 Alpha virt. eigenvalues --    3.40075   3.40844   3.42593   3.43524   3.44632
 Alpha virt. eigenvalues --    3.46300   3.46518   3.46913   3.49773   3.50327
 Alpha virt. eigenvalues --    3.53615   3.54945   3.55483   3.57453   3.58730
 Alpha virt. eigenvalues --    3.59823   3.61001   3.61775   3.63513   3.64932
 Alpha virt. eigenvalues --    3.67929   3.70665   3.74138   3.75130   3.76927
 Alpha virt. eigenvalues --    3.78914   3.80131   3.82338   3.83516   3.84511
 Alpha virt. eigenvalues --    3.85963   3.91855   3.92562   3.95014   3.99227
 Alpha virt. eigenvalues --    3.99886   4.00048   4.01601   4.02864   4.05250
 Alpha virt. eigenvalues --    4.05459   4.07370   4.07792   4.08411   4.09913
 Alpha virt. eigenvalues --    4.11008   4.11890   4.13050   4.14084   4.14382
 Alpha virt. eigenvalues --    4.15331   4.17313   4.18575   4.20926   4.21791
 Alpha virt. eigenvalues --    4.24540   4.25271   4.30032   4.31966   4.37006
 Alpha virt. eigenvalues --    4.38628   4.39749   4.40937   4.42400   4.47781
 Alpha virt. eigenvalues --    4.48814   4.51178   4.52131   4.54531   4.55293
 Alpha virt. eigenvalues --    4.57078   4.62366   4.66135   4.67950   4.75183
 Alpha virt. eigenvalues --    4.75658   4.81562   4.83193   4.87670   4.90088
 Alpha virt. eigenvalues --    4.90946   4.96201   4.99671   5.05760   5.11098
 Alpha virt. eigenvalues --    5.23323   5.26582   5.30463   5.36958   5.46549
 Alpha virt. eigenvalues --    5.58691   5.65296   5.79565   5.92665   5.99164
 Alpha virt. eigenvalues --    6.30981   6.47785   6.64963   6.77713   6.89418
 Alpha virt. eigenvalues --    6.90281   6.90851   6.91126   6.91355   6.96666
 Alpha virt. eigenvalues --    7.02817   7.03997   7.14541   7.18145   7.24036
 Alpha virt. eigenvalues --    7.31303   7.32719   7.41070   7.42364   7.50691
 Alpha virt. eigenvalues --    7.74088   7.86751   8.32813   8.38081   8.49673
 Alpha virt. eigenvalues --    8.60025   8.70661   8.79475   8.84960   8.96638
 Alpha virt. eigenvalues --    9.00392   9.10504  22.21405  22.46148  22.54265
 Alpha virt. eigenvalues --   22.64980  22.78112  22.81817  22.84146  22.92517
 Alpha virt. eigenvalues --   23.04830  23.42491  44.56400  57.39702  57.61403
          Condensed to atoms (all electrons):
               1          2          3          4          5          6
     1  F    9.019131   0.243818  -0.043710   0.005796  -0.000056  -0.000089
     2  C    0.243818   4.821859   0.341238   0.035288   0.004257  -0.009375
     3  C   -0.043710   0.341238   5.418661   0.274789  -0.067797   0.020155
     4  C    0.005796   0.035288   0.274789   4.873703   0.327508  -0.096563
     5  O   -0.000056   0.004257  -0.067797   0.327508   7.941694   0.227218
     6  C   -0.000089  -0.009375   0.020155  -0.096563   0.227218   5.290743
     7  C   -0.000023   0.001678  -0.007539   0.006714  -0.050802   0.186201
     8  C    0.000001  -0.000239   0.001759  -0.001960   0.012162  -0.083053
     9  C   -0.000003   0.000636  -0.002880   0.007328  -0.040569   0.180124
    10  C    0.000955  -0.080127   0.005838   0.399436  -0.057912   0.004462
    11  C    0.011503   0.018615  -0.051826   0.001436   0.005357  -0.001522
    12  Br  -0.000180   0.007986  -0.001563   0.014594  -0.000262  -0.000024
    13  C   -0.047461   0.470528  -0.026851  -0.070688  -0.000427   0.001635
    14  F    0.000878  -0.048201   0.011635  -0.002530  -0.000001  -0.000002
    15  H    0.004078  -0.007795   0.391657  -0.039422  -0.004731   0.010815
    16  H    0.000023  -0.001435   0.007039  -0.009735  -0.045243   0.463499
    17  H    0.000003  -0.000223  -0.002253   0.000718   0.003637  -0.019203
    18  H   -0.000028   0.001855  -0.001600  -0.002227   0.003640  -0.050260
    19  H   -0.000000   0.000012   0.000024   0.000112  -0.000376   0.005347
    20  H   -0.000000   0.000002  -0.000044   0.000056  -0.000495   0.014318
    21  H    0.000000  -0.000022   0.000396  -0.000086   0.003555  -0.036066
    22  H    0.000000  -0.000011   0.000096  -0.000184   0.002218  -0.041715
    23  H    0.000014  -0.002399   0.008061  -0.030073   0.008073   0.001523
               7          8          9         10         11         12
     1  F   -0.000023   0.000001  -0.000003   0.000955   0.011503  -0.000180
     2  C    0.001678  -0.000239   0.000636  -0.080127   0.018615   0.007986
     3  C   -0.007539   0.001759  -0.002880   0.005838  -0.051826  -0.001563
     4  C    0.006714  -0.001960   0.007328   0.399436   0.001436   0.014594
     5  O   -0.050802   0.012162  -0.040569  -0.057912   0.005357  -0.000262
     6  C    0.186201  -0.083053   0.180124   0.004462  -0.001522  -0.000024
     7  C    5.361171   0.221771  -0.090448   0.001055   0.000130   0.000004
     8  C    0.221771   5.154563   0.228989   0.000223  -0.000029  -0.000000
     9  C   -0.090448   0.228989   5.243408  -0.001767   0.000138   0.000001
    10  C    0.001055   0.000223  -0.001767   5.293145   0.346196  -0.081290
    11  C    0.000130  -0.000029   0.000138   0.346196   5.187703   0.370014
    12  Br   0.000004  -0.000000   0.000001  -0.081290   0.370014  34.852174
    13  C   -0.000349   0.000024  -0.000103   0.033810   0.216703  -0.092286
    14  F    0.000001  -0.000000   0.000000   0.010044  -0.073269  -0.001124
    15  H   -0.005758   0.000709  -0.000444   0.004341  -0.002129   0.000027
    16  H   -0.100735   0.019626  -0.042397   0.004210  -0.000358   0.000000
    17  H    0.385734  -0.022548  -0.001816   0.001595  -0.000099  -0.000001
    18  H    0.420793  -0.040787   0.022883  -0.000608   0.000045   0.000000
    19  H   -0.034633   0.421573  -0.039728   0.000010   0.000000  -0.000000
    20  H   -0.034920   0.425002  -0.037316  -0.000004   0.000000  -0.000000
    21  H    0.001373  -0.034398   0.420020   0.000200   0.000004  -0.000000
    22  H    0.018351  -0.037667   0.419378   0.000028  -0.000003   0.000000
    23  H   -0.000215   0.000060  -0.000392   0.389213  -0.021618  -0.005214
              13         14         15         16         17         18
     1  F   -0.047461   0.000878   0.004078   0.000023   0.000003  -0.000028
     2  C    0.470528  -0.048201  -0.007795  -0.001435  -0.000223   0.001855
     3  C   -0.026851   0.011635   0.391657   0.007039  -0.002253  -0.001600
     4  C   -0.070688  -0.002530  -0.039422  -0.009735   0.000718  -0.002227
     5  O   -0.000427  -0.000001  -0.004731  -0.045243   0.003637   0.003640
     6  C    0.001635  -0.000002   0.010815   0.463499  -0.019203  -0.050260
     7  C   -0.000349   0.000001  -0.005758  -0.100735   0.385734   0.420793
     8  C    0.000024  -0.000000   0.000709   0.019626  -0.022548  -0.040787
     9  C   -0.000103   0.000000  -0.000444  -0.042397  -0.001816   0.022883
    10  C    0.033810   0.010044   0.004341   0.004210   0.001595  -0.000608
    11  C    0.216703  -0.073269  -0.002129  -0.000358  -0.000099   0.000045
    12  Br  -0.092286  -0.001124   0.000027   0.000000  -0.000001   0.000000
    13  C    5.028503   0.283975   0.008763   0.000212   0.000103  -0.000028
    14  F    0.283975   9.007036  -0.000082   0.000000  -0.000000  -0.000000
    15  H    0.008763  -0.000082   0.449742  -0.000810   0.000512  -0.000421
    16  H    0.000212   0.000000  -0.000810   0.539458   0.007152  -0.002208
    17  H    0.000103  -0.000000   0.000512   0.007152   0.507951  -0.017432
    18  H   -0.000028  -0.000000  -0.000421  -0.002208  -0.017432   0.523015
    19  H   -0.000000   0.000000   0.000011  -0.001176   0.002842  -0.004843
    20  H   -0.000000  -0.000000  -0.000020  -0.000836  -0.007092   0.001439
    21  H    0.000007   0.000000   0.000031   0.004575   0.000710  -0.000399
    22  H    0.000001   0.000000   0.000002  -0.004683  -0.000459  -0.000774
    23  H    0.008509   0.000017  -0.000083   0.000194   0.000082  -0.000014
              19         20         21         22         23
     1  F   -0.000000  -0.000000   0.000000   0.000000   0.000014
     2  C    0.000012   0.000002  -0.000022  -0.000011  -0.002399
     3  C    0.000024  -0.000044   0.000396   0.000096   0.008061
     4  C    0.000112   0.000056  -0.000086  -0.000184  -0.030073
     5  O   -0.000376  -0.000495   0.003555   0.002218   0.008073
     6  C    0.005347   0.014318  -0.036066  -0.041715   0.001523
     7  C   -0.034633  -0.034920   0.001373   0.018351  -0.000215
     8  C    0.421573   0.425002  -0.034398  -0.037667   0.000060
     9  C   -0.039728  -0.037316   0.420020   0.419378  -0.000392
    10  C    0.000010  -0.000004   0.000200   0.000028   0.389213
    11  C    0.000000   0.000000   0.000004  -0.000003  -0.021618
    12  Br  -0.000000  -0.000000  -0.000000   0.000000  -0.005214
    13  C   -0.000000  -0.000000   0.000007   0.000001   0.008509
    14  F    0.000000  -0.000000   0.000000   0.000000   0.000017
    15  H    0.000011  -0.000020   0.000031   0.000002  -0.000083
    16  H   -0.001176  -0.000836   0.004575  -0.004683   0.000194
    17  H    0.002842  -0.007092   0.000710  -0.000459   0.000082
    18  H   -0.004843   0.001439  -0.000399  -0.000774  -0.000014
    19  H    0.517365  -0.017012   0.003040  -0.004541  -0.000000
    20  H   -0.017012   0.516467  -0.005914   0.001517  -0.000000
    21  H    0.003040  -0.005914   0.499386  -0.014810   0.000130
    22  H   -0.004541   0.001517  -0.014810   0.518941   0.000011
    23  H   -0.000000  -0.000000   0.000130   0.000011   0.449263
 Mulliken charges:
               1
     1  F   -0.194650
     2  C    0.202056
     3  C   -0.275284
     4  C    0.305990
     5  O   -0.270649
     6  C   -0.068169
     7  C   -0.279554
     8  C   -0.265780
     9  C   -0.265044
    10  C   -0.273053
    11  C   -0.006993
    12  Br  -0.062856
    13  C    0.185420
    14  F   -0.188377
    15  H    0.191008
    16  H    0.163626
    17  H    0.160089
    18  H    0.147960
    19  H    0.151975
    20  H    0.144852
    21  H    0.158270
    22  H    0.144303
    23  H    0.194860
 Sum of Mulliken charges =  -0.00000
 Mulliken charges with hydrogens summed into heavy atoms:
               1
     1  F   -0.194650
     2  C    0.202056
     3  C   -0.084276
     4  C    0.305990
     5  O   -0.270649
     6  C    0.095458
     7  C    0.028494
     8  C    0.031048
     9  C    0.037529
    10  C   -0.078193
    11  C   -0.006993
    12  Br  -0.062856
    13  C    0.185420
    14  F   -0.188377
 Electronic spatial extent (au):  <R**2>=           5015.0091
 Charge=              0.0000 electrons
 Dipole moment (field-independent basis, Debye):
    X=             -4.6467    Y=             -0.9487    Z=             -0.1457  Tot=              4.7448
 Quadrupole moment (field-independent basis, Debye-Ang):
   XX=            -85.2378   YY=            -97.1777   ZZ=            -93.1298
   XY=             -4.7053   XZ=              0.6020   YZ=             -0.7460
 Traceless Quadrupole moment (field-independent basis, Debye-Ang):
   XX=              6.6107   YY=             -5.3293   ZZ=             -1.2814
   XY=             -4.7053   XZ=              0.6020   YZ=             -0.7460
 Octapole moment (field-independent basis, Debye-Ang**2):
  XXX=             48.4938  YYY=            -28.8788  ZZZ=              2.1948  XYY=             28.3769
  XXY=            -11.0323  XXZ=             -2.0210  XZZ=             31.6739  YZZ=             -1.7241
  YYZ=              1.7612  XYZ=              2.3770
 Hexadecapole moment (field-independent basis, Debye-Ang**3):
 XXXX=          -4455.7382 YYYY=          -1096.4873 ZZZZ=           -182.1717 XXXY=           -101.8062
 XXXZ=             27.5838 YYYX=            -93.2413 YYYZ=             -4.6782 ZZZX=             14.6882
 ZZZY=             -5.7137 XXYY=           -941.9139 XXZZ=           -792.2352 YYZZ=           -204.7447
 XXYZ=            -15.2558 YYXZ=              3.4150 ZZXY=            -12.4972
 N-N= 1.175579880120D+03 E-N=-1.005318595244D+04  KE= 3.228991584019D+03
 Calculating spin-rotation constants.
 Leave Link  601 at Tue Sep 17 11:30:31 2024, MaxMem=  1342177280 cpu:               8.8 elap:               8.9
 (Enter /groups/ReismanLab/Software/Gaussian16_RevC/Linux_Binary_AVX2-enabled-CPU/g16/l9999.exe)
 Unable to Open any file for archive entry.
 1\1\GINC-HPC-83-16\SP\RM062X\def2TZVP\C10H9Br1F2O1\MANTIND\17-Sep-2024
 \0\\#p M062X/def2tzvp geom=check guess=read scf(xqc,tight) integral(gr
 id=ultrafine) scrf(SMD, solvent=1,4-Dioxane) nmr=giao\\spe\\0,1\F,0,-0
 .4226112736,-3.1959496007,-0.0662847483\C,0,-0.2785811535,-1.860856738
 8,-0.1029849247\C,0,0.9944054321,-1.3125745689,-0.1948236711\C,0,1.126
 0293376,0.0810496847,-0.2300892582\O,0,2.31611874,0.7326816977,-0.3208
 020843\C,0,3.5048059413,-0.0356602648,-0.4439947914\C,0,4.0768733037,-
 0.7311201821,0.8168242251\C,0,5.4785116278,-0.2253220835,0.3809963625\
 C,0,4.7747586016,0.8249260254,-0.5212472747\C,0,-0.0115216114,0.896970
 2189,-0.1691982518\C,0,-1.2701499718,0.3169879221,-0.0754705707\Br,0,-
 2.8241164407,1.402948158,0.0065174211\C,0,-1.4192258601,-1.0682612322,
 -0.042155609\F,0,-2.6257254539,-1.6449369987,0.0484800831\H,0,1.842925
 7034,-1.9810012537,-0.2261972215\H,0,3.4159349249,-0.7248955559,-1.293
 4746053\H,0,3.7219156031,-0.2187588775,1.7153302216\H,0,3.9259213361,-
 1.8071577615,0.9332535268\H,0,6.0177581599,-0.9739368832,-0.2056723437
 \H,0,6.141304589,0.1496771489,1.1631015897\H,0,4.6118240552,1.76604947
 17,0.0107652074\H,0,5.1894517596,1.0352056122,-1.5094871281\H,0,0.1039
 477769,1.9724929526,-0.1986306181\\Version=ES64L-G16RevC.02\State=1-A\
 HF=-3235.5470856\RMSD=2.632e-09\Dipole=1.8552084,0.197988,-0.0615445\Q
 uadrupole=4.1831157,-3.1893703,-0.9937455,-4.2776372,-0.2503861,0.6610
 155\PG=C01 [X(C10H9Br1F2O1)]\\@
 The archive entry for this job was punched.


 MANHOOD BEGINS BY TRYING TO SHAVE FACE,
 AND ENDS BY TRYING TO SAVE FACE.
 Job cpu time:       0 days  0 hours 26 minutes 43.7 seconds.
 Elapsed time:       0 days  0 hours 26 minutes 51.4 seconds.
 File lengths (MBytes):  RWF=    328 Int=      0 D2E=      0 Chk=     32 Scr=     16
 Normal termination of Gaussian 16 at Tue Sep 17 11:30:31 2024.
