 Entering Gaussian System, Link 0=g16
 Input=smiles_00017_conf_2.gjf
 Output=smiles_00017_conf_2.log
 Initial command:
 /groups/ReismanLab/Software/Gaussian16_RevC/Linux_Binary_AVX2-enabled-CPU/g16/l1.exe "/central/groups/ReismanLab/DM/dft_final/smiles_00017/Gau-986809.inp" -scrdir="/central/groups/ReismanLab/DM/dft_final/smiles_00017/"
 Entering Link 1 = /groups/ReismanLab/Software/Gaussian16_RevC/Linux_Binary_AVX2-enabled-CPU/g16/l1.exe PID=    986812.
  
 Copyright (c) 1988-2021, Gaussian, Inc.  All Rights Reserved.
  
 This is part of the Gaussian(R) 16 program.  It is based on
 the Gaussian(R) 09 system (copyright 2009, Gaussian, Inc.),
 the Gaussian(R) 03 system (copyright 2003, Gaussian, Inc.),
 the Gaussian(R) 98 system (copyright 1998, Gaussian, Inc.),
 the Gaussian(R) 94 system (copyright 1995, Gaussian, Inc.),
 the Gaussian 92(TM) system (copyright 1992, Gaussian, Inc.),
 the Gaussian 90(TM) system (copyright 1990, Gaussian, Inc.),
 the Gaussian 88(TM) system (copyright 1988, Gaussian, Inc.),
 the Gaussian 86(TM) system (copyright 1986, Carnegie Mellon
 University), and the Gaussian 82(TM) system (copyright 1983,
 Carnegie Mellon University). Gaussian is a federally registered
 trademark of Gaussian, Inc.
  
 This software contains proprietary and confidential information,
 including trade secrets, belonging to Gaussian, Inc.
  
 This software is provided under written license and may be
 used, copied, transmitted, or stored only in accord with that
 written license.
  
 The following legend is applicable only to US Government
 contracts under FAR:
  
                    RESTRICTED RIGHTS LEGEND
  
 Use, reproduction and disclosure by the US Government is
 subject to restrictions as set forth in subparagraphs (a)
 and (c) of the Commercial Computer Software - Restricted
 Rights clause in FAR 52.227-19.
  
 Gaussian, Inc.
 340 Quinnipiac St., Bldg. 40, Wallingford CT 06492
  
  
 ---------------------------------------------------------------
 Warning -- This program may not be used in any manner that
 competes with the business of Gaussian, Inc. or will provide
 assistance to any competitor of Gaussian, Inc.  The licensee
 of this program is prohibited from giving any competitor of
 Gaussian, Inc. access to this program.  By using this program,
 the user acknowledges that Gaussian, Inc. is engaged in the
 business of creating and licensing software in the field of
 computational chemistry and represents and warrants to the
 licensee that it is not a competitor of Gaussian, Inc. and that
 it will not use this program in any manner prohibited above.
 ---------------------------------------------------------------
  

 Cite this work as:
 Gaussian 16, Revision C.02,
 M. J. Frisch, G. W. Trucks, H. B. Schlegel, G. E. Scuseria, 
 M. A. Robb, J. R. Cheeseman, G. Scalmani, V. Barone, 
 G. A. Petersson, H. Nakatsuji, X. Li, M. Caricato, A. V. Marenich, 
 J. Bloino, B. G. Janesko, R. Gomperts, B. Mennucci, H. P. Hratchian, 
 J. V. Ortiz, A. F. Izmaylov, J. L. Sonnenberg, D. Williams-Young, 
 F. Ding, F. Lipparini, F. Egidi, J. Goings, B. Peng, A. Petrone, 
 T. Henderson, D. Ranasinghe, V. G. Zakrzewski, J. Gao, N. Rega, 
 G. Zheng, W. Liang, M. Hada, M. Ehara, K. Toyota, R. Fukuda, 
 J. Hasegawa, M. Ishida, T. Nakajima, Y. Honda, O. Kitao, H. Nakai, 
 T. Vreven, K. Throssell, J. A. Montgomery, Jr., J. E. Peralta, 
 F. Ogliaro, M. J. Bearpark, J. J. Heyd, E. N. Brothers, K. N. Kudin, 
 V. N. Staroverov, T. A. Keith, R. Kobayashi, J. Normand, 
 K. Raghavachari, A. P. Rendell, J. C. Burant, S. S. Iyengar, 
 J. Tomasi, M. Cossi, J. M. Millam, M. Klene, C. Adamo, R. Cammi, 
 J. W. Ochterski, R. L. Martin, K. Morokuma, O. Farkas, 
 J. B. Foresman, and D. J. Fox, Gaussian, Inc., Wallingford CT, 2019.
 
 ******************************************
 Gaussian 16:  ES64L-G16RevC.02  7-Dec-2021
                17-Sep-2024 
 ******************************************
 %nprocshared=8
 Will use up to    8 processors via shared memory.
 %Mem=10GB
 %Chk=smiles_00017_conf_2.chk
 ----------------------------------------------------------------------
 #p B3LYP/6-31G(d,p) EmpiricalDispersion=GD3BJ opt freq scf(xqc,tight) 
 integral(grid=ultrafine)
 ----------------------------------------------------------------------
 1/18=20,19=15,26=4,38=1/1,3;
 2/9=110,12=2,17=6,18=5,40=1/2;
 3/5=1,6=6,7=101,11=2,25=1,30=1,71=1,74=-5,75=-5,124=41/1,2,3;
 4//1;
 5/5=2,8=3,13=1,32=2,38=5/2,8;
 6/7=2,8=2,9=2,10=2,28=1/1;
 7//1,2,3,16;
 1/18=20,19=15,26=4/3(2);
 2/9=110/2;
 99//99;
 2/9=110/2;
 3/5=1,6=6,7=101,11=2,25=1,30=1,71=1,74=-5,75=-5,124=41/1,2,3;
 4/5=5,16=3,69=1/1;
 5/5=2,8=3,13=1,32=2,38=5/2,8;
 7//1,2,3,16;
 1/18=20,19=15,26=4/3(-5);
 2/9=110/2;
 6/7=2,8=2,9=2,10=2,19=2,28=1/1;
 99/9=1/99;
 Leave Link    1 at Tue Sep 17 09:52:45 2024, MaxMem=  1342177280 cpu:               0.1 elap:               0.7
 (Enter /groups/ReismanLab/Software/Gaussian16_RevC/Linux_Binary_AVX2-enabled-CPU/g16/l101.exe)
 ----------------------------------
 opt-freq conformers_unique/conf_ac
 ----------------------------------
 Symbolic Z-matrix:
 Charge =  0 Multiplicity = 1
 C                     3.25755  -0.36542  -0.62655 
 C                     2.14129   0.61242  -0.26455 
 C                     2.68894   1.9606    0.18178 
 O                     1.36547   0.10567   0.82906 
 C                     0.43237  -0.84223   0.51865 
 C                     0.68165  -2.1881    0.76814 
 C                    -0.28059  -3.146     0.50345 
 C                    -1.50816  -2.77588  -0.019 
 C                    -1.78243  -1.44134  -0.26126 
 C                    -0.81813  -0.48852   0.01154 
 Br                   -1.21271   1.35217  -0.2704 
 H                     3.85359   0.04125  -1.4388 
 H                     2.84193  -1.32018  -0.94398 
 H                     3.89896  -0.53061   0.23592 
 H                     1.49202   0.75174  -1.14156 
 H                     1.86846   2.63137   0.4218 
 H                     3.28801   2.39984  -0.61046 
 H                     3.30293   1.83019   1.06877 
 H                     1.6391   -2.46252   1.18364 
 H                    -0.06919  -4.18521   0.70456 
 H                    -2.25907  -3.52137  -0.23044 
 H                    -2.74125  -1.13658  -0.65213 
 
 ITRead=  0  0  0  0  0  0  0  0  0  0  0  0  0  0  0  0  0  0  0  0
 ITRead=  0  0
 MicOpt= -1 -1 -1 -1 -1 -1 -1 -1 -1 -1 -1 -1 -1 -1 -1 -1 -1 -1 -1 -1
 MicOpt= -1 -1
 NAtoms=     22 NQM=       22 NQMF=       0 NMMI=      0 NMMIF=      0
                NMic=       0 NMicF=      0.
                    Isotopes and Nuclear Properties:
 (Nuclear quadrupole moments (NQMom) in fm**2, nuclear magnetic moments (NMagM)
  in nuclear magnetons)

  Atom         1           2           3           4           5           6           7           8           9          10
 IAtWgt=          12          12          12          16          12          12          12          12          12          12
 AtmWgt=  12.0000000  12.0000000  12.0000000  15.9949146  12.0000000  12.0000000  12.0000000  12.0000000  12.0000000  12.0000000
 NucSpn=           0           0           0           0           0           0           0           0           0           0
 AtZEff=  -0.0000000  -0.0000000  -0.0000000  -0.0000000  -0.0000000  -0.0000000  -0.0000000  -0.0000000  -0.0000000  -0.0000000
 NQMom=    0.0000000   0.0000000   0.0000000   0.0000000   0.0000000   0.0000000   0.0000000   0.0000000   0.0000000   0.0000000
 NMagM=    0.0000000   0.0000000   0.0000000   0.0000000   0.0000000   0.0000000   0.0000000   0.0000000   0.0000000   0.0000000
 AtZNuc=   6.0000000   6.0000000   6.0000000   8.0000000   6.0000000   6.0000000   6.0000000   6.0000000   6.0000000   6.0000000

  Atom        11          12          13          14          15          16          17          18          19          20
 IAtWgt=          79           1           1           1           1           1           1           1           1           1
 AtmWgt=  78.9183361   1.0078250   1.0078250   1.0078250   1.0078250   1.0078250   1.0078250   1.0078250   1.0078250   1.0078250
 NucSpn=           3           1           1           1           1           1           1           1           1           1
 AtZEff=  -0.0000000  -0.0000000  -0.0000000  -0.0000000  -0.0000000  -0.0000000  -0.0000000  -0.0000000  -0.0000000  -0.0000000
 NQMom=   31.3000000   0.0000000   0.0000000   0.0000000   0.0000000   0.0000000   0.0000000   0.0000000   0.0000000   0.0000000
 NMagM=    2.1063990   2.7928460   2.7928460   2.7928460   2.7928460   2.7928460   2.7928460   2.7928460   2.7928460   2.7928460
 AtZNuc=  35.0000000   1.0000000   1.0000000   1.0000000   1.0000000   1.0000000   1.0000000   1.0000000   1.0000000   1.0000000

  Atom        21          22
 IAtWgt=           1           1
 AtmWgt=   1.0078250   1.0078250
 NucSpn=           1           1
 AtZEff=  -0.0000000  -0.0000000
 NQMom=    0.0000000   0.0000000
 NMagM=    2.7928460   2.7928460
 AtZNuc=   1.0000000   1.0000000
 Leave Link  101 at Tue Sep 17 09:52:46 2024, MaxMem=  1342177280 cpu:               0.2 elap:               0.2
 (Enter /groups/ReismanLab/Software/Gaussian16_RevC/Linux_Binary_AVX2-enabled-CPU/g16/l103.exe)

 GradGradGradGradGradGradGradGradGradGradGradGradGradGradGradGradGradGrad
 Berny optimization.
 Initialization pass.
                           ----------------------------
                           !    Initial Parameters    !
                           ! (Angstroms and Degrees)  !
 --------------------------                            --------------------------
 ! Name  Definition              Value          Derivative Info.                !
 --------------------------------------------------------------------------------
 ! R1    R(1,2)                  1.5275         estimate D2E/DX2                !
 ! R2    R(1,12)                 1.0865         estimate D2E/DX2                !
 ! R3    R(1,13)                 1.0886         estimate D2E/DX2                !
 ! R4    R(1,14)                 1.0875         estimate D2E/DX2                !
 ! R5    R(2,3)                  1.5221         estimate D2E/DX2                !
 ! R6    R(2,4)                  1.4334         estimate D2E/DX2                !
 ! R7    R(2,15)                 1.1            estimate D2E/DX2                !
 ! R8    R(3,16)                 1.0866         estimate D2E/DX2                !
 ! R9    R(3,17)                 1.086          estimate D2E/DX2                !
 ! R10   R(3,18)                 1.0866         estimate D2E/DX2                !
 ! R11   R(4,5)                  1.3659         estimate D2E/DX2                !
 ! R12   R(5,6)                  1.3913         estimate D2E/DX2                !
 ! R13   R(5,10)                 1.395          estimate D2E/DX2                !
 ! R14   R(6,7)                  1.3833         estimate D2E/DX2                !
 ! R15   R(6,19)                 1.0792         estimate D2E/DX2                !
 ! R16   R(7,8)                  1.3845         estimate D2E/DX2                !
 ! R17   R(7,20)                 1.0794         estimate D2E/DX2                !
 ! R18   R(8,9)                  1.3838         estimate D2E/DX2                !
 ! R19   R(8,21)                 1.079          estimate D2E/DX2                !
 ! R20   R(9,10)                 1.3828         estimate D2E/DX2                !
 ! R21   R(9,22)                 1.0793         estimate D2E/DX2                !
 ! R22   R(10,11)                1.9035         estimate D2E/DX2                !
 ! A1    A(2,1,12)             109.7836         estimate D2E/DX2                !
 ! A2    A(2,1,13)             110.5824         estimate D2E/DX2                !
 ! A3    A(2,1,14)             109.8964         estimate D2E/DX2                !
 ! A4    A(12,1,13)            108.6472         estimate D2E/DX2                !
 ! A5    A(12,1,14)            109.0392         estimate D2E/DX2                !
 ! A6    A(13,1,14)            108.8578         estimate D2E/DX2                !
 ! A7    A(1,2,3)              111.9367         estimate D2E/DX2                !
 ! A8    A(1,2,4)              110.4887         estimate D2E/DX2                !
 ! A9    A(1,2,15)             108.8723         estimate D2E/DX2                !
 ! A10   A(3,2,4)              106.5079         estimate D2E/DX2                !
 ! A11   A(3,2,15)             109.5095         estimate D2E/DX2                !
 ! A12   A(4,2,15)             109.4859         estimate D2E/DX2                !
 ! A13   A(2,3,16)             109.869          estimate D2E/DX2                !
 ! A14   A(2,3,17)             110.0469         estimate D2E/DX2                !
 ! A15   A(2,3,18)             109.6555         estimate D2E/DX2                !
 ! A16   A(16,3,17)            109.1466         estimate D2E/DX2                !
 ! A17   A(16,3,18)            108.6893         estimate D2E/DX2                !
 ! A18   A(17,3,18)            109.4096         estimate D2E/DX2                !
 ! A19   A(2,4,5)              116.213          estimate D2E/DX2                !
 ! A20   A(4,5,6)              120.5427         estimate D2E/DX2                !
 ! A21   A(4,5,10)             121.2684         estimate D2E/DX2                !
 ! A22   A(6,5,10)             118.1036         estimate D2E/DX2                !
 ! A23   A(5,6,7)              120.7246         estimate D2E/DX2                !
 ! A24   A(5,6,19)             118.2923         estimate D2E/DX2                !
 ! A25   A(7,6,19)             120.9792         estimate D2E/DX2                !
 ! A26   A(6,7,8)              120.2551         estimate D2E/DX2                !
 ! A27   A(6,7,20)             119.6566         estimate D2E/DX2                !
 ! A28   A(8,7,20)             120.0882         estimate D2E/DX2                !
 ! A29   A(7,8,9)              119.9737         estimate D2E/DX2                !
 ! A30   A(7,8,21)             120.4163         estimate D2E/DX2                !
 ! A31   A(9,8,21)             119.6072         estimate D2E/DX2                !
 ! A32   A(8,9,10)             119.4566         estimate D2E/DX2                !
 ! A33   A(8,9,22)             120.7818         estimate D2E/DX2                !
 ! A34   A(10,9,22)            119.7597         estimate D2E/DX2                !
 ! A35   A(5,10,9)             121.4745         estimate D2E/DX2                !
 ! A36   A(5,10,11)            119.0027         estimate D2E/DX2                !
 ! A37   A(9,10,11)            119.5073         estimate D2E/DX2                !
 ! D1    D(12,1,2,3)           -60.021          estimate D2E/DX2                !
 ! D2    D(12,1,2,4)          -178.5433         estimate D2E/DX2                !
 ! D3    D(12,1,2,15)           61.1876         estimate D2E/DX2                !
 ! D4    D(13,1,2,3)          -179.8914         estimate D2E/DX2                !
 ! D5    D(13,1,2,4)            61.5863         estimate D2E/DX2                !
 ! D6    D(13,1,2,15)          -58.6828         estimate D2E/DX2                !
 ! D7    D(14,1,2,3)            59.9041         estimate D2E/DX2                !
 ! D8    D(14,1,2,4)           -58.6182         estimate D2E/DX2                !
 ! D9    D(14,1,2,15)         -178.8873         estimate D2E/DX2                !
 ! D10   D(1,2,3,16)           179.4862         estimate D2E/DX2                !
 ! D11   D(1,2,3,17)            59.2805         estimate D2E/DX2                !
 ! D12   D(1,2,3,18)           -61.1155         estimate D2E/DX2                !
 ! D13   D(4,2,3,16)           -59.655          estimate D2E/DX2                !
 ! D14   D(4,2,3,17)          -179.8608         estimate D2E/DX2                !
 ! D15   D(4,2,3,18)            59.7432         estimate D2E/DX2                !
 ! D16   D(15,2,3,16)           58.6464         estimate D2E/DX2                !
 ! D17   D(15,2,3,17)          -61.5593         estimate D2E/DX2                !
 ! D18   D(15,2,3,18)          178.0447         estimate D2E/DX2                !
 ! D19   D(1,2,4,5)            -79.4759         estimate D2E/DX2                !
 ! D20   D(3,2,4,5)            158.7417         estimate D2E/DX2                !
 ! D21   D(15,2,4,5)            40.4248         estimate D2E/DX2                !
 ! D22   D(2,4,5,6)            101.7499         estimate D2E/DX2                !
 ! D23   D(2,4,5,10)           -81.6717         estimate D2E/DX2                !
 ! D24   D(4,5,6,7)            177.475          estimate D2E/DX2                !
 ! D25   D(4,5,6,19)            -1.8093         estimate D2E/DX2                !
 ! D26   D(10,5,6,7)             0.7905         estimate D2E/DX2                !
 ! D27   D(10,5,6,19)         -178.4939         estimate D2E/DX2                !
 ! D28   D(4,5,10,9)          -177.7623         estimate D2E/DX2                !
 ! D29   D(4,5,10,11)            0.7986         estimate D2E/DX2                !
 ! D30   D(6,5,10,9)            -1.1029         estimate D2E/DX2                !
 ! D31   D(6,5,10,11)          177.4579         estimate D2E/DX2                !
 ! D32   D(5,6,7,8)              0.1809         estimate D2E/DX2                !
 ! D33   D(5,6,7,20)          -179.9364         estimate D2E/DX2                !
 ! D34   D(19,6,7,8)           179.4458         estimate D2E/DX2                !
 ! D35   D(19,6,7,20)           -0.6714         estimate D2E/DX2                !
 ! D36   D(6,7,8,9)             -0.8744         estimate D2E/DX2                !
 ! D37   D(6,7,8,21)           179.735          estimate D2E/DX2                !
 ! D38   D(20,7,8,9)           179.2434         estimate D2E/DX2                !
 ! D39   D(20,7,8,21)           -0.1472         estimate D2E/DX2                !
 ! D40   D(7,8,9,10)             0.5684         estimate D2E/DX2                !
 ! D41   D(7,8,9,22)          -178.9255         estimate D2E/DX2                !
 ! D42   D(21,8,9,10)          179.9639         estimate D2E/DX2                !
 ! D43   D(21,8,9,22)            0.47           estimate D2E/DX2                !
 ! D44   D(8,9,10,5)             0.4328         estimate D2E/DX2                !
 ! D45   D(8,9,10,11)         -178.1209         estimate D2E/DX2                !
 ! D46   D(22,9,10,5)          179.9319         estimate D2E/DX2                !
 ! D47   D(22,9,10,11)           1.3782         estimate D2E/DX2                !
 --------------------------------------------------------------------------------
 Trust Radius=3.00D-01 FncErr=1.00D-07 GrdErr=1.00D-06 EigMax=2.50D+02 EigMin=1.00D-04
 Number of steps in this run=    116 maximum allowed number of steps=    132.
 GradGradGradGradGradGradGradGradGradGradGradGradGradGradGradGradGradGrad

 Leave Link  103 at Tue Sep 17 09:52:46 2024, MaxMem=  1342177280 cpu:               0.0 elap:               0.0
 (Enter /groups/ReismanLab/Software/Gaussian16_RevC/Linux_Binary_AVX2-enabled-CPU/g16/l202.exe)
                          Input orientation:                          
 ---------------------------------------------------------------------
 Center     Atomic      Atomic             Coordinates (Angstroms)
 Number     Number       Type             X           Y           Z
 ---------------------------------------------------------------------
      1          6           0        3.257548   -0.365417   -0.626551
      2          6           0        2.141294    0.612419   -0.264552
      3          6           0        2.688940    1.960601    0.181782
      4          8           0        1.365473    0.105673    0.829062
      5          6           0        0.432371   -0.842230    0.518649
      6          6           0        0.681647   -2.188101    0.768140
      7          6           0       -0.280591   -3.145996    0.503453
      8          6           0       -1.508159   -2.775885   -0.018999
      9          6           0       -1.782429   -1.441337   -0.261262
     10          6           0       -0.818132   -0.488519    0.011542
     11         35           0       -1.212709    1.352170   -0.270401
     12          1           0        3.853588    0.041252   -1.438804
     13          1           0        2.841933   -1.320180   -0.943977
     14          1           0        3.898960   -0.530608    0.235918
     15          1           0        1.492023    0.751743   -1.141556
     16          1           0        1.868455    2.631375    0.421804
     17          1           0        3.288009    2.399835   -0.610462
     18          1           0        3.302930    1.830187    1.068769
     19          1           0        1.639096   -2.462518    1.183638
     20          1           0       -0.069186   -4.185206    0.704565
     21          1           0       -2.259069   -3.521369   -0.230438
     22          1           0       -2.741245   -1.136578   -0.652125
 ---------------------------------------------------------------------
                    Distance matrix (angstroms):
                    1          2          3          4          5
     1  C    0.000000
     2  C    1.527491   0.000000
     3  C    2.527267   1.522079   0.000000
     4  O    2.433245   1.433416   2.368817   0.000000
     5  C    3.085524   2.376936   3.614062   1.365853   0.000000
     6  C    3.450015   3.322640   4.645942   2.394312   1.391314
     7  C    4.639715   4.536634   5.915989   3.659084   2.411614
     8  C    5.375076   4.985922   6.331687   4.156964   2.791728
     9  C    5.166470   4.428717   5.635833   3.673055   2.423331
    10  C    4.127164   3.169621   4.280973   2.406145   1.395001
    11  Br   4.802098   3.434618   3.974609   3.067506   2.853819
    12  H    1.086461   2.153381   2.768863   3.367207   4.039416
    13  H    1.088607   2.165052   3.471925   2.712316   2.858968
    14  H    1.087450   2.155544   2.770055   2.678662   3.492031
    15  H    2.151826   1.100046   2.155266   2.077681   2.533752
    16  H    3.465456   2.149815   1.086620   2.607301   3.760006
    17  H    2.765467   2.151619   1.086030   3.321378   4.465484
    18  H    2.774319   2.147114   1.086618   2.604832   3.960373
    19  H    3.208427   3.435797   4.655092   2.606952   2.126906
    20  H    5.237348   5.370532   6.756590   4.526078   3.385500
    21  H    6.367888   6.037596   7.396263   5.235959   3.870757
    22  H    6.048212   5.200808   6.306729   4.538969   3.395467
                    6          7          8          9         10
     6  C    0.000000
     7  C    1.383301   0.000000
     8  C    2.400069   1.384508   0.000000
     9  C    2.772904   2.397117   1.383811   0.000000
    10  C    2.389635   2.755560   2.389375   1.382806   0.000000
    11  Br   4.147370   4.658454   4.146243   2.851026   1.903502
    12  H    4.461146   5.569771   6.220968   5.945533   4.920277
    13  H    2.889891   3.896000   4.679527   4.676057   3.873081
    14  H    3.658093   4.937658   5.860306   5.775361   4.722613
    15  H    3.598102   4.587002   4.765018   4.038138   2.864386
    16  H    4.975521   6.164663   6.390171   5.512034   4.137608
    17  H    5.453698   6.688195   7.081040   6.370705   5.058643
    18  H    4.807093   6.158214   6.748757   6.191343   4.845336
    19  H    1.079190   2.148253   3.383748   3.851932   3.362804
    20  H    2.134530   1.079395   2.140181   3.375920   3.834930
    21  H    3.379729   2.143333   1.079035   2.134167   3.366456
    22  H    3.852149   3.380524   2.146783   1.079343   2.135135
                   11         12         13         14         15
    11  Br   0.000000
    12  H    5.361998   0.000000
    13  H    4.902579   1.766860   0.000000
    14  H    5.470865   1.770247   1.769994   0.000000
    15  H    2.904307   2.483976   2.480758   3.055357   0.000000
    16  H    3.407210   3.756507   4.292761   3.762398   2.473623
    17  H    4.633541   2.562995   3.761479   3.110807   2.494760
    18  H    4.734223   3.129126   3.766759   2.573373   3.054171
    19  H    4.979846   4.248534   2.697870   3.120486   3.969841
    20  H    5.737659   6.151839   4.404620   5.414969   5.497182
    21  H    4.984762   7.177533   5.601303   6.861738   5.758499
    22  H    2.945506   6.745218   5.593816   6.726674   4.661101
                   16         17         18         19         20
    16  H    0.000000
    17  H    1.770400   0.000000
    18  H    1.765838   1.773285   0.000000
    19  H    5.155652   5.438768   4.605308   0.000000
    20  H    7.092262   7.507517   6.905705   2.472931   0.000000
    21  H    7.437615   8.122508   7.827063   4.279773   2.471941
    22  H    6.049804   6.989982   6.949477   4.931079   4.274885
                   21         22
    21  H    0.000000
    22  H    2.469320   0.000000
 Stoichiometry    C9H11BrO
 Framework group  C1[X(C9H11BrO)]
 Deg. of freedom    60
 Full point group                 C1      NOp   1
 Largest Abelian subgroup         C1      NOp   1
 Largest concise Abelian subgroup C1      NOp   1
                         Standard orientation:                         
 ---------------------------------------------------------------------
 Center     Atomic      Atomic             Coordinates (Angstroms)
 Number     Number       Type             X           Y           Z
 ---------------------------------------------------------------------
      1          6           0        2.351481    2.004728    0.828209
      2          6           0        2.033164    0.610588    0.291294
      3          6           0        3.265656   -0.072006   -0.284688
      4          8           0        1.076313    0.689263   -0.773096
      5          6           0       -0.228914    0.842280   -0.400909
      6          6           0       -0.842984    2.088713   -0.472154
      7          6           0       -2.178870    2.238129   -0.145647
      8          6           0       -2.923989    1.144599    0.261604
      9          6           0       -2.336916   -0.106868    0.325711
     10          6           0       -1.002664   -0.249989   -0.008117
     11         35           0       -0.207523   -1.979090    0.027688
     12          1           0        3.096163    1.934150    1.616159
     13          1           0        1.456458    2.471366    1.235947
     14          1           0        2.740180    2.629751    0.027704
     15          1           0        1.623115   -0.000526    1.108913
     16          1           0        3.003724   -1.062132   -0.647709
     17          1           0        4.031673   -0.163975    0.479656
     18          1           0        3.652513    0.512269   -1.115171
     19          1           0       -0.253527    2.931367   -0.799453
     20          1           0       -2.638128    3.212955   -0.208036
     21          1           0       -3.965120    1.258959    0.520997
     22          1           0       -2.910027   -0.971183    0.624851
 ---------------------------------------------------------------------
 Rotational constants (GHZ):           0.8742038           0.7904113           0.4407295
 Leave Link  202 at Tue Sep 17 09:52:46 2024, MaxMem=  1342177280 cpu:               0.0 elap:               0.0
 (Enter /groups/ReismanLab/Software/Gaussian16_RevC/Linux_Binary_AVX2-enabled-CPU/g16/l301.exe)
 Standard basis: 6-31G(d,p) (6D, 7F)
 Ernie: Thresh=  0.10000D-02 Tol=  0.10000D-05 Strict=F.
 There are   235 symmetry adapted cartesian basis functions of A   symmetry.
 There are   235 symmetry adapted basis functions of A   symmetry.
   235 basis functions,   440 primitive gaussians,   235 cartesian basis functions
    54 alpha electrons       54 beta electrons
       nuclear repulsion energy       890.8768670446 Hartrees.
 IExCor=  402 DFT=T Ex+Corr=B3LYP ExCW=0 ScaHFX=  0.200000
 ScaDFX=  0.800000  0.720000  1.000000  0.810000 ScalE2=  1.000000  1.000000
 IRadAn=      5 IRanWt=     -1 IRanGd=            0 ICorTp=0 IEmpDi=141
 NAtoms=   22 NActive=   22 NUniq=   22 SFac= 1.00D+00 NAtFMM=   60 NAOKFM=F Big=F
 Integral buffers will be    131072 words long.
 Raffenetti 2 integral format.
 Two-electron integral symmetry is turned on.
 R6Disp:  Grimme-D3(BJ) Dispersion energy=       -0.0435697863 Hartrees.
 Nuclear repulsion after empirical dispersion term =      890.8332972584 Hartrees.
 Leave Link  301 at Tue Sep 17 09:52:46 2024, MaxMem=  1342177280 cpu:               0.1 elap:               0.1
 (Enter /groups/ReismanLab/Software/Gaussian16_RevC/Linux_Binary_AVX2-enabled-CPU/g16/l302.exe)
 NPDir=0 NMtPBC=     1 NCelOv=     1 NCel=       1 NClECP=     1 NCelD=      1
         NCelK=      1 NCelE2=     1 NClLst=     1 CellRange=     0.0.
 One-electron integrals computed using PRISM.
 One-electron integral symmetry used in STVInt
 NBasis=   235 RedAO= T EigKep=  3.95D-04  NBF=   235
 NBsUse=   235 1.00D-06 EigRej= -1.00D+00 NBFU=   235
 Precomputing XC quadrature grid using
 IXCGrd= 4 IRadAn=           5 IRanWt=          -1 IRanGd=           0 AccXCQ= 0.00D+00.
 Generated NRdTot=       0 NPtTot=           0 NUsed=           0 NTot=          32
 NSgBfM=   235   235   235   235   235 MxSgAt=    22 MxSgA2=    22.
 Leave Link  302 at Tue Sep 17 09:52:46 2024, MaxMem=  1342177280 cpu:               1.1 elap:               0.2
 (Enter /groups/ReismanLab/Software/Gaussian16_RevC/Linux_Binary_AVX2-enabled-CPU/g16/l303.exe)
 DipDrv:  MaxL=1.
 Leave Link  303 at Tue Sep 17 09:52:46 2024, MaxMem=  1342177280 cpu:               0.1 elap:               0.0
 (Enter /groups/ReismanLab/Software/Gaussian16_RevC/Linux_Binary_AVX2-enabled-CPU/g16/l401.exe)
 ExpMin= 1.43D-01 ExpMax= 5.74D+05 ExpMxC= 5.74D+03 IAcc=3 IRadAn=         5 AccDes= 0.00D+00
 Harris functional with IExCor=  402 and IRadAn=       5 diagonalized for initial guess.
 HarFok:  IExCor=  402 AccDes= 0.00D+00 IRadAn=         5 IDoV= 1 UseB2=F ITyADJ=14
 ICtDFT=  3500011 ScaDFX=  1.000000  1.000000  1.000000  1.000000
 FoFCou: FMM=F IPFlag=           0 FMFlag=      100000 FMFlg1=           0
         NFxFlg=           0 DoJE=T BraDBF=F KetDBF=T FulRan=T
         wScrn=  0.000000 ICntrl=       500 IOpCl=  0 I1Cent=   200000004 NGrid=           0
         NMat0=    1 NMatS0=      1 NMatT0=    0 NMatD0=    1 NMtDS0=    0 NMtDT0=    0
 Petite list used in FoFCou.
 Harris En= -2996.72017283123    
 JPrj=0 DoOrth=F DoCkMO=F.
 Leave Link  401 at Tue Sep 17 09:52:47 2024, MaxMem=  1342177280 cpu:               5.3 elap:               0.7
 (Enter /groups/ReismanLab/Software/Gaussian16_RevC/Linux_Binary_AVX2-enabled-CPU/g16/l502.exe)
 Integral symmetry usage will be decided dynamically.
 Closed shell SCF:
 Using DIIS extrapolation, IDIIS=  1040.
 NGot=  1342177280 LenX=  1342061866 LenY=  1342006200
 Requested convergence on RMS density matrix=1.00D-08 within  32 cycles.
 Requested convergence on MAX density matrix=1.00D-06.
 Requested convergence on             energy=1.00D-06.
 No special actions if energy rises.
 Fock matrices will be formed incrementally for  20 cycles.
 Integral accuracy reduced to 1.0D-05 until final iterations.

 Cycle   1  Pass 0  IDiag  1:
 FoFJK:  IHMeth= 1 ICntrl=       0 DoSepK=F KAlg= 0 I1Cent=           0 FoldK=F
 IRaf= 880000000 NMat=       1 IRICut=       1 DoRegI=T DoRafI=F ISym2E= 0 IDoP0=0 IntGTp=1.
 FoFCou: FMM=F IPFlag=           0 FMFlag=      100000 FMFlg1=           0
         NFxFlg=           0 DoJE=F BraDBF=F KetDBF=F FulRan=T
         wScrn=  0.000000 ICntrl=         0 IOpCl=  0 I1Cent=           0 NGrid=           0
         NMat0=    1 NMatS0=      1 NMatT0=    0 NMatD0=    1 NMtDS0=    0 NMtDT0=    0
 Symmetry not used in FoFCou.
 E= -2996.27545956289    
 DIIS: error= 1.83D-01 at cycle   1 NSaved=   1.
 NSaved= 1 IEnMin= 1 EnMin= -2996.27545956289     IErMin= 1 ErrMin= 1.83D-01
 ErrMax= 1.83D-01  0.00D+00 EMaxC= 1.00D-01 BMatC= 6.31D-01 BMatP= 6.31D-01
 IDIUse=3 WtCom= 0.00D+00 WtEn= 1.00D+00
 Coeff-Com:  0.100D+01
 Coeff-En:   0.100D+01
 Coeff:      0.100D+01
 Gap=     0.287 Goal=   None    Shift=    0.000
 GapD=    0.287 DampG=1.000 DampE=0.250 DampFc=0.2500 IDamp=-1.
 Damping current iteration by 2.50D-01
 RMSDP=5.11D-03 MaxDP=1.41D-01              OVMax= 1.63D-01

 Cycle   2  Pass 0  IDiag  1:
 RMSU=  1.24D-03    CP:  9.92D-01
 E= -2996.38132776998     Delta-E=       -0.105868207092 Rises=F Damp=T
 DIIS: error= 1.35D-01 at cycle   2 NSaved=   2.
 NSaved= 2 IEnMin= 2 EnMin= -2996.38132776998     IErMin= 2 ErrMin= 1.35D-01
 ErrMax= 1.35D-01  0.00D+00 EMaxC= 1.00D-01 BMatC= 2.64D-01 BMatP= 6.31D-01
 IDIUse=3 WtCom= 0.00D+00 WtEn= 1.00D+00
 Coeff-Com: -0.138D+01 0.238D+01
 Coeff-En:   0.000D+00 0.100D+01
 Coeff:      0.000D+00 0.100D+01
 Gap=     0.231 Goal=   None    Shift=    0.000
 RMSDP=2.68D-03 MaxDP=1.11D-01 DE=-1.06D-01 OVMax= 6.68D-02

 Cycle   3  Pass 0  IDiag  1:
 RMSU=  8.30D-04    CP:  9.69D-01  2.92D+00
 E= -2996.49990898289     Delta-E=       -0.118581212912 Rises=F Damp=F
 DIIS: error= 1.07D-02 at cycle   3 NSaved=   3.
 NSaved= 3 IEnMin= 3 EnMin= -2996.49990898289     IErMin= 3 ErrMin= 1.07D-02
 ErrMax= 1.07D-02  0.00D+00 EMaxC= 1.00D-01 BMatC= 6.57D-02 BMatP= 2.64D-01
 IDIUse=3 WtCom= 8.93D-01 WtEn= 1.07D-01
 EnCoef did   100 forward-backward iterations
 Coeff-Com:  0.198D+01-0.257D+01 0.159D+01
 Coeff-En:   0.136D+00 0.179D-02 0.862D+00
 Coeff:      0.178D+01-0.230D+01 0.152D+01
 Gap=     0.243 Goal=   None    Shift=    0.000
 RMSDP=1.33D-03 MaxDP=3.81D-02 DE=-1.19D-01 OVMax= 4.86D-02

 Cycle   4  Pass 0  IDiag  1:
 RMSU=  5.62D-04    CP:  9.70D-01  1.98D+00  1.33D+00
 E= -2996.56106231735     Delta-E=       -0.061153334458 Rises=F Damp=F
 DIIS: error= 4.00D-03 at cycle   4 NSaved=   4.
 NSaved= 4 IEnMin= 4 EnMin= -2996.56106231735     IErMin= 4 ErrMin= 4.00D-03
 ErrMax= 4.00D-03  0.00D+00 EMaxC= 1.00D-01 BMatC= 5.86D-03 BMatP= 6.57D-02
 IDIUse=3 WtCom= 9.60D-01 WtEn= 4.00D-02
 Coeff-Com:  0.109D+01-0.144D+01 0.889D+00 0.456D+00
 Coeff-En:   0.000D+00 0.000D+00 0.000D+00 0.100D+01
 Coeff:      0.105D+01-0.138D+01 0.854D+00 0.477D+00
 Gap=     0.226 Goal=   None    Shift=    0.000
 RMSDP=4.79D-04 MaxDP=1.58D-02 DE=-6.12D-02 OVMax= 3.64D-02

 Cycle   5  Pass 0  IDiag  1:
 RMSU=  1.66D-04    CP:  9.70D-01  2.08D+00  1.43D+00  2.44D-01
 E= -2996.56681505983     Delta-E=       -0.005752742474 Rises=F Damp=F
 DIIS: error= 1.46D-03 at cycle   5 NSaved=   5.
 NSaved= 5 IEnMin= 5 EnMin= -2996.56681505983     IErMin= 5 ErrMin= 1.46D-03
 ErrMax= 1.46D-03  0.00D+00 EMaxC= 1.00D-01 BMatC= 6.26D-04 BMatP= 5.86D-03
 IDIUse=3 WtCom= 9.85D-01 WtEn= 1.46D-02
 Coeff-Com:  0.187D+00-0.246D+00 0.171D+00 0.264D+00 0.624D+00
 Coeff-En:   0.000D+00 0.000D+00 0.000D+00 0.920D-01 0.908D+00
 Coeff:      0.184D+00-0.242D+00 0.168D+00 0.262D+00 0.628D+00
 Gap=     0.225 Goal=   None    Shift=    0.000
 RMSDP=1.43D-04 MaxDP=4.03D-03 DE=-5.75D-03 OVMax= 9.26D-03

 Cycle   6  Pass 0  IDiag  1:
 RMSU=  5.85D-05    CP:  9.70D-01  2.07D+00  1.42D+00  4.28D-01  5.24D-01
 E= -2996.56747190648     Delta-E=       -0.000656846653 Rises=F Damp=F
 DIIS: error= 2.59D-04 at cycle   6 NSaved=   6.
 NSaved= 6 IEnMin= 6 EnMin= -2996.56747190648     IErMin= 6 ErrMin= 2.59D-04
 ErrMax= 2.59D-04  0.00D+00 EMaxC= 1.00D-01 BMatC= 4.68D-05 BMatP= 6.26D-04
 IDIUse=3 WtCom= 9.97D-01 WtEn= 2.59D-03
 Coeff-Com:  0.453D-01-0.597D-01 0.481D-01 0.122D+00 0.351D+00 0.493D+00
 Coeff-En:   0.000D+00 0.000D+00 0.000D+00 0.000D+00 0.000D+00 0.100D+01
 Coeff:      0.452D-01-0.595D-01 0.480D-01 0.121D+00 0.351D+00 0.494D+00
 Gap=     0.225 Goal=   None    Shift=    0.000
 RMSDP=3.54D-05 MaxDP=1.50D-03 DE=-6.57D-04 OVMax= 1.87D-03

 Cycle   7  Pass 0  IDiag  1:
 RMSU=  1.77D-05    CP:  9.70D-01  2.08D+00  1.41D+00  4.22D-01  5.95D-01
                    CP:  5.59D-01
 E= -2996.56751868355     Delta-E=       -0.000046777076 Rises=F Damp=F
 DIIS: error= 7.05D-05 at cycle   7 NSaved=   7.
 NSaved= 7 IEnMin= 7 EnMin= -2996.56751868355     IErMin= 7 ErrMin= 7.05D-05
 ErrMax= 7.05D-05  0.00D+00 EMaxC= 1.00D-01 BMatC= 2.39D-06 BMatP= 4.68D-05
 IDIUse=1 WtCom= 1.00D+00 WtEn= 0.00D+00
 Coeff-Com:  0.146D-01-0.192D-01 0.166D-01 0.479D-01 0.146D+00 0.261D+00
 Coeff-Com:  0.534D+00
 Coeff:      0.146D-01-0.192D-01 0.166D-01 0.479D-01 0.146D+00 0.261D+00
 Coeff:      0.534D+00
 Gap=     0.225 Goal=   None    Shift=    0.000
 RMSDP=1.02D-05 MaxDP=4.16D-04 DE=-4.68D-05 OVMax= 8.25D-04

 Cycle   8  Pass 0  IDiag  1:
 RMSU=  6.09D-06    CP:  9.70D-01  2.08D+00  1.41D+00  4.20D-01  6.05D-01
                    CP:  5.87D-01  5.81D-01
 E= -2996.56752105243     Delta-E=       -0.000002368880 Rises=F Damp=F
 DIIS: error= 3.59D-05 at cycle   8 NSaved=   8.
 NSaved= 8 IEnMin= 8 EnMin= -2996.56752105243     IErMin= 8 ErrMin= 3.59D-05
 ErrMax= 3.59D-05  0.00D+00 EMaxC= 1.00D-01 BMatC= 3.65D-07 BMatP= 2.39D-06
 IDIUse=1 WtCom= 1.00D+00 WtEn= 0.00D+00
 Coeff-Com:  0.270D-02-0.351D-02 0.356D-02 0.129D-01 0.427D-01 0.938D-01
 Coeff-Com:  0.315D+00 0.532D+00
 Coeff:      0.270D-02-0.351D-02 0.356D-02 0.129D-01 0.427D-01 0.938D-01
 Coeff:      0.315D+00 0.532D+00
 Gap=     0.225 Goal=   None    Shift=    0.000
 RMSDP=3.38D-06 MaxDP=1.05D-04 DE=-2.37D-06 OVMax= 2.90D-04

 Initial convergence to 1.0D-05 achieved.  Increase integral accuracy.
 Cycle   9  Pass 1  IDiag  1:
 E= -2996.56757869532     Delta-E=       -0.000057642883 Rises=F Damp=F
 DIIS: error= 4.60D-05 at cycle   1 NSaved=   1.
 NSaved= 1 IEnMin= 1 EnMin= -2996.56757869532     IErMin= 1 ErrMin= 4.60D-05
 ErrMax= 4.60D-05  0.00D+00 EMaxC= 1.00D-01 BMatC= 2.06D-07 BMatP= 2.06D-07
 IDIUse=1 WtCom= 1.00D+00 WtEn= 0.00D+00
 Coeff-Com:  0.100D+01
 Coeff:      0.100D+01
 Gap=     0.225 Goal=   None    Shift=    0.000
 RMSDP=3.38D-06 MaxDP=1.05D-04 DE=-5.76D-05 OVMax= 1.73D-04

 Cycle  10  Pass 1  IDiag  1:
 RMSU=  1.76D-05    CP:  1.00D+00
 E= -2996.56757877220     Delta-E=       -0.000000076877 Rises=F Damp=F
 DIIS: error= 1.66D-05 at cycle   2 NSaved=   2.
 NSaved= 2 IEnMin= 2 EnMin= -2996.56757877220     IErMin= 2 ErrMin= 1.66D-05
 ErrMax= 1.66D-05  0.00D+00 EMaxC= 1.00D-01 BMatC= 7.05D-08 BMatP= 2.06D-07
 IDIUse=1 WtCom= 1.00D+00 WtEn= 0.00D+00
 Coeff-Com:  0.310D+00 0.690D+00
 Coeff:      0.310D+00 0.690D+00
 Gap=     0.225 Goal=   None    Shift=    0.000
 RMSDP=2.36D-06 MaxDP=8.70D-05 DE=-7.69D-08 OVMax= 2.17D-04

 Cycle  11  Pass 1  IDiag  1:
 RMSU=  2.36D-06    CP:  1.00D+00  1.01D+00
 E= -2996.56757877497     Delta-E=       -0.000000002778 Rises=F Damp=F
 DIIS: error= 1.81D-05 at cycle   3 NSaved=   3.
 NSaved= 3 IEnMin= 3 EnMin= -2996.56757877497     IErMin= 2 ErrMin= 1.66D-05
 ErrMax= 1.81D-05  0.00D+00 EMaxC= 1.00D-01 BMatC= 6.55D-08 BMatP= 7.05D-08
 IDIUse=1 WtCom= 1.00D+00 WtEn= 0.00D+00
 Coeff-Com:  0.117D-01 0.488D+00 0.500D+00
 Coeff:      0.117D-01 0.488D+00 0.500D+00
 Gap=     0.225 Goal=   None    Shift=    0.000
 RMSDP=1.27D-06 MaxDP=4.51D-05 DE=-2.78D-09 OVMax= 1.16D-04

 Cycle  12  Pass 1  IDiag  1:
 RMSU=  4.48D-07    CP:  1.00D+00  1.01D+00  4.96D-01
 E= -2996.56757884687     Delta-E=       -0.000000071900 Rises=F Damp=F
 DIIS: error= 1.77D-06 at cycle   4 NSaved=   4.
 NSaved= 4 IEnMin= 4 EnMin= -2996.56757884687     IErMin= 4 ErrMin= 1.77D-06
 ErrMax= 1.77D-06  0.00D+00 EMaxC= 1.00D-01 BMatC= 1.76D-09 BMatP= 6.55D-08
 IDIUse=1 WtCom= 1.00D+00 WtEn= 0.00D+00
 Coeff-Com: -0.282D-02 0.255D+00 0.287D+00 0.461D+00
 Coeff:     -0.282D-02 0.255D+00 0.287D+00 0.461D+00
 Gap=     0.225 Goal=   None    Shift=    0.000
 RMSDP=2.28D-07 MaxDP=9.91D-06 DE=-7.19D-08 OVMax= 1.80D-05

 Cycle  13  Pass 1  IDiag  1:
 RMSU=  9.20D-08    CP:  1.00D+00  1.01D+00  5.23D-01  5.61D-01
 E= -2996.56757884877     Delta-E=       -0.000000001893 Rises=F Damp=F
 DIIS: error= 2.36D-07 at cycle   5 NSaved=   5.
 NSaved= 5 IEnMin= 5 EnMin= -2996.56757884877     IErMin= 5 ErrMin= 2.36D-07
 ErrMax= 2.36D-07  0.00D+00 EMaxC= 1.00D-01 BMatC= 5.19D-11 BMatP= 1.76D-09
 IDIUse=1 WtCom= 1.00D+00 WtEn= 0.00D+00
 Coeff-Com: -0.189D-02 0.118D+00 0.136D+00 0.245D+00 0.503D+00
 Coeff:     -0.189D-02 0.118D+00 0.136D+00 0.245D+00 0.503D+00
 Gap=     0.225 Goal=   None    Shift=    0.000
 RMSDP=3.79D-08 MaxDP=1.58D-06 DE=-1.89D-09 OVMax= 1.75D-06

 Cycle  14  Pass 1  IDiag  1:
 RMSU=  3.30D-08    CP:  1.00D+00  1.01D+00  5.23D-01  5.50D-01  8.09D-01
 E= -2996.56757884881     Delta-E=       -0.000000000046 Rises=F Damp=F
 DIIS: error= 9.05D-08 at cycle   6 NSaved=   6.
 NSaved= 6 IEnMin= 6 EnMin= -2996.56757884881     IErMin= 6 ErrMin= 9.05D-08
 ErrMax= 9.05D-08  0.00D+00 EMaxC= 1.00D-01 BMatC= 3.15D-12 BMatP= 5.19D-11
 IDIUse=1 WtCom= 1.00D+00 WtEn= 0.00D+00
 Coeff-Com: -0.700D-03 0.376D-01 0.436D-01 0.827D-01 0.242D+00 0.594D+00
 Coeff:     -0.700D-03 0.376D-01 0.436D-01 0.827D-01 0.242D+00 0.594D+00
 Gap=     0.225 Goal=   None    Shift=    0.000
 RMSDP=1.21D-08 MaxDP=3.76D-07 DE=-4.59D-11 OVMax= 9.66D-07

 Cycle  15  Pass 1  IDiag  1:
 RMSU=  1.03D-08    CP:  1.00D+00  1.01D+00  5.23D-01  5.52D-01  8.51D-01
                    CP:  8.61D-01
 E= -2996.56757884883     Delta-E=       -0.000000000016 Rises=F Damp=F
 DIIS: error= 5.84D-08 at cycle   7 NSaved=   7.
 NSaved= 7 IEnMin= 7 EnMin= -2996.56757884883     IErMin= 7 ErrMin= 5.84D-08
 ErrMax= 5.84D-08  0.00D+00 EMaxC= 1.00D-01 BMatC= 9.19D-13 BMatP= 3.15D-12
 IDIUse=1 WtCom= 1.00D+00 WtEn= 0.00D+00
 Coeff-Com: -0.701D-04 0.511D-03 0.894D-03 0.404D-02 0.534D-01 0.377D+00
 Coeff-Com:  0.564D+00
 Coeff:     -0.701D-04 0.511D-03 0.894D-03 0.404D-02 0.534D-01 0.377D+00
 Coeff:      0.564D+00
 Gap=     0.225 Goal=   None    Shift=    0.000
 RMSDP=5.69D-09 MaxDP=2.26D-07 DE=-1.64D-11 OVMax= 5.04D-07

 SCF Done:  E(RB3LYP) =  -2996.56757885     A.U. after   15 cycles
            NFock= 15  Conv=0.57D-08     -V/T= 2.0066
 KE= 2.976989249325D+03 PE=-8.901661481104D+03 EE= 2.037271355671D+03
 Leave Link  502 at Tue Sep 17 09:53:02 2024, MaxMem=  1342177280 cpu:             111.1 elap:              15.1
 (Enter /groups/ReismanLab/Software/Gaussian16_RevC/Linux_Binary_AVX2-enabled-CPU/g16/l508.exe)
 QCSCF skips out because SCF is already converged.
 Leave Link  508 at Tue Sep 17 09:53:02 2024, MaxMem=  1342177280 cpu:               0.0 elap:               0.0
 (Enter /groups/ReismanLab/Software/Gaussian16_RevC/Linux_Binary_AVX2-enabled-CPU/g16/l601.exe)
 Copying SCF densities to generalized density rwf, IOpCl= 0 IROHF=0.

 **********************************************************************

            Population analysis using the SCF Density.

 **********************************************************************

 Orbital symmetries:
       Occupied  (A) (A) (A) (A) (A) (A) (A) (A) (A) (A) (A) (A)
                 (A) (A) (A) (A) (A) (A) (A) (A) (A) (A) (A) (A)
                 (A) (A) (A) (A) (A) (A) (A) (A) (A) (A) (A) (A)
                 (A) (A) (A) (A) (A) (A) (A) (A) (A) (A) (A) (A)
                 (A) (A) (A) (A) (A) (A)
       Virtual   (A) (A) (A) (A) (A) (A) (A) (A) (A) (A) (A) (A)
                 (A) (A) (A) (A) (A) (A) (A) (A) (A) (A) (A) (A)
                 (A) (A) (A) (A) (A) (A) (A) (A) (A) (A) (A) (A)
                 (A) (A) (A) (A) (A) (A) (A) (A) (A) (A) (A) (A)
                 (A) (A) (A) (A) (A) (A) (A) (A) (A) (A) (A) (A)
                 (A) (A) (A) (A) (A) (A) (A) (A) (A) (A) (A) (A)
                 (A) (A) (A) (A) (A) (A) (A) (A) (A) (A) (A) (A)
                 (A) (A) (A) (A) (A) (A) (A) (A) (A) (A) (A) (A)
                 (A) (A) (A) (A) (A) (A) (A) (A) (A) (A) (A) (A)
                 (A) (A) (A) (A) (A) (A) (A) (A) (A) (A) (A) (A)
                 (A) (A) (A) (A) (A) (A) (A) (A) (A) (A) (A) (A)
                 (A) (A) (A) (A) (A) (A) (A) (A) (A) (A) (A) (A)
                 (A) (A) (A) (A) (A) (A) (A) (A) (A) (A) (A) (A)
                 (A) (A) (A) (A) (A) (A) (A) (A) (A) (A) (A) (A)
                 (A) (A) (A) (A) (A) (A) (A) (A) (A) (A) (A) (A)
                 (A)
 The electronic state is 1-A.
 Alpha  occ. eigenvalues -- -482.91033 -61.87151 -56.39244 -56.38835 -56.38819
 Alpha  occ. eigenvalues --  -19.16246 -10.25205 -10.24139 -10.24099 -10.20131
 Alpha  occ. eigenvalues --  -10.19677 -10.19569 -10.19491 -10.17457 -10.17162
 Alpha  occ. eigenvalues --   -8.58203  -6.53583  -6.52316  -6.52263  -2.65154
 Alpha  occ. eigenvalues --   -2.64797  -2.64757  -2.63745  -2.63744  -1.05664
 Alpha  occ. eigenvalues --   -0.87347  -0.80261  -0.79053  -0.74624  -0.72019
 Alpha  occ. eigenvalues --   -0.69098  -0.62270  -0.61353  -0.57730  -0.53193
 Alpha  occ. eigenvalues --   -0.49312  -0.48328  -0.45662  -0.44978  -0.43669
 Alpha  occ. eigenvalues --   -0.42070  -0.39833  -0.39786  -0.38834  -0.37210
 Alpha  occ. eigenvalues --   -0.36767  -0.36303  -0.34955  -0.33097  -0.31113
 Alpha  occ. eigenvalues --   -0.28241  -0.27346  -0.25280  -0.23687
 Alpha virt. eigenvalues --   -0.01146  -0.00533   0.01137   0.09815   0.10442
 Alpha virt. eigenvalues --    0.12591   0.13881   0.14494   0.15243   0.15981
 Alpha virt. eigenvalues --    0.17133   0.17721   0.18465   0.18727   0.19547
 Alpha virt. eigenvalues --    0.19781   0.22666   0.24729   0.26354   0.27995
 Alpha virt. eigenvalues --    0.29475   0.29845   0.34043   0.34533   0.42838
 Alpha virt. eigenvalues --    0.44047   0.45365   0.46208   0.46844   0.48774
 Alpha virt. eigenvalues --    0.49113   0.50481   0.52230   0.53077   0.53560
 Alpha virt. eigenvalues --    0.55613   0.56998   0.57389   0.58150   0.59802
 Alpha virt. eigenvalues --    0.60119   0.60325   0.61299   0.61778   0.63108
 Alpha virt. eigenvalues --    0.65367   0.66608   0.67968   0.71640   0.73419
 Alpha virt. eigenvalues --    0.75504   0.75968   0.77638   0.79427   0.81634
 Alpha virt. eigenvalues --    0.82286   0.82541   0.86121   0.86977   0.88325
 Alpha virt. eigenvalues --    0.88923   0.90044   0.90712   0.91277   0.93845
 Alpha virt. eigenvalues --    0.94108   0.95802   0.97615   0.98834   0.99622
 Alpha virt. eigenvalues --    1.04760   1.05292   1.08697   1.10706   1.15503
 Alpha virt. eigenvalues --    1.19275   1.21460   1.23179   1.26014   1.30175
 Alpha virt. eigenvalues --    1.33346   1.34171   1.35105   1.40213   1.41012
 Alpha virt. eigenvalues --    1.42632   1.43940   1.50557   1.53430   1.56154
 Alpha virt. eigenvalues --    1.60356   1.61165   1.64557   1.68275   1.73345
 Alpha virt. eigenvalues --    1.79319   1.79727   1.82755   1.83877   1.85053
 Alpha virt. eigenvalues --    1.86275   1.88899   1.91136   1.93497   1.95897
 Alpha virt. eigenvalues --    1.96397   1.98442   1.99148   2.00197   2.01866
 Alpha virt. eigenvalues --    2.04328   2.04464   2.05733   2.06292   2.08844
 Alpha virt. eigenvalues --    2.09445   2.10910   2.11610   2.13115   2.18150
 Alpha virt. eigenvalues --    2.26462   2.27046   2.27697   2.31264   2.32559
 Alpha virt. eigenvalues --    2.36715   2.37804   2.38132   2.39329   2.41761
 Alpha virt. eigenvalues --    2.43184   2.46037   2.47820   2.50279   2.51553
 Alpha virt. eigenvalues --    2.52818   2.56727   2.57974   2.59186   2.64376
 Alpha virt. eigenvalues --    2.66349   2.70243   2.71155   2.72619   2.73805
 Alpha virt. eigenvalues --    2.75841   2.79616   2.82918   2.86094   2.90532
 Alpha virt. eigenvalues --    2.91203   2.92767   2.98376   2.99096   3.05661
 Alpha virt. eigenvalues --    3.10894   3.20806   3.21947   3.24594   3.25847
 Alpha virt. eigenvalues --    3.32482   3.33195   3.35596   3.43726   3.47266
 Alpha virt. eigenvalues --    3.48405   3.49610   3.53821   3.85285   4.10393
 Alpha virt. eigenvalues --    4.12762   4.14610   4.27310   4.35724   4.40991
 Alpha virt. eigenvalues --    4.50785   4.54057   4.67356   4.83730   8.64943
 Alpha virt. eigenvalues --   73.56584
          Condensed to atoms (all electrons):
               1          2          3          4          5          6
     1  C    5.011039   0.370054  -0.058916  -0.052184  -0.002111  -0.000881
     2  C    0.370054   4.694529   0.389255   0.218148  -0.021715  -0.004048
     3  C   -0.058916   0.389255   4.957468  -0.046447   0.001561  -0.000113
     4  O   -0.052184   0.218148  -0.046447   8.317529   0.262441  -0.059582
     5  C   -0.002111  -0.021715   0.001561   0.262441   4.637005   0.507475
     6  C   -0.000881  -0.004048  -0.000113  -0.059582   0.507475   4.966646
     7  C   -0.000203  -0.000043   0.000006   0.004990  -0.012362   0.491302
     8  C    0.000007   0.000025  -0.000000  -0.000055  -0.042753  -0.030806
     9  C    0.000012   0.000288   0.000007   0.004820  -0.013074  -0.049514
    10  C   -0.000187  -0.010292   0.000420  -0.073542   0.446792  -0.064890
    11  Br   0.000592  -0.003950  -0.003050  -0.001012  -0.059956   0.007212
    12  H    0.364782  -0.026342  -0.002344   0.003487  -0.000005  -0.000061
    13  H    0.377321  -0.027519   0.005213  -0.003066   0.004492   0.003306
    14  H    0.375491  -0.030654  -0.007512   0.001223  -0.000671   0.000367
    15  H   -0.062775   0.379513  -0.044899  -0.042480  -0.001987   0.000690
    16  H    0.005603  -0.027275   0.378793   0.000895  -0.000031  -0.000000
    17  H   -0.000237  -0.028904   0.370071   0.003356  -0.000035   0.000006
    18  H   -0.008887  -0.030172   0.379581  -0.000232   0.000101   0.000006
    19  H    0.000110  -0.000454  -0.000072  -0.001641  -0.036729   0.361043
    20  H   -0.000001  -0.000001  -0.000000  -0.000067   0.003741  -0.034145
    21  H    0.000000   0.000000  -0.000000   0.000001   0.000820   0.004611
    22  H   -0.000000  -0.000007  -0.000000  -0.000053   0.004337   0.000415
               7          8          9         10         11         12
     1  C   -0.000203   0.000007   0.000012  -0.000187   0.000592   0.364782
     2  C   -0.000043   0.000025   0.000288  -0.010292  -0.003950  -0.026342
     3  C    0.000006  -0.000000   0.000007   0.000420  -0.003050  -0.002344
     4  O    0.004990  -0.000055   0.004820  -0.073542  -0.001012   0.003487
     5  C   -0.012362  -0.042753  -0.013074   0.446792  -0.059956  -0.000005
     6  C    0.491302  -0.030806  -0.049514  -0.064890   0.007212  -0.000061
     7  C    4.845873   0.542321  -0.029901  -0.038279  -0.000118   0.000005
     8  C    0.542321   4.819869   0.520381  -0.030424   0.005775  -0.000000
     9  C   -0.029901   0.520381   4.906704   0.493682  -0.066511  -0.000001
    10  C   -0.038279  -0.030424   0.493682   5.008647   0.253914   0.000021
    11  Br  -0.000118   0.005775  -0.066511   0.253914  34.983325  -0.000002
    12  H    0.000005  -0.000000  -0.000001   0.000021  -0.000002   0.609436
    13  H    0.000081  -0.000024  -0.000028   0.000166   0.000001  -0.028429
    14  H    0.000023   0.000001  -0.000002   0.000018  -0.000015  -0.027675
    15  H    0.000043   0.000001  -0.000869   0.005569   0.004086   0.000897
    16  H   -0.000000  -0.000000   0.000004  -0.000058   0.004599  -0.000064
    17  H   -0.000000   0.000000  -0.000000  -0.000012   0.000048   0.001401
    18  H    0.000000   0.000000  -0.000000   0.000007   0.000020   0.000193
    19  H   -0.041871   0.005024   0.000305   0.007031  -0.000155   0.000019
    20  H    0.366355  -0.041018   0.004807   0.000742   0.000009  -0.000000
    21  H   -0.040055   0.370486  -0.038918   0.004549  -0.000159  -0.000000
    22  H    0.004818  -0.039000   0.367712  -0.037390  -0.003344   0.000000
              13         14         15         16         17         18
     1  C    0.377321   0.375491  -0.062775   0.005603  -0.000237  -0.008887
     2  C   -0.027519  -0.030654   0.379513  -0.027275  -0.028904  -0.030172
     3  C    0.005213  -0.007512  -0.044899   0.378793   0.370071   0.379581
     4  O   -0.003066   0.001223  -0.042480   0.000895   0.003356  -0.000232
     5  C    0.004492  -0.000671  -0.001987  -0.000031  -0.000035   0.000101
     6  C    0.003306   0.000367   0.000690  -0.000000   0.000006   0.000006
     7  C    0.000081   0.000023   0.000043  -0.000000  -0.000000   0.000000
     8  C   -0.000024   0.000001   0.000001  -0.000000   0.000000   0.000000
     9  C   -0.000028  -0.000002  -0.000869   0.000004  -0.000000  -0.000000
    10  C    0.000166   0.000018   0.005569  -0.000058  -0.000012   0.000007
    11  Br   0.000001  -0.000015   0.004086   0.004599   0.000048   0.000020
    12  H   -0.028429  -0.027675   0.000897  -0.000064   0.001401   0.000193
    13  H    0.596242  -0.031518  -0.004426  -0.000216  -0.000001  -0.000036
    14  H   -0.031518   0.597317   0.006175  -0.000071   0.000031   0.005670
    15  H   -0.004426   0.006175   0.664758  -0.005669  -0.001537   0.006221
    16  H   -0.000216  -0.000071  -0.005669   0.576631  -0.026902  -0.029642
    17  H   -0.000001   0.000031  -0.001537  -0.026902   0.609981  -0.029393
    18  H   -0.000036   0.005670   0.006221  -0.029642  -0.029393   0.592551
    19  H    0.000209   0.000895   0.000250  -0.000001   0.000001   0.000014
    20  H   -0.000004  -0.000000  -0.000001   0.000000   0.000000  -0.000000
    21  H   -0.000000  -0.000000   0.000000   0.000000  -0.000000   0.000000
    22  H   -0.000000   0.000000   0.000016  -0.000000   0.000000   0.000000
              19         20         21         22
     1  C    0.000110  -0.000001   0.000000  -0.000000
     2  C   -0.000454  -0.000001   0.000000  -0.000007
     3  C   -0.000072  -0.000000  -0.000000  -0.000000
     4  O   -0.001641  -0.000067   0.000001  -0.000053
     5  C   -0.036729   0.003741   0.000820   0.004337
     6  C    0.361043  -0.034145   0.004611   0.000415
     7  C   -0.041871   0.366355  -0.040055   0.004818
     8  C    0.005024  -0.041018   0.370486  -0.039000
     9  C    0.000305   0.004807  -0.038918   0.367712
    10  C    0.007031   0.000742   0.004549  -0.037390
    11  Br  -0.000155   0.000009  -0.000159  -0.003344
    12  H    0.000019  -0.000000  -0.000000   0.000000
    13  H    0.000209  -0.000004  -0.000000  -0.000000
    14  H    0.000895  -0.000000  -0.000000   0.000000
    15  H    0.000250  -0.000001   0.000000   0.000016
    16  H   -0.000001   0.000000   0.000000  -0.000000
    17  H    0.000001   0.000000  -0.000000   0.000000
    18  H    0.000014  -0.000000   0.000000   0.000000
    19  H    0.614113  -0.006709  -0.000193   0.000017
    20  H   -0.006709   0.620407  -0.006068  -0.000201
    21  H   -0.000193  -0.006068   0.619154  -0.006370
    22  H    0.000017  -0.000201  -0.006370   0.600436
 Mulliken charges:
               1
     1  C   -0.318628
     2  C    0.159565
     3  C   -0.319021
     4  O   -0.536529
     5  C    0.322663
     6  C   -0.099036
     7  C   -0.092986
     8  C   -0.079810
     9  C   -0.099904
    10  C    0.033516
    11  Br  -0.121309
    12  H    0.104680
    13  H    0.108235
    14  H    0.110908
    15  H    0.096423
    16  H    0.123404
    17  H    0.102126
    18  H    0.113998
    19  H    0.098794
    20  H    0.092154
    21  H    0.092140
    22  H    0.108616
 Sum of Mulliken charges =  -0.00000
 Mulliken charges with hydrogens summed into heavy atoms:
               1
     1  C    0.005196
     2  C    0.255988
     3  C    0.020507
     4  O   -0.536529
     5  C    0.322663
     6  C   -0.000242
     7  C   -0.000831
     8  C    0.012331
     9  C    0.008712
    10  C    0.033516
    11  Br  -0.121309
 Electronic spatial extent (au):  <R**2>=           2470.6157
 Charge=             -0.0000 electrons
 Dipole moment (field-independent basis, Debye):
    X=             -0.2813    Y=              1.4813    Z=              1.1366  Tot=              1.8882
 Quadrupole moment (field-independent basis, Debye-Ang):
   XX=            -69.3356   YY=            -74.0330   ZZ=            -80.3013
   XY=             -1.4809   XZ=              0.3752   YZ=             -0.4789
 Traceless Quadrupole moment (field-independent basis, Debye-Ang):
   XX=              5.2210   YY=              0.5236   ZZ=             -5.7447
   XY=             -1.4809   XZ=              0.3752   YZ=             -0.4789
 Octapole moment (field-independent basis, Debye-Ang**2):
  XXX=            -10.6657  YYY=            -51.0270  ZZZ=             -0.6784  XYY=             -3.8681
  XXY=            -14.3459  XXZ=              7.7971  XZZ=              4.1929  YZZ=            -22.0680
  YYZ=             -4.2378  XYZ=              1.1830
 Hexadecapole moment (field-independent basis, Debye-Ang**3):
 XXXX=          -1664.4891 YYYY=          -1110.8889 ZZZZ=           -186.0567 XXXY=              3.3330
 XXXZ=            -19.1735 YYYX=            -16.3263 YYYZ=            -17.9753 ZZZX=             -0.5450
 ZZZY=             -2.5596 XXYY=           -468.5776 XXZZ=           -329.2618 YYZZ=           -232.8470
 XXYZ=             -1.8698 YYXZ=             -3.3758 ZZXY=             11.5896
 N-N= 8.908332972584D+02 E-N=-8.901661499861D+03  KE= 2.976989249325D+03
 No NMR shielding tensors so no spin-rotation constants.
 Leave Link  601 at Tue Sep 17 09:53:02 2024, MaxMem=  1342177280 cpu:               0.5 elap:               0.1
 (Enter /groups/ReismanLab/Software/Gaussian16_RevC/Linux_Binary_AVX2-enabled-CPU/g16/l701.exe)
 ... and contract with generalized density number  0.
 Compute integral first derivatives.
 R6Disp: Adding Grimme-D3(BJ) dispersion energy 1st derivatives to the gradient.
 Leave Link  701 at Tue Sep 17 09:53:02 2024, MaxMem=  1342177280 cpu:               0.6 elap:               0.1
 (Enter /groups/ReismanLab/Software/Gaussian16_RevC/Linux_Binary_AVX2-enabled-CPU/g16/l702.exe)
 L702 exits ... SP integral derivatives will be done elsewhere.
 Leave Link  702 at Tue Sep 17 09:53:02 2024, MaxMem=  1342177280 cpu:               0.1 elap:               0.0
 (Enter /groups/ReismanLab/Software/Gaussian16_RevC/Linux_Binary_AVX2-enabled-CPU/g16/l703.exe)
 Integral derivatives from FoFJK, PRISM(SPDF).
 Compute integral first derivatives, UseDBF=F ICtDFT=           0.
 Calling FoFJK, ICntrl=      2127 FMM=F ISym2X=0 I1Cent= 0 IOpClX= 0 NMat=1 NMatS=1 NMatT=0.
 FoFJK:  IHMeth= 1 ICntrl=    2127 DoSepK=F KAlg= 0 I1Cent=           0 FoldK=F
 IRaf=         0 NMat=       1 IRICut=       1 DoRegI=T DoRafI=F ISym2E= 0 IDoP0=0 IntGTp=1.
 FoFCou: FMM=F IPFlag=           0 FMFlag=      100000 FMFlg1=         800
         NFxFlg=           0 DoJE=F BraDBF=F KetDBF=F FulRan=T
         wScrn=  0.000000 ICntrl=      2127 IOpCl=  0 I1Cent=           0 NGrid=           0
         NMat0=    1 NMatS0=      1 NMatT0=    0 NMatD0=    1 NMtDS0=    0 NMtDT0=    0
 Symmetry not used in FoFCou.
 Leave Link  703 at Tue Sep 17 09:53:07 2024, MaxMem=  1342177280 cpu:              34.4 elap:               4.4
 (Enter /groups/ReismanLab/Software/Gaussian16_RevC/Linux_Binary_AVX2-enabled-CPU/g16/l716.exe)
 Dipole        =-1.10658356D-01 5.82803143D-01 4.47168553D-01
 ***** Axes restored to original set *****
 -------------------------------------------------------------------
 Center     Atomic                   Forces (Hartrees/Bohr)
 Number     Number              X              Y              Z
 -------------------------------------------------------------------
      1        6          -0.006874888    0.001565505    0.001615116
      2        6           0.008944028    0.004003677   -0.009064308
      3        6          -0.006279172   -0.005025088   -0.000987242
      4        8          -0.003423778   -0.003033522    0.006642224
      5        6           0.002150766    0.002961857    0.001146861
      6        6           0.005920225    0.001382626    0.002190149
      7        6           0.001168805   -0.006268764    0.000924777
      8        6          -0.004137786   -0.004555307   -0.001055112
      9        6          -0.005300695    0.002306817   -0.002524074
     10        6           0.000315024    0.007955621   -0.000411763
     11       35          -0.000417494    0.002612799   -0.001085534
     12        1           0.003279483    0.000827165   -0.003975147
     13        1          -0.000127420   -0.003351057   -0.001277475
     14        1           0.003240564   -0.001021501    0.003208577
     15        1          -0.001021504    0.000226987    0.002531708
     16        1          -0.003120754    0.002633647    0.000947764
     17        1           0.003281108    0.002412252   -0.002839545
     18        1           0.003517646    0.000336786    0.003784654
     19        1           0.003728729   -0.000261808    0.001372723
     20        1           0.000967453   -0.004085187    0.000809312
     21        1          -0.003105029   -0.002991828   -0.000781494
     22        1          -0.002705310    0.001368326   -0.001172170
 -------------------------------------------------------------------
 Cartesian Forces:  Max     0.009064308 RMS     0.003507810
 Leave Link  716 at Tue Sep 17 09:53:07 2024, MaxMem=  1342177280 cpu:               0.1 elap:               0.1
 (Enter /groups/ReismanLab/Software/Gaussian16_RevC/Linux_Binary_AVX2-enabled-CPU/g16/l103.exe)

 GradGradGradGradGradGradGradGradGradGradGradGradGradGradGradGradGradGrad
 Berny optimization.
 FormGI is forming the generalized inverse of G from B-inverse, IUseBI=4.
 Internal  Forces:  Max     0.011056664 RMS     0.002840019
 Search for a local minimum.
 Step number   1 out of a maximum of  116
 All quantities printed in internal units (Hartrees-Bohrs-Radians)
 RMS Force = .28400D-02 SwitMx=.10000D-02 MixMth= 1
 Mixed Optimization -- RFO/linear search
 Second derivative matrix not updated -- first step.
 ITU=  0
     Eigenvalues ---    0.00402   0.00474   0.01250   0.02143   0.02179
     Eigenvalues ---    0.02204   0.02238   0.02258   0.02283   0.02298
     Eigenvalues ---    0.02302   0.02304   0.02310   0.04424   0.04990
     Eigenvalues ---    0.05678   0.05750   0.05774   0.05834   0.07319
     Eigenvalues ---    0.15999   0.15999   0.16000   0.16000   0.16000
     Eigenvalues ---    0.16000   0.16000   0.16000   0.16000   0.16000
     Eigenvalues ---    0.16506   0.18081   0.19608   0.21999   0.22489
     Eigenvalues ---    0.24477   0.24953   0.24993   0.25000   0.29656
     Eigenvalues ---    0.30167   0.33677   0.34974   0.35109   0.35206
     Eigenvalues ---    0.35206   0.35225   0.35275   0.36067   0.36074
     Eigenvalues ---    0.36092   0.36111   0.40502   0.43129   0.43513
     Eigenvalues ---    0.47128   0.47725   0.48391   0.48551   0.51782
 RFO step:  Lambda=-2.49456575D-03 EMin= 4.02288128D-03
 Linear search not attempted -- first point.
 Iteration  1 RMS(Cart)=  0.04208882 RMS(Int)=  0.00057828
 Iteration  2 RMS(Cart)=  0.00104611 RMS(Int)=  0.00005418
 Iteration  3 RMS(Cart)=  0.00000060 RMS(Int)=  0.00005418
 ITry= 1 IFail=0 DXMaxC= 1.46D-01 DCOld= 1.00D+10 DXMaxT= 3.00D-01 DXLimC= 3.00D+00 Rises=F
 Variable       Old X    -DE/DX   Delta X   Delta X   Delta X     New X
                                 (Linear)    (Quad)   (Total)
    R1        2.88654   0.00101   0.00000   0.00339   0.00339   2.88993
    R2        2.05311   0.00508   0.00000   0.01433   0.01433   2.06744
    R3        2.05717   0.00336   0.00000   0.00954   0.00954   2.06671
    R4        2.05498   0.00461   0.00000   0.01304   0.01304   2.06802
    R5        2.87631  -0.00035   0.00000  -0.00116  -0.00116   2.87515
    R6        2.70876   0.00816   0.00000   0.02003   0.02003   2.72880
    R7        2.07879  -0.00139   0.00000  -0.00409  -0.00409   2.07470
    R8        2.05341   0.00419   0.00000   0.01182   0.01182   2.06524
    R9        2.05230   0.00486   0.00000   0.01367   0.01367   2.06597
   R10        2.05341   0.00504   0.00000   0.01420   0.01420   2.06761
   R11        2.58109   0.00080   0.00000   0.00155   0.00155   2.58263
   R12        2.62920   0.00661   0.00000   0.01361   0.01361   2.64281
   R13        2.63617   0.00749   0.00000   0.01556   0.01557   2.65174
   R14        2.61406   0.01039   0.00000   0.02140   0.02139   2.63545
   R15        2.03937   0.00390   0.00000   0.01074   0.01074   2.05012
   R16        2.61634   0.01053   0.00000   0.02214   0.02213   2.63848
   R17        2.03976   0.00427   0.00000   0.01177   0.01177   2.05153
   R18        2.61502   0.01106   0.00000   0.02308   0.02308   2.63811
   R19        2.03908   0.00438   0.00000   0.01205   0.01205   2.05113
   R20        2.61313   0.00931   0.00000   0.01896   0.01897   2.63210
   R21        2.03966   0.00321   0.00000   0.00885   0.00885   2.04851
   R22        3.59710   0.00277   0.00000   0.01513   0.01513   3.61223
    A1        1.91609   0.00120   0.00000   0.00708   0.00706   1.92315
    A2        1.93003   0.00140   0.00000   0.00879   0.00876   1.93879
    A3        1.91805   0.00056   0.00000   0.00359   0.00357   1.92162
    A4        1.89625  -0.00136   0.00000  -0.00868  -0.00871   1.88754
    A5        1.90309  -0.00093   0.00000  -0.00601  -0.00602   1.89708
    A6        1.89993  -0.00094   0.00000  -0.00520  -0.00522   1.89470
    A7        1.95366   0.00344   0.00000   0.02393   0.02386   1.97752
    A8        1.92839  -0.00001   0.00000   0.00321   0.00330   1.93169
    A9        1.90018  -0.00006   0.00000   0.01073   0.01070   1.91088
   A10        1.85891  -0.00200   0.00000  -0.01134  -0.01150   1.84742
   A11        1.91130  -0.00107   0.00000  -0.00651  -0.00690   1.90440
   A12        1.91089  -0.00039   0.00000  -0.02157  -0.02168   1.88921
   A13        1.91758  -0.00022   0.00000  -0.00063  -0.00063   1.91694
   A14        1.92068   0.00096   0.00000   0.00538   0.00538   1.92606
   A15        1.91385   0.00126   0.00000   0.00755   0.00754   1.92139
   A16        1.90497  -0.00032   0.00000  -0.00153  -0.00153   1.90343
   A17        1.89699  -0.00040   0.00000  -0.00138  -0.00139   1.89560
   A18        1.90956  -0.00131   0.00000  -0.00957  -0.00958   1.89998
   A19        2.02830  -0.00000   0.00000  -0.00001  -0.00001   2.02829
   A20        2.10387  -0.00176   0.00000  -0.00605  -0.00607   2.09780
   A21        2.11653  -0.00058   0.00000  -0.00136  -0.00137   2.11516
   A22        2.06130   0.00235   0.00000   0.00793   0.00792   2.06922
   A23        2.10704  -0.00020   0.00000  -0.00147  -0.00147   2.10557
   A24        2.06459  -0.00069   0.00000  -0.00414  -0.00413   2.06046
   A25        2.11149   0.00089   0.00000   0.00560   0.00560   2.11708
   A26        2.09885  -0.00087   0.00000  -0.00267  -0.00268   2.09617
   A27        2.08840   0.00030   0.00000   0.00051   0.00052   2.08892
   A28        2.09593   0.00057   0.00000   0.00216   0.00216   2.09810
   A29        2.09394  -0.00038   0.00000   0.00012   0.00011   2.09405
   A30        2.10166   0.00023   0.00000   0.00019   0.00018   2.10185
   A31        2.08754   0.00016   0.00000  -0.00025  -0.00025   2.08729
   A32        2.08491   0.00015   0.00000   0.00131   0.00132   2.08623
   A33        2.10804   0.00042   0.00000   0.00240   0.00240   2.11044
   A34        2.09020  -0.00057   0.00000  -0.00369  -0.00370   2.08650
   A35        2.12013  -0.00104   0.00000  -0.00500  -0.00505   2.11508
   A36        2.07699   0.00069   0.00000   0.00337   0.00330   2.08029
   A37        2.08580   0.00036   0.00000   0.00208   0.00201   2.08780
    D1       -1.04756  -0.00046   0.00000  -0.01541  -0.01544  -1.06301
    D2       -3.11617  -0.00015   0.00000  -0.01872  -0.01876  -3.13493
    D3        1.06792   0.00038   0.00000  -0.00091  -0.00082   1.06710
    D4       -3.13970  -0.00041   0.00000  -0.01472  -0.01475   3.12873
    D5        1.07488  -0.00011   0.00000  -0.01802  -0.01807   1.05681
    D6       -1.02421   0.00042   0.00000  -0.00021  -0.00013  -1.02434
    D7        1.04552  -0.00050   0.00000  -0.01616  -0.01620   1.02933
    D8       -1.02308  -0.00019   0.00000  -0.01946  -0.01951  -1.04259
    D9       -3.12217   0.00033   0.00000  -0.00166  -0.00157  -3.12374
   D10        3.13263   0.00023   0.00000   0.00622   0.00622   3.13885
   D11        1.03464   0.00017   0.00000   0.00512   0.00513   1.03976
   D12       -1.06667   0.00039   0.00000   0.00878   0.00879  -1.05788
   D13       -1.04118   0.00094   0.00000   0.01685   0.01678  -1.02440
   D14       -3.13916   0.00087   0.00000   0.01575   0.01569  -3.12348
   D15        1.04272   0.00109   0.00000   0.01942   0.01935   1.06207
   D16        1.02357  -0.00122   0.00000  -0.01850  -0.01845   1.00513
   D17       -1.07441  -0.00128   0.00000  -0.01960  -0.01954  -1.09395
   D18        3.10747  -0.00106   0.00000  -0.01594  -0.01588   3.09159
   D19       -1.38712   0.00073   0.00000  -0.01603  -0.01606  -1.40318
   D20        2.77057  -0.00219   0.00000  -0.03990  -0.03977   2.73079
   D21        0.70555   0.00041   0.00000  -0.01445  -0.01455   0.69100
   D22        1.77587   0.00106   0.00000   0.04629   0.04631   1.82218
   D23       -1.42544   0.00141   0.00000   0.05704   0.05702  -1.36842
   D24        3.09752   0.00003   0.00000   0.00057   0.00057   3.09809
   D25       -0.03158   0.00004   0.00000   0.00129   0.00127  -0.03030
   D26        0.01380  -0.00022   0.00000  -0.00955  -0.00956   0.00423
   D27       -3.11531  -0.00021   0.00000  -0.00883  -0.00886  -3.12416
   D28       -3.10254  -0.00001   0.00000  -0.00136  -0.00139  -3.10392
   D29        0.01394   0.00049   0.00000   0.01921   0.01920   0.03314
   D30       -0.01925   0.00019   0.00000   0.00868   0.00869  -0.01056
   D31        3.09722   0.00070   0.00000   0.02925   0.02928   3.12650
   D32        0.00316   0.00005   0.00000   0.00163   0.00161   0.00476
   D33       -3.14048   0.00007   0.00000   0.00251   0.00250  -3.13799
   D34        3.13192   0.00003   0.00000   0.00083   0.00080   3.13272
   D35       -0.01172   0.00005   0.00000   0.00171   0.00169  -0.01002
   D36       -0.01526   0.00019   0.00000   0.00763   0.00761  -0.00765
   D37        3.13697   0.00002   0.00000   0.00072   0.00072   3.13769
   D38        3.12839   0.00018   0.00000   0.00674   0.00672   3.13511
   D39       -0.00257   0.00000   0.00000  -0.00016  -0.00017  -0.00274
   D40        0.00992  -0.00022   0.00000  -0.00850  -0.00849   0.00143
   D41       -3.12284  -0.00028   0.00000  -0.01128  -0.01127  -3.13411
   D42        3.14096  -0.00004   0.00000  -0.00164  -0.00165   3.13931
   D43        0.00820  -0.00011   0.00000  -0.00442  -0.00443   0.00378
   D44        0.00755   0.00001   0.00000   0.00021   0.00022   0.00778
   D45       -3.10880  -0.00051   0.00000  -0.02048  -0.02046  -3.12926
   D46        3.14040   0.00007   0.00000   0.00299   0.00299  -3.13979
   D47        0.02405  -0.00044   0.00000  -0.01770  -0.01769   0.00636
         Item               Value     Threshold  Converged?
 Maximum Force            0.011057     0.000450     NO 
 RMS     Force            0.002840     0.000300     NO 
 Maximum Displacement     0.145737     0.001800     NO 
 RMS     Displacement     0.042653     0.001200     NO 
 Predicted change in Energy=-1.271684D-03
 Lowest energy point so far.  Saving SCF results.
 GradGradGradGradGradGradGradGradGradGradGradGradGradGradGradGradGradGrad

 Leave Link  103 at Tue Sep 17 09:53:07 2024, MaxMem=  1342177280 cpu:               0.1 elap:               0.0
 (Enter /groups/ReismanLab/Software/Gaussian16_RevC/Linux_Binary_AVX2-enabled-CPU/g16/l202.exe)
                          Input orientation:                          
 ---------------------------------------------------------------------
 Center     Atomic      Atomic             Coordinates (Angstroms)
 Number     Number       Type             X           Y           Z
 ---------------------------------------------------------------------
      1          6           0        3.271349   -0.354033   -0.662081
      2          6           0        2.153730    0.609445   -0.260392
      3          6           0        2.665436    1.965699    0.201764
      4          8           0        1.394280    0.076511    0.846137
      5          6           0        0.446888   -0.857653    0.533763
      6          6           0        0.679255   -2.211001    0.798903
      7          6           0       -0.301186   -3.166160    0.531748
      8          6           0       -1.527638   -2.777893   -0.010929
      9          6           0       -1.776977   -1.430581   -0.278261
     10          6           0       -0.794857   -0.482519   -0.001420
     11         35           0       -1.141039    1.365246   -0.347522
     12          1           0        3.845502    0.060389   -1.496066
     13          1           0        2.864635   -1.319784   -0.975114
     14          1           0        3.947917   -0.518207    0.182256
     15          1           0        1.471257    0.752599   -1.108381
     16          1           0        1.823032    2.607659    0.471246
     17          1           0        3.240417    2.446557   -0.594100
     18          1           0        3.307818    1.845863    1.079326
     19          1           0        1.635835   -2.489976    1.227948
     20          1           0       -0.105537   -4.212144    0.746730
     21          1           0       -2.293082   -3.517275   -0.224300
     22          1           0       -2.726289   -1.111428   -0.693058
 ---------------------------------------------------------------------
                    Distance matrix (angstroms):
                    1          2          3          4          5
     1  C    0.000000
     2  C    1.529286   0.000000
     3  C    2.548434   1.521465   0.000000
     4  O    2.446115   1.444018   2.366450   0.000000
     5  C    3.108256   2.386706   3.606035   1.366672   0.000000
     6  C    3.507386   3.354265   4.663294   2.397124   1.398515
     7  C    4.700669   4.572668   5.936810   3.672651   2.426690
     8  C    5.415661   5.008869   6.334728   4.173703   2.807627
     9  C    5.176086   4.428598   5.612501   3.686796   2.435817
    10  C    4.121531   3.154936   4.243664   2.413129   1.403239
    11  Br   4.745949   3.381468   3.892494   3.084397   2.870445
    12  H    1.094042   2.165743   2.811652   3.390378   4.063690
    13  H    1.093655   2.176727   3.495586   2.725535   2.887174
    14  H    1.094350   2.164865   2.795519   2.704716   3.534965
    15  H    2.159665   1.097884   2.148058   2.069580   2.517713
    16  H    3.486212   2.153490   1.092877   2.594433   3.729084
    17  H    2.801586   2.160377   1.093264   3.331609   4.471429
    18  H    2.805953   2.157659   1.094134   2.616603   3.973859
    19  H    3.287760   3.477036   4.686808   2.605952   2.135408
    20  H    5.317248   5.419068   6.792718   4.544435   3.406338
    21  H    6.415657   6.066734   7.404825   5.259066   3.893031
    22  H    6.045351   5.192609   6.272169   4.556249   3.411531
                    6          7          8          9         10
     6  C    0.000000
     7  C    1.394620   0.000000
     8  C    2.418175   1.396222   0.000000
     9  C    2.793279   2.417914   1.396025   0.000000
    10  C    2.408562   2.780272   2.409523   1.392846   0.000000
    11  Br   4.173404   4.691707   4.174729   2.868077   1.911508
    12  H    4.522302   5.631844   6.255567   5.942920   4.905267
    13  H    2.952506   3.962595   4.727346   4.694938   3.878270
    14  H    3.732285   5.018832   5.926652   5.815402   4.746463
    15  H    3.612191   4.603070   4.760478   4.000799   2.808229
    16  H    4.963373   6.152476   6.361106   5.461612   4.077494
    17  H    5.494802   6.731499   7.097135   6.348716   5.021374
    18  H    4.842120   6.200414   6.778600   6.199457   4.839558
    19  H    1.084875   2.166557   3.409586   3.877920   3.383710
    20  H    2.150161   1.085623   2.157196   3.403147   3.865875
    21  H    3.404128   2.159292   1.085411   2.150249   3.391769
    22  H    3.877207   3.406347   2.163139   1.084024   2.145767
                   11         12         13         14         15
    11  Br   0.000000
    12  H    5.280851   0.000000
    13  H    4.862991   1.771544   0.000000
    14  H    5.452112   1.778208   1.776381   0.000000
    15  H    2.788966   2.503297   2.500807   3.068312   0.000000
    16  H    3.316577   3.801222   4.312970   3.790738   2.461751
    17  H    4.519645   2.621730   3.804170   3.145331   2.502779
    18  H    4.696724   3.179569   3.799797   2.608311   3.058471
    19  H    5.005584   4.336731   2.780787   3.213575   3.999976
    20  H    5.777277   6.236615   4.489143   5.513101   5.529592
    21  H    5.018108   7.217983   5.656389   6.936120   5.760527
    22  H    2.960799   6.723571   5.601910   6.757448   4.611559
                   16         17         18         19         20
    16  H    0.000000
    17  H    1.780421   0.000000
    18  H    1.776143   1.779250   0.000000
    19  H    5.156891   5.501263   4.649421   0.000000
    20  H    7.092601   7.571758   6.961398   2.495958   0.000000
    21  H    7.412220   8.143934   7.863382   4.312860   2.492207
    22  H    5.990287   6.947706   6.949630   4.961732   4.307641
                   21         22
    21  H    0.000000
    22  H    2.489077   0.000000
 Stoichiometry    C9H11BrO
 Framework group  C1[X(C9H11BrO)]
 Deg. of freedom    60
 Full point group                 C1      NOp   1
 RotChk:  IX=0 Diff= 1.09D-01
 Largest Abelian subgroup         C1      NOp   1
 Largest concise Abelian subgroup C1      NOp   1
                         Standard orientation:                         
 ---------------------------------------------------------------------
 Center     Atomic      Atomic             Coordinates (Angstroms)
 Number     Number       Type             X           Y           Z
 ---------------------------------------------------------------------
      1          6           0        2.200917    2.131588    0.889824
      2          6           0        1.971403    0.747768    0.280659
      3          6           0        3.226459    0.144119   -0.331955
      4          8           0        1.003812    0.815651   -0.789082
      5          6           0       -0.310004    0.844277   -0.413770
      6          6           0       -1.031342    2.041138   -0.468879
      7          6           0       -2.385707    2.070644   -0.137531
      8          6           0       -3.035102    0.900185    0.259643
      9          6           0       -2.330436   -0.303596    0.316604
     10          6           0       -0.979848   -0.325269   -0.023193
     11         35           0       -0.017473   -1.975840    0.034361
     12          1           0        2.939861    2.072100    1.694405
     13          1           0        1.274603    2.536241    1.307292
     14          1           0        2.569504    2.822574    0.125440
     15          1           0        1.584749    0.067988    1.051209
     16          1           0        2.999677   -0.841388   -0.746352
     17          1           0        4.007950    0.041595    0.425666
     18          1           0        3.596898    0.784902   -1.137747
     19          1           0       -0.509464    2.937202   -0.787730
     20          1           0       -2.931511    3.007676   -0.188958
     21          1           0       -4.088137    0.917796    0.522179
     22          1           0       -2.821114   -1.222604    0.616217
 ---------------------------------------------------------------------
 Rotational constants (GHZ):           0.8784365           0.7833719           0.4414319
 Leave Link  202 at Tue Sep 17 09:53:07 2024, MaxMem=  1342177280 cpu:               0.1 elap:               0.0
 (Enter /groups/ReismanLab/Software/Gaussian16_RevC/Linux_Binary_AVX2-enabled-CPU/g16/l301.exe)
 Standard basis: 6-31G(d,p) (6D, 7F)
 Ernie: Thresh=  0.10000D-02 Tol=  0.10000D-05 Strict=F.
 There are   235 symmetry adapted cartesian basis functions of A   symmetry.
 There are   235 symmetry adapted basis functions of A   symmetry.
   235 basis functions,   440 primitive gaussians,   235 cartesian basis functions
    54 alpha electrons       54 beta electrons
       nuclear repulsion energy       888.8756910280 Hartrees.
 IExCor=  402 DFT=T Ex+Corr=B3LYP ExCW=0 ScaHFX=  0.200000
 ScaDFX=  0.800000  0.720000  1.000000  0.810000 ScalE2=  1.000000  1.000000
 IRadAn=      5 IRanWt=     -1 IRanGd=            0 ICorTp=0 IEmpDi=141
 NAtoms=   22 NActive=   22 NUniq=   22 SFac= 1.00D+00 NAtFMM=   60 NAOKFM=F Big=F
 Integral buffers will be    131072 words long.
 Raffenetti 2 integral format.
 Two-electron integral symmetry is turned on.
 R6Disp:  Grimme-D3(BJ) Dispersion energy=       -0.0435122363 Hartrees.
[...]
                 (A) (A) (A) (A) (A) (A) (A) (A) (A) (A) (A) (A)
                 (A) (A) (A) (A) (A) (A) (A) (A) (A) (A) (A) (A)
                 (A) (A) (A) (A) (A) (A) (A) (A) (A) (A) (A) (A)
                 (A) (A) (A) (A) (A) (A) (A) (A) (A) (A) (A) (A)
                 (A) (A) (A) (A) (A) (A) (A) (A) (A) (A) (A) (A)
                 (A) (A) (A) (A) (A) (A) (A) (A) (A) (A) (A) (A)
                 (A) (A) (A) (A) (A) (A) (A) (A) (A) (A) (A) (A)
                 (A) (A) (A) (A) (A) (A) (A) (A) (A) (A) (A) (A)
                 (A) (A) (A) (A) (A) (A) (A) (A) (A) (A) (A) (A)
                 (A) (A) (A) (A) (A) (A) (A) (A) (A) (A) (A) (A)
                 (A) (A) (A) (A) (A) (A) (A) (A) (A) (A) (A) (A)
                 (A) (A) (A) (A) (A) (A) (A) (A) (A) (A) (A) (A)
                 (A) (A) (A) (A) (A) (A) (A) (A) (A) (A) (A) (A)
                 (A) (A) (A) (A) (A) (A) (A) (A) (A) (A) (A) (A)
                 (A) (A) (A) (A) (A) (A) (A) (A) (A) (A) (A) (A)
                 (A) (A) (A) (A) (A) (A) (A) (A) (A) (A) (A) (A)
                 (A) (A) (A) (A) (A) (A) (A) (A) (A) (A) (A) (A)
                 (A) (A) (A) (A) (A) (A) (A) (A) (A) (A) (A) (A)
                 (A) (A) (A) (A) (A) (A) (A) (A) (A) (A) (A) (A)
                 (A) (A) (A) (A) (A) (A) (A) (A) (A) (A) (A) (A)
                 (A) (A) (A) (A) (A) (A) (A) (A) (A) (A) (A) (A)
                 (A) (A) (A) (A) (A) (A) (A) (A) (A) (A) (A) (A)
                 (A) (A) (A) (A) (A) (A) (A) (A) (A) (A) (A) (A)
                 (A) (A) (A) (A) (A) (A) (A) (A) (A) (A) (A) (A)
                 (A) (A) (A) (A) (A) (A) (A) (A) (A) (A) (A) (A)
                 (A) (A) (A) (A) (A) (A) (A) (A) (A) (A) (A) (A)
                 (A) (A) (A) (A) (A) (A) (A) (A) (A) (A) (A) (A)
                 (A) (A) (A) (A) (A) (A) (A) (A) (A) (A) (A) (A)
                 (A) (A) (A) (A) (A) (A) (A) (A) (A) (A)
 The electronic state is 1-A.
 Alpha  occ. eigenvalues -- -485.37585 -63.36052 -57.18000 -57.17764 -57.17754
 Alpha  occ. eigenvalues --  -19.64240 -10.61058 -10.60107 -10.59367 -10.55681
 Alpha  occ. eigenvalues --  -10.55120 -10.54943 -10.54902 -10.52356 -10.52092
 Alpha  occ. eigenvalues --   -9.02686  -6.85098  -6.84224  -6.84188  -2.88475
 Alpha  occ. eigenvalues --   -2.88163  -2.88124  -2.87309  -2.87308  -1.17857
 Alpha  occ. eigenvalues --   -0.97486  -0.89971  -0.88914  -0.83934  -0.81227
 Alpha  occ. eigenvalues --   -0.78094  -0.70374  -0.69707  -0.65833  -0.60793
 Alpha  occ. eigenvalues --   -0.56255  -0.55680  -0.52961  -0.51844  -0.50553
 Alpha  occ. eigenvalues --   -0.48395  -0.46737  -0.46109  -0.44978  -0.43667
 Alpha  occ. eigenvalues --   -0.43059  -0.42499  -0.40914  -0.39761  -0.37737
 Alpha  occ. eigenvalues --   -0.35059  -0.34877  -0.30906  -0.29312
 Alpha virt. eigenvalues --    0.00884   0.01692   0.03679   0.07577   0.09743
 Alpha virt. eigenvalues --    0.10337   0.11200   0.12709   0.12885   0.13991
 Alpha virt. eigenvalues --    0.14171   0.15062   0.15280   0.16665   0.17404
 Alpha virt. eigenvalues --    0.18385   0.18894   0.19787   0.20528   0.21488
 Alpha virt. eigenvalues --    0.22027   0.22970   0.23677   0.23957   0.25720
 Alpha virt. eigenvalues --    0.26149   0.26608   0.26914   0.28491   0.29503
 Alpha virt. eigenvalues --    0.30006   0.30618   0.31591   0.33328   0.33574
 Alpha virt. eigenvalues --    0.34110   0.34366   0.35858   0.36352   0.36861
 Alpha virt. eigenvalues --    0.37878   0.38272   0.39757   0.40232   0.40665
 Alpha virt. eigenvalues --    0.41755   0.42590   0.43259   0.44657   0.45061
 Alpha virt. eigenvalues --    0.45841   0.46171   0.46994   0.47931   0.48414
 Alpha virt. eigenvalues --    0.48975   0.49856   0.50260   0.51356   0.52249
 Alpha virt. eigenvalues --    0.53156   0.53431   0.53797   0.55077   0.55919
 Alpha virt. eigenvalues --    0.56508   0.57674   0.58904   0.59920   0.60857
 Alpha virt. eigenvalues --    0.63281   0.64706   0.65571   0.66260   0.69624
 Alpha virt. eigenvalues --    0.70675   0.71553   0.72567   0.74543   0.75298
 Alpha virt. eigenvalues --    0.76201   0.77706   0.79355   0.80123   0.81721
 Alpha virt. eigenvalues --    0.83486   0.84942   0.86709   0.87666   0.88396
 Alpha virt. eigenvalues --    0.89814   0.91542   0.92026   0.93071   0.93634
 Alpha virt. eigenvalues --    0.94684   0.96322   0.98649   1.01938   1.03217
 Alpha virt. eigenvalues --    1.04287   1.04900   1.05133   1.07441   1.08425
 Alpha virt. eigenvalues --    1.09231   1.10709   1.13088   1.13919   1.15098
 Alpha virt. eigenvalues --    1.18693   1.19368   1.20484   1.21326   1.22637
 Alpha virt. eigenvalues --    1.23804   1.24491   1.25432   1.27854   1.28674
 Alpha virt. eigenvalues --    1.30754   1.32046   1.32904   1.34516   1.36797
 Alpha virt. eigenvalues --    1.40049   1.41657   1.43077   1.46055   1.47383
 Alpha virt. eigenvalues --    1.47571   1.48098   1.49745   1.51476   1.53493
 Alpha virt. eigenvalues --    1.55561   1.56834   1.57731   1.58250   1.58600
 Alpha virt. eigenvalues --    1.59407   1.59826   1.60326   1.61268   1.62127
 Alpha virt. eigenvalues --    1.63370   1.64316   1.64513   1.65057   1.66904
 Alpha virt. eigenvalues --    1.68285   1.68598   1.70063   1.71554   1.72478
 Alpha virt. eigenvalues --    1.72673   1.74008   1.75534   1.76316   1.77138
 Alpha virt. eigenvalues --    1.77850   1.79020   1.81262   1.82210   1.83782
 Alpha virt. eigenvalues --    1.84936   1.88064   1.88280   1.90226   1.91418
 Alpha virt. eigenvalues --    1.93459   1.94672   1.97384   1.98154   2.00063
 Alpha virt. eigenvalues --    2.01849   2.04299   2.05741   2.06798   2.07903
 Alpha virt. eigenvalues --    2.12607   2.13379   2.14240   2.15951   2.17213
 Alpha virt. eigenvalues --    2.18747   2.20342   2.20981   2.24727   2.26087
 Alpha virt. eigenvalues --    2.28729   2.30101   2.33655   2.34436   2.36406
 Alpha virt. eigenvalues --    2.38071   2.40068   2.40434   2.41976   2.42672
 Alpha virt. eigenvalues --    2.43522   2.44142   2.46049   2.47352   2.50080
 Alpha virt. eigenvalues --    2.51386   2.54919   2.55310   2.59113   2.60317
 Alpha virt. eigenvalues --    2.60908   2.61196   2.62275   2.63863   2.65053
 Alpha virt. eigenvalues --    2.65669   2.66735   2.67283   2.67857   2.69134
 Alpha virt. eigenvalues --    2.70307   2.71230   2.72521   2.75037   2.75095
 Alpha virt. eigenvalues --    2.75937   2.77735   2.78434   2.80860   2.82860
 Alpha virt. eigenvalues --    2.84055   2.84467   2.85077   2.88151   2.89242
 Alpha virt. eigenvalues --    2.90567   2.91470   2.91613   2.92683   2.97454
 Alpha virt. eigenvalues --    2.99331   3.01522   3.03801   3.06877   3.08436
 Alpha virt. eigenvalues --    3.09439   3.09731   3.10577   3.12333   3.12668
 Alpha virt. eigenvalues --    3.14659   3.16123   3.16615   3.17135   3.18072
 Alpha virt. eigenvalues --    3.19534   3.20178   3.23335   3.24023   3.25657
 Alpha virt. eigenvalues --    3.26039   3.27522   3.29174   3.29890   3.31399
 Alpha virt. eigenvalues --    3.32277   3.34070   3.35754   3.36791   3.37998
 Alpha virt. eigenvalues --    3.39715   3.41112   3.42622   3.43159   3.43829
 Alpha virt. eigenvalues --    3.45646   3.47689   3.48337   3.49381   3.51533
 Alpha virt. eigenvalues --    3.52258   3.53562   3.54597   3.56038   3.56945
 Alpha virt. eigenvalues --    3.58884   3.60699   3.62248   3.64761   3.65966
 Alpha virt. eigenvalues --    3.68899   3.72003   3.75685   3.80953   3.81245
 Alpha virt. eigenvalues --    3.86030   3.89357   3.91942   3.92319   3.97143
 Alpha virt. eigenvalues --    3.98042   4.01273   4.03170   4.04364   4.06058
 Alpha virt. eigenvalues --    4.08254   4.08966   4.10997   4.11744   4.14051
 Alpha virt. eigenvalues --    4.15022   4.15900   4.18146   4.18692   4.20270
 Alpha virt. eigenvalues --    4.20919   4.22433   4.25667   4.27665   4.30290
 Alpha virt. eigenvalues --    4.33471   4.35253   4.37084   4.38345   4.41036
 Alpha virt. eigenvalues --    4.44980   4.47316   4.53064   4.53939   4.56391
 Alpha virt. eigenvalues --    4.57655   4.59502   4.61400   4.69090   4.74507
 Alpha virt. eigenvalues --    4.76638   4.79640   4.82312   4.83033   4.91806
 Alpha virt. eigenvalues --    4.99747   5.02128   5.06203   5.21370   5.22008
 Alpha virt. eigenvalues --    5.31826   5.41807   5.47663   5.52690   5.81600
 Alpha virt. eigenvalues --    6.02038   6.12580   6.25150   6.32611   6.72671
 Alpha virt. eigenvalues --    6.80902   7.08172   7.21868   7.28600   7.88214
 Alpha virt. eigenvalues --   22.11060  22.45012  22.47663  22.67815  22.71441
 Alpha virt. eigenvalues --   22.73180  22.84892  22.88994  23.31479  44.55187
          Condensed to atoms (all electrons):
               1          2          3          4          5          6
     1  C    5.136762   0.263790  -0.063118  -0.039457   0.029096  -0.017166
     2  C    0.263790   5.128105   0.291340   0.179020  -0.085792  -0.009485
     3  C   -0.063118   0.291340   5.078799  -0.042682   0.004149  -0.002574
     4  O   -0.039457   0.179020  -0.042682   8.053993   0.300700  -0.041765
     5  C    0.029096  -0.085792   0.004149   0.300700   5.261626   0.284172
     6  C   -0.017166  -0.009485  -0.002574  -0.041765   0.284172   5.213366
     7  C    0.000087   0.003153   0.000076   0.011550   0.030633   0.355429
     8  C   -0.000689  -0.000950  -0.000011  -0.001529  -0.139511   0.025705
     9  C    0.001522   0.004578  -0.000046   0.013127   0.116702  -0.155673
    10  C   -0.004225  -0.011476  -0.001680  -0.078524   0.182886   0.111678
    11  Br   0.002309   0.015516  -0.016015  -0.002831  -0.141056   0.017361
    12  H    0.408147  -0.034132  -0.006402   0.005308  -0.001677   0.000775
    13  H    0.408762  -0.039416   0.009720  -0.003767   0.016839  -0.012723
    14  H    0.401650  -0.030928  -0.010979   0.000673  -0.004047   0.001971
    15  H   -0.070241   0.453160  -0.061058  -0.052029  -0.014276   0.008622
    16  H    0.011564  -0.035161   0.406986  -0.000705  -0.000071   0.000047
    17  H   -0.001695  -0.044089   0.412319   0.005945   0.000716   0.000127
    18  H   -0.016435  -0.019642   0.399819  -0.002132  -0.000576   0.000277
    19  H   -0.002486  -0.002110  -0.000433   0.004464  -0.056097   0.423661
    20  H    0.000032   0.000034   0.000000  -0.000221   0.007327  -0.029495
    21  H    0.000002  -0.000008  -0.000000   0.000006  -0.000735   0.005679
    22  H    0.000016  -0.000090  -0.000002  -0.000053   0.011381  -0.001438
               7          8          9         10         11         12
     1  C    0.000087  -0.000689   0.001522  -0.004225   0.002309   0.408147
     2  C    0.003153  -0.000950   0.004578  -0.011476   0.015516  -0.034132
     3  C    0.000076  -0.000011  -0.000046  -0.001680  -0.016015  -0.006402
     4  O    0.011550  -0.001529   0.013127  -0.078524  -0.002831   0.005308
     5  C    0.030633  -0.139511   0.116702   0.182886  -0.141056  -0.001677
     6  C    0.355429   0.025705  -0.155673   0.111678   0.017361   0.000775
     7  C    5.037677   0.454629   0.013801  -0.095505  -0.003813   0.000091
     8  C    0.454629   5.010931   0.399514   0.044060   0.016993   0.000016
     9  C    0.013801   0.399514   5.185065   0.299851  -0.084048  -0.000055
    10  C   -0.095505   0.044060   0.299851   5.197779   0.378762   0.000110
    11  Br  -0.003813   0.016993  -0.084048   0.378762  34.926915   0.000020
    12  H    0.000091   0.000016  -0.000055   0.000110   0.000020   0.515234
    13  H    0.000970  -0.000539   0.000593  -0.000577   0.000156  -0.020105
    14  H    0.000002   0.000038  -0.000083   0.000463  -0.000139  -0.022529
    15  H    0.000288   0.000264  -0.002294   0.008426  -0.008579  -0.000636
    16  H   -0.000031   0.000010  -0.000072  -0.000065   0.005071  -0.000206
    17  H   -0.000019   0.000005  -0.000017   0.000221   0.000296  -0.000185
    18  H    0.000028  -0.000004   0.000003   0.000019   0.000176   0.000997
    19  H   -0.033244   0.007313  -0.003412   0.012970  -0.000322   0.000185
    20  H    0.410023  -0.036958   0.006401  -0.001991   0.000025  -0.000002
    21  H   -0.034054   0.414012  -0.034165   0.005165  -0.000357  -0.000000
    22  H    0.003858  -0.031791   0.409042  -0.038625  -0.004007  -0.000000
              13         14         15         16         17         18
     1  C    0.408762   0.401650  -0.070241   0.011564  -0.001695  -0.016435
     2  C   -0.039416  -0.030928   0.453160  -0.035161  -0.044089  -0.019642
     3  C    0.009720  -0.010979  -0.061058   0.406986   0.412319   0.399819
     4  O   -0.003767   0.000673  -0.052029  -0.000705   0.005945  -0.002132
     5  C    0.016839  -0.004047  -0.014276  -0.000071   0.000716  -0.000576
     6  C   -0.012723   0.001971   0.008622   0.000047   0.000127   0.000277
     7  C    0.000970   0.000002   0.000288  -0.000031  -0.000019   0.000028
     8  C   -0.000539   0.000038   0.000264   0.000010   0.000005  -0.000004
     9  C    0.000593  -0.000083  -0.002294  -0.000072  -0.000017   0.000003
    10  C   -0.000577   0.000463   0.008426  -0.000065   0.000221   0.000019
    11  Br   0.000156  -0.000139  -0.008579   0.005071   0.000296   0.000176
    12  H   -0.020105  -0.022529  -0.000636  -0.000206  -0.000185   0.000997
    13  H    0.516250  -0.026352  -0.004742  -0.000378  -0.000143  -0.000100
    14  H   -0.026352   0.521919   0.009225  -0.000146   0.000362   0.004667
    15  H   -0.004742   0.009225   0.580867  -0.007423  -0.003171   0.009420
    16  H   -0.000378  -0.000146  -0.007423   0.514504  -0.020868  -0.023177
    17  H   -0.000143   0.000362  -0.003171  -0.020868   0.530759  -0.027154
    18  H   -0.000100   0.004667   0.009420  -0.023177  -0.027154   0.520947
    19  H   -0.002982   0.000605   0.000727   0.000008   0.000022   0.000050
    20  H    0.000028  -0.000003  -0.000007  -0.000000   0.000000  -0.000000
    21  H   -0.000001   0.000000  -0.000001   0.000000   0.000000  -0.000000
    22  H    0.000001  -0.000000   0.000050   0.000001   0.000000   0.000000
              19         20         21         22
     1  C   -0.002486   0.000032   0.000002   0.000016
     2  C   -0.002110   0.000034  -0.000008  -0.000090
     3  C   -0.000433   0.000000  -0.000000  -0.000002
     4  O    0.004464  -0.000221   0.000006  -0.000053
     5  C   -0.056097   0.007327  -0.000735   0.011381
     6  C    0.423661  -0.029495   0.005679  -0.001438
     7  C   -0.033244   0.410023  -0.034054   0.003858
     8  C    0.007313  -0.036958   0.414012  -0.031791
     9  C   -0.003412   0.006401  -0.034165   0.409042
    10  C    0.012970  -0.001991   0.005165  -0.038625
    11  Br  -0.000322   0.000025  -0.000357  -0.004007
    12  H    0.000185  -0.000002  -0.000000  -0.000000
    13  H   -0.002982   0.000028  -0.000001   0.000001
    14  H    0.000605  -0.000003   0.000000  -0.000000
    15  H    0.000727  -0.000007  -0.000001   0.000050
    16  H    0.000008  -0.000000   0.000000   0.000001
    17  H    0.000022   0.000000   0.000000   0.000000
    18  H    0.000050  -0.000000  -0.000000   0.000000
    19  H    0.473321  -0.003680  -0.000133   0.000058
    20  H   -0.003680   0.486183  -0.003335  -0.000171
    21  H   -0.000133  -0.003335   0.484929  -0.002744
    22  H    0.000058  -0.000171  -0.002744   0.476160
 Mulliken charges:
               1
     1  C   -0.448230
     2  C   -0.025416
     3  C   -0.398208
     4  O   -0.309090
     5  C    0.197610
     6  C   -0.178551
     7  C   -0.155629
     8  C   -0.161507
     9  C   -0.170334
    10  C   -0.009723
    11  Br  -0.102433
    12  H    0.155046
    13  H    0.158505
    14  H    0.153633
    15  H    0.153409
    16  H    0.150112
    17  H    0.146568
    18  H    0.152815
    19  H    0.181515
    20  H    0.165809
    21  H    0.165740
    22  H    0.178358
 Sum of Mulliken charges =   0.00000
 Mulliken charges with hydrogens summed into heavy atoms:
               1
     1  C    0.018954
     2  C    0.127994
     3  C    0.051286
     4  O   -0.309090
     5  C    0.197610
     6  C    0.002965
     7  C    0.010181
     8  C    0.004233
     9  C    0.008024
    10  C   -0.009723
    11  Br  -0.102433
 Electronic spatial extent (au):  <R**2>=           2476.6051
 Charge=              0.0000 electrons
 Dipole moment (field-independent basis, Debye):
    X=             -0.3893    Y=              1.6730    Z=              1.4158  Tot=              2.2260
 Quadrupole moment (field-independent basis, Debye-Ang):
   XX=            -68.5685   YY=            -75.0171   ZZ=            -82.5481
   XY=             -1.2153   XZ=              0.5922   YZ=             -0.3790
 Traceless Quadrupole moment (field-independent basis, Debye-Ang):
   XX=              6.8094   YY=              0.3608   ZZ=             -7.1702
   XY=             -1.2153   XZ=              0.5922   YZ=             -0.3790
 Octapole moment (field-independent basis, Debye-Ang**2):
  XXX=             -8.9788  YYY=            -46.2184  ZZZ=              0.2718  XYY=             -3.8389
  XXY=            -12.2438  XXZ=             10.3702  XZZ=              8.0765  YZZ=            -22.3799
  YYZ=             -3.9672  XYZ=              2.9279
 Hexadecapole moment (field-independent basis, Debye-Ang**3):
 XXXX=          -1671.5468 YYYY=          -1131.4153 ZZZZ=           -202.8071 XXXY=             -8.4873
 XXXZ=            -21.8094 YYYX=            -30.9192 YYYZ=            -21.0304 ZZZX=              1.9015
 ZZZY=             -1.9947 XXYY=           -468.0741 XXZZ=           -342.2201 YYZZ=           -239.7170
 XXYZ=             -3.0694 YYXZ=             -1.1239 ZZXY=             10.9294
 N-N= 8.887177809044D+02 E-N=-8.917929579923D+03  KE= 2.993328107270D+03
 Calculating spin-rotation constants.
 Leave Link  601 at Tue Sep 17 11:06:12 2024, MaxMem=  1342177280 cpu:               6.4 elap:               6.4
 (Enter /groups/ReismanLab/Software/Gaussian16_RevC/Linux_Binary_AVX2-enabled-CPU/g16/l9999.exe)
 Unable to Open any file for archive entry.
 1\1\GINC-HPC-82-16\SP\RM062X\def2TZVP\C9H11Br1O1\MANTIND\17-Sep-2024\0
 \\#p M062X/def2tzvp geom=check guess=read scf(xqc,tight) integral(grid
 =ultrafine) scrf(SMD, solvent=1,4-Dioxane) nmr=giao\\spe\\0,1\C,0,3.30
 666576,-0.3466246135,-0.6455369925\C,0,2.1715349103,0.5973891696,-0.27
 16395287\C,0,2.6366565162,1.9689530559,0.1836108225\O,0,1.4231497948,0
 .0404138898,0.8462223896\C,0,0.4565099696,-0.8694312034,0.5292529046\C
 ,0,0.6742980571,-2.2269960603,0.7833426237\C,0,-0.3168656272,-3.170064
 1227,0.5184852809\C,0,-1.5421478212,-2.7659780124,-0.0118069111\C,0,-1
 .7796535764,-1.4151493894,-0.2652579775\C,0,-0.7869333051,-0.478902195
 7,0.009814286\Br,0,-1.136376753,1.3727833545,-0.2982666303\H,0,3.87285
 43753,0.0532579934,-1.4928229802\H,0,2.9184273008,-1.3288410116,-0.930
 0977923\H,0,3.9893803624,-0.4741791748,0.2002483496\H,0,1.486471896,0.
 7090391167,-1.1201212086\H,0,1.7703607883,2.5874246112,0.4289117034\H,
 0,3.2141780192,2.4598818697,-0.6052699319\H,0,3.2675136196,1.880378674
 4,1.0734007083\H,0,1.6331557434,-2.5153914713,1.200096737\H,0,-0.13013
 04873,-4.2192633037,0.7237021345\H,0,-2.3178103385,-3.4947538525,-0.22
 28214036\H,0,-2.7304914201,-1.082634745,-0.6652505713\\Version=ES64L-G
 16RevC.02\State=1-A\HF=-2998.9746748\RMSD=5.499e-09\Dipole=0.3401558,-
 0.6667426,-0.4546411\Quadrupole=2.1577287,2.9257298,-5.0834585,2.55049
 68,-0.0641696,-1.4532783\PG=C01 [X(C9H11Br1O1)]\\@
 The archive entry for this job was punched.


 GOD GAVE US TWO ENDS... ONE TO SIT ON...    
 AND THE OTHER TO THINK WITH...              
 YOUR SUCCESS DEPENDS UPON WHICH END YOU     
 USE THE MOST...                             
                                             
 IT'S A CASE OF HEADS YOU WIN TAILS YOU LOSE.
          SOURCE UNKNOWN(IT'S JUST AS WELL.) 
 Job cpu time:       0 days  0 hours 18 minutes 46.7 seconds.
 Elapsed time:       0 days  0 hours 18 minutes 51.9 seconds.
 File lengths (MBytes):  RWF=    272 Int=      0 D2E=      0 Chk=     32 Scr=     16
 Normal termination of Gaussian 16 at Tue Sep 17 11:06:12 2024.
