 Entering Gaussian System, Link 0=g16
 Input=smiles_00099_conf_1.gjf
 Output=smiles_00099_conf_1.log
 Initial command:
 /groups/ReismanLab/Software/Gaussian16_RevC/Linux_Binary_AVX2-enabled-CPU/g16/l1.exe "/central/groups/ReismanLab/DM/dft_final/smiles_00099/Gau-1052638.inp" -scrdir="/central/groups/ReismanLab/DM/dft_final/smiles_00099/"
 Entering Link 1 = /groups/ReismanLab/Software/Gaussian16_RevC/Linux_Binary_AVX2-enabled-CPU/g16/l1.exe PID=   1052639.
  
 Copyright (c) 1988-2021, Gaussian, Inc.  All Rights Reserved.
  
 This is part of the Gaussian(R) 16 program.  It is based on
 the Gaussian(R) 09 system (copyright 2009, Gaussian, Inc.),
 the Gaussian(R) 03 system (copyright 2003, Gaussian, Inc.),
 the Gaussian(R) 98 system (copyright 1998, Gaussian, Inc.),
 the Gaussian(R) 94 system (copyright 1995, Gaussian, Inc.),
 the Gaussian 92(TM) system (copyright 1992, Gaussian, Inc.),
 the Gaussian 90(TM) system (copyright 1990, Gaussian, Inc.),
 the Gaussian 88(TM) system (copyright 1988, Gaussian, Inc.),
 the Gaussian 86(TM) system (copyright 1986, Carnegie Mellon
 University), and the Gaussian 82(TM) system (copyright 1983,
 Carnegie Mellon University). Gaussian is a federally registered
 trademark of Gaussian, Inc.
  
 This software contains proprietary and confidential information,
 including trade secrets, belonging to Gaussian, Inc.
  
 This software is provided under written license and may be
 used, copied, transmitted, or stored only in accord with that
 written license.
  
 The following legend is applicable only to US Government
 contracts under FAR:
  
                    RESTRICTED RIGHTS LEGEND
  
 Use, reproduction and disclosure by the US Government is
 subject to restrictions as set forth in subparagraphs (a)
 and (c) of the Commercial Computer Software - Restricted
 Rights clause in FAR 52.227-19.
  
 Gaussian, Inc.
 340 Quinnipiac St., Bldg. 40, Wallingford CT 06492
  
  
 ---------------------------------------------------------------
 Warning -- This program may not be used in any manner that
 competes with the business of Gaussian, Inc. or will provide
 assistance to any competitor of Gaussian, Inc.  The licensee
 of this program is prohibited from giving any competitor of
 Gaussian, Inc. access to this program.  By using this program,
 the user acknowledges that Gaussian, Inc. is engaged in the
 business of creating and licensing software in the field of
 computational chemistry and represents and warrants to the
 licensee that it is not a competitor of Gaussian, Inc. and that
 it will not use this program in any manner prohibited above.
 ---------------------------------------------------------------
  

 Cite this work as:
 Gaussian 16, Revision C.02,
 M. J. Frisch, G. W. Trucks, H. B. Schlegel, G. E. Scuseria, 
 M. A. Robb, J. R. Cheeseman, G. Scalmani, V. Barone, 
 G. A. Petersson, H. Nakatsuji, X. Li, M. Caricato, A. V. Marenich, 
 J. Bloino, B. G. Janesko, R. Gomperts, B. Mennucci, H. P. Hratchian, 
 J. V. Ortiz, A. F. Izmaylov, J. L. Sonnenberg, D. Williams-Young, 
 F. Ding, F. Lipparini, F. Egidi, J. Goings, B. Peng, A. Petrone, 
 T. Henderson, D. Ranasinghe, V. G. Zakrzewski, J. Gao, N. Rega, 
 G. Zheng, W. Liang, M. Hada, M. Ehara, K. Toyota, R. Fukuda, 
 J. Hasegawa, M. Ishida, T. Nakajima, Y. Honda, O. Kitao, H. Nakai, 
 T. Vreven, K. Throssell, J. A. Montgomery, Jr., J. E. Peralta, 
 F. Ogliaro, M. J. Bearpark, J. J. Heyd, E. N. Brothers, K. N. Kudin, 
 V. N. Staroverov, T. A. Keith, R. Kobayashi, J. Normand, 
 K. Raghavachari, A. P. Rendell, J. C. Burant, S. S. Iyengar, 
 J. Tomasi, M. Cossi, J. M. Millam, M. Klene, C. Adamo, R. Cammi, 
 J. W. Ochterski, R. L. Martin, K. Morokuma, O. Farkas, 
 J. B. Foresman, and D. J. Fox, Gaussian, Inc., Wallingford CT, 2019.
 
 ******************************************
 Gaussian 16:  ES64L-G16RevC.02  7-Dec-2021
                17-Sep-2024 
 ******************************************
 %nprocshared=8
 Will use up to    8 processors via shared memory.
 %Mem=10GB
 %Chk=smiles_00099_conf_1.chk
 ----------------------------------------------------------------------
 #p B3LYP/6-31G(d,p) EmpiricalDispersion=GD3BJ opt freq scf(xqc,tight) 
 integral(grid=ultrafine)
 ----------------------------------------------------------------------
 1/18=20,19=15,26=4,38=1/1,3;
 2/9=110,12=2,17=6,18=5,40=1/2;
 3/5=1,6=6,7=101,11=2,25=1,30=1,71=1,74=-5,75=-5,124=41/1,2,3;
 4//1;
 5/5=2,8=3,13=1,32=2,38=5/2,8;
 6/7=2,8=2,9=2,10=2,28=1/1;
 7//1,2,3,16;
 1/18=20,19=15,26=4/3(2);
 2/9=110/2;
 99//99;
 2/9=110/2;
 3/5=1,6=6,7=101,11=2,25=1,30=1,71=1,74=-5,75=-5,124=41/1,2,3;
 4/5=5,16=3,69=1/1;
 5/5=2,8=3,13=1,32=2,38=5/2,8;
 7//1,2,3,16;
 1/18=20,19=15,26=4/3(-5);
 2/9=110/2;
 6/7=2,8=2,9=2,10=2,19=2,28=1/1;
 99/9=1/99;
 Leave Link    1 at Tue Sep 17 09:46:37 2024, MaxMem=  1342177280 cpu:               0.1 elap:               0.7
 (Enter /groups/ReismanLab/Software/Gaussian16_RevC/Linux_Binary_AVX2-enabled-CPU/g16/l101.exe)
 ----------------------------------
 opt-freq conformers_unique/conf_ab
 ----------------------------------
 Symbolic Z-matrix:
 Charge =  0 Multiplicity = 1
 C                    -3.26638  -1.81184  -0.00023 
 O                    -3.21596  -0.40174   0.0002 
 C                    -2.00989   0.20235   0.00014 
 C                    -1.99817   1.6062    0.00015 
 N                    -0.89616   2.31983   0.00013 
 C                     0.27573   1.7096    0.00006 
 C                     0.36739   0.32829   0.00012 
 Br                    2.07134  -0.51936  -0.00011 
 C                    -0.77979  -0.4508    0.00013 
 H                    -4.32433  -2.0667   -0.00035 
 H                    -2.79307  -2.22846  -0.89448 
 H                    -2.79321  -2.22896   0.89386 
 H                    -2.93161   2.1494    0.00011 
 H                     1.15287   2.33975   0.00045 
 H                    -0.7005   -1.5266    0.00007 
 
 ITRead=  0  0  0  0  0  0  0  0  0  0  0  0  0  0  0
 MicOpt= -1 -1 -1 -1 -1 -1 -1 -1 -1 -1 -1 -1 -1 -1 -1
 NAtoms=     15 NQM=       15 NQMF=       0 NMMI=      0 NMMIF=      0
                NMic=       0 NMicF=      0.
                    Isotopes and Nuclear Properties:
 (Nuclear quadrupole moments (NQMom) in fm**2, nuclear magnetic moments (NMagM)
  in nuclear magnetons)

  Atom         1           2           3           4           5           6           7           8           9          10
 IAtWgt=          12          16          12          12          14          12          12          79          12           1
 AtmWgt=  12.0000000  15.9949146  12.0000000  12.0000000  14.0030740  12.0000000  12.0000000  78.9183361  12.0000000   1.0078250
 NucSpn=           0           0           0           0           2           0           0           3           0           1
 AtZEff=  -0.0000000  -0.0000000  -0.0000000  -0.0000000  -0.0000000  -0.0000000  -0.0000000  -0.0000000  -0.0000000  -0.0000000
 NQMom=    0.0000000   0.0000000   0.0000000   0.0000000   2.0440000   0.0000000   0.0000000  31.3000000   0.0000000   0.0000000
 NMagM=    0.0000000   0.0000000   0.0000000   0.0000000   0.4037610   0.0000000   0.0000000   2.1063990   0.0000000   2.7928460
 AtZNuc=   6.0000000   8.0000000   6.0000000   6.0000000   7.0000000   6.0000000   6.0000000  35.0000000   6.0000000   1.0000000

  Atom        11          12          13          14          15
 IAtWgt=           1           1           1           1           1
 AtmWgt=   1.0078250   1.0078250   1.0078250   1.0078250   1.0078250
 NucSpn=           1           1           1           1           1
 AtZEff=  -0.0000000  -0.0000000  -0.0000000  -0.0000000  -0.0000000
 NQMom=    0.0000000   0.0000000   0.0000000   0.0000000   0.0000000
 NMagM=    2.7928460   2.7928460   2.7928460   2.7928460   2.7928460
 AtZNuc=   1.0000000   1.0000000   1.0000000   1.0000000   1.0000000
 Leave Link  101 at Tue Sep 17 09:46:38 2024, MaxMem=  1342177280 cpu:               0.2 elap:               0.3
 (Enter /groups/ReismanLab/Software/Gaussian16_RevC/Linux_Binary_AVX2-enabled-CPU/g16/l103.exe)

 GradGradGradGradGradGradGradGradGradGradGradGradGradGradGradGradGradGrad
 Berny optimization.
 Initialization pass.
                           ----------------------------
                           !    Initial Parameters    !
                           ! (Angstroms and Degrees)  !
 --------------------------                            --------------------------
 ! Name  Definition              Value          Derivative Info.                !
 --------------------------------------------------------------------------------
 ! R1    R(1,2)                  1.411          estimate D2E/DX2                !
 ! R2    R(1,10)                 1.0882         estimate D2E/DX2                !
 ! R3    R(1,11)                 1.0942         estimate D2E/DX2                !
 ! R4    R(1,12)                 1.0942         estimate D2E/DX2                !
 ! R5    R(2,3)                  1.3489         estimate D2E/DX2                !
 ! R6    R(3,4)                  1.4039         estimate D2E/DX2                !
 ! R7    R(3,9)                  1.3928         estimate D2E/DX2                !
 ! R8    R(4,5)                  1.3129         estimate D2E/DX2                !
 ! R9    R(4,13)                 1.08           estimate D2E/DX2                !
 ! R10   R(5,6)                  1.3212         estimate D2E/DX2                !
 ! R11   R(6,7)                  1.3844         estimate D2E/DX2                !
 ! R12   R(6,14)                 1.08           estimate D2E/DX2                !
 ! R13   R(7,8)                  1.9031         estimate D2E/DX2                !
 ! R14   R(7,9)                  1.3867         estimate D2E/DX2                !
 ! R15   R(9,15)                 1.0787         estimate D2E/DX2                !
 ! A1    A(2,1,10)             105.5922         estimate D2E/DX2                !
 ! A2    A(2,1,11)             111.4256         estimate D2E/DX2                !
 ! A3    A(2,1,12)             111.4239         estimate D2E/DX2                !
 ! A4    A(10,1,11)            109.346          estimate D2E/DX2                !
 ! A5    A(10,1,12)            109.343          estimate D2E/DX2                !
 ! A6    A(11,1,12)            109.6091         estimate D2E/DX2                !
 ! A7    A(1,2,3)              118.6531         estimate D2E/DX2                !
 ! A8    A(2,3,4)              117.0837         estimate D2E/DX2                !
 ! A9    A(2,3,9)              125.4274         estimate D2E/DX2                !
 ! A10   A(4,3,9)              117.4889         estimate D2E/DX2                !
 ! A11   A(3,4,5)              123.4043         estimate D2E/DX2                !
 ! A12   A(3,4,13)             119.7186         estimate D2E/DX2                !
 ! A13   A(5,4,13)             116.8771         estimate D2E/DX2                !
 ! A14   A(4,5,6)              119.5669         estimate D2E/DX2                !
 ! A15   A(5,6,7)              121.3036         estimate D2E/DX2                !
 ! A16   A(5,6,14)             116.799          estimate D2E/DX2                !
 ! A17   A(7,6,14)             121.8974         estimate D2E/DX2                !
 ! A18   A(6,7,8)              120.245          estimate D2E/DX2                !
 ! A19   A(6,7,9)              120.3853         estimate D2E/DX2                !
 ! A20   A(8,7,9)              119.3697         estimate D2E/DX2                !
 ! A21   A(3,9,7)              117.851          estimate D2E/DX2                !
 ! A22   A(3,9,15)             122.1823         estimate D2E/DX2                !
 ! A23   A(7,9,15)             119.9668         estimate D2E/DX2                !
 ! D1    D(10,1,2,3)          -179.9859         estimate D2E/DX2                !
 ! D2    D(11,1,2,3)           -61.368          estimate D2E/DX2                !
 ! D3    D(12,1,2,3)            61.4006         estimate D2E/DX2                !
 ! D4    D(1,2,3,4)            179.9807         estimate D2E/DX2                !
 ! D5    D(1,2,3,9)             -0.0223         estimate D2E/DX2                !
 ! D6    D(2,3,4,5)            179.9985         estimate D2E/DX2                !
 ! D7    D(2,3,4,13)            -0.0057         estimate D2E/DX2                !
 ! D8    D(9,3,4,5)              0.0012         estimate D2E/DX2                !
 ! D9    D(9,3,4,13)           179.997          estimate D2E/DX2                !
 ! D10   D(2,3,9,7)           -179.9976         estimate D2E/DX2                !
 ! D11   D(2,3,9,15)             0.0059         estimate D2E/DX2                !
 ! D12   D(4,3,9,7)             -0.0006         estimate D2E/DX2                !
 ! D13   D(4,3,9,15)          -179.9971         estimate D2E/DX2                !
 ! D14   D(3,4,5,6)              0.0017         estimate D2E/DX2                !
 ! D15   D(13,4,5,6)          -179.9942         estimate D2E/DX2                !
 ! D16   D(4,5,6,7)             -0.0052         estimate D2E/DX2                !
 ! D17   D(4,5,6,14)          -179.9754         estimate D2E/DX2                !
 ! D18   D(5,6,7,8)            179.9957         estimate D2E/DX2                !
 ! D19   D(5,6,7,9)              0.0059         estimate D2E/DX2                !
 ! D20   D(14,6,7,8)            -0.0356         estimate D2E/DX2                !
 ! D21   D(14,6,7,9)           179.9745         estimate D2E/DX2                !
 ! D22   D(6,7,9,3)             -0.0028         estimate D2E/DX2                !
 ! D23   D(6,7,9,15)           179.9938         estimate D2E/DX2                !
 ! D24   D(8,7,9,3)           -179.9927         estimate D2E/DX2                !
 ! D25   D(8,7,9,15)             0.0039         estimate D2E/DX2                !
 --------------------------------------------------------------------------------
 Trust Radius=3.00D-01 FncErr=1.00D-07 GrdErr=1.00D-06 EigMax=2.50D+02 EigMin=1.00D-04
 Number of steps in this run=     73 maximum allowed number of steps=    100.
 GradGradGradGradGradGradGradGradGradGradGradGradGradGradGradGradGradGrad

 Leave Link  103 at Tue Sep 17 09:46:38 2024, MaxMem=  1342177280 cpu:               0.1 elap:               0.0
 (Enter /groups/ReismanLab/Software/Gaussian16_RevC/Linux_Binary_AVX2-enabled-CPU/g16/l202.exe)
                          Input orientation:                          
 ---------------------------------------------------------------------
 Center     Atomic      Atomic             Coordinates (Angstroms)
 Number     Number       Type             X           Y           Z
 ---------------------------------------------------------------------
      1          6           0       -3.266382   -1.811845   -0.000232
      2          8           0       -3.215963   -0.401742    0.000195
      3          6           0       -2.009893    0.202354    0.000138
      4          6           0       -1.998173    1.606197    0.000149
      5          7           0       -0.896159    2.319831    0.000127
      6          6           0        0.275728    1.709602    0.000057
      7          6           0        0.367390    0.328288    0.000115
      8         35           0        2.071341   -0.519358   -0.000110
      9          6           0       -0.779790   -0.450802    0.000127
     10          1           0       -4.324326   -2.066703   -0.000353
     11          1           0       -2.793071   -2.228455   -0.894482
     12          1           0       -2.793209   -2.228962    0.893857
     13          1           0       -2.931609    2.149402    0.000109
     14          1           0        1.152870    2.339752    0.000455
     15          1           0       -0.700504   -1.526604    0.000071
 ---------------------------------------------------------------------
                    Distance matrix (angstroms):
                    1          2          3          4          5
     1  C    0.000000
     2  O    1.411004   0.000000
     3  C    2.373975   1.348902   0.000000
     4  C    3.645732   2.348368   1.403892   0.000000
     5  N    4.763266   3.576094   2.392512   1.312901   0.000000
     6  C    4.994710   4.080401   2.737857   2.276251   1.321249
     7  C    4.217163   3.656961   2.380617   2.688670   2.358560
     8  Br   5.491976   5.288611   4.144555   4.591179   4.106952
     9  C    2.834710   2.436667   1.392755   2.390754   2.773076
    10  H    1.088209   2.000141   3.241175   4.347548   5.567226
    11  H    1.094199   2.077539   2.706020   4.017062   5.008544
    12  H    1.094200   2.077519   2.706217   4.017367   5.008899
    13  H    3.975368   2.566943   2.154196   1.079988   2.042572
    14  H    6.063460   5.157760   3.817269   3.235302   2.049126
    15  H    2.581684   2.755512   2.168823   3.390927   3.851408
                    6          7          8          9         10
     6  C    0.000000
     7  C    1.384352   0.000000
     8  Br   2.862252   1.903142   0.000000
     9  C    2.404467   1.386724   2.851954   0.000000
    10  H    5.951552   5.267654   6.580184   3.895494   0.000000
    11  H    5.072083   4.162422   5.232917   2.830845   1.780554
    12  H    5.072429   4.162654   5.233141   2.830983   1.780523
    13  H    3.237350   3.768270   5.670255   3.375113   4.440181
    14  H    1.080032   2.159390   3.003015   3.394461   7.029689
    15  H    3.380245   2.140332   2.949180   1.078720   3.663850
                   11         12         13         14         15
    11  H    0.000000
    12  H    1.788339   0.000000
    13  H    4.470473   4.470796   0.000000
    14  H    6.102449   6.102692   4.088912   0.000000
    15  H    2.381525   2.381507   4.300099   4.287622   0.000000
 Stoichiometry    C6H6BrNO
 Framework group  C1[X(C6H6BrNO)]
 Deg. of freedom    39
 Full point group                 C1      NOp   1
 Largest Abelian subgroup         C1      NOp   1
 Largest concise Abelian subgroup C1      NOp   1
                         Standard orientation:                         
 ---------------------------------------------------------------------
 Center     Atomic      Atomic             Coordinates (Angstroms)
 Number     Number       Type             X           Y           Z
 ---------------------------------------------------------------------
      1          6           0        3.065163   -1.859525    0.000236
      2          8           0        3.032671   -0.448896   -0.000191
      3          6           0        1.834377    0.170481   -0.000134
      4          6           0        1.840502    1.574360   -0.000145
      5          7           0        0.747647    2.301943   -0.000123
      6          6           0       -0.431902    1.706658   -0.000053
      7          6           0       -0.541114    0.326621   -0.000111
      8         35           0       -2.255700   -0.499299    0.000114
      9          6           0        0.596071   -0.466987   -0.000123
     10          1           0        4.119783   -2.127809    0.000357
     11          1           0        2.586596   -2.270086    0.894486
     12          1           0        2.586726   -2.270595   -0.893853
     13          1           0        2.780766    2.105657   -0.000105
     14          1           0       -1.300964    2.347906   -0.000451
     15          1           0        0.503118   -1.541694   -0.000067
 ---------------------------------------------------------------------
 Rotational constants (GHZ):           2.1497055           0.6329845           0.4905280
 Leave Link  202 at Tue Sep 17 09:46:38 2024, MaxMem=  1342177280 cpu:               0.1 elap:               0.0
 (Enter /groups/ReismanLab/Software/Gaussian16_RevC/Linux_Binary_AVX2-enabled-CPU/g16/l301.exe)
 Standard basis: 6-31G(d,p) (6D, 7F)
 Ernie: Thresh=  0.10000D-02 Tol=  0.10000D-05 Strict=F.
 There are   180 symmetry adapted cartesian basis functions of A   symmetry.
 There are   180 symmetry adapted basis functions of A   symmetry.
   180 basis functions,   349 primitive gaussians,   180 cartesian basis functions
    46 alpha electrons       46 beta electrons
       nuclear repulsion energy       632.0254791174 Hartrees.
 IExCor=  402 DFT=T Ex+Corr=B3LYP ExCW=0 ScaHFX=  0.200000
 ScaDFX=  0.800000  0.720000  1.000000  0.810000 ScalE2=  1.000000  1.000000
 IRadAn=      5 IRanWt=     -1 IRanGd=            0 ICorTp=0 IEmpDi=141
 NAtoms=   15 NActive=   15 NUniq=   15 SFac= 1.00D+00 NAtFMM=   60 NAOKFM=F Big=F
 Integral buffers will be    131072 words long.
 Raffenetti 2 integral format.
 Two-electron integral symmetry is turned on.
 R6Disp:  Grimme-D3(BJ) Dispersion energy=       -0.0285250778 Hartrees.
 Nuclear repulsion after empirical dispersion term =      631.9969540396 Hartrees.
 Leave Link  301 at Tue Sep 17 09:46:38 2024, MaxMem=  1342177280 cpu:               0.1 elap:               0.1
 (Enter /groups/ReismanLab/Software/Gaussian16_RevC/Linux_Binary_AVX2-enabled-CPU/g16/l302.exe)
 NPDir=0 NMtPBC=     1 NCelOv=     1 NCel=       1 NClECP=     1 NCelD=      1
         NCelK=      1 NCelE2=     1 NClLst=     1 CellRange=     0.0.
 One-electron integrals computed using PRISM.
 One-electron integral symmetry used in STVInt
 NBasis=   180 RedAO= T EigKep=  6.84D-04  NBF=   180
 NBsUse=   180 1.00D-06 EigRej= -1.00D+00 NBFU=   180
 Precomputing XC quadrature grid using
 IXCGrd= 4 IRadAn=           5 IRanWt=          -1 IRanGd=           0 AccXCQ= 0.00D+00.
 Generated NRdTot=       0 NPtTot=           0 NUsed=           0 NTot=          32
 NSgBfM=   180   180   180   180   180 MxSgAt=    15 MxSgA2=    15.
 Leave Link  302 at Tue Sep 17 09:46:38 2024, MaxMem=  1342177280 cpu:               0.9 elap:               0.2
 (Enter /groups/ReismanLab/Software/Gaussian16_RevC/Linux_Binary_AVX2-enabled-CPU/g16/l303.exe)
 DipDrv:  MaxL=1.
 Leave Link  303 at Tue Sep 17 09:46:38 2024, MaxMem=  1342177280 cpu:               0.1 elap:               0.0
 (Enter /groups/ReismanLab/Software/Gaussian16_RevC/Linux_Binary_AVX2-enabled-CPU/g16/l401.exe)
 ExpMin= 1.43D-01 ExpMax= 5.74D+05 ExpMxC= 5.74D+03 IAcc=3 IRadAn=         5 AccDes= 0.00D+00
 Harris functional with IExCor=  402 and IRadAn=       5 diagonalized for initial guess.
 HarFok:  IExCor=  402 AccDes= 0.00D+00 IRadAn=         5 IDoV= 1 UseB2=F ITyADJ=14
 ICtDFT=  3500011 ScaDFX=  1.000000  1.000000  1.000000  1.000000
 FoFCou: FMM=F IPFlag=           0 FMFlag=      100000 FMFlg1=           0
         NFxFlg=           0 DoJE=T BraDBF=F KetDBF=T FulRan=T
         wScrn=  0.000000 ICntrl=       500 IOpCl=  0 I1Cent=   200000004 NGrid=           0
         NMat0=    1 NMatS0=      1 NMatT0=    0 NMatD0=    1 NMtDS0=    0 NMtDT0=    0
 Petite list used in FoFCou.
 Harris En= -2934.03443339452    
 JPrj=0 DoOrth=F DoCkMO=F.
 Leave Link  401 at Tue Sep 17 09:46:39 2024, MaxMem=  1342177280 cpu:               3.6 elap:               0.5
 (Enter /groups/ReismanLab/Software/Gaussian16_RevC/Linux_Binary_AVX2-enabled-CPU/g16/l502.exe)
 Integral symmetry usage will be decided dynamically.
 Closed shell SCF:
 Using DIIS extrapolation, IDIIS=  1040.
 NGot=  1342177280 LenX=  1342108742 LenY=  1342075901
 Requested convergence on RMS density matrix=1.00D-08 within  32 cycles.
 Requested convergence on MAX density matrix=1.00D-06.
 Requested convergence on             energy=1.00D-06.
 No special actions if energy rises.
 Fock matrices will be formed incrementally for  20 cycles.
 Integral accuracy reduced to 1.0D-05 until final iterations.

 Cycle   1  Pass 0  IDiag  1:
 FoFJK:  IHMeth= 1 ICntrl=       0 DoSepK=F KAlg= 0 I1Cent=           0 FoldK=F
 IRaf= 900000000 NMat=       1 IRICut=       1 DoRegI=T DoRafI=F ISym2E= 0 IDoP0=0 IntGTp=1.
 FoFCou: FMM=F IPFlag=           0 FMFlag=      100000 FMFlg1=           0
         NFxFlg=           0 DoJE=F BraDBF=F KetDBF=F FulRan=T
         wScrn=  0.000000 ICntrl=         0 IOpCl=  0 I1Cent=           0 NGrid=           0
         NMat0=    1 NMatS0=      1 NMatT0=    0 NMatD0=    1 NMtDS0=    0 NMtDT0=    0
 Symmetry not used in FoFCou.
 E= -2933.80438220121    
 DIIS: error= 1.98D-01 at cycle   1 NSaved=   1.
 NSaved= 1 IEnMin= 1 EnMin= -2933.80438220121     IErMin= 1 ErrMin= 1.98D-01
 ErrMax= 1.98D-01  0.00D+00 EMaxC= 1.00D-01 BMatC= 4.92D-01 BMatP= 4.92D-01
 IDIUse=3 WtCom= 0.00D+00 WtEn= 1.00D+00
 Coeff-Com:  0.100D+01
 Coeff-En:   0.100D+01
 Coeff:      0.100D+01
 Gap=     0.233 Goal=   None    Shift=    0.000
 GapD=    0.233 DampG=1.000 DampE=0.250 DampFc=0.2500 IDamp=-1.
 Damping current iteration by 2.50D-01
 RMSDP=5.28D-03 MaxDP=1.42D-01              OVMax= 1.38D-01

 Cycle   2  Pass 0  IDiag  1:
 RMSU=  1.27D-03    CP:  9.93D-01
 E= -2933.85378933080     Delta-E=       -0.049407129590 Rises=F Damp=T
 DIIS: error= 1.46D-01 at cycle   2 NSaved=   2.
 NSaved= 2 IEnMin= 2 EnMin= -2933.85378933080     IErMin= 2 ErrMin= 1.46D-01
 ErrMax= 1.46D-01  0.00D+00 EMaxC= 1.00D-01 BMatC= 2.33D-01 BMatP= 4.92D-01
 IDIUse=3 WtCom= 0.00D+00 WtEn= 1.00D+00
 Coeff-Com: -0.175D+01 0.275D+01
 Coeff-En:   0.000D+00 0.100D+01
 Coeff:      0.000D+00 0.100D+01
 Gap=     0.237 Goal=   None    Shift=    0.000
 RMSDP=2.92D-03 MaxDP=1.10D-01 DE=-4.94D-02 OVMax= 5.20D-02

 Cycle   3  Pass 0  IDiag  1:
 RMSU=  9.28D-04    CP:  9.70D-01  3.00D+00
 E= -2933.91993993716     Delta-E=       -0.066150606357 Rises=F Damp=F
 DIIS: error= 1.21D-02 at cycle   3 NSaved=   3.
 NSaved= 3 IEnMin= 3 EnMin= -2933.91993993716     IErMin= 3 ErrMin= 1.21D-02
 ErrMax= 1.21D-02  0.00D+00 EMaxC= 1.00D-01 BMatC= 2.72D-02 BMatP= 2.33D-01
 IDIUse=3 WtCom= 8.79D-01 WtEn= 1.21D-01
 Coeff-Com:  0.172D+01-0.222D+01 0.150D+01
 Coeff-En:   0.493D-01 0.000D+00 0.951D+00
 Coeff:      0.151D+01-0.195D+01 0.144D+01
 Gap=     0.213 Goal=   None    Shift=    0.000
 RMSDP=1.29D-03 MaxDP=3.05D-02 DE=-6.62D-02 OVMax= 3.87D-02

 Cycle   4  Pass 0  IDiag  1:
 RMSU=  7.18D-04    CP:  9.71D-01  2.19D+00  1.32D+00
 E= -2933.94061409186     Delta-E=       -0.020674154702 Rises=F Damp=F
 DIIS: error= 5.63D-03 at cycle   4 NSaved=   4.
 NSaved= 4 IEnMin= 4 EnMin= -2933.94061409186     IErMin= 4 ErrMin= 5.63D-03
 ErrMax= 5.63D-03  0.00D+00 EMaxC= 1.00D-01 BMatC= 5.94D-03 BMatP= 2.72D-02
 IDIUse=3 WtCom= 9.44D-01 WtEn= 5.63D-02
 Coeff-Com:  0.103D+01-0.136D+01 0.887D+00 0.437D+00
 Coeff-En:   0.000D+00 0.000D+00 0.366D-01 0.963D+00
 Coeff:      0.974D+00-0.128D+01 0.840D+00 0.467D+00
 Gap=     0.209 Goal=   None    Shift=    0.000
 RMSDP=5.64D-04 MaxDP=1.16D-02 DE=-2.07D-02 OVMax= 3.04D-02

 Cycle   5  Pass 0  IDiag  1:
 RMSU=  1.74D-04    CP:  9.71D-01  2.25D+00  1.40D+00  2.68D-01
 E= -2933.94634622528     Delta-E=       -0.005732133418 Rises=F Damp=F
 DIIS: error= 1.51D-03 at cycle   5 NSaved=   5.
 NSaved= 5 IEnMin= 5 EnMin= -2933.94634622528     IErMin= 5 ErrMin= 1.51D-03
 ErrMax= 1.51D-03  0.00D+00 EMaxC= 1.00D-01 BMatC= 3.42D-04 BMatP= 5.94D-03
 IDIUse=3 WtCom= 9.85D-01 WtEn= 1.51D-02
 Coeff-Com:  0.286D+00-0.377D+00 0.254D+00 0.242D+00 0.595D+00
 Coeff-En:   0.000D+00 0.000D+00 0.000D+00 0.177D-02 0.998D+00
 Coeff:      0.282D+00-0.371D+00 0.251D+00 0.238D+00 0.601D+00
 Gap=     0.207 Goal=   None    Shift=    0.000
 RMSDP=1.39D-04 MaxDP=3.16D-03 DE=-5.73D-03 OVMax= 8.13D-03

 Cycle   6  Pass 0  IDiag  1:
 RMSU=  4.70D-05    CP:  9.71D-01  2.26D+00  1.40D+00  4.11D-01  5.43D-01
 E= -2933.94669075253     Delta-E=       -0.000344527252 Rises=F Damp=F
 DIIS: error= 2.89D-04 at cycle   6 NSaved=   6.
 NSaved= 6 IEnMin= 6 EnMin= -2933.94669075253     IErMin= 6 ErrMin= 2.89D-04
 ErrMax= 2.89D-04  0.00D+00 EMaxC= 1.00D-01 BMatC= 2.32D-05 BMatP= 3.42D-04
 IDIUse=3 WtCom= 9.97D-01 WtEn= 2.89D-03
 Coeff-Com:  0.935D-01-0.124D+00 0.852D-01 0.106D+00 0.340D+00 0.499D+00
 Coeff-En:   0.000D+00 0.000D+00 0.000D+00 0.000D+00 0.000D+00 0.100D+01
 Coeff:      0.932D-01-0.123D+00 0.850D-01 0.106D+00 0.339D+00 0.501D+00
 Gap=     0.208 Goal=   None    Shift=    0.000
 RMSDP=2.78D-05 MaxDP=1.03D-03 DE=-3.45D-04 OVMax= 2.05D-03

 Cycle   7  Pass 0  IDiag  1:
 RMSU=  1.59D-05    CP:  9.71D-01  2.26D+00  1.40D+00  4.03D-01  5.98D-01
                    CP:  5.82D-01
 E= -2933.94671222545     Delta-E=       -0.000021472914 Rises=F Damp=F
 DIIS: error= 5.72D-05 at cycle   7 NSaved=   7.
 NSaved= 7 IEnMin= 7 EnMin= -2933.94671222545     IErMin= 7 ErrMin= 5.72D-05
 ErrMax= 5.72D-05  0.00D+00 EMaxC= 1.00D-01 BMatC= 9.56D-07 BMatP= 2.32D-05
 IDIUse=1 WtCom= 1.00D+00 WtEn= 0.00D+00
 Coeff-Com:  0.263D-01-0.349D-01 0.244D-01 0.349D-01 0.123D+00 0.237D+00
 Coeff-Com:  0.590D+00
 Coeff:      0.263D-01-0.349D-01 0.244D-01 0.349D-01 0.123D+00 0.237D+00
 Coeff:      0.590D+00
 Gap=     0.208 Goal=   None    Shift=    0.000
 RMSDP=8.60D-06 MaxDP=3.06D-04 DE=-2.15D-05 OVMax= 6.74D-04

 Initial convergence to 1.0D-05 achieved.  Increase integral accuracy.
 Cycle   8  Pass 1  IDiag  1:
 E= -2933.94671461854     Delta-E=       -0.000002393090 Rises=F Damp=F
 DIIS: error= 3.94D-05 at cycle   1 NSaved=   1.
 NSaved= 1 IEnMin= 1 EnMin= -2933.94671461854     IErMin= 1 ErrMin= 3.94D-05
 ErrMax= 3.94D-05  0.00D+00 EMaxC= 1.00D-01 BMatC= 2.97D-07 BMatP= 2.97D-07
 IDIUse=1 WtCom= 1.00D+00 WtEn= 0.00D+00
 Coeff-Com:  0.100D+01
 Coeff:      0.100D+01
 Gap=     0.208 Goal=   None    Shift=    0.000
 RMSDP=8.60D-06 MaxDP=3.06D-04 DE=-2.39D-06 OVMax= 6.19D-04

 Cycle   9  Pass 1  IDiag  1:
 RMSU=  1.26D-05    CP:  1.00D+00
 E= -2933.94671390743     Delta-E=        0.000000711108 Rises=F Damp=F
 DIIS: error= 8.16D-05 at cycle   2 NSaved=   2.
 NSaved= 2 IEnMin= 1 EnMin= -2933.94671461854     IErMin= 1 ErrMin= 3.94D-05
 ErrMax= 8.16D-05  0.00D+00 EMaxC= 1.00D-01 BMatC= 9.25D-07 BMatP= 2.97D-07
 IDIUse=1 WtCom= 1.00D+00 WtEn= 0.00D+00
 Coeff-Com:  0.649D+00 0.351D+00
 Coeff:      0.649D+00 0.351D+00
 Gap=     0.208 Goal=   None    Shift=    0.000
 RMSDP=6.20D-06 MaxDP=1.88D-04 DE= 7.11D-07 OVMax= 4.50D-04

 Cycle  10  Pass 1  IDiag  1:
 RMSU=  4.64D-06    CP:  1.00D+00  6.73D-01
 E= -2933.94671488515     Delta-E=       -0.000000977721 Rises=F Damp=F
 DIIS: error= 8.05D-06 at cycle   3 NSaved=   3.
 NSaved= 3 IEnMin= 3 EnMin= -2933.94671488515     IErMin= 3 ErrMin= 8.05D-06
 ErrMax= 8.05D-06  0.00D+00 EMaxC= 1.00D-01 BMatC= 1.47D-08 BMatP= 2.97D-07
 IDIUse=1 WtCom= 1.00D+00 WtEn= 0.00D+00
 Coeff-Com:  0.106D+00 0.131D+00 0.763D+00
 Coeff:      0.106D+00 0.131D+00 0.763D+00
 Gap=     0.208 Goal=   None    Shift=    0.000
 RMSDP=9.71D-07 MaxDP=2.53D-05 DE=-9.78D-07 OVMax= 5.19D-05

 Cycle  11  Pass 1  IDiag  1:
 RMSU=  7.33D-07    CP:  1.00D+00  7.09D-01  9.02D-01
 E= -2933.94671489651     Delta-E=       -0.000000011360 Rises=F Damp=F
 DIIS: error= 5.44D-06 at cycle   4 NSaved=   4.
 NSaved= 4 IEnMin= 4 EnMin= -2933.94671489651     IErMin= 4 ErrMin= 5.44D-06
 ErrMax= 5.44D-06  0.00D+00 EMaxC= 1.00D-01 BMatC= 4.08D-09 BMatP= 1.47D-08
 IDIUse=1 WtCom= 1.00D+00 WtEn= 0.00D+00
 Coeff-Com:  0.560D-04 0.423D-01 0.442D+00 0.515D+00
 Coeff:      0.560D-04 0.423D-01 0.442D+00 0.515D+00
 Gap=     0.208 Goal=   None    Shift=    0.000
 RMSDP=3.76D-07 MaxDP=9.72D-06 DE=-1.14D-08 OVMax= 2.25D-05

 Cycle  12  Pass 1  IDiag  1:
 RMSU=  1.06D-07    CP:  1.00D+00  7.10D-01  9.17D-01  5.19D-01
 E= -2933.94671490062     Delta-E=       -0.000000004108 Rises=F Damp=F
 DIIS: error= 9.87D-07 at cycle   5 NSaved=   5.
 NSaved= 5 IEnMin= 5 EnMin= -2933.94671490062     IErMin= 5 ErrMin= 9.87D-07
 ErrMax= 9.87D-07  0.00D+00 EMaxC= 1.00D-01 BMatC= 8.34D-11 BMatP= 4.08D-09
 IDIUse=1 WtCom= 1.00D+00 WtEn= 0.00D+00
 Coeff-Com: -0.190D-02 0.205D-01 0.226D+00 0.277D+00 0.478D+00
 Coeff:     -0.190D-02 0.205D-01 0.226D+00 0.277D+00 0.478D+00
 Gap=     0.208 Goal=   None    Shift=    0.000
 RMSDP=5.81D-08 MaxDP=2.00D-06 DE=-4.11D-09 OVMax= 4.00D-06

 Cycle  13  Pass 1  IDiag  1:
 RMSU=  3.66D-08    CP:  1.00D+00  7.10D-01  9.18D-01  5.41D-01  6.09D-01
 E= -2933.94671490070     Delta-E=       -0.000000000080 Rises=F Damp=F
 DIIS: error= 2.79D-07 at cycle   6 NSaved=   6.
 NSaved= 6 IEnMin= 6 EnMin= -2933.94671490070     IErMin= 6 ErrMin= 2.79D-07
 ErrMax= 2.79D-07  0.00D+00 EMaxC= 1.00D-01 BMatC= 7.77D-12 BMatP= 8.34D-11
 IDIUse=1 WtCom= 1.00D+00 WtEn= 0.00D+00
 Coeff-Com: -0.108D-02 0.772D-02 0.877D-01 0.112D+00 0.278D+00 0.516D+00
 Coeff:     -0.108D-02 0.772D-02 0.877D-01 0.112D+00 0.278D+00 0.516D+00
 Gap=     0.208 Goal=   None    Shift=    0.000
 RMSDP=1.77D-08 MaxDP=5.51D-07 DE=-8.05D-11 OVMax= 1.14D-06

 Cycle  14  Pass 1  IDiag  1:
 RMSU=  1.15D-08    CP:  1.00D+00  7.10D-01  9.18D-01  5.36D-01  6.71D-01
                    CP:  7.03D-01
 E= -2933.94671490071     Delta-E=       -0.000000000010 Rises=F Damp=F
 DIIS: error= 6.24D-08 at cycle   7 NSaved=   7.
 NSaved= 7 IEnMin= 7 EnMin= -2933.94671490071     IErMin= 7 ErrMin= 6.24D-08
 ErrMax= 6.24D-08  0.00D+00 EMaxC= 1.00D-01 BMatC= 4.53D-13 BMatP= 7.77D-12
 IDIUse=1 WtCom= 1.00D+00 WtEn= 0.00D+00
 Coeff-Com: -0.381D-03 0.210D-02 0.243D-01 0.322D-01 0.999D-01 0.258D+00
 Coeff-Com:  0.584D+00
 Coeff:     -0.381D-03 0.210D-02 0.243D-01 0.322D-01 0.999D-01 0.258D+00
 Coeff:      0.584D+00
 Gap=     0.208 Goal=   None    Shift=    0.000
 RMSDP=5.25D-09 MaxDP=1.68D-07 DE=-1.05D-11 OVMax= 3.05D-07

 SCF Done:  E(RB3LYP) =  -2933.94671490     A.U. after   14 cycles
            NFock= 14  Conv=0.52D-08     -V/T= 2.0065
 KE= 2.915091075431D+03 PE=-8.240022929736D+03 EE= 1.758988185364D+03
 Leave Link  502 at Tue Sep 17 09:46:48 2024, MaxMem=  1342177280 cpu:              59.4 elap:               9.4
 (Enter /groups/ReismanLab/Software/Gaussian16_RevC/Linux_Binary_AVX2-enabled-CPU/g16/l508.exe)
 QCSCF skips out because SCF is already converged.
 Leave Link  508 at Tue Sep 17 09:46:49 2024, MaxMem=  1342177280 cpu:               0.0 elap:               1.1
 (Enter /groups/ReismanLab/Software/Gaussian16_RevC/Linux_Binary_AVX2-enabled-CPU/g16/l601.exe)
 Copying SCF densities to generalized density rwf, IOpCl= 0 IROHF=0.

 **********************************************************************

            Population analysis using the SCF Density.

 **********************************************************************

 Orbital symmetries:
       Occupied  (A) (A) (A) (A) (A) (A) (A) (A) (A) (A) (A) (A)
                 (A) (A) (A) (A) (A) (A) (A) (A) (A) (A) (A) (A)
                 (A) (A) (A) (A) (A) (A) (A) (A) (A) (A) (A) (A)
                 (A) (A) (A) (A) (A) (A) (A) (A) (A) (A)
       Virtual   (A) (A) (A) (A) (A) (A) (A) (A) (A) (A) (A) (A)
                 (A) (A) (A) (A) (A) (A) (A) (A) (A) (A) (A) (A)
                 (A) (A) (A) (A) (A) (A) (A) (A) (A) (A) (A) (A)
                 (A) (A) (A) (A) (A) (A) (A) (A) (A) (A) (A) (A)
                 (A) (A) (A) (A) (A) (A) (A) (A) (A) (A) (A) (A)
                 (A) (A) (A) (A) (A) (A) (A) (A) (A) (A) (A) (A)
                 (A) (A) (A) (A) (A) (A) (A) (A) (A) (A) (A) (A)
                 (A) (A) (A) (A) (A) (A) (A) (A) (A) (A) (A) (A)
                 (A) (A) (A) (A) (A) (A) (A) (A) (A) (A) (A) (A)
                 (A) (A) (A) (A) (A) (A) (A) (A) (A) (A) (A) (A)
                 (A) (A) (A) (A) (A) (A) (A) (A) (A) (A) (A) (A)
                 (A) (A)
 The electronic state is 1-A.
 Alpha  occ. eigenvalues -- -482.91751 -61.87922 -56.40059 -56.39644 -56.39634
 Alpha  occ. eigenvalues --  -19.19906 -14.33852 -10.26890 -10.25624 -10.25478
 Alpha  occ. eigenvalues --  -10.22440 -10.22376 -10.21729  -8.59064  -6.54466
 Alpha  occ. eigenvalues --   -6.53183  -6.53155  -2.66038  -2.65671  -2.65651
 Alpha  occ. eigenvalues --   -2.64626  -2.64626  -1.09120  -0.95925  -0.84134
 Alpha  occ. eigenvalues --   -0.79852  -0.75069  -0.71988  -0.63808  -0.62026
 Alpha  occ. eigenvalues --   -0.54743  -0.52452  -0.51428  -0.48915  -0.44702
 Alpha  occ. eigenvalues --   -0.42889  -0.42651  -0.41954  -0.39577  -0.35746
 Alpha  occ. eigenvalues --   -0.35390  -0.33101  -0.29496  -0.27020  -0.26023
 Alpha  occ. eigenvalues --   -0.23734
 Alpha virt. eigenvalues --   -0.02973  -0.01024   0.00292   0.08953   0.10591
 Alpha virt. eigenvalues --    0.13708   0.14269   0.14556   0.15574   0.16409
 Alpha virt. eigenvalues --    0.17392   0.22077   0.23573   0.26795   0.30280
 Alpha virt. eigenvalues --    0.33389   0.35200   0.37847   0.40718   0.45739
 Alpha virt. eigenvalues --    0.45817   0.46288   0.47869   0.48032   0.49166
 Alpha virt. eigenvalues --    0.51529   0.51721   0.53980   0.54269   0.55769
 Alpha virt. eigenvalues --    0.57331   0.59173   0.60432   0.62035   0.64318
 Alpha virt. eigenvalues --    0.68003   0.69429   0.71045   0.74007   0.75000
 Alpha virt. eigenvalues --    0.77896   0.80568   0.81902   0.82896   0.83906
 Alpha virt. eigenvalues --    0.85909   0.86981   0.87153   0.89557   0.91338
 Alpha virt. eigenvalues --    0.92184   0.99409   1.01229   1.01569   1.04592
 Alpha virt. eigenvalues --    1.10608   1.14785   1.18820   1.19854   1.22338
 Alpha virt. eigenvalues --    1.28346   1.28790   1.32992   1.36574   1.37940
 Alpha virt. eigenvalues --    1.41379   1.42735   1.45083   1.45459   1.53993
 Alpha virt. eigenvalues --    1.55916   1.63136   1.68795   1.76090   1.77677
 Alpha virt. eigenvalues --    1.83110   1.85313   1.86612   1.88091   1.89884
 Alpha virt. eigenvalues --    1.90030   1.92350   1.97764   2.00301   2.01927
 Alpha virt. eigenvalues --    2.02409   2.04784   2.07147   2.10092   2.12644
 Alpha virt. eigenvalues --    2.14204   2.20514   2.27982   2.30528   2.33504
 Alpha virt. eigenvalues --    2.35536   2.41025   2.43716   2.48696   2.50995
 Alpha virt. eigenvalues --    2.52036   2.53185   2.57230   2.58114   2.60867
 Alpha virt. eigenvalues --    2.63699   2.67754   2.68944   2.71868   2.73224
 Alpha virt. eigenvalues --    2.75750   2.83233   2.85619   2.93568   3.03968
 Alpha virt. eigenvalues --    3.07382   3.17260   3.21173   3.28236   3.38913
 Alpha virt. eigenvalues --    3.39927   3.40528   3.44646   3.70635   4.04104
 Alpha virt. eigenvalues --    4.08129   4.20116   4.28383   4.35709   4.44596
 Alpha virt. eigenvalues --    4.47097   4.72687   8.60097  72.81575
          Condensed to atoms (all electrons):
               1          2          3          4          5          6
     1  C    4.728558   0.247368  -0.041705   0.003438  -0.000138   0.000003
     2  O    0.247368   8.197200   0.270830  -0.045218   0.002969   0.000198
     3  C   -0.041705   0.270830   4.694478   0.475872  -0.010051  -0.039193
     4  C    0.003438  -0.045218   0.475872   4.802932   0.484916  -0.086189
     5  N   -0.000138   0.002969  -0.010051   0.484916   6.657490   0.455991
     6  C    0.000003   0.000198  -0.039193  -0.086189   0.455991   4.795223
     7  C    0.000314   0.004687   0.004883  -0.029692  -0.017227   0.481346
     8  Br  -0.000025  -0.000036   0.005479   0.000286   0.004819  -0.048742
     9  C   -0.004381  -0.062090   0.427314  -0.072440  -0.056207  -0.048023
    10  H    0.398306  -0.033579   0.003098  -0.000118   0.000002  -0.000000
    11  H    0.375037  -0.034979  -0.005347   0.000063   0.000001  -0.000006
    12  H    0.375044  -0.034982  -0.005348   0.000062   0.000001  -0.000006
    13  H   -0.000304   0.002926  -0.065349   0.380203  -0.049963   0.005139
    14  H   -0.000001   0.000004   0.000417   0.004310  -0.050051   0.392906
    15  H    0.005540  -0.007995  -0.047051   0.004330  -0.000355   0.005245
               7          8          9         10         11         12
     1  C    0.000314  -0.000025  -0.004381   0.398306   0.375037   0.375044
     2  O    0.004687  -0.000036  -0.062090  -0.033579  -0.034979  -0.034982
     3  C    0.004883   0.005479   0.427314   0.003098  -0.005347  -0.005348
     4  C   -0.029692   0.000286  -0.072440  -0.000118   0.000063   0.000062
     5  N   -0.017227   0.004819  -0.056207   0.000002   0.000001   0.000001
     6  C    0.481346  -0.048742  -0.048023  -0.000000  -0.000006  -0.000006
     7  C    4.919400   0.242278   0.474890   0.000002  -0.000143  -0.000143
     8  Br   0.242278  34.979360  -0.060785  -0.000000   0.000006   0.000006
     9  C    0.474890  -0.060785   5.107305   0.000090   0.004802   0.004799
    10  H    0.000002  -0.000000   0.000090   0.562078  -0.031866  -0.031876
    11  H   -0.000143   0.000006   0.004802  -0.031866   0.621068  -0.049100
    12  H   -0.000143   0.000006   0.004799  -0.031876  -0.049100   0.621082
    13  H    0.000182   0.000018   0.005704  -0.000020   0.000026   0.000026
    14  H   -0.066154   0.001814   0.003860  -0.000000   0.000000   0.000000
    15  H   -0.041076  -0.003137   0.373080  -0.000178   0.001684   0.001683
              13         14         15
     1  C   -0.000304  -0.000001   0.005540
     2  O    0.002926   0.000004  -0.007995
     3  C   -0.065349   0.000417  -0.047051
     4  C    0.380203   0.004310   0.004330
     5  N   -0.049963  -0.050051  -0.000355
     6  C    0.005139   0.392906   0.005245
     7  C    0.000182  -0.066154  -0.041076
     8  Br   0.000018   0.001814  -0.003137
     9  C    0.005704   0.003860   0.373080
    10  H   -0.000020  -0.000000  -0.000178
    11  H    0.000026   0.000000   0.001684
    12  H    0.000026   0.000000   0.001683
    13  H    0.609642  -0.000147  -0.000153
    14  H   -0.000147   0.598652  -0.000158
    15  H   -0.000153  -0.000158   0.592381
 Mulliken charges:
               1
     1  C   -0.087055
     2  O   -0.507305
     3  C    0.331673
     4  C    0.077244
     5  N   -0.422199
     6  C    0.086107
     7  C    0.026454
     8  Br  -0.121341
     9  C   -0.097918
    10  H    0.134061
    11  H    0.118754
    12  H    0.118751
    13  H    0.112068
    14  H    0.114547
    15  H    0.116159
 Sum of Mulliken charges =  -0.00000
 Mulliken charges with hydrogens summed into heavy atoms:
               1
     1  C    0.284512
     2  O   -0.507305
     3  C    0.331673
     4  C    0.189312
     5  N   -0.422199
     6  C    0.200654
     7  C    0.026454
     8  Br  -0.121341
     9  C    0.018240
 Electronic spatial extent (au):  <R**2>=           2029.7643
 Charge=              0.0000 electrons
 Dipole moment (field-independent basis, Debye):
    X=              1.4625    Y=             -2.9048    Z=              0.0003  Tot=              3.2522
 Quadrupole moment (field-independent basis, Debye-Ang):
   XX=            -60.6024   YY=            -63.7236   ZZ=            -65.3198
   XY=             -6.5923   XZ=              0.0019   YZ=             -0.0011
 Traceless Quadrupole moment (field-independent basis, Debye-Ang):
   XX=              2.6129   YY=             -0.5083   ZZ=             -2.1046
   XY=             -6.5923   XZ=              0.0019   YZ=             -0.0011
 Octapole moment (field-independent basis, Debye-Ang**2):
  XXX=            -49.4627  YYY=            -44.3033  ZZZ=              0.0037  XYY=            -11.7626
  XXY=            -19.4232  XXZ=              0.0070  XZZ=            -18.6568  YZZ=             -7.3235
  YYZ=              0.0011  XYZ=             -0.0003
 Hexadecapole moment (field-independent basis, Debye-Ang**3):
 XXXX=          -1532.7672 YYYY=           -714.4703 ZZZZ=            -72.6438 XXXY=             -6.7953
 XXXZ=              0.0295 YYYX=            -15.4678 YYYZ=              0.0227 ZZZX=              0.0154
 ZZZY=              0.0237 XXYY=           -317.5252 XXZZ=           -285.2761 YYZZ=           -124.8395
 XXYZ=             -0.0026 YYXZ=              0.0099 ZZXY=              6.7734
 N-N= 6.319969540396D+02 E-N=-8.240022933013D+03  KE= 2.915091075431D+03
 No NMR shielding tensors so no spin-rotation constants.
 Leave Link  601 at Tue Sep 17 09:46:50 2024, MaxMem=  1342177280 cpu:               0.7 elap:               0.1
 (Enter /groups/ReismanLab/Software/Gaussian16_RevC/Linux_Binary_AVX2-enabled-CPU/g16/l701.exe)
 ... and contract with generalized density number  0.
 Compute integral first derivatives.
 R6Disp: Adding Grimme-D3(BJ) dispersion energy 1st derivatives to the gradient.
 Leave Link  701 at Tue Sep 17 09:46:50 2024, MaxMem=  1342177280 cpu:               0.6 elap:               0.1
 (Enter /groups/ReismanLab/Software/Gaussian16_RevC/Linux_Binary_AVX2-enabled-CPU/g16/l702.exe)
 L702 exits ... SP integral derivatives will be done elsewhere.
 Leave Link  702 at Tue Sep 17 09:46:50 2024, MaxMem=  1342177280 cpu:               0.1 elap:               0.0
 (Enter /groups/ReismanLab/Software/Gaussian16_RevC/Linux_Binary_AVX2-enabled-CPU/g16/l703.exe)
 Integral derivatives from FoFJK, PRISM(SPDF).
 Compute integral first derivatives, UseDBF=F ICtDFT=           0.
 Calling FoFJK, ICntrl=      2127 FMM=F ISym2X=0 I1Cent= 0 IOpClX= 0 NMat=1 NMatS=1 NMatT=0.
 FoFJK:  IHMeth= 1 ICntrl=    2127 DoSepK=F KAlg= 0 I1Cent=           0 FoldK=F
 IRaf=         0 NMat=       1 IRICut=       1 DoRegI=T DoRafI=F ISym2E= 0 IDoP0=0 IntGTp=1.
 FoFCou: FMM=F IPFlag=           0 FMFlag=      100000 FMFlg1=         800
         NFxFlg=           0 DoJE=F BraDBF=F KetDBF=F FulRan=T
         wScrn=  0.000000 ICntrl=      2127 IOpCl=  0 I1Cent=           0 NGrid=           0
         NMat0=    1 NMatS0=      1 NMatT0=    0 NMatD0=    1 NMtDS0=    0 NMtDT0=    0
 Symmetry not used in FoFCou.
 Leave Link  703 at Tue Sep 17 09:46:52 2024, MaxMem=  1342177280 cpu:              17.2 elap:               2.2
 (Enter /groups/ReismanLab/Software/Gaussian16_RevC/Linux_Binary_AVX2-enabled-CPU/g16/l716.exe)
 Dipole        = 5.75387048D-01-1.14282091D+00 1.27993105D-04
 ***** Axes restored to original set *****
 -------------------------------------------------------------------
 Center     Atomic                   Forces (Hartrees/Bohr)
 Number     Number              X              Y              Z
 -------------------------------------------------------------------
      1        6          -0.001074745   -0.003378510    0.000007812
      2        8          -0.004629192    0.006103670   -0.000005233
      3        6           0.003505176    0.002410458    0.000007145
      4        6          -0.013090306   -0.005327660   -0.000010108
      5        7          -0.001968536    0.016540947   -0.000001157
      6        6           0.013545986   -0.001655790    0.000042009
      7        6           0.003760836   -0.001912179   -0.000017716
      8       35           0.002114118   -0.000534660    0.000004772
      9        6          -0.002406420   -0.006405092   -0.000006450
     10        1          -0.001057215   -0.001441319   -0.000002620
     11        1           0.001152343   -0.001241044   -0.001189760
     12        1           0.001154735   -0.001244288    0.001187419
     13        1          -0.006088531    0.000331243    0.000002899
     14        1           0.005095671    0.000168153   -0.000021018
     15        1          -0.000013920   -0.002413930    0.000002006
 -------------------------------------------------------------------
 Cartesian Forces:  Max     0.016540947 RMS     0.004479459
 Leave Link  716 at Tue Sep 17 09:46:52 2024, MaxMem=  1342177280 cpu:               0.1 elap:               0.0
 (Enter /groups/ReismanLab/Software/Gaussian16_RevC/Linux_Binary_AVX2-enabled-CPU/g16/l103.exe)

 GradGradGradGradGradGradGradGradGradGradGradGradGradGradGradGradGradGrad
 Berny optimization.
 FormGI is forming the generalized inverse of G from B-inverse, IUseBI=4.
 Internal  Forces:  Max     0.019951264 RMS     0.004216874
 Search for a local minimum.
 Step number   1 out of a maximum of   73
 All quantities printed in internal units (Hartrees-Bohrs-Radians)
 RMS Force = .42169D-02 SwitMx=.10000D-02 MixMth= 1
 Mixed Optimization -- RFO/linear search
 Second derivative matrix not updated -- first step.
 ITU=  0
     Eigenvalues ---    0.01546   0.02126   0.02193   0.02222   0.02280
     Eigenvalues ---    0.02290   0.02307   0.02368   0.02437   0.02666
     Eigenvalues ---    0.10089   0.10733   0.16000   0.16000   0.16000
     Eigenvalues ---    0.16000   0.16000   0.16000   0.18098   0.23219
     Eigenvalues ---    0.23410   0.23506   0.25000   0.25000   0.25000
     Eigenvalues ---    0.34332   0.34332   0.35020   0.35991   0.35996
     Eigenvalues ---    0.36149   0.42407   0.43844   0.44994   0.46624
     Eigenvalues ---    0.47849   0.55256   0.59527   0.62137
 RFO step:  Lambda=-2.28563963D-03 EMin= 1.54621896D-02
 Linear search not attempted -- first point.
 Iteration  1 RMS(Cart)=  0.01815979 RMS(Int)=  0.00012845
 Iteration  2 RMS(Cart)=  0.00020700 RMS(Int)=  0.00000848
 Iteration  3 RMS(Cart)=  0.00000002 RMS(Int)=  0.00000848
 ITry= 1 IFail=0 DXMaxC= 6.30D-02 DCOld= 1.00D+10 DXMaxT= 3.00D-01 DXLimC= 3.00D+00 Rises=F
 Variable       Old X    -DE/DX   Delta X   Delta X   Delta X     New X
                                 (Linear)    (Quad)   (Total)
    R1        2.66641   0.00729   0.00000   0.01655   0.01655   2.68296
    R2        2.05642   0.00137   0.00000   0.00387   0.00387   2.06029
    R3        2.06774   0.00194   0.00000   0.00562   0.00562   2.07336
    R4        2.06774   0.00194   0.00000   0.00562   0.00562   2.07336
    R5        2.54905   0.00452   0.00000   0.00815   0.00815   2.55720
    R6        2.65297   0.00333   0.00000   0.00714   0.00715   2.66012
    R7        2.63193   0.00556   0.00000   0.01008   0.01008   2.64200
    R8        2.48102   0.01819   0.00000   0.02947   0.02948   2.51051
    R9        2.04088   0.00543   0.00000   0.01499   0.01499   2.05587
   R10        2.49680   0.01995   0.00000   0.03357   0.03357   2.53037
   R11        2.61605   0.00666   0.00000   0.01406   0.01405   2.63010
   R12        2.04096   0.00424   0.00000   0.01170   0.01170   2.05266
   R13        3.59642   0.00213   0.00000   0.01163   0.01163   3.60804
   R14        2.62053   0.00759   0.00000   0.01442   0.01442   2.63494
   R15        2.03848   0.00241   0.00000   0.00661   0.00661   2.04510
    A1        1.84293   0.00182   0.00000   0.01245   0.01243   1.85536
    A2        1.94474   0.00023   0.00000   0.00073   0.00072   1.94546
    A3        1.94471   0.00023   0.00000   0.00078   0.00076   1.94547
    A4        1.90845  -0.00056   0.00000  -0.00219  -0.00221   1.90624
    A5        1.90840  -0.00056   0.00000  -0.00215  -0.00218   1.90622
    A6        1.91304  -0.00110   0.00000  -0.00898  -0.00899   1.90405
    A7        2.07089  -0.00313   0.00000  -0.01241  -0.01241   2.05848
    A8        2.04350  -0.00192   0.00000  -0.00559  -0.00559   2.03790
    A9        2.18912  -0.00270   0.00000  -0.00871  -0.00871   2.18041
   A10        2.05057   0.00462   0.00000   0.01430   0.01431   2.06487
   A11        2.15381  -0.00275   0.00000  -0.01003  -0.01002   2.14379
   A12        2.08948  -0.00146   0.00000  -0.01244  -0.01245   2.07704
   A13        2.03989   0.00421   0.00000   0.02247   0.02247   2.06236
   A14        2.08684  -0.00241   0.00000  -0.00101  -0.00099   2.08584
   A15        2.11715  -0.00160   0.00000  -0.00299  -0.00300   2.11415
   A16        2.03853   0.00369   0.00000   0.01933   0.01933   2.05786
   A17        2.12751  -0.00210   0.00000  -0.01634  -0.01634   2.11117
   A18        2.09867  -0.00147   0.00000  -0.00472  -0.00471   2.09396
   A19        2.10112   0.00127   0.00000   0.00284   0.00282   2.10394
   A20        2.08339   0.00020   0.00000   0.00188   0.00189   2.08528
   A21        2.05689   0.00086   0.00000  -0.00310  -0.00312   2.05377
   A22        2.13248  -0.00063   0.00000   0.00035   0.00036   2.13284
   A23        2.09381  -0.00024   0.00000   0.00275   0.00276   2.09657
    D1       -3.14135   0.00000   0.00000  -0.00002  -0.00001  -3.14136
    D2       -1.07107   0.00054   0.00000   0.00522   0.00523  -1.06584
    D3        1.07164  -0.00054   0.00000  -0.00531  -0.00532   1.06632
    D4        3.14126   0.00000   0.00000   0.00008   0.00008   3.14134
    D5       -0.00039   0.00000   0.00000   0.00014   0.00014  -0.00025
    D6        3.14157  -0.00000   0.00000  -0.00007  -0.00007   3.14150
    D7       -0.00010   0.00000   0.00000   0.00006   0.00006  -0.00004
    D8        0.00002  -0.00000   0.00000  -0.00012  -0.00012  -0.00010
    D9        3.14154   0.00000   0.00000   0.00001   0.00001   3.14155
   D10       -3.14155  -0.00000   0.00000  -0.00000   0.00000  -3.14155
   D11        0.00010  -0.00000   0.00000  -0.00004  -0.00004   0.00006
   D12       -0.00001   0.00000   0.00000   0.00006   0.00006   0.00005
   D13       -3.14154   0.00000   0.00000   0.00002   0.00002  -3.14153
   D14        0.00003   0.00000   0.00000   0.00000   0.00000   0.00003
   D15       -3.14149  -0.00000   0.00000  -0.00012  -0.00013   3.14157
   D16       -0.00009   0.00000   0.00000   0.00017   0.00017   0.00008
   D17       -3.14116  -0.00001   0.00000  -0.00045  -0.00046   3.14156
   D18        3.14152  -0.00000   0.00000  -0.00006  -0.00006   3.14146
   D19        0.00010  -0.00001   0.00000  -0.00023  -0.00023  -0.00013
   D20       -0.00062   0.00002   0.00000   0.00061   0.00060  -0.00002
   D21        3.14115   0.00001   0.00000   0.00044   0.00043   3.14158
   D22       -0.00005   0.00000   0.00000   0.00011   0.00011   0.00006
   D23        3.14148   0.00000   0.00000   0.00015   0.00015  -3.14155
   D24       -3.14147  -0.00000   0.00000  -0.00006  -0.00006  -3.14153
   D25        0.00007  -0.00000   0.00000  -0.00002  -0.00002   0.00005
         Item               Value     Threshold  Converged?
 Maximum Force            0.019951     0.000450     NO 
 RMS     Force            0.004217     0.000300     NO 
 Maximum Displacement     0.062999     0.001800     NO 
 RMS     Displacement     0.018218     0.001200     NO 
 Predicted change in Energy=-1.149317D-03
 Lowest energy point so far.  Saving SCF results.
 GradGradGradGradGradGradGradGradGradGradGradGradGradGradGradGradGradGrad

 Leave Link  103 at Tue Sep 17 09:46:52 2024, MaxMem=  1342177280 cpu:               0.1 elap:               0.0
 (Enter /groups/ReismanLab/Software/Gaussian16_RevC/Linux_Binary_AVX2-enabled-CPU/g16/l202.exe)
                          Input orientation:                          
 ---------------------------------------------------------------------
 Center     Atomic      Atomic             Coordinates (Angstroms)
 Number     Number       Type             X           Y           Z
 ---------------------------------------------------------------------
      1          6           0       -3.261644   -1.811571   -0.000209
      2          8           0       -3.228258   -0.392201    0.000131
      3          6           0       -2.018220    0.213598    0.000109
      4          6           0       -2.014079    1.621267    0.000128
      5          7           0       -0.895651    2.338232    0.000214
      6          6           0        0.288508    1.713148    0.000250
      7          6           0        0.368712    0.323672    0.000099
      8         35           0        2.074848   -0.533362   -0.000069
      9          6           0       -0.789289   -0.453021    0.000065
     10          1           0       -4.314967   -2.092953   -0.000372
     11          1           0       -2.777392   -2.224379   -0.894011
     12          1           0       -2.777569   -2.224819    0.893487
     13          1           0       -2.963988    2.151587    0.000125
     14          1           0        1.186208    2.324713    0.000290
     15          1           0       -0.718968   -1.532954   -0.000014
 ---------------------------------------------------------------------
                    Distance matrix (angstroms):
                    1          2          3          4          5
     1  C    0.000000
     2  O    1.419762   0.000000
     3  C    2.376428   1.353213   0.000000
     4  C    3.652505   2.351231   1.407675   0.000000
     5  N    4.776901   3.591144   2.402963   1.328502   0.000000
     6  C    5.002721   4.098797   2.751298   2.304419   1.339016
     7  C    4.211739   3.667515   2.389468   2.713198   2.378459
     8  Br   5.487437   5.304984   4.160667   4.621877   4.131576
     9  C    2.821028   2.439727   1.398088   2.408896   2.793278
    10  H    1.090259   2.018290   3.255031   4.369155   5.597063
    11  H    1.097174   2.087976   2.705462   4.021334   5.015775
    12  H    1.097177   2.087989   2.705663   4.021615   5.016073
    13  H    3.974320   2.557479   2.156451   1.087919   2.076741
    14  H    6.073897   5.183544   3.837338   3.276686   2.081903
    15  H    2.557896   2.756420   2.176809   3.409754   3.875215
                    6          7          8          9         10
     6  C    0.000000
     7  C    1.391789   0.000000
     8  Br   2.870160   1.909295   0.000000
     9  C    2.419490   1.394352   2.865264   0.000000
    10  H    5.973139   5.270381   6.577389   3.888416   0.000000
    11  H    5.069868   4.146078   5.215640   2.808849   1.783255
    12  H    5.070137   4.146327   5.215881   2.809045   1.783245
    13  H    3.281914   3.801074   5.709538   3.393125   4.454354
    14  H    1.086221   2.161589   2.993038   3.408576   7.055402
    15  H    3.398850   2.151768   2.967253   1.082220   3.639341
                   11         12         13         14         15
    11  H    0.000000
    12  H    1.787498   0.000000
    13  H    4.470277   4.470547   0.000000
    14  H    6.099519   6.099801   4.153805   0.000000
    15  H    2.348278   2.348374   4.314621   4.302474   0.000000
 Stoichiometry    C6H6BrNO
 Framework group  C1[X(C6H6BrNO)]
 Deg. of freedom    39
 Full point group                 C1      NOp   1
 RotChk:  IX=0 Diff= 9.38D-03
 Largest Abelian subgroup         C1      NOp   1
 Largest concise Abelian subgroup C1      NOp   1
                         Standard orientation:                         
 ---------------------------------------------------------------------
 Center     Atomic      Atomic             Coordinates (Angstroms)
 Number     Number       Type             X           Y           Z
 ---------------------------------------------------------------------
      1          6           0        3.047652   -1.877461    0.000234
      2          8           0        3.041727   -0.457711   -0.000106
      3          6           0        1.843633    0.171380   -0.000084
      4          6           0        1.866721    1.578866   -0.000104
      5          7           0        0.762372    2.317331   -0.000189
      6          6           0       -0.433657    1.715269   -0.000225
      7          6           0       -0.540723    0.327604   -0.000075
      8         35           0       -2.263117   -0.496267    0.000094
      9          6           0        0.602038   -0.471342   -0.000040
     10          1           0        4.095334   -2.179165    0.000396
     11          1           0        2.555505   -2.280825    0.894035
     12          1           0        2.555674   -2.281269   -0.893463
     13          1           0        2.826711    2.090713   -0.000100
     14          1           0       -1.319359    2.344084   -0.000265
     15          1           0        0.510840   -1.549713    0.000039
 ---------------------------------------------------------------------
 Rotational constants (GHZ):           2.1267697           0.6298186           0.4874283
 Leave Link  202 at Tue Sep 17 09:46:52 2024, MaxMem=  1342177280 cpu:               0.0 elap:               0.0
 (Enter /groups/ReismanLab/Software/Gaussian16_RevC/Linux_Binary_AVX2-enabled-CPU/g16/l301.exe)
 Standard basis: 6-31G(d,p) (6D, 7F)
 Ernie: Thresh=  0.10000D-02 Tol=  0.10000D-05 Strict=F.
 There are   180 symmetry adapted cartesian basis functions of A   symmetry.
 There are   180 symmetry adapted basis functions of A   symmetry.
   180 basis functions,   349 primitive gaussians,   180 cartesian basis functions
    46 alpha electrons       46 beta electrons
       nuclear repulsion energy       629.3353438788 Hartrees.
 IExCor=  402 DFT=T Ex+Corr=B3LYP ExCW=0 ScaHFX=  0.200000
 ScaDFX=  0.800000  0.720000  1.000000  0.810000 ScalE2=  1.000000  1.000000
 IRadAn=      5 IRanWt=     -1 IRanGd=            0 ICorTp=0 IEmpDi=141
 NAtoms=   15 NActive=   15 NUniq=   15 SFac= 1.00D+00 NAtFMM=   60 NAOKFM=F Big=F
 Integral buffers will be    131072 words long.
 Raffenetti 2 integral format.
 Two-electron integral symmetry is turned on.
 R6Disp:  Grimme-D3(BJ) Dispersion energy=       -0.0285035715 Hartrees.
 Nuclear repulsion after empirical dispersion term =      629.3068403073 Hartrees.
 Leave Link  301 at Tue Sep 17 09:46:52 2024, MaxMem=  1342177280 cpu:               0.1 elap:               0.0
 (Enter /groups/ReismanLab/Software/Gaussian16_RevC/Linux_Binary_AVX2-enabled-CPU/g16/l302.exe)
 NPDir=0 NMtPBC=     1 NCelOv=     1 NCel=       1 NClECP=     1 NCelD=      1
         NCelK=      1 NCelE2=     1 NClLst=     1 CellRange=     0.0.
 One-electron integrals computed using PRISM.
 One-electron integral symmetry used in STVInt
 NBasis=   180 RedAO= T EigKep=  7.17D-04  NBF=   180
 NBsUse=   180 1.00D-06 EigRej= -1.00D+00 NBFU=   180
 Precomputing XC quadrature grid using
 IXCGrd= 4 IRadAn=           5 IRanWt=          -1 IRanGd=           0 AccXCQ= 0.00D+00.
 Generated NRdTot=       0 NPtTot=           0 NUsed=           0 NTot=          32
 NSgBfM=   180   180   180   180   180 MxSgAt=    15 MxSgA2=    15.
 Leave Link  302 at Tue Sep 17 09:46:52 2024, MaxMem=  1342177280 cpu:               0.8 elap:               0.1
 (Enter /groups/ReismanLab/Software/Gaussian16_RevC/Linux_Binary_AVX2-enabled-CPU/g16/l303.exe)
 DipDrv:  MaxL=1.
 Leave Link  303 at Tue Sep 17 09:46:52 2024, MaxMem=  1342177280 cpu:               0.1 elap:               0.0
 (Enter /groups/ReismanLab/Software/Gaussian16_RevC/Linux_Binary_AVX2-enabled-CPU/g16/l401.exe)
 Initial guess from the checkpoint file:  "smiles_00099_conf_1.chk"
 B after Tr=     0.000000   -0.000000    0.000000
         Rot=    0.999998    0.000008    0.000006    0.001871 Ang=   0.21 deg.
 Guess basis will be translated and rotated to current coordinates.
 JPrj=2 DoOrth=T DoCkMO=T.
 Generating alternative initial guess.
 ExpMin= 1.43D-01 ExpMax= 5.74D+05 ExpMxC= 5.74D+03 IAcc=3 IRadAn=         5 AccDes= 0.00D+00
 Harris functional with IExCor=  402 and IRadAn=       5 diagonalized for initial guess.
 HarFok:  IExCor=  402 AccDes= 0.00D+00 IRadAn=         5 IDoV= 1 UseB2=F ITyADJ=14
 ICtDFT=  3500011 ScaDFX=  1.000000  1.000000  1.000000  1.000000
 FoFCou: FMM=F IPFlag=           0 FMFlag=      100000 FMFlg1=           0
         NFxFlg=           0 DoJE=T BraDBF=F KetDBF=T FulRan=T
         wScrn=  0.000000 ICntrl=       500 IOpCl=  0 I1Cent=   200000004 NGrid=           0
         NMat0=    1 NMatS0=      1 NMatT0=    0 NMatD0=    1 NMtDS0=    0 NMtDT0=    0
 Petite list used in FoFCou.
 Harris En= -2934.03114459169    
 Leave Link  401 at Tue Sep 17 09:46:53 2024, MaxMem=  1342177280 cpu:               3.6 elap:               0.5
 (Enter /groups/ReismanLab/Software/Gaussian16_RevC/Linux_Binary_AVX2-enabled-CPU/g16/l502.exe)
 Integral symmetry usage will be decided dynamically.
 Closed shell SCF:
 Using DIIS extrapolation, IDIIS=  1040.
 NGot=  1342177280 LenX=  1342108742 LenY=  1342075901
 Requested convergence on RMS density matrix=1.00D-08 within  32 cycles.
 Requested convergence on MAX density matrix=1.00D-06.
 Requested convergence on             energy=1.00D-06.
 No special actions if energy rises.
 Fock matrices will be formed incrementally for  20 cycles.
 Integral accuracy reduced to 1.0D-05 until final iterations.

 Cycle   1  Pass 0  IDiag  1:
 FoFJK:  IHMeth= 1 ICntrl=       0 DoSepK=F KAlg= 0 I1Cent=           0 FoldK=F
 IRaf= 900000000 NMat=       1 IRICut=       1 DoRegI=T DoRafI=F ISym2E= 0 IDoP0=0 IntGTp=1.
 FoFCou: FMM=F IPFlag=           0 FMFlag=      100000 FMFlg1=           0
         NFxFlg=           0 DoJE=F BraDBF=F KetDBF=F FulRan=T
         wScrn=  0.000000 ICntrl=         0 IOpCl=  0 I1Cent=           0 NGrid=           0
         NMat0=    1 NMatS0=      1 NMatT0=    0 NMatD0=    1 NMtDS0=    0 NMtDT0=    0
 Symmetry not used in FoFCou.
 E= -2933.94727656436    
 DIIS: error= 1.00D-03 at cycle   1 NSaved=   1.
 NSaved= 1 IEnMin= 1 EnMin= -2933.94727656436     IErMin= 1 ErrMin= 1.00D-03
 ErrMax= 1.00D-03  0.00D+00 EMaxC= 1.00D-01 BMatC= 6.90D-04 BMatP= 6.90D-04
 IDIUse=3 WtCom= 9.90D-01 WtEn= 1.00D-02
 Coeff-Com:  0.100D+01
 Coeff-En:   0.100D+01
 Coeff:      0.100D+01
 Gap=     1.666 Goal=   None    Shift=    0.000
 GapD=    1.666 DampG=2.000 DampE=1.000 DampFc=2.0000 IDamp=-1.
 RMSDP=2.03D-04 MaxDP=7.91D-03              OVMax= 5.77D-03

 Cycle   2  Pass 0  IDiag  1:
 RMSU=  2.03D-04    CP:  1.00D+00
 E= -2933.94771146754     Delta-E=       -0.000434903174 Rises=F Damp=F
 DIIS: error= 5.98D-04 at cycle   2 NSaved=   2.
 NSaved= 2 IEnMin= 2 EnMin= -2933.94771146754     IErMin= 2 ErrMin= 5.98D-04
 ErrMax= 5.98D-04  0.00D+00 EMaxC= 1.00D-01 BMatC= 6.61D-05 BMatP= 6.90D-04
 IDIUse=3 WtCom= 9.94D-01 WtEn= 5.98D-03
 Coeff-Com:  0.130D+00 0.870D+00
 Coeff-En:   0.000D+00 0.100D+01
 Coeff:      0.129D+00 0.871D+00
 Gap=     0.204 Goal=   None    Shift=    0.000
 RMSDP=1.16D-04 MaxDP=4.01D-03 DE=-4.35D-04 OVMax= 5.15D-03

 Cycle   3  Pass 0  IDiag  1:
 RMSU=  1.15D-04    CP:  1.00D+00  1.04D+00
 E= -2933.94766660027     Delta-E=        0.000044867272 Rises=F Damp=F
 DIIS: error= 9.46D-04 at cycle   3 NSaved=   3.
 NSaved= 3 IEnMin= 2 EnMin= -2933.94771146754     IErMin= 2 ErrMin= 5.98D-04
 ErrMax= 9.46D-04  0.00D+00 EMaxC= 1.00D-01 BMatC= 1.07D-04 BMatP= 6.61D-05
 IDIUse=3 WtCom= 2.45D-01 WtEn= 7.55D-01
 Coeff-Com:  0.237D-02 0.562D+00 0.435D+00
 Coeff-En:   0.000D+00 0.609D+00 0.391D+00
 Coeff:      0.581D-03 0.598D+00 0.402D+00
 Gap=     0.205 Goal=   None    Shift=    0.000
 RMSDP=6.60D-05 MaxDP=2.32D-03 DE= 4.49D-05 OVMax= 3.43D-03

 Cycle   4  Pass 0  IDiag  1:
 RMSU=  2.39D-05    CP:  1.00D+00  1.04D+00  4.66D-01
 E= -2933.94777355270     Delta-E=       -0.000106952432 Rises=F Damp=F
 DIIS: error= 1.08D-04 at cycle   4 NSaved=   4.
 NSaved= 4 IEnMin= 4 EnMin= -2933.94777355270     IErMin= 4 ErrMin= 1.08D-04
 ErrMax= 1.08D-04  0.00D+00 EMaxC= 1.00D-01 BMatC= 3.10D-06 BMatP= 6.61D-05
 IDIUse=3 WtCom= 9.99D-01 WtEn= 1.08D-03
 Coeff-Com: -0.624D-02 0.275D+00 0.215D+00 0.516D+00
 Coeff-En:   0.000D+00 0.000D+00 0.000D+00 0.100D+01
 Coeff:     -0.624D-02 0.274D+00 0.215D+00 0.517D+00
 Gap=     0.205 Goal=   None    Shift=    0.000
 RMSDP=1.38D-05 MaxDP=2.80D-04 DE=-1.07D-04 OVMax= 6.04D-04

 Cycle   5  Pass 0  IDiag  1:
 RMSU=  8.26D-06    CP:  1.00D+00  1.05D+00  4.43D-01  5.53D-01
 E= -2933.94777646720     Delta-E=       -0.000002914501 Rises=F Damp=F
 DIIS: error= 2.30D-05 at cycle   5 NSaved=   5.
 NSaved= 5 IEnMin= 5 EnMin= -2933.94777646720     IErMin= 5 ErrMin= 2.30D-05
 ErrMax= 2.30D-05  0.00D+00 EMaxC= 1.00D-01 BMatC= 1.94D-07 BMatP= 3.10D-06
 IDIUse=1 WtCom= 1.00D+00 WtEn= 0.00D+00
 Coeff-Com: -0.273D-02 0.629D-01 0.573D-01 0.229D+00 0.654D+00
 Coeff:     -0.273D-02 0.629D-01 0.573D-01 0.229D+00 0.654D+00
 Gap=     0.205 Goal=   None    Shift=    0.000
 RMSDP=4.14D-06 MaxDP=1.39D-04 DE=-2.91D-06 OVMax= 1.56D-04

 Initial convergence to 1.0D-05 achieved.  Increase integral accuracy.
 Cycle   6  Pass 1  IDiag  1:
 E= -2933.94778747725     Delta-E=       -0.000011010054 Rises=F Damp=F
 DIIS: error= 4.30D-05 at cycle   1 NSaved=   1.
 NSaved= 1 IEnMin= 1 EnMin= -2933.94778747725     IErMin= 1 ErrMin= 4.30D-05
 ErrMax= 4.30D-05  0.00D+00 EMaxC= 1.00D-01 BMatC= 1.30D-07 BMatP= 1.30D-07
 IDIUse=1 WtCom= 1.00D+00 WtEn= 0.00D+00
 Coeff-Com:  0.100D+01
 Coeff:      0.100D+01
 Gap=     0.205 Goal=   None    Shift=    0.000
 RMSDP=4.14D-06 MaxDP=1.39D-04 DE=-1.10D-05 OVMax= 1.20D-04

 Cycle   7  Pass 1  IDiag  1:
 RMSU=  9.88D-06    CP:  1.00D+00
 E= -2933.94778751577     Delta-E=       -0.000000038512 Rises=F Damp=F
 DIIS: error= 1.41D-05 at cycle   2 NSaved=   2.
 NSaved= 2 IEnMin= 2 EnMin= -2933.94778751577     IErMin= 2 ErrMin= 1.41D-05
 ErrMax= 1.41D-05  0.00D+00 EMaxC= 1.00D-01 BMatC= 5.10D-08 BMatP= 1.30D-07
 IDIUse=1 WtCom= 1.00D+00 WtEn= 0.00D+00
 Coeff-Com:  0.338D+00 0.662D+00
 Coeff:      0.338D+00 0.662D+00
 Gap=     0.205 Goal=   None    Shift=    0.000
 RMSDP=2.21D-06 MaxDP=7.75D-05 DE=-3.85D-08 OVMax= 1.47D-04

 Cycle   8  Pass 1  IDiag  1:
 RMSU=  2.17D-06    CP:  1.00D+00  9.60D-01
 E= -2933.94778753275     Delta-E=       -0.000000016986 Rises=F Damp=F
 DIIS: error= 1.41D-05 at cycle   3 NSaved=   3.
 NSaved= 3 IEnMin= 3 EnMin= -2933.94778753275     IErMin= 2 ErrMin= 1.41D-05
 ErrMax= 1.41D-05  0.00D+00 EMaxC= 1.00D-01 BMatC= 3.30D-08 BMatP= 5.10D-08
 IDIUse=1 WtCom= 1.00D+00 WtEn= 0.00D+00
 Coeff-Com:  0.197D-01 0.442D+00 0.538D+00
 Coeff:      0.197D-01 0.442D+00 0.538D+00
 Gap=     0.205 Goal=   None    Shift=    0.000
 RMSDP=1.18D-06 MaxDP=3.62D-05 DE=-1.70D-08 OVMax= 8.32D-05

 Cycle   9  Pass 1  IDiag  1:
 RMSU=  5.26D-07    CP:  1.00D+00  9.91D-01  5.37D-01
 E= -2933.94778756547     Delta-E=       -0.000000032720 Rises=F Damp=F
 DIIS: error= 3.90D-06 at cycle   4 NSaved=   4.
 NSaved= 4 IEnMin= 4 EnMin= -2933.94778756547     IErMin= 4 ErrMin= 3.90D-06
 ErrMax= 3.90D-06  0.00D+00 EMaxC= 1.00D-01 BMatC= 2.24D-09 BMatP= 3.30D-08
 IDIUse=1 WtCom= 1.00D+00 WtEn= 0.00D+00
 Coeff-Com: -0.960D-03 0.254D+00 0.343D+00 0.404D+00
 Coeff:     -0.960D-03 0.254D+00 0.343D+00 0.404D+00
 Gap=     0.205 Goal=   None    Shift=    0.000
 RMSDP=3.16D-07 MaxDP=1.10D-05 DE=-3.27D-08 OVMax= 1.63D-05

 Cycle  10  Pass 1  IDiag  1:
 RMSU=  1.20D-07    CP:  1.00D+00  9.91D-01  5.73D-01  4.65D-01
 E= -2933.94778756768     Delta-E=       -0.000000002205 Rises=F Damp=F
 DIIS: error= 7.93D-07 at cycle   5 NSaved=   5.
 NSaved= 5 IEnMin= 5 EnMin= -2933.94778756768     IErMin= 5 ErrMin= 7.93D-07
 ErrMax= 7.93D-07  0.00D+00 EMaxC= 1.00D-01 BMatC= 8.02D-11 BMatP= 2.24D-09
 IDIUse=1 WtCom= 1.00D+00 WtEn= 0.00D+00
 Coeff-Com: -0.184D-02 0.118D+00 0.164D+00 0.232D+00 0.487D+00
 Coeff:     -0.184D-02 0.118D+00 0.164D+00 0.232D+00 0.487D+00
 Gap=     0.205 Goal=   None    Shift=    0.000
 RMSDP=5.85D-08 MaxDP=1.85D-06 DE=-2.21D-09 OVMax= 2.20D-06

 Cycle  11  Pass 1  IDiag  1:
 RMSU=  2.62D-08    CP:  1.00D+00  9.91D-01  5.71D-01  4.72D-01  5.70D-01
 E= -2933.94778756775     Delta-E=       -0.000000000070 Rises=F Damp=F
 DIIS: error= 8.40D-08 at cycle   6 NSaved=   6.
 NSaved= 6 IEnMin= 6 EnMin= -2933.94778756775     IErMin= 6 ErrMin= 8.40D-08
 ErrMax= 8.40D-08  0.00D+00 EMaxC= 1.00D-01 BMatC= 1.09D-12 BMatP= 8.02D-11
 IDIUse=1 WtCom= 1.00D+00 WtEn= 0.00D+00
 Coeff-Com: -0.722D-03 0.416D-01 0.580D-01 0.847D-01 0.195D+00 0.622D+00
 Coeff:     -0.722D-03 0.416D-01 0.580D-01 0.847D-01 0.195D+00 0.622D+00
 Gap=     0.205 Goal=   None    Shift=    0.000
 RMSDP=1.01D-08 MaxDP=3.02D-07 DE=-7.05D-11 OVMax= 7.52D-07

 Cycle  12  Pass 1  IDiag  1:
 RMSU=  9.70D-09    CP:  1.00D+00  9.91D-01  5.70D-01  4.73D-01  5.75D-01
                    CP:  9.13D-01
 E= -2933.94778756776     Delta-E=       -0.000000000015 Rises=F Damp=F
 DIIS: error= 5.77D-08 at cycle   7 NSaved=   7.
 NSaved= 7 IEnMin= 7 EnMin= -2933.94778756776     IErMin= 7 ErrMin= 5.77D-08
 ErrMax= 5.77D-08  0.00D+00 EMaxC= 1.00D-01 BMatC= 4.77D-13 BMatP= 1.09D-12
 IDIUse=1 WtCom= 1.00D+00 WtEn= 0.00D+00
 Coeff-Com: -0.955D-04 0.305D-02 0.442D-02 0.809D-02 0.248D-01 0.401D+00
 Coeff-Com:  0.559D+00
 Coeff:     -0.955D-04 0.305D-02 0.442D-02 0.809D-02 0.248D-01 0.401D+00
 Coeff:      0.559D+00
 Gap=     0.205 Goal=   None    Shift=    0.000
 RMSDP=5.31D-09 MaxDP=1.25D-07 DE=-1.46D-11 OVMax= 3.45D-07

 SCF Done:  E(RB3LYP) =  -2933.94778757     A.U. after   12 cycles
            NFock= 12  Conv=0.53D-08     -V/T= 2.0065
 KE= 2.914865552853D+03 PE=-8.234470061467D+03 EE= 1.756349880739D+03
 Leave Link  502 at Tue Sep 17 09:47:01 2024, MaxMem=  1342177280 cpu:              52.7 elap:               8.3
 (Enter /groups/ReismanLab/Software/Gaussian16_RevC/Linux_Binary_AVX2-enabled-CPU/g16/l508.exe)
 QCSCF skips out because SCF is already converged.
 Leave Link  508 at Tue Sep 17 09:47:01 2024, MaxMem=  1342177280 cpu:               0.0 elap:               0.0
 (Enter /groups/ReismanLab/Software/Gaussian16_RevC/Linux_Binary_AVX2-enabled-CPU/g16/l701.exe)
 ... and contract with generalized density number  0.
 Compute integral first derivatives.
 R6Disp: Adding Grimme-D3(BJ) dispersion energy 1st derivatives to the gradient.
 Leave Link  701 at Tue Sep 17 09:47:01 2024, MaxMem=  1342177280 cpu:               0.6 elap:               0.1
 (Enter /groups/ReismanLab/Software/Gaussian16_RevC/Linux_Binary_AVX2-enabled-CPU/g16/l702.exe)
 L702 exits ... SP integral derivatives will be done elsewhere.
 Leave Link  702 at Tue Sep 17 09:47:01 2024, MaxMem=  1342177280 cpu:               0.0 elap:               0.0
 (Enter /groups/ReismanLab/Software/Gaussian16_RevC/Linux_Binary_AVX2-enabled-CPU/g16/l703.exe)
 Integral derivatives from FoFJK, PRISM(SPDF).
 Compute integral first derivatives, UseDBF=F ICtDFT=           0.
 Calling FoFJK, ICntrl=      2127 FMM=F ISym2X=0 I1Cent= 0 IOpClX= 0 NMat=1 NMatS=1 NMatT=0.
 FoFJK:  IHMeth= 1 ICntrl=    2127 DoSepK=F KAlg= 0 I1Cent=           0 FoldK=F
 IRaf=         0 NMat=       1 IRICut=       1 DoRegI=T DoRafI=F ISym2E= 0 IDoP0=0 IntGTp=1.
 FoFCou: FMM=F IPFlag=           0 FMFlag=      100000 FMFlg1=         800
         NFxFlg=           0 DoJE=F BraDBF=F KetDBF=F FulRan=T
         wScrn=  0.000000 ICntrl=      2127 IOpCl=  0 I1Cent=           0 NGrid=           0
         NMat0=    1 NMatS0=      1 NMatT0=    0 NMatD0=    1 NMtDS0=    0 NMtDT0=    0
 Symmetry not used in FoFCou.
 Leave Link  703 at Tue Sep 17 09:47:04 2024, MaxMem=  1342177280 cpu:              17.8 elap:               2.3
 (Enter /groups/ReismanLab/Software/Gaussian16_RevC/Linux_Binary_AVX2-enabled-CPU/g16/l716.exe)
 Dipole        = 5.60699033D-01-1.16018725D+00 1.78177623D-04
 ***** Axes restored to original set *****
 -------------------------------------------------------------------
 Center     Atomic                   Forces (Hartrees/Bohr)
 Number     Number              X              Y              Z
 -------------------------------------------------------------------
      1        6           0.000081013   -0.001961733    0.000001489
      2        8          -0.002511901    0.000259853   -0.000003260
      3        6           0.003575973    0.001245888    0.000000211
      4        6           0.000648445   -0.002331560    0.000006054
      5        7          -0.000173176    0.003125243    0.000003680
      6        6          -0.000232749   -0.002182178   -0.000011351
      7        6          -0.001268246    0.000606408    0.000003685
      8       35          -0.000372858    0.000342344    0.000001726
      9        6           0.000067982   -0.000640649   -0.000002266
     10        1           0.000084639    0.000646724   -0.000000110
     11        1          -0.000013146    0.000271506    0.000006535
     12        1          -0.000011530    0.000273391   -0.000007473
     13        1           0.000755123   -0.000094989   -0.000001149
     14        1          -0.000739055   -0.000100220    0.000001650
     15        1           0.000109488    0.000539971    0.000000578
 -------------------------------------------------------------------
 Cartesian Forces:  Max     0.003575973 RMS     0.001050955
 Leave Link  716 at Tue Sep 17 09:47:04 2024, MaxMem=  1342177280 cpu:               0.0 elap:               0.0
 (Enter /groups/ReismanLab/Software/Gaussian16_RevC/Linux_Binary_AVX2-enabled-CPU/g16/l103.exe)

 GradGradGradGradGradGradGradGradGradGradGradGradGradGradGradGradGradGrad
 Berny optimization.
 Using GEDIIS/GDIIS optimizer.
 FormGI is forming the generalized inverse of G from B-inverse, IUseBI=4.
 Internal  Forces:  Max     0.002601800 RMS     0.000700338
 Search for a local minimum.
 Step number   2 out of a maximum of   73
 All quantities printed in internal units (Hartrees-Bohrs-Radians)
 RMS Force = .70034D-03 SwitMx=.10000D-02 MixMth= 2
 Mixed Optimization -- En-DIIS/RFO-DIIS
 Update second derivatives using D2CorX and points    1    2
 DE= -1.07D-03 DEPred=-1.15D-03 R= 9.33D-01
 TightC=F SS=  1.41D+00  RLast= 7.58D-02 DXNew= 5.0454D-01 2.2736D-01
 Trust test= 9.33D-01 RLast= 7.58D-02 DXMaxT set to 3.00D-01
 ITU=  1  0
 Use linear search instead of GDIIS.
     Eigenvalues ---    0.01546   0.02125   0.02191   0.02222   0.02280
     Eigenvalues ---    0.02292   0.02312   0.02368   0.02442   0.02665
     Eigenvalues ---    0.10110   0.10650   0.15890   0.16000   0.16000
     Eigenvalues ---    0.16000   0.16000   0.16367   0.18160   0.22587
     Eigenvalues ---    0.23438   0.23934   0.24899   0.25000   0.25384
     Eigenvalues ---    0.34332   0.34355   0.35037   0.35991   0.36112
     Eigenvalues ---    0.36656   0.42381   0.43170   0.45201   0.47212
     Eigenvalues ---    0.48226   0.53494   0.61155   0.62763
 RFO step:  Lambda=-9.42949981D-05 EMin= 1.54621882D-02
 Quartic linear search produced a step of -0.04759.
 Iteration  1 RMS(Cart)=  0.00566955 RMS(Int)=  0.00001479
 Iteration  2 RMS(Cart)=  0.00002090 RMS(Int)=  0.00000143
 Iteration  3 RMS(Cart)=  0.00000000 RMS(Int)=  0.00000143
 ITry= 1 IFail=0 DXMaxC= 1.71D-02 DCOld= 1.00D+10 DXMaxT= 3.00D-01 DXLimC= 3.00D+00 Rises=F
 Variable       Old X    -DE/DX   Delta X   Delta X   Delta X     New X
                                 (Linear)    (Quad)   (Total)
    R1        2.68296   0.00077  -0.00079   0.00312   0.00233   2.68529
    R2        2.06029  -0.00025  -0.00018  -0.00034  -0.00052   2.05977
    R3        2.07336  -0.00011  -0.00027   0.00018  -0.00009   2.07327
    R4        2.07336  -0.00011  -0.00027   0.00017  -0.00009   2.07327
    R5        2.55720   0.00235  -0.00039   0.00476   0.00438   2.56158
    R6        2.66012  -0.00079  -0.00034  -0.00105  -0.00139   2.65873
    R7        2.64200  -0.00122  -0.00048  -0.00159  -0.00207   2.63993
    R8        2.51051  -0.00016  -0.00140   0.00234   0.00094   2.51144
    R9        2.05587  -0.00071  -0.00071  -0.00056  -0.00127   2.05460
   R10        2.53037  -0.00025  -0.00160   0.00256   0.00096   2.53133
   R11        2.63010  -0.00080  -0.00067  -0.00034  -0.00101   2.62909
   R12        2.05266  -0.00067  -0.00056  -0.00074  -0.00130   2.05136
   R13        3.60804  -0.00049  -0.00055  -0.00156  -0.00212   3.60593
   R14        2.63494  -0.00119  -0.00069  -0.00109  -0.00178   2.63316
   R15        2.04510  -0.00053  -0.00031  -0.00082  -0.00114   2.04396
    A1        1.85536  -0.00083  -0.00059  -0.00416  -0.00475   1.85061
    A2        1.94546  -0.00015  -0.00003  -0.00069  -0.00072   1.94474
    A3        1.94547  -0.00015  -0.00004  -0.00070  -0.00074   1.94474
    A4        1.90624   0.00040   0.00011   0.00196   0.00206   1.90829
    A5        1.90622   0.00040   0.00010   0.00197   0.00207   1.90829
    A6        1.90405   0.00033   0.00043   0.00162   0.00204   1.90609
    A7        2.05848   0.00034   0.00059   0.00020   0.00079   2.05927
    A8        2.03790  -0.00114   0.00027  -0.00478  -0.00451   2.03339
    A9        2.18041   0.00074   0.00041   0.00212   0.00254   2.18295
   A10        2.06487   0.00039  -0.00068   0.00265   0.00197   2.06684
   A11        2.14379   0.00150   0.00048   0.00547   0.00595   2.14974
   A12        2.07704  -0.00046   0.00059  -0.00248  -0.00189   2.07515
   A13        2.06236  -0.00104  -0.00107  -0.00299  -0.00406   2.05829
   A14        2.08584  -0.00260   0.00005  -0.01023  -0.01017   2.07567
   A15        2.11415   0.00110   0.00014   0.00437   0.00452   2.11867
   A16        2.05786  -0.00089  -0.00092  -0.00270  -0.00362   2.05424
   A17        2.11117  -0.00021   0.00078  -0.00167  -0.00089   2.11028
   A18        2.09396  -0.00065   0.00022  -0.00285  -0.00263   2.09133
   A19        2.10394   0.00080  -0.00013   0.00323   0.00310   2.10704
   A20        2.08528  -0.00015  -0.00009  -0.00038  -0.00047   2.08482
   A21        2.05377  -0.00120   0.00015  -0.00550  -0.00536   2.04841
   A22        2.13284   0.00075  -0.00002   0.00353   0.00351   2.13635
   A23        2.09657   0.00045  -0.00013   0.00198   0.00185   2.09842
    D1       -3.14136  -0.00000   0.00000  -0.00006  -0.00006  -3.14142
    D2       -1.06584  -0.00011  -0.00025  -0.00062  -0.00086  -1.06671
    D3        1.06632   0.00010   0.00025   0.00048   0.00073   1.06705
[...]
      3 vectors produced by pass  0 Test12= 4.39D-13 3.33D-08 XBig12= 1.14D+01 6.69D-01.
 AX will form     3 AO Fock derivatives at one time.
      3 vectors produced by pass  1 Test12= 4.39D-13 3.33D-08 XBig12= 7.17D-02 1.06D-01.
      3 vectors produced by pass  2 Test12= 4.39D-13 3.33D-08 XBig12= 1.27D-03 1.82D-02.
      3 vectors produced by pass  3 Test12= 4.39D-13 3.33D-08 XBig12= 1.79D-05 1.02D-03.
      3 vectors produced by pass  4 Test12= 4.39D-13 3.33D-08 XBig12= 2.24D-07 1.31D-04.
      3 vectors produced by pass  5 Test12= 4.39D-13 3.33D-08 XBig12= 2.95D-09 1.39D-05.
      3 vectors produced by pass  6 Test12= 4.39D-13 3.33D-08 XBig12= 2.89D-11 2.86D-06.
      3 vectors produced by pass  7 Test12= 4.39D-13 3.33D-08 XBig12= 5.52D-13 3.52D-07.
 InvSVY:  IOpt=1 It=  1 EMax= 4.44D-16
 Solved reduced A of dimension    24 with     3 vectors.
 Calculating GIAO nuclear magnetic shielding tensors.
 SCF GIAO Magnetic shielding tensor (ppm):
      1  C    Isotropic =   129.4972   Anisotropy =    73.7161
   XX=   102.1505   YX=    -8.7421   ZX=     0.0017
   XY=    -4.5907   YY=   178.0602   ZY=    -0.0143
   XZ=    -0.0018   YZ=    -0.0141   ZZ=   108.2809
   Eigenvalues:   101.5695   108.2809   178.6412
      2  O    Isotropic =   230.7564   Anisotropy =    97.6893
   XX=   274.7246   YX=   -39.7526   ZX=     0.0023
   XY=     0.4909   YY=   121.6621   ZY=     0.0219
   XZ=    -0.0048   YZ=     0.0059   ZZ=   295.8827
   Eigenvalues:   119.1845   277.2022   295.8827
      3  C    Isotropic =     7.5960   Anisotropy =   162.7086
   XX=   -55.1438   YX=    38.1286   ZX=    -0.0042
   XY=    53.9721   YY=   -38.1367   ZY=     0.0118
   XZ=    -0.0061   YZ=     0.0092   ZZ=   116.0684
   Eigenvalues:   -93.4691     0.1887   116.0684
      4  C    Isotropic =    22.9954   Anisotropy =   175.0443
   XX=   -71.8810   YX=   -48.8135   ZX=     0.0026
   XY=   -19.4136   YY=     1.1756   ZY=     0.0104
   XZ=    -0.0003   YZ=     0.0089   ZZ=   139.6916
   Eigenvalues:   -85.3332    14.6278   139.6916
      5  N    Isotropic =  -152.0882   Anisotropy =   651.9891
   XX=  -503.0347   YX=    11.0464   ZX=    -0.0029
   XY=     9.7836   YY=  -235.8012   ZY=     0.0387
   XZ=    -0.0039   YZ=     0.0396   ZZ=   282.5711
   Eigenvalues:  -503.4400  -235.3959   282.5711
      6  C    Isotropic =    20.2345   Anisotropy =   164.5879
   XX=   -69.8284   YX=    59.4523   ZX=    -0.0050
   XY=    39.0258   YY=     0.5720   ZY=     0.0097
   XZ=    -0.0050   YZ=     0.0101   ZZ=   129.9597
   Eigenvalues:   -95.1553    25.8990   129.9597
      7  C    Isotropic =    27.4654   Anisotropy =   142.9458
   XX=   -55.4495   YX=   -47.6562   ZX=     0.0027
   XY=   -65.8533   YY=    15.0830   ZY=     0.0075
   XZ=     0.0034   YZ=     0.0070   ZZ=   122.7626
   Eigenvalues:   -87.0025    46.6360   122.7626
      8  Br   Isotropic =  2125.3845   Anisotropy =  1222.8619
   XX=  2731.8440   YX=   460.2472   ZX=    -0.0292
   XY=   449.0127   YY=  1950.6521   ZY=    -0.0170
   XZ=    -0.0285   YZ=    -0.0196   ZZ=  1693.6573
   Eigenvalues:  1693.6573  1741.8704  2940.6257
      9  C    Isotropic =    45.9843   Anisotropy =   174.0790
   XX=    28.1257   YX=     2.6518   ZX=    -0.0004
   XY=   -16.3255   YY=   -52.2097   ZY=     0.0162
   XZ=     0.0051   YZ=     0.0128   ZZ=   162.0370
   Eigenvalues:   -52.7874    28.7034   162.0370
     10  H    Isotropic =    27.7348   Anisotropy =     8.1397
   XX=    29.8883   YX=    -2.1926   ZX=     0.0006
   XY=    -4.3902   YY=    29.8512   ZY=    -0.0011
   XZ=     0.0011   YZ=    -0.0013   ZZ=    23.4648
   Eigenvalues:    23.4648    26.5783    33.1612
     11  H    Isotropic =    28.2476   Anisotropy =     7.5201
   XX=    26.7256   YX=    -0.8131   ZX=    -0.2674
   XY=     1.1731   YY=    30.8329   ZY=    -4.0167
   XZ=     0.1067   YZ=    -3.6527   ZZ=    27.1843
   Eigenvalues:    24.7617    26.7202    33.2610
     12  H    Isotropic =    28.2474   Anisotropy =     7.5204
   XX=    26.7253   YX=    -0.8130   ZX=     0.2677
   XY=     1.1728   YY=    30.8352   ZY=     4.0158
   XZ=    -0.1069   YZ=     3.6516   ZZ=    27.1817
   Eigenvalues:    24.7614    26.7199    33.2610
     13  H    Isotropic =    22.7164   Anisotropy =     8.0343
   XX=    20.9604   YX=    -1.5268   ZX=     0.0001
   XY=    -1.9841   YY=    27.6393   ZY=    -0.0007
   XZ=     0.0001   YZ=    -0.0005   ZZ=    19.5494
   Eigenvalues:    19.5494    20.5271    28.0726
     14  H    Isotropic =    22.7849   Anisotropy =    11.0794
   XX=    21.0180   YX=     3.2779   ZX=    -0.0002
   XY=     3.5368   YY=    28.9027   ZY=    -0.0008
   XZ=    -0.0003   YZ=    -0.0007   ZZ=    18.4339
   Eigenvalues:    18.4339    19.7495    30.1712
     15  H    Isotropic =    24.0005   Anisotropy =    13.3566
   XX=    32.5623   YX=    -1.9886   ZX=     0.0004
   XY=    -2.1801   YY=    20.2237   ZY=    -0.0000
   XZ=     0.0004   YZ=    -0.0001   ZZ=    19.2154
   Eigenvalues:    19.2154    19.8811    32.9049
 End of Minotr F.D. properties file   721 does not exist.
 End of Minotr F.D. properties file   722 does not exist.
 End of Minotr F.D. properties file   788 does not exist.
 Leave Link 1002 at Tue Sep 17 10:14:05 2024, MaxMem=  1342177280 cpu:             325.8 elap:             326.7
 (Enter /groups/ReismanLab/Software/Gaussian16_RevC/Linux_Binary_AVX2-enabled-CPU/g16/l601.exe)
 Copying SCF densities to generalized density rwf, IOpCl= 0 IROHF=0.

 **********************************************************************

            Population analysis using the SCF Density.

 **********************************************************************

 Orbital symmetries:
       Occupied  (A) (A) (A) (A) (A) (A) (A) (A) (A) (A) (A) (A)
                 (A) (A) (A) (A) (A) (A) (A) (A) (A) (A) (A) (A)
                 (A) (A) (A) (A) (A) (A) (A) (A) (A) (A) (A) (A)
                 (A) (A) (A) (A) (A) (A) (A) (A) (A) (A)
       Virtual   (A) (A) (A) (A) (A) (A) (A) (A) (A) (A) (A) (A)
                 (A) (A) (A) (A) (A) (A) (A) (A) (A) (A) (A) (A)
                 (A) (A) (A) (A) (A) (A) (A) (A) (A) (A) (A) (A)
                 (A) (A) (A) (A) (A) (A) (A) (A) (A) (A) (A) (A)
                 (A) (A) (A) (A) (A) (A) (A) (A) (A) (A) (A) (A)
                 (A) (A) (A) (A) (A) (A) (A) (A) (A) (A) (A) (A)
                 (A) (A) (A) (A) (A) (A) (A) (A) (A) (A) (A) (A)
                 (A) (A) (A) (A) (A) (A) (A) (A) (A) (A) (A) (A)
                 (A) (A) (A) (A) (A) (A) (A) (A) (A) (A) (A) (A)
                 (A) (A) (A) (A) (A) (A) (A) (A) (A) (A) (A) (A)
                 (A) (A) (A) (A) (A) (A) (A) (A) (A) (A) (A) (A)
                 (A) (A) (A) (A) (A) (A) (A) (A) (A) (A) (A) (A)
                 (A) (A) (A) (A) (A) (A) (A) (A) (A) (A) (A) (A)
                 (A) (A) (A) (A) (A) (A) (A) (A) (A) (A) (A) (A)
                 (A) (A) (A) (A) (A) (A) (A) (A) (A) (A) (A) (A)
                 (A) (A) (A) (A) (A) (A) (A) (A) (A) (A) (A) (A)
                 (A) (A) (A) (A) (A) (A) (A) (A) (A) (A) (A) (A)
                 (A) (A) (A) (A) (A) (A) (A) (A) (A) (A) (A) (A)
                 (A) (A) (A) (A) (A) (A) (A) (A) (A) (A) (A) (A)
                 (A) (A) (A) (A) (A) (A) (A) (A) (A) (A) (A) (A)
                 (A) (A) (A) (A) (A) (A) (A) (A) (A) (A) (A) (A)
                 (A) (A) (A) (A) (A) (A) (A) (A) (A) (A) (A) (A)
                 (A) (A) (A) (A) (A) (A) (A) (A) (A) (A) (A) (A)
                 (A) (A) (A) (A) (A) (A) (A) (A) (A) (A)
 The electronic state is 1-A.
 Alpha  occ. eigenvalues -- -485.38338 -63.36814 -57.18762 -57.18521 -57.18515
 Alpha  occ. eigenvalues --  -19.67268 -14.76459 -10.62473 -10.61352 -10.59634
 Alpha  occ. eigenvalues --  -10.58271 -10.58193 -10.57218  -9.03457  -6.85874
 Alpha  occ. eigenvalues --   -6.84982  -6.84963  -2.89250  -2.88927  -2.88904
 Alpha  occ. eigenvalues --   -2.88074  -2.88073  -1.20729  -1.06481  -0.94090
 Alpha  occ. eigenvalues --   -0.89367  -0.84277  -0.80543  -0.72276  -0.70095
 Alpha  occ. eigenvalues --   -0.61988  -0.59726  -0.58409  -0.56219  -0.50942
 Alpha  occ. eigenvalues --   -0.49492  -0.49249  -0.49125  -0.45677  -0.42416
 Alpha  occ. eigenvalues --   -0.42183  -0.39798  -0.36232  -0.33684  -0.33147
 Alpha  occ. eigenvalues --   -0.29303
 Alpha virt. eigenvalues --   -0.00876   0.01313   0.03008   0.07469   0.10393
 Alpha virt. eigenvalues --    0.11284   0.12557   0.13311   0.14155   0.14724
 Alpha virt. eigenvalues --    0.15545   0.16695   0.17819   0.21593   0.21935
 Alpha virt. eigenvalues --    0.23184   0.23395   0.24515   0.24674   0.26015
 Alpha virt. eigenvalues --    0.26565   0.27972   0.28113   0.28672   0.30785
 Alpha virt. eigenvalues --    0.31383   0.33502   0.34051   0.34616   0.37074
 Alpha virt. eigenvalues --    0.37880   0.38067   0.38703   0.40318   0.40831
 Alpha virt. eigenvalues --    0.41823   0.42369   0.43055   0.44213   0.45096
 Alpha virt. eigenvalues --    0.47105   0.47670   0.48990   0.50334   0.51071
 Alpha virt. eigenvalues --    0.51396   0.53125   0.54538   0.57176   0.57750
 Alpha virt. eigenvalues --    0.60835   0.61172   0.62544   0.63155   0.64762
 Alpha virt. eigenvalues --    0.66468   0.66709   0.67708   0.68140   0.70446
 Alpha virt. eigenvalues --    0.71615   0.72770   0.75911   0.77399   0.77888
 Alpha virt. eigenvalues --    0.78933   0.80750   0.83734   0.83904   0.87779
 Alpha virt. eigenvalues --    0.90740   0.91876   0.95787   0.96391   0.96947
 Alpha virt. eigenvalues --    1.00325   1.00816   1.03091   1.08363   1.09763
 Alpha virt. eigenvalues --    1.11079   1.13151   1.14570   1.15783   1.20317
 Alpha virt. eigenvalues --    1.21067   1.23799   1.24030   1.25923   1.28150
 Alpha virt. eigenvalues --    1.30098   1.36328   1.38210   1.38648   1.39370
 Alpha virt. eigenvalues --    1.40065   1.42915   1.43759   1.46883   1.47451
 Alpha virt. eigenvalues --    1.48085   1.50661   1.52335   1.52784   1.54822
 Alpha virt. eigenvalues --    1.56007   1.56753   1.56917   1.58070   1.59539
 Alpha virt. eigenvalues --    1.60213   1.61949   1.62647   1.64749   1.65118
 Alpha virt. eigenvalues --    1.66687   1.67148   1.70817   1.71453   1.72876
 Alpha virt. eigenvalues --    1.73000   1.76311   1.76781   1.77209   1.78509
 Alpha virt. eigenvalues --    1.83213   1.83991   1.86185   1.86696   1.89739
 Alpha virt. eigenvalues --    1.90853   1.94782   1.97527   1.98515   2.00409
 Alpha virt. eigenvalues --    2.02009   2.02164   2.05724   2.06319   2.08389
 Alpha virt. eigenvalues --    2.10303   2.18067   2.18556   2.20636   2.25138
 Alpha virt. eigenvalues --    2.26659   2.29851   2.32461   2.34693   2.37025
 Alpha virt. eigenvalues --    2.38177   2.41180   2.43519   2.45348   2.45982
 Alpha virt. eigenvalues --    2.48860   2.53583   2.54553   2.54825   2.54835
 Alpha virt. eigenvalues --    2.57687   2.64193   2.65091   2.65870   2.66683
 Alpha virt. eigenvalues --    2.71262   2.71580   2.73430   2.74546   2.77351
 Alpha virt. eigenvalues --    2.81092   2.81792   2.83421   2.83766   2.87407
 Alpha virt. eigenvalues --    2.87818   2.89717   2.91890   2.91940   2.94816
 Alpha virt. eigenvalues --    2.99350   3.02692   3.03996   3.08052   3.08839
 Alpha virt. eigenvalues --    3.09796   3.11203   3.13440   3.13529   3.16939
 Alpha virt. eigenvalues --    3.18423   3.18431   3.19784   3.22234   3.23611
 Alpha virt. eigenvalues --    3.26870   3.27171   3.27435   3.32037   3.32763
 Alpha virt. eigenvalues --    3.33520   3.36005   3.37756   3.37819   3.39245
 Alpha virt. eigenvalues --    3.40578   3.43884   3.44707   3.44837   3.46859
 Alpha virt. eigenvalues --    3.48956   3.52313   3.54701   3.57820   3.57975
 Alpha virt. eigenvalues --    3.64266   3.66647   3.71809   3.71857   3.81568
 Alpha virt. eigenvalues --    3.83155   3.85200   3.88809   3.93447   4.01585
 Alpha virt. eigenvalues --    4.03121   4.04847   4.07535   4.11481   4.12357
 Alpha virt. eigenvalues --    4.14064   4.15786   4.20567   4.21496   4.23346
 Alpha virt. eigenvalues --    4.24552   4.26708   4.31404   4.33061   4.37365
 Alpha virt. eigenvalues --    4.38721   4.43074   4.47206   4.47572   4.50318
 Alpha virt. eigenvalues --    4.53468   4.58384   4.64570   4.74276   4.81424
 Alpha virt. eigenvalues --    4.82941   4.88333   4.90452   4.95200   4.98810
 Alpha virt. eigenvalues --    5.01476   5.12510   5.18931   5.21668   5.22511
 Alpha virt. eigenvalues --    5.32939   5.35978   5.45024   5.48806   5.56144
 Alpha virt. eigenvalues --    5.69572   5.73629   5.88624   5.88787   5.95547
 Alpha virt. eigenvalues --    6.29765   6.48304   6.62000   6.75046   6.82935
 Alpha virt. eigenvalues --    7.12566   7.34776   7.85042  22.44753  22.48647
 Alpha virt. eigenvalues --   22.77358  22.81463  22.92640  23.20113  32.50157
 Alpha virt. eigenvalues --   44.33536
          Condensed to atoms (all electrons):
               1          2          3          4          5          6
     1  C    4.926863   0.221752  -0.086013   0.005232  -0.000962   0.000754
     2  O    0.221752   7.935908   0.362264  -0.060111   0.004243  -0.000249
     3  C   -0.086013   0.362264   4.843385   0.476607  -0.046060  -0.025118
     4  C    0.005232  -0.060111   0.476607   4.896279   0.518281  -0.125945
     5  N   -0.000962   0.004243  -0.046060   0.518281   6.440405   0.470417
     6  C    0.000754  -0.000249  -0.025118  -0.125945   0.470417   4.951402
     7  C   -0.006023   0.008187   0.036106  -0.037660  -0.019540   0.474345
     8  Br  -0.000279  -0.000286   0.011381   0.002146   0.008516  -0.069343
     9  C    0.011203  -0.090772   0.304751  -0.011562  -0.080727  -0.035104
    10  H    0.401288  -0.028949   0.005247  -0.000351   0.000015  -0.000011
    11  H    0.415081  -0.038518  -0.010084   0.000868  -0.000009  -0.000077
    12  H    0.415081  -0.038515  -0.010093   0.000867  -0.000009  -0.000077
    13  H   -0.000194   0.008425  -0.074397   0.430366  -0.026418   0.004913
    14  H    0.000001   0.000026  -0.001364   0.005796  -0.031454   0.435525
    15  H    0.006557  -0.005052  -0.034268   0.001569  -0.001530   0.007258
               7          8          9         10         11         12
     1  C   -0.006023  -0.000279   0.011203   0.401288   0.415081   0.415081
     2  O    0.008187  -0.000286  -0.090772  -0.028949  -0.038518  -0.038515
     3  C    0.036106   0.011381   0.304751   0.005247  -0.010084  -0.010093
     4  C   -0.037660   0.002146  -0.011562  -0.000351   0.000868   0.000867
     5  N   -0.019540   0.008516  -0.080727   0.000015  -0.000009  -0.000009
     6  C    0.474345  -0.069343  -0.035104  -0.000011  -0.000077  -0.000077
     7  C    4.943393   0.345773   0.334731   0.000281  -0.000805  -0.000804
     8  Br   0.345773  34.900411  -0.096491  -0.000003   0.000087   0.000087
     9  C    0.334731  -0.096491   5.428424  -0.000931   0.004924   0.004928
    10  H    0.000281  -0.000003  -0.000931   0.489996  -0.017990  -0.017993
    11  H   -0.000805   0.000087   0.004924  -0.017990   0.537057  -0.053013
    12  H   -0.000804   0.000087   0.004928  -0.017993  -0.053013   0.537060
    13  H   -0.001395   0.000092   0.006722  -0.000146   0.000088   0.000088
    14  H   -0.067291  -0.002527   0.008808  -0.000000   0.000000   0.000000
    15  H   -0.030576  -0.003067   0.415457  -0.000097  -0.001546  -0.001545
              13         14         15
     1  C   -0.000194   0.000001   0.006557
     2  O    0.008425   0.000026  -0.005052
     3  C   -0.074397  -0.001364  -0.034268
     4  C    0.430366   0.005796   0.001569
     5  N   -0.026418  -0.031454  -0.001530
     6  C    0.004913   0.435525   0.007258
     7  C   -0.001395  -0.067291  -0.030576
     8  Br   0.000092  -0.002527  -0.003067
     9  C    0.006722   0.008808   0.415457
    10  H   -0.000146  -0.000000  -0.000097
    11  H    0.000088   0.000000  -0.001546
    12  H    0.000088   0.000000  -0.001545
    13  H    0.479395  -0.000035  -0.000079
    14  H   -0.000035   0.475835  -0.000014
    15  H   -0.000079  -0.000014   0.446876
 Mulliken charges:
               1
     1  C   -0.310339
     2  O   -0.278354
     3  C    0.247658
     4  C   -0.102381
     5  N   -0.235166
     6  C   -0.088688
     7  C    0.021279
     8  Br  -0.096496
     9  C   -0.204361
    10  H    0.169644
    11  H    0.163939
    12  H    0.163938
    13  H    0.172575
    14  H    0.176695
    15  H    0.200058
 Sum of Mulliken charges =   0.00000
 Mulliken charges with hydrogens summed into heavy atoms:
               1
     1  C    0.187182
     2  O   -0.278354
     3  C    0.247658
     4  C    0.070195
     5  N   -0.235166
     6  C    0.088007
     7  C    0.021279
     8  Br  -0.096496
     9  C   -0.004303
 Electronic spatial extent (au):  <R**2>=           2043.8320
 Charge=             -0.0000 electrons
 Dipole moment (field-independent basis, Debye):
    X=              1.5935    Y=             -3.3894    Z=              0.0004  Tot=              3.7453
 Quadrupole moment (field-independent basis, Debye-Ang):
   XX=            -61.4132   YY=            -64.8935   ZZ=            -67.0460
   XY=             -7.4382   XZ=              0.0012   YZ=             -0.0005
 Traceless Quadrupole moment (field-independent basis, Debye-Ang):
   XX=              3.0376   YY=             -0.4426   ZZ=             -2.5951
   XY=             -7.4382   XZ=              0.0012   YZ=             -0.0005
 Octapole moment (field-independent basis, Debye-Ang**2):
  XXX=            -47.0364  YYY=            -50.3809  ZZZ=              0.0015  XYY=            -10.7517
  XXY=            -19.2272  XXZ=              0.0035  XZZ=            -19.1517  YZZ=             -8.5464
  YYZ=              0.0028  XYZ=             -0.0017
 Hexadecapole moment (field-independent basis, Debye-Ang**3):
 XXXX=          -1567.7445 YYYY=           -746.5403 ZZZZ=            -81.1266 XXXY=            -11.1128
 XXXZ=             -0.0022 YYYX=            -24.8282 YYYZ=              0.0326 ZZZX=             -0.0133
 ZZZY=              0.0295 XXYY=           -318.5252 XXZZ=           -295.0743 YYZZ=           -131.1350
 XXYZ=             -0.0003 YYXZ=              0.0006 ZZXY=              5.5085
 N-N= 6.294655670217D+02 E-N=-8.255179557516D+03  KE= 2.931166689374D+03
 Calculating spin-rotation constants.
 Leave Link  601 at Tue Sep 17 10:14:07 2024, MaxMem=  1342177280 cpu:               2.0 elap:               2.0
 (Enter /groups/ReismanLab/Software/Gaussian16_RevC/Linux_Binary_AVX2-enabled-CPU/g16/l9999.exe)
 Unable to Open any file for archive entry.
 1\1\GINC-HPC-34-11\SP\RM062X\def2TZVP\C6H6Br1N1O1\MANTIND\17-Sep-2024\
 0\\#p M062X/def2tzvp geom=check guess=read scf(xqc,tight) integral(gri
 d=ultrafine) scrf(SMD, solvent=1,4-Dioxane) nmr=giao\\spe\\0,1\C,0,-3.
 2653456537,-1.8120681788,-0.0002200731\O,0,-3.2278169433,-0.3908601809
 ,0.000027164\C,0,-2.0118097477,0.2105025542,0.0000718192\C,0,-2.009717
 8703,1.6166609724,0.000179254\N,0,-0.8966164634,2.3432516077,0.0002404
 13\C,0,0.2858093062,1.7127524492,0.000197475\C,0,0.3677615009,0.324769
 0872,0.0000944503\Br,0,2.0777848137,-0.522733758,0.0000417956\C,0,-0.7
 854305322,-0.4575703232,0.0000301324\H,0,-4.3205354911,-2.0846776282,-
 0.0003228192\H,0,-2.7827209328,-2.2246172758,-0.8946577072\H,0,-2.7828
 186917,-2.2249279548,0.8941275497\H,0,-2.960799459,2.1428380044,0.0002
 129035\H,0,1.1825075618,2.3241147506,0.0002460914\H,0,-0.7120013477,-1
 .5364781868,-0.0000461941\\Version=ES64L-G16RevC.02\State=1-A\HF=-2936
 .3929051\RMSD=3.964e-09\Dipole=-0.6481847,-1.3232893,-0.0001757\Quadru
 pole=2.4346283,-0.5052609,-1.9293674,5.4859217,0.0009006,0.0003303\PG=
 C01 [X(C6H6Br1N1O1)]\\@
 The archive entry for this job was punched.


 QED = W**5 (WHICH WAS WHAT WE WANTED)
 Job cpu time:       0 days  0 hours  6 minutes  5.3 seconds.
 Elapsed time:       0 days  0 hours  6 minutes  9.0 seconds.
 File lengths (MBytes):  RWF=    216 Int=      0 D2E=      0 Chk=     24 Scr=     16
 Normal termination of Gaussian 16 at Tue Sep 17 10:14:07 2024.
