 Entering Gaussian System, Link 0=g16
 Input=smiles_00046_conf_0.gjf
 Output=smiles_00046_conf_0.log
 Initial command:
 /groups/ReismanLab/Software/Gaussian16_RevC/Linux_Binary_AVX2-enabled-CPU/g16/l1.exe "/central/groups/ReismanLab/DM/dft_final/smiles_00046/Gau-101793.inp" -scrdir="/central/groups/ReismanLab/DM/dft_final/smiles_00046/"
 Entering Link 1 = /groups/ReismanLab/Software/Gaussian16_RevC/Linux_Binary_AVX2-enabled-CPU/g16/l1.exe PID=    101797.
  
 Copyright (c) 1988-2021, Gaussian, Inc.  All Rights Reserved.
  
 This is part of the Gaussian(R) 16 program.  It is based on
 the Gaussian(R) 09 system (copyright 2009, Gaussian, Inc.),
 the Gaussian(R) 03 system (copyright 2003, Gaussian, Inc.),
 the Gaussian(R) 98 system (copyright 1998, Gaussian, Inc.),
 the Gaussian(R) 94 system (copyright 1995, Gaussian, Inc.),
 the Gaussian 92(TM) system (copyright 1992, Gaussian, Inc.),
 the Gaussian 90(TM) system (copyright 1990, Gaussian, Inc.),
 the Gaussian 88(TM) system (copyright 1988, Gaussian, Inc.),
 the Gaussian 86(TM) system (copyright 1986, Carnegie Mellon
 University), and the Gaussian 82(TM) system (copyright 1983,
 Carnegie Mellon University). Gaussian is a federally registered
 trademark of Gaussian, Inc.
  
 This software contains proprietary and confidential information,
 including trade secrets, belonging to Gaussian, Inc.
  
 This software is provided under written license and may be
 used, copied, transmitted, or stored only in accord with that
 written license.
  
 The following legend is applicable only to US Government
 contracts under FAR:
  
                    RESTRICTED RIGHTS LEGEND
  
 Use, reproduction and disclosure by the US Government is
 subject to restrictions as set forth in subparagraphs (a)
 and (c) of the Commercial Computer Software - Restricted
 Rights clause in FAR 52.227-19.
  
 Gaussian, Inc.
 340 Quinnipiac St., Bldg. 40, Wallingford CT 06492
  
  
 ---------------------------------------------------------------
 Warning -- This program may not be used in any manner that
 competes with the business of Gaussian, Inc. or will provide
 assistance to any competitor of Gaussian, Inc.  The licensee
 of this program is prohibited from giving any competitor of
 Gaussian, Inc. access to this program.  By using this program,
 the user acknowledges that Gaussian, Inc. is engaged in the
 business of creating and licensing software in the field of
 computational chemistry and represents and warrants to the
 licensee that it is not a competitor of Gaussian, Inc. and that
 it will not use this program in any manner prohibited above.
 ---------------------------------------------------------------
  

 Cite this work as:
 Gaussian 16, Revision C.02,
 M. J. Frisch, G. W. Trucks, H. B. Schlegel, G. E. Scuseria, 
 M. A. Robb, J. R. Cheeseman, G. Scalmani, V. Barone, 
 G. A. Petersson, H. Nakatsuji, X. Li, M. Caricato, A. V. Marenich, 
 J. Bloino, B. G. Janesko, R. Gomperts, B. Mennucci, H. P. Hratchian, 
 J. V. Ortiz, A. F. Izmaylov, J. L. Sonnenberg, D. Williams-Young, 
 F. Ding, F. Lipparini, F. Egidi, J. Goings, B. Peng, A. Petrone, 
 T. Henderson, D. Ranasinghe, V. G. Zakrzewski, J. Gao, N. Rega, 
 G. Zheng, W. Liang, M. Hada, M. Ehara, K. Toyota, R. Fukuda, 
 J. Hasegawa, M. Ishida, T. Nakajima, Y. Honda, O. Kitao, H. Nakai, 
 T. Vreven, K. Throssell, J. A. Montgomery, Jr., J. E. Peralta, 
 F. Ogliaro, M. J. Bearpark, J. J. Heyd, E. N. Brothers, K. N. Kudin, 
 V. N. Staroverov, T. A. Keith, R. Kobayashi, J. Normand, 
 K. Raghavachari, A. P. Rendell, J. C. Burant, S. S. Iyengar, 
 J. Tomasi, M. Cossi, J. M. Millam, M. Klene, C. Adamo, R. Cammi, 
 J. W. Ochterski, R. L. Martin, K. Morokuma, O. Farkas, 
 J. B. Foresman, and D. J. Fox, Gaussian, Inc., Wallingford CT, 2019.
 
 ******************************************
 Gaussian 16:  ES64L-G16RevC.02  7-Dec-2021
                17-Sep-2024 
 ******************************************
 %nprocshared=8
 Will use up to    8 processors via shared memory.
 %Mem=10GB
 %Chk=smiles_00046_conf_0.chk
 ----------------------------------------------------------------------
 #p B3LYP/6-31G(d,p) EmpiricalDispersion=GD3BJ opt freq scf(xqc,tight) 
 integral(grid=ultrafine)
 ----------------------------------------------------------------------
 1/18=20,19=15,26=4,38=1/1,3;
 2/9=110,12=2,17=6,18=5,40=1/2;
 3/5=1,6=6,7=101,11=2,25=1,30=1,71=1,74=-5,75=-5,124=41/1,2,3;
 4//1;
 5/5=2,8=3,13=1,32=2,38=5/2,8;
 6/7=2,8=2,9=2,10=2,28=1/1;
 7//1,2,3,16;
 1/18=20,19=15,26=4/3(2);
 2/9=110/2;
 99//99;
 2/9=110/2;
 3/5=1,6=6,7=101,11=2,25=1,30=1,71=1,74=-5,75=-5,124=41/1,2,3;
 4/5=5,16=3,69=1/1;
 5/5=2,8=3,13=1,32=2,38=5/2,8;
 7//1,2,3,16;
 1/18=20,19=15,26=4/3(-5);
 2/9=110/2;
 6/7=2,8=2,9=2,10=2,19=2,28=1/1;
 99/9=1/99;
 Leave Link    1 at Tue Sep 17 09:53:48 2024, MaxMem=  1342177280 cpu:               0.1 elap:               1.3
 (Enter /groups/ReismanLab/Software/Gaussian16_RevC/Linux_Binary_AVX2-enabled-CPU/g16/l101.exe)
 ----------------------------------
 opt-freq conformers_unique/conf_aa
 ----------------------------------
 Symbolic Z-matrix:
 Charge =  0 Multiplicity = 1
 Cl                    3.06754   0.3944    0.00003 
 C                     1.39133   0.20622   0.00004 
 N                     0.56995   1.17969  -0.00002 
 C                    -0.72581   0.74628  -0.00006 
 C                    -1.85344   1.56106  -0.00003 
 C                    -3.09909   0.96944  0. 
 C                    -3.23774  -0.41678   0.00006 
 C                    -2.13161  -1.24495   0.0001 
 C                    -0.87784  -0.65858  -0.00003 
 S                     0.68807  -1.42012  -0.00005 
 H                    -1.73012   2.63166   0.00007 
 H                    -3.98296   1.58897  -0.00003 
 H                    -4.22497  -0.853    -0.00016 
 H                    -2.23577  -2.31821   0.00012 
 
 ITRead=  0  0  0  0  0  0  0  0  0  0  0  0  0  0
 MicOpt= -1 -1 -1 -1 -1 -1 -1 -1 -1 -1 -1 -1 -1 -1
 NAtoms=     14 NQM=       14 NQMF=       0 NMMI=      0 NMMIF=      0
                NMic=       0 NMicF=      0.
                    Isotopes and Nuclear Properties:
 (Nuclear quadrupole moments (NQMom) in fm**2, nuclear magnetic moments (NMagM)
  in nuclear magnetons)

  Atom         1           2           3           4           5           6           7           8           9          10
 IAtWgt=          35          12          14          12          12          12          12          12          12          32
 AtmWgt=  34.9688527  12.0000000  14.0030740  12.0000000  12.0000000  12.0000000  12.0000000  12.0000000  12.0000000  31.9720718
 NucSpn=           3           0           2           0           0           0           0           0           0           0
 AtZEff=  -0.0000000  -0.0000000  -0.0000000  -0.0000000  -0.0000000  -0.0000000  -0.0000000  -0.0000000  -0.0000000  -0.0000000
 NQMom=   -8.1650000   0.0000000   2.0440000   0.0000000   0.0000000   0.0000000   0.0000000   0.0000000   0.0000000   0.0000000
 NMagM=    0.8218740   0.0000000   0.4037610   0.0000000   0.0000000   0.0000000   0.0000000   0.0000000   0.0000000   0.0000000
 AtZNuc=  17.0000000   6.0000000   7.0000000   6.0000000   6.0000000   6.0000000   6.0000000   6.0000000   6.0000000  16.0000000

  Atom        11          12          13          14
 IAtWgt=           1           1           1           1
 AtmWgt=   1.0078250   1.0078250   1.0078250   1.0078250
 NucSpn=           1           1           1           1
 AtZEff=  -0.0000000  -0.0000000  -0.0000000  -0.0000000
 NQMom=    0.0000000   0.0000000   0.0000000   0.0000000
 NMagM=    2.7928460   2.7928460   2.7928460   2.7928460
 AtZNuc=   1.0000000   1.0000000   1.0000000   1.0000000
 Leave Link  101 at Tue Sep 17 09:53:48 2024, MaxMem=  1342177280 cpu:               0.3 elap:               0.4
 (Enter /groups/ReismanLab/Software/Gaussian16_RevC/Linux_Binary_AVX2-enabled-CPU/g16/l103.exe)

 GradGradGradGradGradGradGradGradGradGradGradGradGradGradGradGradGradGrad
 Berny optimization.
 Initialization pass.
                           ----------------------------
                           !    Initial Parameters    !
                           ! (Angstroms and Degrees)  !
 --------------------------                            --------------------------
 ! Name  Definition              Value          Derivative Info.                !
 --------------------------------------------------------------------------------
 ! R1    R(1,2)                  1.6867         estimate D2E/DX2                !
 ! R2    R(2,3)                  1.2737         estimate D2E/DX2                !
 ! R3    R(2,10)                 1.7719         estimate D2E/DX2                !
 ! R4    R(3,4)                  1.3663         estimate D2E/DX2                !
 ! R5    R(4,5)                  1.3912         estimate D2E/DX2                !
 ! R6    R(4,9)                  1.4131         estimate D2E/DX2                !
 ! R7    R(5,6)                  1.379          estimate D2E/DX2                !
 ! R8    R(5,11)                 1.0777         estimate D2E/DX2                !
 ! R9    R(6,7)                  1.3931         estimate D2E/DX2                !
 ! R10   R(6,12)                 1.0794         estimate D2E/DX2                !
 ! R11   R(7,8)                  1.3818         estimate D2E/DX2                !
 ! R12   R(7,13)                 1.0793         estimate D2E/DX2                !
 ! R13   R(8,9)                  1.3841         estimate D2E/DX2                !
 ! R14   R(8,14)                 1.0783         estimate D2E/DX2                !
 ! R15   R(9,10)                 1.7413         estimate D2E/DX2                !
 ! A1    A(1,2,3)              123.751          estimate D2E/DX2                !
 ! A2    A(1,2,10)             119.7899         estimate D2E/DX2                !
 ! A3    A(3,2,10)             116.4592         estimate D2E/DX2                !
 ! A4    A(2,3,4)              111.6621         estimate D2E/DX2                !
 ! A5    A(3,4,5)              125.6555         estimate D2E/DX2                !
 ! A6    A(3,4,9)              114.6706         estimate D2E/DX2                !
 ! A7    A(5,4,9)              119.6739         estimate D2E/DX2                !
 ! A8    A(4,5,6)              118.7446         estimate D2E/DX2                !
 ! A9    A(4,5,11)             119.2789         estimate D2E/DX2                !
 ! A10   A(6,5,11)             121.9766         estimate D2E/DX2                !
 ! A11   A(5,6,7)              121.117          estimate D2E/DX2                !
 ! A12   A(5,6,12)             119.5669         estimate D2E/DX2                !
 ! A13   A(7,6,12)             119.3161         estimate D2E/DX2                !
 ! A14   A(6,7,8)              121.1109         estimate D2E/DX2                !
 ! A15   A(6,7,13)             119.5505         estimate D2E/DX2                !
 ! A16   A(8,7,13)             119.3386         estimate D2E/DX2                !
 ! A17   A(7,8,9)              118.1126         estimate D2E/DX2                !
 ! A18   A(7,8,14)             121.2793         estimate D2E/DX2                !
 ! A19   A(9,8,14)             120.6081         estimate D2E/DX2                !
 ! A20   A(4,9,8)              121.241          estimate D2E/DX2                !
 ! A21   A(4,9,10)             109.7585         estimate D2E/DX2                !
 ! A22   A(8,9,10)             129.0004         estimate D2E/DX2                !
 ! A23   A(2,10,9)              87.4496         estimate D2E/DX2                !
 ! D1    D(1,2,3,4)            179.9974         estimate D2E/DX2                !
 ! D2    D(10,2,3,4)             0.0044         estimate D2E/DX2                !
 ! D3    D(1,2,10,9)          -179.9985         estimate D2E/DX2                !
 ! D4    D(3,2,10,9)            -0.0053         estimate D2E/DX2                !
 ! D5    D(2,3,4,5)            179.9949         estimate D2E/DX2                !
 ! D6    D(2,3,4,9)             -0.0007         estimate D2E/DX2                !
 ! D7    D(3,4,5,6)           -179.9968         estimate D2E/DX2                !
 ! D8    D(3,4,5,11)            -0.0029         estimate D2E/DX2                !
 ! D9    D(9,4,5,6)             -0.0014         estimate D2E/DX2                !
 ! D10   D(9,4,5,11)           179.9925         estimate D2E/DX2                !
 ! D11   D(3,4,9,8)            179.9921         estimate D2E/DX2                !
 ! D12   D(3,4,9,10)            -0.0032         estimate D2E/DX2                !
 ! D13   D(5,4,9,8)             -0.0038         estimate D2E/DX2                !
 ! D14   D(5,4,9,10)          -179.999          estimate D2E/DX2                !
 ! D15   D(4,5,6,7)              0.003          estimate D2E/DX2                !
 ! D16   D(4,5,6,12)          -179.9965         estimate D2E/DX2                !
 ! D17   D(11,5,6,7)          -179.9907         estimate D2E/DX2                !
 ! D18   D(11,5,6,12)            0.0098         estimate D2E/DX2                !
 ! D19   D(5,6,7,8)              0.0004         estimate D2E/DX2                !
 ! D20   D(5,6,7,13)          -179.9853         estimate D2E/DX2                !
 ! D21   D(12,6,7,8)           179.9999         estimate D2E/DX2                !
 ! D22   D(12,6,7,13)            0.0143         estimate D2E/DX2                !
 ! D23   D(6,7,8,9)             -0.0054         estimate D2E/DX2                !
 ! D24   D(6,7,8,14)          -179.9985         estimate D2E/DX2                !
 ! D25   D(13,7,8,9)           179.9803         estimate D2E/DX2                !
 ! D26   D(13,7,8,14)           -0.0129         estimate D2E/DX2                !
 ! D27   D(7,8,9,4)              0.007          estimate D2E/DX2                !
 ! D28   D(7,8,9,10)          -179.9987         estimate D2E/DX2                !
 ! D29   D(14,8,9,4)          -179.9997         estimate D2E/DX2                !
 ! D30   D(14,8,9,10)           -0.0054         estimate D2E/DX2                !
 ! D31   D(4,9,10,2)             0.0044         estimate D2E/DX2                !
 ! D32   D(8,9,10,2)          -179.9905         estimate D2E/DX2                !
 --------------------------------------------------------------------------------
 Trust Radius=3.00D-01 FncErr=1.00D-07 GrdErr=1.00D-06 EigMax=2.50D+02 EigMin=1.00D-04
 Number of steps in this run=     80 maximum allowed number of steps=    100.
 GradGradGradGradGradGradGradGradGradGradGradGradGradGradGradGradGradGrad

 Leave Link  103 at Tue Sep 17 09:53:49 2024, MaxMem=  1342177280 cpu:               0.1 elap:               0.3
 (Enter /groups/ReismanLab/Software/Gaussian16_RevC/Linux_Binary_AVX2-enabled-CPU/g16/l202.exe)
                          Input orientation:                          
 ---------------------------------------------------------------------
 Center     Atomic      Atomic             Coordinates (Angstroms)
 Number     Number       Type             X           Y           Z
 ---------------------------------------------------------------------
      1         17           0        3.067540    0.394401    0.000033
      2          6           0        1.391330    0.206223    0.000040
      3          7           0        0.569952    1.179694   -0.000025
      4          6           0       -0.725808    0.746281   -0.000059
      5          6           0       -1.853444    1.561059   -0.000028
      6          6           0       -3.099092    0.969441   -0.000002
      7          6           0       -3.237740   -0.416778    0.000058
      8          6           0       -2.131608   -1.244951    0.000100
      9          6           0       -0.877837   -0.658582   -0.000033
     10         16           0        0.688073   -1.420122   -0.000054
     11          1           0       -1.730116    2.631655    0.000075
     12          1           0       -3.982962    1.588974   -0.000035
     13          1           0       -4.224974   -0.852998   -0.000164
     14          1           0       -2.235770   -2.318209    0.000123
 ---------------------------------------------------------------------
                    Distance matrix (angstroms):
                    1          2          3          4          5
     1  Cl   0.000000
     2  C    1.686740   0.000000
     3  N    2.618136   1.273699   0.000000
     4  C    3.809634   2.184934   1.366324   0.000000
     5  C    5.057389   3.516268   2.453220   1.391196   0.000000
     6  C    6.193385   4.554820   3.675063   2.383752   1.379003
     7  C    6.357246   4.670805   4.128831   2.768124   2.414148
     8  C    5.451478   3.810117   3.630059   2.437474   2.819764
     9  C    4.083476   2.428375   2.339947   1.413065   2.424586
    10  S    2.992384   1.771883   2.602499   2.586960   3.917493
    11  H    5.293658   3.952992   2.720019   2.136181   1.077676
    12  H    7.150986   5.549326   4.571273   3.364400   2.129701
    13  H    7.398430   5.715315   5.207989   3.847318   3.384055
    14  H    5.956790   4.419119   4.484128   3.416297   3.898063
                    6          7          8          9         10
     6  C    0.000000
     7  C    1.393135   0.000000
     8  C    2.416518   1.381811   0.000000
     9  C    2.753985   2.372260   1.384113   0.000000
    10  S    4.478016   4.052001   2.825116   1.741268   0.000000
    11  H    2.153381   3.400864   3.897342   3.398829   4.718531
    12  H    1.079374   2.139719   3.385063   3.833186   5.556368
    13  H    2.142171   1.079314   2.129744   3.352779   4.945671
    14  H    3.399113   2.149276   1.078301   2.144375   3.058662
                   11         12         13         14
    11  H    0.000000
    12  H    2.482438   0.000000
    13  H    4.285689   2.453936   0.000000
    14  H    4.975625   4.280043   2.470582   0.000000
 Stoichiometry    C7H4ClNS
 Framework group  C1[X(C7H4ClNS)]
 Deg. of freedom    36
 Full point group                 C1      NOp   1
 Largest Abelian subgroup         C1      NOp   1
 Largest concise Abelian subgroup C1      NOp   1
                         Standard orientation:                         
 ---------------------------------------------------------------------
 Center     Atomic      Atomic             Coordinates (Angstroms)
 Number     Number       Type             X           Y           Z
 ---------------------------------------------------------------------
      1         17           0       -3.160792   -0.410777    0.000033
      2          6           0       -1.485772   -0.212280    0.000040
      3          7           0       -0.658414   -1.180675   -0.000024
      4          6           0        0.634652   -0.739290   -0.000059
      5          6           0        1.767284   -1.547108   -0.000028
      6          6           0        3.009265   -0.947831   -0.000001
      7          6           0        3.139374    0.439216    0.000058
      8          6           0        2.028162    1.260562    0.000100
      9          6           0        0.778026    0.666483   -0.000033
     10         16           0       -0.792543    1.418365   -0.000054
     11          1           0        1.650551   -2.618444    0.000075
     12          1           0        3.896934   -1.561909   -0.000034
     13          1           0        4.123903    0.881508   -0.000164
     14          1           0        2.125713    2.334441    0.000123
 ---------------------------------------------------------------------
 Rotational constants (GHZ):           2.8283632           0.6594613           0.5347735
 Leave Link  202 at Tue Sep 17 09:53:49 2024, MaxMem=  1342177280 cpu:               0.1 elap:               0.0
 (Enter /groups/ReismanLab/Software/Gaussian16_RevC/Linux_Binary_AVX2-enabled-CPU/g16/l301.exe)
 Standard basis: 6-31G(d,p) (6D, 7F)
 Ernie: Thresh=  0.10000D-02 Tol=  0.10000D-05 Strict=F.
 There are   178 symmetry adapted cartesian basis functions of A   symmetry.
 There are   178 symmetry adapted basis functions of A   symmetry.
   178 basis functions,   356 primitive gaussians,   178 cartesian basis functions
    43 alpha electrons       43 beta electrons
       nuclear repulsion energy       634.9748993849 Hartrees.
 IExCor=  402 DFT=T Ex+Corr=B3LYP ExCW=0 ScaHFX=  0.200000
 ScaDFX=  0.800000  0.720000  1.000000  0.810000 ScalE2=  1.000000  1.000000
 IRadAn=      5 IRanWt=     -1 IRanGd=            0 ICorTp=0 IEmpDi=141
 NAtoms=   14 NActive=   14 NUniq=   14 SFac= 1.00D+00 NAtFMM=   60 NAOKFM=F Big=F
 Integral buffers will be    131072 words long.
 Raffenetti 2 integral format.
 Two-electron integral symmetry is turned on.
 R6Disp:  Grimme-D3(BJ) Dispersion energy=       -0.0343838157 Hartrees.
 Nuclear repulsion after empirical dispersion term =      634.9405155692 Hartrees.
 Leave Link  301 at Tue Sep 17 09:53:49 2024, MaxMem=  1342177280 cpu:               0.1 elap:               0.1
 (Enter /groups/ReismanLab/Software/Gaussian16_RevC/Linux_Binary_AVX2-enabled-CPU/g16/l302.exe)
 NPDir=0 NMtPBC=     1 NCelOv=     1 NCel=       1 NClECP=     1 NCelD=      1
         NCelK=      1 NCelE2=     1 NClLst=     1 CellRange=     0.0.
 One-electron integrals computed using PRISM.
 One-electron integral symmetry used in STVInt
 NBasis=   178 RedAO= T EigKep=  4.35D-04  NBF=   178
 NBsUse=   178 1.00D-06 EigRej= -1.00D+00 NBFU=   178
 Precomputing XC quadrature grid using
 IXCGrd= 4 IRadAn=           5 IRanWt=          -1 IRanGd=           0 AccXCQ= 0.00D+00.
 Generated NRdTot=       0 NPtTot=           0 NUsed=           0 NTot=          32
 NSgBfM=   177   177   177   177   177 MxSgAt=    14 MxSgA2=    14.
 Leave Link  302 at Tue Sep 17 09:53:49 2024, MaxMem=  1342177280 cpu:               0.8 elap:               0.2
 (Enter /groups/ReismanLab/Software/Gaussian16_RevC/Linux_Binary_AVX2-enabled-CPU/g16/l303.exe)
 DipDrv:  MaxL=1.
 Leave Link  303 at Tue Sep 17 09:53:49 2024, MaxMem=  1342177280 cpu:               0.1 elap:               0.0
 (Enter /groups/ReismanLab/Software/Gaussian16_RevC/Linux_Binary_AVX2-enabled-CPU/g16/l401.exe)
 ExpMin= 1.17D-01 ExpMax= 2.52D+04 ExpMxC= 3.78D+03 IAcc=3 IRadAn=         5 AccDes= 0.00D+00
 Harris functional with IExCor=  402 and IRadAn=       5 diagonalized for initial guess.
 HarFok:  IExCor=  402 AccDes= 0.00D+00 IRadAn=         5 IDoV= 1 UseB2=F ITyADJ=14
 ICtDFT=  3500011 ScaDFX=  1.000000  1.000000  1.000000  1.000000
 FoFCou: FMM=F IPFlag=           0 FMFlag=      100000 FMFlg1=           0
         NFxFlg=           0 DoJE=T BraDBF=F KetDBF=T FulRan=T
         wScrn=  0.000000 ICntrl=       500 IOpCl=  0 I1Cent=   200000004 NGrid=           0
         NMat0=    1 NMatS0=      1 NMatT0=    0 NMatD0=    1 NMtDS0=    0 NMtDT0=    0
 Petite list used in FoFCou.
 Harris En= -1182.22453900021    
 JPrj=0 DoOrth=F DoCkMO=F.
 Leave Link  401 at Tue Sep 17 09:53:49 2024, MaxMem=  1342177280 cpu:               3.6 elap:               0.6
 (Enter /groups/ReismanLab/Software/Gaussian16_RevC/Linux_Binary_AVX2-enabled-CPU/g16/l502.exe)
 Integral symmetry usage will be decided dynamically.
 Closed shell SCF:
 Using DIIS extrapolation, IDIIS=  1040.
 NGot=  1342177280 LenX=  1342110294 LenY=  1342078169
 Requested convergence on RMS density matrix=1.00D-08 within  32 cycles.
 Requested convergence on MAX density matrix=1.00D-06.
 Requested convergence on             energy=1.00D-06.
 No special actions if energy rises.
 Fock matrices will be formed incrementally for  20 cycles.
 Integral accuracy reduced to 1.0D-05 until final iterations.

 Cycle   1  Pass 0  IDiag  1:
 FoFJK:  IHMeth= 1 ICntrl=       0 DoSepK=F KAlg= 0 I1Cent=           0 FoldK=F
 IRaf= 910000000 NMat=       1 IRICut=       1 DoRegI=T DoRafI=F ISym2E= 0 IDoP0=0 IntGTp=1.
 FoFCou: FMM=F IPFlag=           0 FMFlag=      100000 FMFlg1=           0
         NFxFlg=           0 DoJE=F BraDBF=F KetDBF=F FulRan=T
         wScrn=  0.000000 ICntrl=         0 IOpCl=  0 I1Cent=           0 NGrid=           0
         NMat0=    1 NMatS0=      1 NMatT0=    0 NMatD0=    1 NMtDS0=    0 NMtDT0=    0
 Symmetry not used in FoFCou.
 E= -1182.03004833987    
 DIIS: error= 4.08D-02 at cycle   1 NSaved=   1.
 NSaved= 1 IEnMin= 1 EnMin= -1182.03004833987     IErMin= 1 ErrMin= 4.08D-02
 ErrMax= 4.08D-02  0.00D+00 EMaxC= 1.00D-01 BMatC= 2.77D-01 BMatP= 2.77D-01
 IDIUse=3 WtCom= 5.92D-01 WtEn= 4.08D-01
 Coeff-Com:  0.100D+01
 Coeff-En:   0.100D+01
 Coeff:      0.100D+01
 Gap=     0.433 Goal=   None    Shift=    0.000
 GapD=    0.433 DampG=2.000 DampE=0.500 DampFc=1.0000 IDamp=-1.
 RMSDP=1.02D-02 MaxDP=2.26D-01              OVMax= 4.59D-01

 Cycle   2  Pass 0  IDiag  1:
 RMSU=  1.02D-02    CP:  9.73D-01
 E= -1181.23263170377     Delta-E=        0.797416636099 Rises=F Damp=F
 DIIS: error= 6.54D-02 at cycle   2 NSaved=   2.
 NSaved= 2 IEnMin= 1 EnMin= -1182.03004833987     IErMin= 1 ErrMin= 4.08D-02
 ErrMax= 6.54D-02  0.00D+00 EMaxC= 1.00D-01 BMatC= 9.77D-01 BMatP= 2.77D-01
 IDIUse=2 WtCom= 0.00D+00 WtEn= 1.00D+00
 Coeff-En:   0.752D+00 0.248D+00
 Coeff:      0.752D+00 0.248D+00
 Gap=     0.191 Goal=   None    Shift=    0.000
 RMSDP=6.75D-03 MaxDP=2.01D-01 DE= 7.97D-01 OVMax= 3.29D-01

 Cycle   3  Pass 0  IDiag  1:
 RMSU=  2.60D-03    CP:  9.78D-01  3.89D-01
 E= -1182.28262002706     Delta-E=       -1.049988323286 Rises=F Damp=F
 DIIS: error= 1.67D-02 at cycle   3 NSaved=   3.
 NSaved= 3 IEnMin= 3 EnMin= -1182.28262002706     IErMin= 3 ErrMin= 1.67D-02
 ErrMax= 1.67D-02  0.00D+00 EMaxC= 1.00D-01 BMatC= 4.15D-02 BMatP= 2.77D-01
 IDIUse=3 WtCom= 8.33D-01 WtEn= 1.67D-01
 Coeff-Com:  0.282D+00 0.217D-01 0.696D+00
 Coeff-En:   0.110D+00 0.000D+00 0.890D+00
 Coeff:      0.254D+00 0.181D-01 0.728D+00
 Gap=     0.211 Goal=   None    Shift=    0.000
 RMSDP=1.88D-03 MaxDP=4.13D-02 DE=-1.05D+00 OVMax= 8.91D-02

 Cycle   4  Pass 0  IDiag  1:
 RMSU=  1.14D-03    CP:  9.83D-01  2.63D-01  7.18D-01
 E= -1182.32128820264     Delta-E=       -0.038668175584 Rises=F Damp=F
 DIIS: error= 5.25D-03 at cycle   4 NSaved=   4.
 NSaved= 4 IEnMin= 4 EnMin= -1182.32128820264     IErMin= 4 ErrMin= 5.25D-03
 ErrMax= 5.25D-03  0.00D+00 EMaxC= 1.00D-01 BMatC= 8.65D-03 BMatP= 4.15D-02
 IDIUse=3 WtCom= 9.48D-01 WtEn= 5.25D-02
 Coeff-Com:  0.665D-01-0.347D-01 0.431D+00 0.538D+00
 Coeff-En:   0.000D+00 0.000D+00 0.994D-01 0.901D+00
 Coeff:      0.630D-01-0.329D-01 0.413D+00 0.557D+00
 Gap=     0.200 Goal=   None    Shift=    0.000
 RMSDP=7.06D-04 MaxDP=1.54D-02 DE=-3.87D-02 OVMax= 3.74D-02

 Cycle   5  Pass 0  IDiag  1:
 RMSU=  3.23D-04    CP:  9.82D-01  2.77D-01  8.27D-01  5.27D-01
 E= -1182.32955787105     Delta-E=       -0.008269668403 Rises=F Damp=F
 DIIS: error= 2.49D-03 at cycle   5 NSaved=   5.
 NSaved= 5 IEnMin= 5 EnMin= -1182.32955787105     IErMin= 5 ErrMin= 2.49D-03
 ErrMax= 2.49D-03  0.00D+00 EMaxC= 1.00D-01 BMatC= 6.92D-04 BMatP= 8.65D-03
 IDIUse=3 WtCom= 9.75D-01 WtEn= 2.49D-02
 Coeff-Com:  0.190D-01-0.187D-01 0.180D+00 0.311D+00 0.509D+00
 Coeff-En:   0.000D+00 0.000D+00 0.000D+00 0.875D-02 0.991D+00
 Coeff:      0.185D-01-0.182D-01 0.176D+00 0.303D+00 0.521D+00
 Gap=     0.201 Goal=   None    Shift=    0.000
 RMSDP=2.30D-04 MaxDP=5.31D-03 DE=-8.27D-03 OVMax= 1.40D-02

 Cycle   6  Pass 0  IDiag  1:
 RMSU=  1.27D-04    CP:  9.82D-01  2.76D-01  8.23D-01  5.98D-01  4.66D-01
 E= -1182.33022811608     Delta-E=       -0.000670245029 Rises=F Damp=F
 DIIS: error= 9.23D-04 at cycle   6 NSaved=   6.
 NSaved= 6 IEnMin= 6 EnMin= -1182.33022811608     IErMin= 6 ErrMin= 9.23D-04
 ErrMax= 9.23D-04  0.00D+00 EMaxC= 1.00D-01 BMatC= 1.03D-04 BMatP= 6.92D-04
 IDIUse=3 WtCom= 9.91D-01 WtEn= 9.23D-03
 Coeff-Com:  0.354D-02-0.564D-02 0.447D-01 0.105D+00 0.326D+00 0.527D+00
 Coeff-En:   0.000D+00 0.000D+00 0.000D+00 0.000D+00 0.132D+00 0.868D+00
 Coeff:      0.350D-02-0.558D-02 0.443D-01 0.104D+00 0.324D+00 0.530D+00
 Gap=     0.200 Goal=   None    Shift=    0.000
 RMSDP=8.64D-05 MaxDP=1.77D-03 DE=-6.70D-04 OVMax= 4.69D-03

 Cycle   7  Pass 0  IDiag  1:
 RMSU=  4.57D-05    CP:  9.82D-01  2.74D-01  8.27D-01  5.90D-01  5.91D-01
                    CP:  5.59D-01
 E= -1182.33034026657     Delta-E=       -0.000112150496 Rises=F Damp=F
 DIIS: error= 1.42D-04 at cycle   7 NSaved=   7.
 NSaved= 7 IEnMin= 7 EnMin= -1182.33034026657     IErMin= 7 ErrMin= 1.42D-04
 ErrMax= 1.42D-04  0.00D+00 EMaxC= 1.00D-01 BMatC= 6.57D-06 BMatP= 1.03D-04
 IDIUse=3 WtCom= 9.99D-01 WtEn= 1.42D-03
 Coeff-Com:  0.224D-03-0.127D-02 0.837D-02 0.309D-01 0.132D+00 0.287D+00
 Coeff-Com:  0.543D+00
 Coeff-En:   0.000D+00 0.000D+00 0.000D+00 0.000D+00 0.000D+00 0.000D+00
 Coeff-En:   0.100D+01
 Coeff:      0.224D-03-0.127D-02 0.836D-02 0.308D-01 0.132D+00 0.286D+00
 Coeff:      0.544D+00
 Gap=     0.200 Goal=   None    Shift=    0.000
 RMSDP=2.33D-05 MaxDP=1.15D-03 DE=-1.12D-04 OVMax= 9.77D-04

 Cycle   8  Pass 0  IDiag  1:
 RMSU=  1.12D-05    CP:  9.82D-01  2.74D-01  8.25D-01  5.95D-01  5.97D-01
                    CP:  6.10D-01  6.20D-01
 E= -1182.33034750366     Delta-E=       -0.000007237089 Rises=F Damp=F
 DIIS: error= 4.30D-05 at cycle   8 NSaved=   8.
 NSaved= 8 IEnMin= 8 EnMin= -1182.33034750366     IErMin= 8 ErrMin= 4.30D-05
 ErrMax= 4.30D-05  0.00D+00 EMaxC= 1.00D-01 BMatC= 4.85D-07 BMatP= 6.57D-06
 IDIUse=1 WtCom= 1.00D+00 WtEn= 0.00D+00
 Coeff-Com: -0.241D-03-0.407D-04-0.652D-04 0.647D-02 0.368D-01 0.936D-01
 Coeff-Com:  0.272D+00 0.592D+00
 Coeff:     -0.241D-03-0.407D-04-0.652D-04 0.647D-02 0.368D-01 0.936D-01
 Coeff:      0.272D+00 0.592D+00
 Gap=     0.200 Goal=   None    Shift=    0.000
 RMSDP=5.47D-06 MaxDP=1.66D-04 DE=-7.24D-06 OVMax= 2.54D-04

 Initial convergence to 1.0D-05 achieved.  Increase integral accuracy.
 Cycle   9  Pass 1  IDiag  1:
 E= -1182.33033764950     Delta-E=        0.000009854164 Rises=F Damp=F
 DIIS: error= 1.86D-05 at cycle   1 NSaved=   1.
 NSaved= 1 IEnMin= 1 EnMin= -1182.33033764950     IErMin= 1 ErrMin= 1.86D-05
 ErrMax= 1.86D-05  0.00D+00 EMaxC= 1.00D-01 BMatC= 7.82D-08 BMatP= 7.82D-08
 IDIUse=1 WtCom= 1.00D+00 WtEn= 0.00D+00
 Coeff-Com:  0.100D+01
 Coeff:      0.100D+01
 Gap=     0.200 Goal=   None    Shift=    0.000
 RMSDP=5.47D-06 MaxDP=1.66D-04 DE= 9.85D-06 OVMax= 1.43D-04

 Cycle  10  Pass 1  IDiag  1:
 RMSU=  1.20D-05    CP:  1.00D+00
 E= -1182.33033758921     Delta-E=        0.000000060287 Rises=F Damp=F
 DIIS: error= 2.41D-05 at cycle   2 NSaved=   2.
 NSaved= 2 IEnMin= 1 EnMin= -1182.33033764950     IErMin= 1 ErrMin= 1.86D-05
 ErrMax= 2.41D-05  0.00D+00 EMaxC= 1.00D-01 BMatC= 1.38D-07 BMatP= 7.82D-08
 IDIUse=1 WtCom= 1.00D+00 WtEn= 0.00D+00
 Coeff-Com:  0.580D+00 0.420D+00
 Coeff:      0.580D+00 0.420D+00
 Gap=     0.200 Goal=   None    Shift=    0.000
 RMSDP=2.68D-06 MaxDP=8.91D-05 DE= 6.03D-08 OVMax= 1.03D-04

 Cycle  11  Pass 1  IDiag  1:
 RMSU=  2.61D-06    CP:  1.00D+00  9.50D-01
 E= -1182.33033771958     Delta-E=       -0.000000130371 Rises=F Damp=F
 DIIS: error= 4.38D-06 at cycle   3 NSaved=   3.
 NSaved= 3 IEnMin= 3 EnMin= -1182.33033771958     IErMin= 3 ErrMin= 4.38D-06
 ErrMax= 4.38D-06  0.00D+00 EMaxC= 1.00D-01 BMatC= 4.91D-09 BMatP= 7.82D-08
 IDIUse=1 WtCom= 1.00D+00 WtEn= 0.00D+00
 Coeff-Com:  0.667D-01 0.168D+00 0.765D+00
 Coeff:      0.667D-01 0.168D+00 0.765D+00
 Gap=     0.200 Goal=   None    Shift=    0.000
 RMSDP=6.93D-07 MaxDP=3.08D-05 DE=-1.30D-07 OVMax= 3.51D-05

 Cycle  12  Pass 1  IDiag  1:
 RMSU=  5.25D-07    CP:  1.00D+00  9.64D-01  8.41D-01
 E= -1182.33033772286     Delta-E=       -0.000000003282 Rises=F Damp=F
 DIIS: error= 2.58D-06 at cycle   4 NSaved=   4.
 NSaved= 4 IEnMin= 4 EnMin= -1182.33033772286     IErMin= 4 ErrMin= 2.58D-06
 ErrMax= 2.58D-06  0.00D+00 EMaxC= 1.00D-01 BMatC= 1.49D-09 BMatP= 4.91D-09
 IDIUse=1 WtCom= 1.00D+00 WtEn= 0.00D+00
 Coeff-Com:  0.284D-02 0.753D-01 0.480D+00 0.442D+00
 Coeff:      0.284D-02 0.753D-01 0.480D+00 0.442D+00
 Gap=     0.200 Goal=   None    Shift=    0.000
 RMSDP=3.30D-07 MaxDP=1.28D-05 DE=-3.28D-09 OVMax= 2.10D-05

 Cycle  13  Pass 1  IDiag  1:
 RMSU=  1.35D-07    CP:  1.00D+00  9.65D-01  8.72D-01  4.50D-01
 E= -1182.33033772451     Delta-E=       -0.000000001649 Rises=F Damp=F
 DIIS: error= 9.44D-07 at cycle   5 NSaved=   5.
 NSaved= 5 IEnMin= 5 EnMin= -1182.33033772451     IErMin= 5 ErrMin= 9.44D-07
 ErrMax= 9.44D-07  0.00D+00 EMaxC= 1.00D-01 BMatC= 1.12D-10 BMatP= 1.49D-09
 IDIUse=1 WtCom= 1.00D+00 WtEn= 0.00D+00
 Coeff-Com: -0.287D-02 0.367D-01 0.254D+00 0.283D+00 0.429D+00
 Coeff:     -0.287D-02 0.367D-01 0.254D+00 0.283D+00 0.429D+00
 Gap=     0.200 Goal=   None    Shift=    0.000
 RMSDP=7.49D-08 MaxDP=1.77D-06 DE=-1.65D-09 OVMax= 4.26D-06

 Cycle  14  Pass 1  IDiag  1:
 RMSU=  3.09D-08    CP:  1.00D+00  9.65D-01  8.68D-01  4.79D-01  5.16D-01
 E= -1182.33033772463     Delta-E=       -0.000000000119 Rises=F Damp=F
 DIIS: error= 1.22D-07 at cycle   6 NSaved=   6.
 NSaved= 6 IEnMin= 6 EnMin= -1182.33033772463     IErMin= 6 ErrMin= 1.22D-07
 ErrMax= 1.22D-07  0.00D+00 EMaxC= 1.00D-01 BMatC= 3.67D-12 BMatP= 1.12D-10
 IDIUse=1 WtCom= 1.00D+00 WtEn= 0.00D+00
 Coeff-Com: -0.169D-02 0.161D-01 0.114D+00 0.133D+00 0.228D+00 0.510D+00
 Coeff:     -0.169D-02 0.161D-01 0.114D+00 0.133D+00 0.228D+00 0.510D+00
 Gap=     0.200 Goal=   None    Shift=    0.000
 RMSDP=1.36D-08 MaxDP=4.28D-07 DE=-1.19D-10 OVMax= 7.26D-07

 Cycle  15  Pass 1  IDiag  1:
 RMSU=  1.19D-08    CP:  1.00D+00  9.65D-01  8.67D-01  4.81D-01  5.28D-01
                    CP:  8.11D-01
 E= -1182.33033772465     Delta-E=       -0.000000000018 Rises=F Damp=F
 DIIS: error= 4.74D-08 at cycle   7 NSaved=   7.
 NSaved= 7 IEnMin= 7 EnMin= -1182.33033772465     IErMin= 7 ErrMin= 4.74D-08
 ErrMax= 4.74D-08  0.00D+00 EMaxC= 1.00D-01 BMatC= 3.33D-13 BMatP= 3.67D-12
 IDIUse=1 WtCom= 1.00D+00 WtEn= 0.00D+00
 Coeff-Com: -0.268D-03 0.887D-03 0.696D-02 0.108D-01 0.207D-01 0.228D+00
 Coeff-Com:  0.733D+00
 Coeff:     -0.268D-03 0.887D-03 0.696D-02 0.108D-01 0.207D-01 0.228D+00
 Coeff:      0.733D+00
 Gap=     0.200 Goal=   None    Shift=    0.000
 RMSDP=5.53D-09 MaxDP=1.28D-07 DE=-1.77D-11 OVMax= 3.08D-07

 SCF Done:  E(RB3LYP) =  -1182.33033772     A.U. after   15 cycles
            NFock= 15  Conv=0.55D-08     -V/T= 2.0046
 KE= 1.176872213002D+03 PE=-4.060457068880D+03 EE= 1.066314002584D+03
 Leave Link  502 at Tue Sep 17 09:53:57 2024, MaxMem=  1342177280 cpu:              53.7 elap:               7.4
 (Enter /groups/ReismanLab/Software/Gaussian16_RevC/Linux_Binary_AVX2-enabled-CPU/g16/l508.exe)
 QCSCF skips out because SCF is already converged.
 Leave Link  508 at Tue Sep 17 09:53:57 2024, MaxMem=  1342177280 cpu:               0.0 elap:               0.1
 (Enter /groups/ReismanLab/Software/Gaussian16_RevC/Linux_Binary_AVX2-enabled-CPU/g16/l601.exe)
 Copying SCF densities to generalized density rwf, IOpCl= 0 IROHF=0.

 **********************************************************************

            Population analysis using the SCF Density.

 **********************************************************************

 Orbital symmetries:
       Occupied  (A) (A) (A) (A) (A) (A) (A) (A) (A) (A) (A) (A)
                 (A) (A) (A) (A) (A) (A) (A) (A) (A) (A) (A) (A)
                 (A) (A) (A) (A) (A) (A) (A) (A) (A) (A) (A) (A)
                 (A) (A) (A) (A) (A) (A) (A)
       Virtual   (A) (A) (A) (A) (A) (A) (A) (A) (A) (A) (A) (A)
                 (A) (A) (A) (A) (A) (A) (A) (A) (A) (A) (A) (A)
                 (A) (A) (A) (A) (A) (A) (A) (A) (A) (A) (A) (A)
                 (A) (A) (A) (A) (A) (A) (A) (A) (A) (A) (A) (A)
                 (A) (A) (A) (A) (A) (A) (A) (A) (A) (A) (A) (A)
                 (A) (A) (A) (A) (A) (A) (A) (A) (A) (A) (A) (A)
                 (A) (A) (A) (A) (A) (A) (A) (A) (A) (A) (A) (A)
                 (A) (A) (A) (A) (A) (A) (A) (A) (A) (A) (A) (A)
                 (A) (A) (A) (A) (A) (A) (A) (A) (A) (A) (A) (A)
                 (A) (A) (A) (A) (A) (A) (A) (A) (A) (A) (A) (A)
                 (A) (A) (A) (A) (A) (A) (A) (A) (A) (A) (A) (A)
                 (A) (A) (A)
 The electronic state is 1-A.
 Alpha  occ. eigenvalues -- -101.57452 -88.92645 -14.34935 -10.31232 -10.23431
 Alpha  occ. eigenvalues --  -10.23382 -10.20804 -10.20159 -10.20049 -10.19884
 Alpha  occ. eigenvalues --   -9.49191  -7.98806  -7.25605  -7.24606  -7.24543
 Alpha  occ. eigenvalues --   -5.95227  -5.94886  -5.94425  -0.99936  -0.89358
 Alpha  occ. eigenvalues --   -0.85945  -0.81514  -0.75567  -0.73407  -0.63040
 Alpha  occ. eigenvalues --   -0.61200  -0.58337  -0.50727  -0.50134  -0.49565
 Alpha  occ. eigenvalues --   -0.45146  -0.45125  -0.43346  -0.41002  -0.38355
 Alpha  occ. eigenvalues --   -0.38224  -0.35265  -0.33424  -0.33031  -0.31652
 Alpha  occ. eigenvalues --   -0.29256  -0.24617  -0.24387
 Alpha virt. eigenvalues --   -0.04386  -0.01268  -0.00871   0.02790   0.03675
 Alpha virt. eigenvalues --    0.10132   0.10894   0.13897   0.15547   0.17176
 Alpha virt. eigenvalues --    0.17831   0.20895   0.21836   0.25620   0.28182
 Alpha virt. eigenvalues --    0.30374   0.33428   0.34178   0.34483   0.35989
 Alpha virt. eigenvalues --    0.37846   0.40603   0.44355   0.44568   0.44665
 Alpha virt. eigenvalues --    0.50870   0.51222   0.53022   0.53385   0.54173
 Alpha virt. eigenvalues --    0.56647   0.58559   0.58652   0.59516   0.59696
 Alpha virt. eigenvalues --    0.60528   0.64049   0.65868   0.67329   0.67843
 Alpha virt. eigenvalues --    0.70256   0.74085   0.76127   0.78526   0.79684
 Alpha virt. eigenvalues --    0.80543   0.80975   0.82079   0.82992   0.84216
 Alpha virt. eigenvalues --    0.84345   0.88532   0.89467   0.91089   0.93579
 Alpha virt. eigenvalues --    0.94760   0.96991   0.97645   1.00247   1.01858
 Alpha virt. eigenvalues --    1.03987   1.07782   1.08612   1.11007   1.14959
 Alpha virt. eigenvalues --    1.17146   1.23222   1.23472   1.30262   1.30971
 Alpha virt. eigenvalues --    1.34934   1.39273   1.39643   1.39942   1.41446
 Alpha virt. eigenvalues --    1.47652   1.50207   1.54506   1.60181   1.73954
 Alpha virt. eigenvalues --    1.74011   1.78235   1.80310   1.83419   1.87285
 Alpha virt. eigenvalues --    1.91758   1.92572   1.92634   1.98228   2.00192
 Alpha virt. eigenvalues --    2.01504   2.04390   2.06425   2.14215   2.16850
 Alpha virt. eigenvalues --    2.23371   2.25524   2.27514   2.34584   2.36897
 Alpha virt. eigenvalues --    2.38177   2.38695   2.41586   2.44722   2.45474
 Alpha virt. eigenvalues --    2.47075   2.50520   2.55461   2.56648   2.58995
 Alpha virt. eigenvalues --    2.62510   2.66405   2.72040   2.73755   2.75345
 Alpha virt. eigenvalues --    2.82740   2.96786   2.99722   3.11031   3.20689
 Alpha virt. eigenvalues --    3.24518   3.32825   3.36077   3.48289   3.84235
 Alpha virt. eigenvalues --    3.93511   4.03175   4.10852   4.12997   4.16974
 Alpha virt. eigenvalues --    4.20944   4.34226   4.41417   4.43939   4.79959
          Condensed to atoms (all electrons):
               1          2          3          4          5          6
     1  Cl  16.806684   0.248369  -0.069124   0.004286  -0.000248   0.000003
     2  C    0.248369   5.184420   0.468078  -0.072350   0.006880  -0.000139
     3  N   -0.069124   0.468078   6.858929   0.383764  -0.063470   0.005122
     4  C    0.004286  -0.072350   0.383764   4.586277   0.514379  -0.008863
     5  C   -0.000248   0.006880  -0.063470   0.514379   4.903533   0.530549
     6  C    0.000003  -0.000139   0.005122  -0.008863   0.530549   4.823161
     7  C    0.000002  -0.000081   0.000007  -0.039831  -0.037575   0.536514
     8  C   -0.000017   0.003523   0.010427   0.009578  -0.044997  -0.027294
     9  C    0.003148  -0.042464  -0.088732   0.461427  -0.072424  -0.044953
    10  S   -0.063151   0.261932  -0.089256  -0.072496   0.007988   0.000560
    11  H   -0.000004  -0.000060  -0.003254  -0.034328   0.361332  -0.044979
    12  H   -0.000000   0.000004  -0.000113   0.003765  -0.037313   0.369871
    13  H   -0.000000  -0.000000   0.000001   0.000656   0.004875  -0.040458
    14  H    0.000000  -0.000015  -0.000157   0.003049   0.000824   0.004387
               7          8          9         10         11         12
     1  Cl   0.000002  -0.000017   0.003148  -0.063151  -0.000004  -0.000000
     2  C   -0.000081   0.003523  -0.042464   0.261932  -0.000060   0.000004
     3  N    0.000007   0.010427  -0.088732  -0.089256  -0.003254  -0.000113
     4  C   -0.039831   0.009578   0.461427  -0.072496  -0.034328   0.003765
     5  C   -0.037575  -0.044997  -0.072424   0.007988   0.361332  -0.037313
     6  C    0.536514  -0.027294  -0.044953   0.000560  -0.044979   0.369871
     7  C    4.796540   0.542841  -0.033656   0.003928   0.004880  -0.041026
     8  C    0.542841   4.891622   0.449598  -0.054902   0.000063   0.005185
     9  C   -0.033656   0.449598   5.265277   0.283602   0.008020   0.000789
    10  S    0.003928  -0.054902   0.283602  15.463700  -0.000197   0.000023
    11  H    0.004880   0.000063   0.008020  -0.000197   0.609781  -0.006379
    12  H   -0.041026   0.005185   0.000789   0.000023  -0.006379   0.618602
    13  H    0.373260  -0.042757   0.005713  -0.000173  -0.000167  -0.006571
    14  H   -0.035514   0.370462  -0.041525  -0.003718   0.000019  -0.000191
              13         14
     1  Cl  -0.000000   0.000000
     2  C   -0.000000  -0.000015
     3  N    0.000001  -0.000157
     4  C    0.000656   0.003049
     5  C    0.004875   0.000824
     6  C   -0.040458   0.004387
     7  C    0.373260  -0.035514
     8  C   -0.042757   0.370462
     9  C    0.005713  -0.041525
    10  S   -0.000173  -0.003718
    11  H   -0.000167   0.000019
    12  H   -0.006571  -0.000191
    13  H    0.619168  -0.006276
    14  H   -0.006276   0.607345
 Mulliken charges:
               1
     1  Cl   0.070053
     2  C   -0.058095
     3  N   -0.412222
     4  C    0.260685
     5  C   -0.074332
     6  C   -0.103480
     7  C   -0.070288
     8  C   -0.113333
     9  C   -0.153819
    10  S    0.262162
    11  H    0.105274
    12  H    0.093354
    13  H    0.092729
    14  H    0.101311
 Sum of Mulliken charges =  -0.00000
 Mulliken charges with hydrogens summed into heavy atoms:
               1
     1  Cl   0.070053
     2  C   -0.058095
     3  N   -0.412222
     4  C    0.260685
     5  C    0.030942
     6  C   -0.010127
     7  C    0.022441
     8  C   -0.012022
     9  C   -0.153819
    10  S    0.262162
 Electronic spatial extent (au):  <R**2>=           1920.5744
 Charge=             -0.0000 electrons
 Dipole moment (field-independent basis, Debye):
    X=              1.8994    Y=              1.1351    Z=             -0.0001  Tot=              2.2127
 Quadrupole moment (field-independent basis, Debye-Ang):
   XX=            -62.9857   YY=            -67.6931   ZZ=            -72.3902
   XY=             -1.1964   XZ=             -0.0006   YZ=             -0.0003
 Traceless Quadrupole moment (field-independent basis, Debye-Ang):
   XX=              4.7039   YY=             -0.0034   ZZ=             -4.7005
   XY=             -1.1964   XZ=             -0.0006   YZ=             -0.0003
 Octapole moment (field-independent basis, Debye-Ang**2):
  XXX=              1.5073  YYY=              2.8161  ZZZ=             -0.0001  XYY=              8.6679
  XXY=             -0.3344  XXZ=             -0.0028  XZZ=            -10.8274  YZZ=             -0.9316
  YYZ=              0.0004  XYZ=             -0.0004
 Hexadecapole moment (field-independent basis, Debye-Ang**3):
 XXXX=          -1768.2000 YYYY=           -510.3300 ZZZZ=            -77.6952 XXXY=              7.1450
 XXXZ=             -0.0127 YYYX=             -2.2540 YYYZ=             -0.0021 ZZZX=             -0.0010
 ZZZY=             -0.0006 XXYY=           -389.6993 XXZZ=           -355.8520 YYZZ=           -108.5084
 XXYZ=             -0.0022 YYXZ=              0.0006 ZZXY=              3.3212
 N-N= 6.349405155692D+02 E-N=-4.060457071296D+03  KE= 1.176872213002D+03
 No NMR shielding tensors so no spin-rotation constants.
 Leave Link  601 at Tue Sep 17 09:53:57 2024, MaxMem=  1342177280 cpu:               0.7 elap:               0.1
 (Enter /groups/ReismanLab/Software/Gaussian16_RevC/Linux_Binary_AVX2-enabled-CPU/g16/l701.exe)
 ... and contract with generalized density number  0.
 Compute integral first derivatives.
 R6Disp: Adding Grimme-D3(BJ) dispersion energy 1st derivatives to the gradient.
 Leave Link  701 at Tue Sep 17 09:53:57 2024, MaxMem=  1342177280 cpu:               0.6 elap:               0.1
 (Enter /groups/ReismanLab/Software/Gaussian16_RevC/Linux_Binary_AVX2-enabled-CPU/g16/l702.exe)
 L702 exits ... SP integral derivatives will be done elsewhere.
 Leave Link  702 at Tue Sep 17 09:53:57 2024, MaxMem=  1342177280 cpu:               0.1 elap:               0.0
 (Enter /groups/ReismanLab/Software/Gaussian16_RevC/Linux_Binary_AVX2-enabled-CPU/g16/l703.exe)
 Integral derivatives from FoFJK, PRISM(SPDF).
 Compute integral first derivatives, UseDBF=F ICtDFT=           0.
 Calling FoFJK, ICntrl=      2127 FMM=F ISym2X=0 I1Cent= 0 IOpClX= 0 NMat=1 NMatS=1 NMatT=0.
 FoFJK:  IHMeth= 1 ICntrl=    2127 DoSepK=F KAlg= 0 I1Cent=           0 FoldK=F
 IRaf=         0 NMat=       1 IRICut=       1 DoRegI=T DoRafI=F ISym2E= 0 IDoP0=0 IntGTp=1.
 FoFCou: FMM=F IPFlag=           0 FMFlag=      100000 FMFlg1=         800
         NFxFlg=           0 DoJE=F BraDBF=F KetDBF=F FulRan=T
         wScrn=  0.000000 ICntrl=      2127 IOpCl=  0 I1Cent=           0 NGrid=           0
         NMat0=    1 NMatS0=      1 NMatT0=    0 NMatD0=    1 NMtDS0=    0 NMtDT0=    0
 Symmetry not used in FoFCou.
 Leave Link  703 at Tue Sep 17 09:54:00 2024, MaxMem=  1342177280 cpu:              16.7 elap:               2.1
 (Enter /groups/ReismanLab/Software/Gaussian16_RevC/Linux_Binary_AVX2-enabled-CPU/g16/l716.exe)
 Dipole        = 7.47274001D-01 4.46569344D-01-3.10756379D-05
 ***** Axes restored to original set *****
 -------------------------------------------------------------------
 Center     Atomic                   Forces (Hartrees/Bohr)
 Number     Number              X              Y              Z
 -------------------------------------------------------------------
      1       17           0.021784163    0.001365108    0.000001262
      2        6          -0.011228837   -0.009809191   -0.000010180
      3        7           0.007644418    0.020691426    0.000003166
      4        6          -0.005505713   -0.007276566    0.000004131
      5        6           0.001821067    0.004525721    0.000007529
      6        6          -0.005717680    0.004238733   -0.000000822
      7        6          -0.005714976   -0.002954106   -0.000014793
      8        6           0.000266927   -0.006938942   -0.000010052
      9        6          -0.000255729    0.000282419    0.000005951
     10       16           0.005211408   -0.004972400    0.000005960
     11        1           0.000568468    0.004659174   -0.000005061
     12        1          -0.003390149    0.002505345    0.000000505
     13        1          -0.003895871   -0.001783113    0.000012032
     14        1          -0.001587494   -0.004533608    0.000000371
 -------------------------------------------------------------------
 Cartesian Forces:  Max     0.021784163 RMS     0.006105969
 Leave Link  716 at Tue Sep 17 09:54:00 2024, MaxMem=  1342177280 cpu:               0.1 elap:               0.0
 (Enter /groups/ReismanLab/Software/Gaussian16_RevC/Linux_Binary_AVX2-enabled-CPU/g16/l103.exe)

 GradGradGradGradGradGradGradGradGradGradGradGradGradGradGradGradGradGrad
 Berny optimization.
 FormGI is forming the generalized inverse of G from B-inverse, IUseBI=4.
 Internal  Forces:  Max     0.021800494 RMS     0.005103896
 Search for a local minimum.
 Step number   1 out of a maximum of   80
 All quantities printed in internal units (Hartrees-Bohrs-Radians)
 RMS Force = .51039D-02 SwitMx=.10000D-02 MixMth= 1
 Mixed Optimization -- RFO/linear search
 Second derivative matrix not updated -- first step.
 ITU=  0
     Eigenvalues ---    0.01632   0.01915   0.02072   0.02107   0.02233
     Eigenvalues ---    0.02256   0.02270   0.02297   0.02311   0.02315
     Eigenvalues ---    0.02436   0.16000   0.16000   0.16000   0.16000
     Eigenvalues ---    0.22000   0.22593   0.24503   0.25000   0.25000
     Eigenvalues ---    0.25000   0.28090   0.30862   0.36070   0.36077
     Eigenvalues ---    0.36200   0.36277   0.37535   0.38987   0.43746
     Eigenvalues ---    0.45261   0.47420   0.48337   0.48937   0.50111
     Eigenvalues ---    0.71430
 RFO step:  Lambda=-4.06688484D-03 EMin= 1.63158209D-02
 Linear search not attempted -- first point.
 Iteration  1 RMS(Cart)=  0.01965385 RMS(Int)=  0.00004482
 Iteration  2 RMS(Cart)=  0.00006221 RMS(Int)=  0.00000669
 Iteration  3 RMS(Cart)=  0.00000001 RMS(Int)=  0.00000669
 ITry= 1 IFail=0 DXMaxC= 1.02D-01 DCOld= 1.00D+10 DXMaxT= 3.00D-01 DXLimC= 3.00D+00 Rises=F
 Variable       Old X    -DE/DX   Delta X   Delta X   Delta X     New X
                                 (Linear)    (Quad)   (Total)
    R1        3.18748   0.02180   0.00000   0.05746   0.05746   3.24493
    R2        2.40694   0.01444   0.00000   0.02005   0.02006   2.42701
    R3        3.34837   0.00419   0.00000   0.01395   0.01395   3.36232
    R4        2.58198   0.01778   0.00000   0.03555   0.03557   2.61754
    R5        2.62898   0.00937   0.00000   0.01949   0.01949   2.64847
    R6        2.67031   0.00702   0.00000   0.01531   0.01531   2.68561
    R7        2.60594   0.01076   0.00000   0.02184   0.02184   2.62777
    R8        2.03651   0.00469   0.00000   0.01279   0.01279   2.04931
    R9        2.63264   0.01063   0.00000   0.02294   0.02294   2.65559
   R10        2.03972   0.00421   0.00000   0.01155   0.01155   2.05127
   R11        2.61124   0.01041   0.00000   0.02140   0.02140   2.63264
   R12        2.03961   0.00428   0.00000   0.01174   0.01174   2.05135
   R13        2.61560   0.01140   0.00000   0.02319   0.02319   2.63878
   R14        2.03769   0.00467   0.00000   0.01275   0.01275   2.05044
   R15        3.29052   0.00744   0.00000   0.02076   0.02075   3.31127
    A1        2.15986   0.00163   0.00000   0.00553   0.00552   2.16539
    A2        2.09073  -0.00179   0.00000  -0.00794  -0.00794   2.08279
    A3        2.03260   0.00017   0.00000   0.00241   0.00242   2.03501
    A4        1.94887  -0.00500   0.00000  -0.01206  -0.01203   1.93684
    A5        2.19310  -0.00145   0.00000  -0.00605  -0.00605   2.18705
    A6        2.00138   0.00190   0.00000   0.01019   0.01020   2.01158
    A7        2.08870  -0.00045   0.00000  -0.00414  -0.00415   2.08455
    A8        2.07248   0.00095   0.00000   0.00400   0.00400   2.07648
    A9        2.08181  -0.00051   0.00000  -0.00219  -0.00219   2.07962
   A10        2.12889  -0.00044   0.00000  -0.00181  -0.00180   2.12709
   A11        2.11389  -0.00064   0.00000  -0.00174  -0.00174   2.11215
   A12        2.08684   0.00021   0.00000   0.00022   0.00021   2.08705
   A13        2.08246   0.00043   0.00000   0.00153   0.00152   2.08398
   A14        2.11378  -0.00053   0.00000  -0.00119  -0.00118   2.11260
   A15        2.08655   0.00032   0.00000   0.00095   0.00094   2.08749
   A16        2.08285   0.00021   0.00000   0.00024   0.00024   2.08309
   A17        2.06145  -0.00041   0.00000  -0.00189  -0.00189   2.05956
   A18        2.11672  -0.00096   0.00000  -0.00614  -0.00614   2.11058
   A19        2.10501   0.00137   0.00000   0.00804   0.00804   2.11305
   A20        2.11606   0.00107   0.00000   0.00497   0.00497   2.12103
   A21        1.91565  -0.00160   0.00000  -0.00973  -0.00974   1.90591
   A22        2.25148   0.00053   0.00000   0.00476   0.00477   2.25625
   A23        1.52628   0.00453   0.00000   0.00918   0.00915   1.53543
    D1        3.14155   0.00000   0.00000   0.00008   0.00009  -3.14155
    D2        0.00008  -0.00000   0.00000  -0.00018  -0.00018  -0.00010
    D3       -3.14157  -0.00000   0.00000  -0.00004  -0.00004   3.14158
    D4       -0.00009   0.00000   0.00000   0.00021   0.00021   0.00012
    D5        3.14150   0.00000   0.00000   0.00011   0.00011  -3.14157
    D6       -0.00001   0.00000   0.00000   0.00003   0.00003   0.00002
    D7       -3.14154  -0.00000   0.00000  -0.00007  -0.00007   3.14158
    D8       -0.00005   0.00000   0.00000   0.00000   0.00000  -0.00005
    D9       -0.00002   0.00000   0.00000   0.00002   0.00002  -0.00001
   D10        3.14146   0.00000   0.00000   0.00009   0.00009   3.14155
   D11        3.14146   0.00000   0.00000   0.00014   0.00014  -3.14159
   D12       -0.00006   0.00000   0.00000   0.00013   0.00013   0.00007
   D13       -0.00007   0.00000   0.00000   0.00006   0.00006  -0.00000
   D14       -3.14158   0.00000   0.00000   0.00005   0.00005  -3.14152
   D15        0.00005  -0.00000   0.00000  -0.00005  -0.00005   0.00000
   D16       -3.14153  -0.00000   0.00000  -0.00007  -0.00007   3.14159
   D17       -3.14143  -0.00000   0.00000  -0.00012  -0.00012  -3.14155
   D18        0.00017  -0.00000   0.00000  -0.00014  -0.00014   0.00003
   D19        0.00001  -0.00000   0.00000   0.00000   0.00000   0.00001
   D20       -3.14134  -0.00001   0.00000  -0.00022  -0.00022  -3.14155
   D21        3.14159   0.00000   0.00000   0.00002   0.00002  -3.14157
   D22        0.00025  -0.00001   0.00000  -0.00020  -0.00020   0.00005
   D23       -0.00009   0.00000   0.00000   0.00008   0.00008  -0.00001
   D24       -3.14157  -0.00000   0.00000  -0.00007  -0.00007   3.14155
   D25        3.14125   0.00001   0.00000   0.00030   0.00030   3.14155
   D26       -0.00022   0.00000   0.00000   0.00015   0.00015  -0.00008
   D27        0.00012  -0.00000   0.00000  -0.00011  -0.00011   0.00001
   D28       -3.14157  -0.00000   0.00000  -0.00010  -0.00010   3.14152
   D29       -3.14159   0.00000   0.00000   0.00004   0.00004  -3.14155
   D30       -0.00009   0.00000   0.00000   0.00005   0.00005  -0.00004
   D31        0.00008  -0.00000   0.00000  -0.00017  -0.00017  -0.00010
   D32       -3.14143  -0.00000   0.00000  -0.00019  -0.00019   3.14157
         Item               Value     Threshold  Converged?
 Maximum Force            0.021800     0.000450     NO 
 RMS     Force            0.005104     0.000300     NO 
 Maximum Displacement     0.101560     0.001800     NO 
 RMS     Displacement     0.019653     0.001200     NO 
 Predicted change in Energy=-2.052701D-03
 Lowest energy point so far.  Saving SCF results.
 GradGradGradGradGradGradGradGradGradGradGradGradGradGradGradGradGradGrad

 Leave Link  103 at Tue Sep 17 09:54:00 2024, MaxMem=  1342177280 cpu:               0.1 elap:               0.0
 (Enter /groups/ReismanLab/Software/Gaussian16_RevC/Linux_Binary_AVX2-enabled-CPU/g16/l202.exe)
                          Input orientation:                          
 ---------------------------------------------------------------------
 Center     Atomic      Atomic             Coordinates (Angstroms)
 Number     Number       Type             X           Y           Z
 ---------------------------------------------------------------------
      1         17           0        3.121283    0.386928    0.000009
      2          6           0        1.413022    0.212484   -0.000035
      3          7           0        0.589229    1.197794   -0.000014
      4          6           0       -0.721038    0.748546   -0.000008
      5          6           0       -1.858239    1.567693   -0.000007
      6          6           0       -3.115828    0.974293   -0.000012
      7          6           0       -3.256786   -0.423895   -0.000014
      8          6           0       -2.141258   -1.258414   -0.000002
      9          6           0       -0.877729   -0.663955   -0.000007
     10         16           0        0.703424   -1.419157    0.000106
     11          1           0       -1.733358    2.644926    0.000033
     12          1           0       -4.003262    1.599389   -0.000004
     13          1           0       -4.249635   -0.862782   -0.000055
     14          1           0       -2.252279   -2.337765    0.000039
 ---------------------------------------------------------------------
                    Distance matrix (angstroms):
                    1          2          3          4          5
     1  Cl   0.000000
     2  C    1.717146   0.000000
     3  N    2.658722   1.284317   0.000000
     4  C    3.859301   2.200357   1.385144   0.000000
     5  C    5.117602   3.540867   2.475263   1.401510   0.000000
     6  C    6.264707   4.592476   3.711792   2.405407   1.390558
     7  C    6.429402   4.712970   4.173932   2.793678   2.433589
     8  C    5.513755   3.846615   3.672672   2.458641   2.840244
     9  C    4.134786   2.452689   2.370248   1.421165   2.437551
    10  S    3.017944   1.779264   2.619441   2.593844   3.934894
    11  H    5.354073   3.976993   2.736531   2.149663   1.084447
    12  H    7.226978   5.591032   4.610017   3.390712   2.145257
    13  H    7.476110   5.763842   5.259333   3.879095   3.409690
    14  H    6.024876   4.465222   4.535896   3.445289   3.925287
                    6          7          8          9         10
     6  C    0.000000
     7  C    1.405275   0.000000
     8  C    2.436138   1.393135   0.000000
     9  C    2.773615   2.391138   1.396384   0.000000
    10  S    4.507249   4.083358   2.849220   1.752249   0.000000
    11  H    2.168464   3.426149   3.924596   3.417717   4.738636
    12  H    1.085488   2.156595   3.410880   3.858974   5.591468
    13  H    2.158788   1.085528   2.145175   3.377763   4.984210
    14  H    3.422784   2.161466   1.085046   2.165879   3.095162
                   11         12         13         14
    11  H    0.000000
    12  H    2.499122   0.000000
    13  H    4.316905   2.474467   0.000000
    14  H    5.009640   4.308959   2.482943   0.000000
 Stoichiometry    C7H4ClNS
 Framework group  C1[X(C7H4ClNS)]
 Deg. of freedom    36
 Full point group                 C1      NOp   1
 RotChk:  IX=2 Diff= 8.54D-04
 Largest Abelian subgroup         C1      NOp   1
 Largest concise Abelian subgroup C1      NOp   1
                         Standard orientation:                         
 ---------------------------------------------------------------------
 Center     Atomic      Atomic             Coordinates (Angstroms)
 Number     Number       Type             X           Y           Z
 ---------------------------------------------------------------------
      1         17           0       -3.202176   -0.401929   -0.000006
      2          6           0       -1.494909   -0.217999   -0.000050
      3          7           0       -0.665657   -1.198718   -0.000028
      4          6           0        0.642095   -0.742199   -0.000023
      5          6           0        1.783829   -1.555017   -0.000022
      6          6           0        3.038102   -0.954641   -0.000027
      7          6           0        3.171292    0.444308   -0.000028
      8          6           0        2.051146    1.272619   -0.000017
      9          6           0        0.790938    0.671150   -0.000021
     10         16           0       -0.794385    1.417558    0.000092
     11          1           0        1.664933   -2.632927    0.000018
     12          1           0        3.928995   -1.574798   -0.000019
     13          1           0        4.161688    0.888704   -0.000070
     14          1           0        2.156170    2.352570    0.000025
 ---------------------------------------------------------------------
 Rotational constants (GHZ):           2.8045127           0.6450017           0.5243972
 Leave Link  202 at Tue Sep 17 09:54:00 2024, MaxMem=  1342177280 cpu:               0.0 elap:               0.0
 (Enter /groups/ReismanLab/Software/Gaussian16_RevC/Linux_Binary_AVX2-enabled-CPU/g16/l301.exe)
 Standard basis: 6-31G(d,p) (6D, 7F)
 Ernie: Thresh=  0.10000D-02 Tol=  0.10000D-05 Strict=F.
 There are   178 symmetry adapted cartesian basis functions of A   symmetry.
 There are   178 symmetry adapted basis functions of A   symmetry.
   178 basis functions,   356 primitive gaussians,   178 cartesian basis functions
    43 alpha electrons       43 beta electrons
       nuclear repulsion energy       629.3284329397 Hartrees.
 IExCor=  402 DFT=T Ex+Corr=B3LYP ExCW=0 ScaHFX=  0.200000
 ScaDFX=  0.800000  0.720000  1.000000  0.810000 ScalE2=  1.000000  1.000000
 IRadAn=      5 IRanWt=     -1 IRanGd=            0 ICorTp=0 IEmpDi=141
 NAtoms=   14 NActive=   14 NUniq=   14 SFac= 1.00D+00 NAtFMM=   60 NAOKFM=F Big=F
 Integral buffers will be    131072 words long.
 Raffenetti 2 integral format.
 Two-electron integral symmetry is turned on.
 R6Disp:  Grimme-D3(BJ) Dispersion energy=       -0.0342497673 Hartrees.
 Nuclear repulsion after empirical dispersion term =      629.2941831724 Hartrees.
 Leave Link  301 at Tue Sep 17 09:54:00 2024, MaxMem=  1342177280 cpu:               0.1 elap:               0.0
 (Enter /groups/ReismanLab/Software/Gaussian16_RevC/Linux_Binary_AVX2-enabled-CPU/g16/l302.exe)
 NPDir=0 NMtPBC=     1 NCelOv=     1 NCel=       1 NClECP=     1 NCelD=      1
         NCelK=      1 NCelE2=     1 NClLst=     1 CellRange=     0.0.
 One-electron integrals computed using PRISM.
 One-electron integral symmetry used in STVInt
 NBasis=   178 RedAO= T EigKep=  4.68D-04  NBF=   178
 NBsUse=   178 1.00D-06 EigRej= -1.00D+00 NBFU=   178
 Precomputing XC quadrature grid using
 IXCGrd= 4 IRadAn=           5 IRanWt=          -1 IRanGd=           0 AccXCQ= 0.00D+00.
 Generated NRdTot=       0 NPtTot=           0 NUsed=           0 NTot=          32
 NSgBfM=   177   177   177   177   177 MxSgAt=    14 MxSgA2=    14.
 Leave Link  302 at Tue Sep 17 09:54:00 2024, MaxMem=  1342177280 cpu:               0.8 elap:               0.1
 (Enter /groups/ReismanLab/Software/Gaussian16_RevC/Linux_Binary_AVX2-enabled-CPU/g16/l303.exe)
 DipDrv:  MaxL=1.
 Leave Link  303 at Tue Sep 17 09:54:00 2024, MaxMem=  1342177280 cpu:               0.1 elap:               0.0
 (Enter /groups/ReismanLab/Software/Gaussian16_RevC/Linux_Binary_AVX2-enabled-CPU/g16/l401.exe)
 Initial guess from the checkpoint file:  "smiles_00046_conf_0.chk"
 B after Tr=     0.000000   -0.000000   -0.000000
         Rot=    1.000000   -0.000013   -0.000003    0.000584 Ang=  -0.07 deg.
 Guess basis will be translated and rotated to current coordinates.
 JPrj=2 DoOrth=T DoCkMO=T.
 Generating alternative initial guess.
 ExpMin= 1.17D-01 ExpMax= 2.52D+04 ExpMxC= 3.78D+03 IAcc=3 IRadAn=         5 AccDes= 0.00D+00
 Harris functional with IExCor=  402 and IRadAn=       5 diagonalized for initial guess.
 HarFok:  IExCor=  402 AccDes= 0.00D+00 IRadAn=         5 IDoV= 1 UseB2=F ITyADJ=14
 ICtDFT=  3500011 ScaDFX=  1.000000  1.000000  1.000000  1.000000
 FoFCou: FMM=F IPFlag=           0 FMFlag=      100000 FMFlg1=           0
         NFxFlg=           0 DoJE=T BraDBF=F KetDBF=T FulRan=T
         wScrn=  0.000000 ICntrl=       500 IOpCl=  0 I1Cent=   200000004 NGrid=           0
         NMat0=    1 NMatS0=      1 NMatT0=    0 NMatD0=    1 NMtDS0=    0 NMtDT0=    0
 Petite list used in FoFCou.
 Harris En= -1182.21805740022    
 Leave Link  401 at Tue Sep 17 09:54:00 2024, MaxMem=  1342177280 cpu:               3.5 elap:               0.5
 (Enter /groups/ReismanLab/Software/Gaussian16_RevC/Linux_Binary_AVX2-enabled-CPU/g16/l502.exe)
 Integral symmetry usage will be decided dynamically.
 Closed shell SCF:
 Using DIIS extrapolation, IDIIS=  1040.
 NGot=  1342177280 LenX=  1342110294 LenY=  1342078169
 Requested convergence on RMS density matrix=1.00D-08 within  32 cycles.
 Requested convergence on MAX density matrix=1.00D-06.
 Requested convergence on             energy=1.00D-06.
 No special actions if energy rises.
 Fock matrices will be formed incrementally for  20 cycles.
 Integral accuracy reduced to 1.0D-05 until final iterations.

 Cycle   1  Pass 0  IDiag  1:
 FoFJK:  IHMeth= 1 ICntrl=       0 DoSepK=F KAlg= 0 I1Cent=           0 FoldK=F
 IRaf= 910000000 NMat=       1 IRICut=       1 DoRegI=T DoRafI=F ISym2E= 0 IDoP0=0 IntGTp=1.
 FoFCou: FMM=F IPFlag=           0 FMFlag=      100000 FMFlg1=           0
         NFxFlg=           0 DoJE=F BraDBF=F KetDBF=F FulRan=T
         wScrn=  0.000000 ICntrl=         0 IOpCl=  0 I1Cent=           0 NGrid=           0
         NMat0=    1 NMatS0=      1 NMatT0=    0 NMatD0=    1 NMtDS0=    0 NMtDT0=    0
 Symmetry not used in FoFCou.
 E= -1182.33173569897    
 DIIS: error= 1.14D-03 at cycle   1 NSaved=   1.
 NSaved= 1 IEnMin= 1 EnMin= -1182.33173569897     IErMin= 1 ErrMin= 1.14D-03
 ErrMax= 1.14D-03  0.00D+00 EMaxC= 1.00D-01 BMatC= 4.74D-04 BMatP= 4.74D-04
 IDIUse=3 WtCom= 9.89D-01 WtEn= 1.14D-02
 Coeff-Com:  0.100D+01
 Coeff-En:   0.100D+01
 Coeff:      0.100D+01
 Gap=     1.731 Goal=   None    Shift=    0.000
 GapD=    1.731 DampG=2.000 DampE=1.000 DampFc=2.0000 IDamp=-1.
 RMSDP=3.28D-04 MaxDP=6.04D-03              OVMax= 6.43D-03

 Cycle   2  Pass 0  IDiag  1:
 RMSU=  3.27D-04    CP:  9.99D-01
 E= -1182.33225911233     Delta-E=       -0.000523413358 Rises=F Damp=F
 DIIS: error= 7.63D-04 at cycle   2 NSaved=   2.
 NSaved= 2 IEnMin= 2 EnMin= -1182.33225911233     IErMin= 2 ErrMin= 7.63D-04
 ErrMax= 7.63D-04  0.00D+00 EMaxC= 1.00D-01 BMatC= 1.43D-04 BMatP= 4.74D-04
 IDIUse=3 WtCom= 9.92D-01 WtEn= 7.63D-03
 Coeff-Com:  0.301D+00 0.699D+00
 Coeff-En:   0.000D+00 0.100D+01
 Coeff:      0.299D+00 0.701D+00
 Gap=     0.199 Goal=   None    Shift=    0.000
 RMSDP=1.42D-04 MaxDP=3.96D-03 DE=-5.23D-04 OVMax= 4.02D-03

 Cycle   3  Pass 0  IDiag  1:
 RMSU=  1.41D-04    CP:  9.99D-01  9.82D-01
 E= -1182.33231479777     Delta-E=       -0.000055685437 Rises=F Damp=F
 DIIS: error= 6.10D-04 at cycle   3 NSaved=   3.
 NSaved= 3 IEnMin= 3 EnMin= -1182.33231479777     IErMin= 3 ErrMin= 6.10D-04
 ErrMax= 6.10D-04  0.00D+00 EMaxC= 1.00D-01 BMatC= 8.92D-05 BMatP= 1.43D-04
 IDIUse=3 WtCom= 9.94D-01 WtEn= 6.10D-03
 Coeff-Com:  0.190D-01 0.438D+00 0.543D+00
 Coeff-En:   0.000D+00 0.401D+00 0.599D+00
 Coeff:      0.189D-01 0.438D+00 0.543D+00
 Gap=     0.199 Goal=   None    Shift=    0.000
 RMSDP=7.69D-05 MaxDP=2.10D-03 DE=-5.57D-05 OVMax= 2.49D-03

 Cycle   4  Pass 0  IDiag  1:
 RMSU=  3.81D-05    CP:  9.99D-01  1.00D+00  5.30D-01
 E= -1182.33240338827     Delta-E=       -0.000088590497 Rises=F Damp=F
 DIIS: error= 1.88D-04 at cycle   4 NSaved=   4.
 NSaved= 4 IEnMin= 4 EnMin= -1182.33240338827     IErMin= 4 ErrMin= 1.88D-04
 ErrMax= 1.88D-04  0.00D+00 EMaxC= 1.00D-01 BMatC= 6.45D-06 BMatP= 8.92D-05
 IDIUse=3 WtCom= 9.98D-01 WtEn= 1.88D-03
 Coeff-Com: -0.666D-02 0.203D+00 0.317D+00 0.486D+00
 Coeff-En:   0.000D+00 0.000D+00 0.000D+00 0.100D+01
 Coeff:     -0.665D-02 0.203D+00 0.316D+00 0.487D+00
 Gap=     0.199 Goal=   None    Shift=    0.000
 RMSDP=2.12D-05 MaxDP=4.87D-04 DE=-8.86D-05 OVMax= 1.32D-03

 Cycle   5  Pass 0  IDiag  1:
 RMSU=  1.20D-05    CP:  9.99D-01  1.01D+00  5.67D-01  5.69D-01
 E= -1182.33241035855     Delta-E=       -0.000006970279 Rises=F Damp=F
 DIIS: error= 5.78D-05 at cycle   5 NSaved=   5.
 NSaved= 5 IEnMin= 5 EnMin= -1182.33241035855     IErMin= 5 ErrMin= 5.78D-05
 ErrMax= 5.78D-05  0.00D+00 EMaxC= 1.00D-01 BMatC= 5.19D-07 BMatP= 6.45D-06
 IDIUse=1 WtCom= 1.00D+00 WtEn= 0.00D+00
 Coeff-Com: -0.592D-02 0.664D-01 0.123D+00 0.270D+00 0.547D+00
 Coeff:     -0.592D-02 0.664D-01 0.123D+00 0.270D+00 0.547D+00
 Gap=     0.199 Goal=   None    Shift=    0.000
 RMSDP=5.76D-06 MaxDP=1.49D-04 DE=-6.97D-06 OVMax= 3.71D-04

 Initial convergence to 1.0D-05 achieved.  Increase integral accuracy.
 Cycle   6  Pass 1  IDiag  1:
 E= -1182.33240027638     Delta-E=        0.000010082170 Rises=F Damp=F
 DIIS: error= 1.79D-05 at cycle   1 NSaved=   1.
 NSaved= 1 IEnMin= 1 EnMin= -1182.33240027638     IErMin= 1 ErrMin= 1.79D-05
 ErrMax= 1.79D-05  0.00D+00 EMaxC= 1.00D-01 BMatC= 6.93D-08 BMatP= 6.93D-08
 IDIUse=1 WtCom= 1.00D+00 WtEn= 0.00D+00
 Coeff-Com:  0.100D+01
 Coeff:      0.100D+01
 Gap=     0.199 Goal=   None    Shift=    0.000
 RMSDP=5.76D-06 MaxDP=1.49D-04 DE= 1.01D-05 OVMax= 2.35D-04

 Cycle   7  Pass 1  IDiag  1:
 RMSU=  7.50D-06    CP:  1.00D+00
 E= -1182.33240017325     Delta-E=        0.000000103130 Rises=F Damp=F
 DIIS: error= 3.67D-05 at cycle   2 NSaved=   2.
 NSaved= 2 IEnMin= 1 EnMin= -1182.33240027638     IErMin= 1 ErrMin= 1.79D-05
 ErrMax= 3.67D-05  0.00D+00 EMaxC= 1.00D-01 BMatC= 1.49D-07 BMatP= 6.93D-08
 IDIUse=1 WtCom= 1.00D+00 WtEn= 0.00D+00
 Coeff-Com:  0.608D+00 0.392D+00
 Coeff:      0.608D+00 0.392D+00
 Gap=     0.199 Goal=   None    Shift=    0.000
 RMSDP=2.99D-06 MaxDP=8.10D-05 DE= 1.03D-07 OVMax= 1.91D-04

 Cycle   8  Pass 1  IDiag  1:
 RMSU=  2.53D-06    CP:  1.00D+00  7.88D-01
 E= -1182.33240033526     Delta-E=       -0.000000162016 Rises=F Damp=F
 DIIS: error= 8.58D-06 at cycle   3 NSaved=   3.
 NSaved= 3 IEnMin= 3 EnMin= -1182.33240033526     IErMin= 3 ErrMin= 8.58D-06
 ErrMax= 8.58D-06  0.00D+00 EMaxC= 1.00D-01 BMatC= 8.43D-09 BMatP= 6.93D-08
 IDIUse=1 WtCom= 1.00D+00 WtEn= 0.00D+00
 Coeff-Com:  0.119D+00 0.202D+00 0.679D+00
 Coeff:      0.119D+00 0.202D+00 0.679D+00
 Gap=     0.199 Goal=   None    Shift=    0.000
 RMSDP=9.15D-07 MaxDP=3.20D-05 DE=-1.62D-07 OVMax= 5.00D-05

 Cycle   9  Pass 1  IDiag  1:
 RMSU=  6.77D-07    CP:  1.00D+00  8.23D-01  7.81D-01
 E= -1182.33240034263     Delta-E=       -0.000000007372 Rises=F Damp=F
 DIIS: error= 3.42D-06 at cycle   4 NSaved=   4.
 NSaved= 4 IEnMin= 4 EnMin= -1182.33240034263     IErMin= 4 ErrMin= 3.42D-06
 ErrMax= 3.42D-06  0.00D+00 EMaxC= 1.00D-01 BMatC= 2.27D-09 BMatP= 8.43D-09
 IDIUse=1 WtCom= 1.00D+00 WtEn= 0.00D+00
 Coeff-Com:  0.752D-02 0.842D-01 0.435D+00 0.473D+00
 Coeff:      0.752D-02 0.842D-01 0.435D+00 0.473D+00
 Gap=     0.199 Goal=   None    Shift=    0.000
 RMSDP=3.71D-07 MaxDP=1.71D-05 DE=-7.37D-09 OVMax= 1.75D-05

 Cycle  10  Pass 1  IDiag  1:
 RMSU=  1.36D-07    CP:  1.00D+00  8.25D-01  8.23D-01  5.17D-01
 E= -1182.33240034499     Delta-E=       -0.000000002359 Rises=F Damp=F
 DIIS: error= 6.02D-07 at cycle   5 NSaved=   5.
 NSaved= 5 IEnMin= 5 EnMin= -1182.33240034499     IErMin= 5 ErrMin= 6.02D-07
 ErrMax= 6.02D-07  0.00D+00 EMaxC= 1.00D-01 BMatC= 1.44D-10 BMatP= 2.27D-09
 IDIUse=1 WtCom= 1.00D+00 WtEn= 0.00D+00
 Coeff-Com: -0.246D-02 0.405D-01 0.232D+00 0.291D+00 0.439D+00
 Coeff:     -0.246D-02 0.405D-01 0.232D+00 0.291D+00 0.439D+00
 Gap=     0.199 Goal=   None    Shift=    0.000
 RMSDP=7.63D-08 MaxDP=2.79D-06 DE=-2.36D-09 OVMax= 4.29D-06

 Cycle  11  Pass 1  IDiag  1:
 RMSU=  3.60D-08    CP:  1.00D+00  8.26D-01  8.23D-01  5.17D-01  5.09D-01
 E= -1182.33240034514     Delta-E=       -0.000000000146 Rises=F Damp=F
 DIIS: error= 1.02D-07 at cycle   6 NSaved=   6.
 NSaved= 6 IEnMin= 6 EnMin= -1182.33240034514     IErMin= 6 ErrMin= 1.02D-07
 ErrMax= 1.02D-07  0.00D+00 EMaxC= 1.00D-01 BMatC= 4.71D-12 BMatP= 1.44D-10
 IDIUse=1 WtCom= 1.00D+00 WtEn= 0.00D+00
 Coeff-Com: -0.166D-02 0.192D-01 0.111D+00 0.143D+00 0.244D+00 0.485D+00
 Coeff:     -0.166D-02 0.192D-01 0.111D+00 0.143D+00 0.244D+00 0.485D+00
 Gap=     0.199 Goal=   None    Shift=    0.000
 RMSDP=1.70D-08 MaxDP=5.83D-07 DE=-1.46D-10 OVMax= 8.96D-07

 Cycle  12  Pass 1  IDiag  1:
 RMSU=  1.28D-08    CP:  1.00D+00  8.26D-01  8.22D-01  5.19D-01  5.04D-01
                    CP:  7.14D-01
 E= -1182.33240034514     Delta-E=       -0.000000000002 Rises=F Damp=F
 DIIS: error= 3.78D-08 at cycle   7 NSaved=   7.
 NSaved= 7 IEnMin= 7 EnMin= -1182.33240034514     IErMin= 7 ErrMin= 3.78D-08
 ErrMax= 3.78D-08  0.00D+00 EMaxC= 1.00D-01 BMatC= 4.02D-13 BMatP= 4.71D-12
 IDIUse=1 WtCom= 1.00D+00 WtEn= 0.00D+00
 Coeff-Com: -0.546D-03 0.484D-02 0.278D-01 0.378D-01 0.677D-01 0.251D+00
 Coeff-Com:  0.611D+00
 Coeff:     -0.546D-03 0.484D-02 0.278D-01 0.378D-01 0.677D-01 0.251D+00
 Coeff:      0.611D+00
 Gap=     0.199 Goal=   None    Shift=    0.000
 RMSDP=5.09D-09 MaxDP=1.84D-07 DE=-2.27D-12 OVMax= 1.95D-07

 SCF Done:  E(RB3LYP) =  -1182.33240035     A.U. after   12 cycles
            NFock= 12  Conv=0.51D-08     -V/T= 2.0050
 KE= 1.176499964499D+03 PE=-4.048844650141D+03 EE= 1.060718102124D+03
 Leave Link  502 at Tue Sep 17 09:54:07 2024, MaxMem=  1342177280 cpu:              48.0 elap:               6.6
 (Enter /groups/ReismanLab/Software/Gaussian16_RevC/Linux_Binary_AVX2-enabled-CPU/g16/l508.exe)
 QCSCF skips out because SCF is already converged.
 Leave Link  508 at Tue Sep 17 09:54:07 2024, MaxMem=  1342177280 cpu:               0.0 elap:               0.0
 (Enter /groups/ReismanLab/Software/Gaussian16_RevC/Linux_Binary_AVX2-enabled-CPU/g16/l701.exe)
 ... and contract with generalized density number  0.
 Compute integral first derivatives.
 R6Disp: Adding Grimme-D3(BJ) dispersion energy 1st derivatives to the gradient.
 Leave Link  701 at Tue Sep 17 09:54:07 2024, MaxMem=  1342177280 cpu:               0.6 elap:               0.1
 (Enter /groups/ReismanLab/Software/Gaussian16_RevC/Linux_Binary_AVX2-enabled-CPU/g16/l702.exe)
 L702 exits ... SP integral derivatives will be done elsewhere.
 Leave Link  702 at Tue Sep 17 09:54:07 2024, MaxMem=  1342177280 cpu:               0.1 elap:               0.0
 (Enter /groups/ReismanLab/Software/Gaussian16_RevC/Linux_Binary_AVX2-enabled-CPU/g16/l703.exe)
 Integral derivatives from FoFJK, PRISM(SPDF).
 Compute integral first derivatives, UseDBF=F ICtDFT=           0.
 Calling FoFJK, ICntrl=      2127 FMM=F ISym2X=0 I1Cent= 0 IOpClX= 0 NMat=1 NMatS=1 NMatT=0.
 FoFJK:  IHMeth= 1 ICntrl=    2127 DoSepK=F KAlg= 0 I1Cent=           0 FoldK=F
 IRaf=         0 NMat=       1 IRICut=       1 DoRegI=T DoRafI=F ISym2E= 0 IDoP0=0 IntGTp=1.
 FoFCou: FMM=F IPFlag=           0 FMFlag=      100000 FMFlg1=         800
         NFxFlg=           0 DoJE=F BraDBF=F KetDBF=F FulRan=T
         wScrn=  0.000000 ICntrl=      2127 IOpCl=  0 I1Cent=           0 NGrid=           0
         NMat0=    1 NMatS0=      1 NMatT0=    0 NMatD0=    1 NMtDS0=    0 NMtDT0=    0
 Symmetry not used in FoFCou.
 Leave Link  703 at Tue Sep 17 09:54:09 2024, MaxMem=  1342177280 cpu:              16.4 elap:               2.2
 (Enter /groups/ReismanLab/Software/Gaussian16_RevC/Linux_Binary_AVX2-enabled-CPU/g16/l716.exe)
 Dipole        = 8.04377580D-01 4.59232880D-01 3.03226035D-05
 ***** Axes restored to original set *****
 -------------------------------------------------------------------
 Center     Atomic                   Forces (Hartrees/Bohr)
 Number     Number              X              Y              Z
 -------------------------------------------------------------------
      1       17           0.004301776    0.000366356   -0.000001528
      2        6          -0.010617880   -0.002104079    0.000012326
      3        7           0.004401670    0.003419280   -0.000005944
      4        6          -0.003494698   -0.004421187   -0.000002359
      5        6           0.000525809   -0.000290005    0.000002112
      6        6           0.000715904   -0.000106899    0.000000232
      7        6           0.001088313    0.000344854   -0.000003126
      8        6           0.000630274    0.000375674    0.000001611
      9        6          -0.001157135    0.003113727    0.000006897
     10       16           0.003249510   -0.000885018   -0.000008457
     11        1          -0.000146643   -0.000135535   -0.000001780
     12        1           0.000312769   -0.000102662   -0.000000420
     13        1           0.000270849    0.000051175    0.000002011
     14        1          -0.000080517    0.000374318   -0.000001575
 -------------------------------------------------------------------
 Cartesian Forces:  Max     0.010617880 RMS     0.002309949
 Leave Link  716 at Tue Sep 17 09:54:09 2024, MaxMem=  1342177280 cpu:               0.1 elap:               0.0
 (Enter /groups/ReismanLab/Software/Gaussian16_RevC/Linux_Binary_AVX2-enabled-CPU/g16/l103.exe)

 GradGradGradGradGradGradGradGradGradGradGradGradGradGradGradGradGradGrad
 Berny optimization.
 Using GEDIIS/GDIIS optimizer.
 FormGI is forming the generalized inverse of G from B-inverse, IUseBI=4.
 Internal  Forces:  Max     0.004316761 RMS     0.001059649
 Search for a local minimum.
 Step number   2 out of a maximum of   80
 All quantities printed in internal units (Hartrees-Bohrs-Radians)
 RMS Force = .10596D-02 SwitMx=.10000D-02 MixMth= 1
 Mixed Optimization -- RFO/linear search
 Update second derivatives using D2CorX and points    1    2
 DE= -2.06D-03 DEPred=-2.05D-03 R= 1.00D+00
 TightC=F SS=  1.41D+00  RLast= 9.78D-02 DXNew= 5.0454D-01 2.9349D-01
 Trust test= 1.00D+00 RLast= 9.78D-02 DXMaxT set to 3.00D-01
 ITU=  1  0
 Use linear search instead of GDIIS.
     Eigenvalues ---    0.01628   0.01918   0.02083   0.02107   0.02233
     Eigenvalues ---    0.02256   0.02270   0.02297   0.02311   0.02315
     Eigenvalues ---    0.02430   0.15971   0.16000   0.16000   0.16004
     Eigenvalues ---    0.21957   0.22583   0.22963   0.24563   0.25000
     Eigenvalues ---    0.25359   0.28222   0.30726   0.34540   0.36074
     Eigenvalues ---    0.36128   0.36245   0.36491   0.39348   0.43795
     Eigenvalues ---    0.45599   0.47924   0.48400   0.49217   0.53564
     Eigenvalues ---    0.73491
 RFO step:  Lambda=-2.66564776D-04 EMin= 1.62761918D-02
 Quartic linear search produced a step of  0.03216.
 Iteration  1 RMS(Cart)=  0.00313349 RMS(Int)=  0.00001461
 Iteration  2 RMS(Cart)=  0.00001502 RMS(Int)=  0.00000641
 Iteration  3 RMS(Cart)=  0.00000000 RMS(Int)=  0.00000641
 ITry= 1 IFail=0 DXMaxC= 1.87D-02 DCOld= 1.00D+10 DXMaxT= 3.00D-01 DXLimC= 3.00D+00 Rises=F
 Variable       Old X    -DE/DX   Delta X   Delta X   Delta X     New X
                                 (Linear)    (Quad)   (Total)
    R1        3.24493   0.00432   0.00185   0.01384   0.01569   3.26063
    R2        2.42701  -0.00139   0.00065  -0.00126  -0.00060   2.42640
    R3        3.36232  -0.00164   0.00045  -0.00556  -0.00510   3.35722
    R4        2.61754   0.00155   0.00114   0.00432   0.00546   2.62300
    R5        2.64847  -0.00138   0.00063  -0.00238  -0.00175   2.64672
    R6        2.68561  -0.00208   0.00049  -0.00442  -0.00394   2.68167
    R7        2.62777  -0.00153   0.00070  -0.00243  -0.00173   2.62605
    R8        2.04931  -0.00015   0.00041   0.00001   0.00042   2.04973
    R9        2.65559  -0.00082   0.00074  -0.00096  -0.00022   2.65537
   R10        2.05127  -0.00031   0.00037  -0.00050  -0.00013   2.05115
   R11        2.63264  -0.00100   0.00069  -0.00136  -0.00067   2.63197
   R12        2.05135  -0.00027   0.00038  -0.00036   0.00002   2.05137
   R13        2.63878  -0.00152   0.00075  -0.00249  -0.00174   2.63704
   R14        2.05044  -0.00036   0.00041  -0.00060  -0.00019   2.05025
   R15        3.31127   0.00106   0.00067   0.00427   0.00493   3.31620
    A1        2.16539  -0.00172   0.00018  -0.00682  -0.00665   2.15873
    A2        2.08279  -0.00196  -0.00026  -0.00826  -0.00852   2.07426
    A3        2.03501   0.00368   0.00008   0.01508   0.01518   2.05019
    A4        1.93684  -0.00298  -0.00039  -0.01285  -0.01322   1.92363
    A5        2.18705  -0.00141  -0.00019  -0.00603  -0.00621   2.18084
    A6        2.01158   0.00050   0.00033   0.00258   0.00290   2.01448
    A7        2.08455   0.00091  -0.00013   0.00345   0.00332   2.08787
    A8        2.07648  -0.00044   0.00013  -0.00182  -0.00169   2.07479
    A9        2.07962   0.00035  -0.00007   0.00176   0.00169   2.08131
   A10        2.12709   0.00008  -0.00006   0.00006  -0.00000   2.12709
   A11        2.11215  -0.00026  -0.00006  -0.00098  -0.00103   2.11112
   A12        2.08705   0.00003   0.00001  -0.00017  -0.00016   2.08689
   A13        2.08398   0.00023   0.00005   0.00115   0.00119   2.08518
   A14        2.11260   0.00028  -0.00004   0.00155   0.00151   2.11411
   A15        2.08749  -0.00007   0.00003  -0.00035  -0.00032   2.08718
   A16        2.08309  -0.00020   0.00001  -0.00121  -0.00120   2.08189
   A17        2.05956  -0.00022  -0.00006  -0.00104  -0.00111   2.05845
   A18        2.11058  -0.00001  -0.00020  -0.00052  -0.00071   2.10987
   A19        2.11305   0.00023   0.00026   0.00156   0.00182   2.11487
   A20        2.12103  -0.00028   0.00016  -0.00116  -0.00100   2.12003
   A21        1.90591   0.00093  -0.00031   0.00373   0.00339   1.90930
[...]
 LDataN:  DoStor=T MaxTD1= 7 Len=  274
 FoFJK:  IHMeth= 1 ICntrl=    6127 DoSepK=F KAlg= 0 I1Cent=           0 FoldK=F
 IRaf=         1 NMat=       1 IRICut=       1 DoRegI=T DoRafI=F ISym2E= 0 IDoP0=0 IntGTp=1.
          There are     3 degrees of freedom in the 1st order CPHF.  IDoFFX=0 NUNeed=     3.
      3 vectors produced by pass  0 Test12= 4.34D-13 3.33D-08 XBig12= 1.25D+01 1.01D+00.
 AX will form     3 AO Fock derivatives at one time.
      3 vectors produced by pass  1 Test12= 4.34D-13 3.33D-08 XBig12= 1.03D-01 1.43D-01.
      3 vectors produced by pass  2 Test12= 4.34D-13 3.33D-08 XBig12= 1.55D-03 1.30D-02.
      3 vectors produced by pass  3 Test12= 4.34D-13 3.33D-08 XBig12= 1.34D-05 1.14D-03.
      3 vectors produced by pass  4 Test12= 4.34D-13 3.33D-08 XBig12= 1.93D-07 1.47D-04.
      3 vectors produced by pass  5 Test12= 4.34D-13 3.33D-08 XBig12= 2.23D-09 1.29D-05.
      3 vectors produced by pass  6 Test12= 4.34D-13 3.33D-08 XBig12= 1.94D-11 9.52D-07.
      3 vectors produced by pass  7 Test12= 4.34D-13 3.33D-08 XBig12= 2.38D-13 1.08D-07.
 InvSVY:  IOpt=1 It=  1 EMax= 4.44D-16
 Solved reduced A of dimension    24 with     3 vectors.
 Calculating GIAO nuclear magnetic shielding tensors.
 SCF GIAO Magnetic shielding tensor (ppm):
      1  Cl   Isotropic =   608.0204   Anisotropy =   582.9648
   XX=   954.1568   YX=   225.6992   ZX=     0.1557
   XY=   110.0044   YY=   333.8474   ZY=    -0.0038
   XZ=     0.1483   YZ=    -0.0495   ZZ=   536.0571
   Eigenvalues:   291.3405   536.0571   996.6636
      2  C    Isotropic =    -3.4284   Anisotropy =    87.1227
   XX=   -87.5582   YX=   -86.8899   ZX=     0.0002
   XY=   -15.5137   YY=    22.6196   ZY=     0.0049
   XZ=     0.0417   YZ=    -0.0035   ZZ=    54.6534
   Eigenvalues:  -107.6784    42.7398    54.6534
      3  N    Isotropic =  -124.3723   Anisotropy =   437.1343
   XX=  -425.4392   YX=   -15.4803   ZX=     0.0216
   XY=    57.9251   YY=  -114.7282   ZY=    -0.0223
   XZ=    -0.0017   YZ=    -0.0393   ZZ=   167.0506
   Eigenvalues:  -426.8821  -113.2854   167.0506
      4  C    Isotropic =    13.0029   Anisotropy =   151.2766
   XX=   -56.3579   YX=   -32.2947   ZX=     0.0060
   XY=   -46.8615   YY=   -18.4874   ZY=    -0.0023
   XZ=    -0.0070   YZ=     0.0106   ZZ=   113.8539
   Eigenvalues:   -81.2971     6.4518   113.8539
      5  C    Isotropic =    39.9666   Anisotropy =   199.0943
   XX=    18.7101   YX=     2.8438   ZX=     0.0006
   XY=     2.7371   YY=   -71.5065   ZY=    -0.0097
   XZ=     0.0011   YZ=    -0.0024   ZZ=   172.6961
   Eigenvalues:   -71.5928    18.7964   172.6961
      6  C    Isotropic =    37.0779   Anisotropy =   216.3589
   XX=   -47.5201   YX=    52.1910   ZX=    -0.0013
   XY=    55.3006   YY=   -22.5634   ZY=    -0.0067
   XZ=     0.0097   YZ=    -0.0118   ZZ=   181.3172
   Eigenvalues:   -90.2171    20.1336   181.3172
      7  C    Isotropic =    37.4085   Anisotropy =   213.0763
   XX=   -67.8212   YX=   -43.7859   ZX=    -0.0018
   XY=   -44.1060   YY=     0.5873   ZY=    -0.0028
   XZ=     0.0061   YZ=     0.0025   ZZ=   179.4594
   Eigenvalues:   -89.3051    22.0713   179.4594
      8  C    Isotropic =    43.3308   Anisotropy =   203.5859
   XX=    20.4665   YX=   -17.7845   ZX=    -0.0020
   XY=   -17.8839   YY=   -69.5288   ZY=     0.0032
   XZ=    -0.0089   YZ=     0.0101   ZZ=   179.0548
   Eigenvalues:   -72.9341    23.8718   179.0548
      9  C    Isotropic =    21.7733   Anisotropy =   152.1739
   XX=   -35.4265   YX=    29.8255   ZX=    -0.0137
   XY=    18.5999   YY=   -22.4761   ZY=     0.0040
   XZ=     0.0033   YZ=    -0.0041   ZZ=   123.2226
   Eigenvalues:   -54.0149    -3.8877   123.2226
     10  S    Isotropic =   169.6054   Anisotropy =   297.8509
   XX=   166.9478   YX=   215.1938   ZX=    -0.1388
   XY=   269.6230   YY=    76.1517   ZY=     0.0428
   XZ=    -0.2531   YZ=     0.1309   ZZ=   265.7168
   Eigenvalues:  -125.0732   265.7168   368.1727
     11  H    Isotropic =    22.9972   Anisotropy =     7.0597
   XX=    27.6585   YX=    -0.4518   ZX=    -0.0002
   XY=    -0.5569   YY=    22.0684   ZY=    -0.0002
   XZ=    -0.0001   YZ=     0.0005   ZZ=    19.2648
   Eigenvalues:    19.2648    22.0232    27.7037
     12  H    Isotropic =    23.4658   Anisotropy =     6.1026
   XX=    24.5419   YX=     2.2367   ZX=    -0.0000
   XY=     2.4554   YY=    25.6949   ZY=     0.0000
   XZ=     0.0004   YZ=    -0.0002   ZZ=    20.1606
   Eigenvalues:    20.1606    22.7025    27.5342
     13  H    Isotropic =    23.5032   Anisotropy =     6.2978
   XX=    23.8601   YX=    -2.1408   ZX=    -0.0000
   XY=    -2.0130   YY=    26.5789   ZY=     0.0001
   XZ=     0.0003   YZ=     0.0004   ZZ=    20.0705
   Eigenvalues:    20.0705    22.7373    27.7017
     14  H    Isotropic =    23.2292   Anisotropy =     8.4409
   XX=    28.8550   YX=    -0.1884   ZX=     0.0000
   XY=    -0.0085   YY=    22.1854   ZY=     0.0002
   XZ=     0.0005   YZ=     0.0002   ZZ=    18.6472
   Eigenvalues:    18.6472    22.1839    28.8565
 End of Minotr F.D. properties file   721 does not exist.
 End of Minotr F.D. properties file   722 does not exist.
 End of Minotr F.D. properties file   788 does not exist.
 Leave Link 1002 at Tue Sep 17 10:21:40 2024, MaxMem=  1342177280 cpu:             365.3 elap:             366.1
 (Enter /groups/ReismanLab/Software/Gaussian16_RevC/Linux_Binary_AVX2-enabled-CPU/g16/l601.exe)
 Copying SCF densities to generalized density rwf, IOpCl= 0 IROHF=0.

 **********************************************************************

            Population analysis using the SCF Density.

 **********************************************************************

 Orbital symmetries:
       Occupied  (A) (A) (A) (A) (A) (A) (A) (A) (A) (A) (A) (A)
                 (A) (A) (A) (A) (A) (A) (A) (A) (A) (A) (A) (A)
                 (A) (A) (A) (A) (A) (A) (A) (A) (A) (A) (A) (A)
                 (A) (A) (A) (A) (A) (A) (A)
       Virtual   (A) (A) (A) (A) (A) (A) (A) (A) (A) (A) (A) (A)
                 (A) (A) (A) (A) (A) (A) (A) (A) (A) (A) (A) (A)
                 (A) (A) (A) (A) (A) (A) (A) (A) (A) (A) (A) (A)
                 (A) (A) (A) (A) (A) (A) (A) (A) (A) (A) (A) (A)
                 (A) (A) (A) (A) (A) (A) (A) (A) (A) (A) (A) (A)
                 (A) (A) (A) (A) (A) (A) (A) (A) (A) (A) (A) (A)
                 (A) (A) (A) (A) (A) (A) (A) (A) (A) (A) (A) (A)
                 (A) (A) (A) (A) (A) (A) (A) (A) (A) (A) (A) (A)
                 (A) (A) (A) (A) (A) (A) (A) (A) (A) (A) (A) (A)
                 (A) (A) (A) (A) (A) (A) (A) (A) (A) (A) (A) (A)
                 (A) (A) (A) (A) (A) (A) (A) (A) (A) (A) (A) (A)
                 (A) (A) (A) (A) (A) (A) (A) (A) (A) (A) (A) (A)
                 (A) (A) (A) (A) (A) (A) (A) (A) (A) (A) (A) (A)
                 (A) (A) (A) (A) (A) (A) (A) (A) (A) (A) (A) (A)
                 (A) (A) (A) (A) (A) (A) (A) (A) (A) (A) (A) (A)
                 (A) (A) (A) (A) (A) (A) (A) (A) (A) (A) (A) (A)
                 (A) (A) (A) (A) (A) (A) (A) (A) (A) (A) (A) (A)
                 (A) (A) (A) (A) (A) (A) (A) (A) (A) (A) (A) (A)
                 (A) (A) (A) (A) (A) (A) (A) (A) (A) (A) (A) (A)
                 (A) (A) (A) (A) (A) (A) (A) (A) (A) (A) (A) (A)
                 (A) (A) (A) (A) (A) (A) (A) (A) (A) (A) (A) (A)
                 (A) (A) (A) (A) (A) (A) (A) (A) (A) (A) (A) (A)
                 (A) (A) (A) (A) (A) (A) (A) (A) (A) (A) (A) (A)
                 (A) (A) (A) (A) (A) (A) (A) (A) (A) (A) (A) (A)
                 (A) (A) (A) (A) (A) (A) (A) (A) (A) (A) (A) (A)
                 (A) (A) (A)
 The electronic state is 1-A.
 Alpha  occ. eigenvalues -- -102.67236 -89.95364 -14.77502 -10.67583 -10.59392
 Alpha  occ. eigenvalues --  -10.59314 -10.56314 -10.55584 -10.55559 -10.55323
 Alpha  occ. eigenvalues --   -9.83468  -8.31110  -7.55678  -7.55141  -7.55116
 Alpha  occ. eigenvalues --   -6.23026  -6.22846  -6.22626  -1.10279  -0.98451
 Alpha  occ. eigenvalues --   -0.95570  -0.90582  -0.84854  -0.82384  -0.70994
 Alpha  occ. eigenvalues --   -0.69167  -0.65844  -0.57635  -0.57099  -0.56026
 Alpha  occ. eigenvalues --   -0.52566  -0.51667  -0.49134  -0.47222  -0.45229
 Alpha  occ. eigenvalues --   -0.44194  -0.40886  -0.39909  -0.39645  -0.37734
 Alpha  occ. eigenvalues --   -0.36789  -0.29946  -0.29901
 Alpha virt. eigenvalues --   -0.01983   0.00716   0.02018   0.04802   0.05892
 Alpha virt. eigenvalues --    0.09644   0.10842   0.11097   0.12672   0.14004
 Alpha virt. eigenvalues --    0.14785   0.17052   0.17638   0.19452   0.19896
 Alpha virt. eigenvalues --    0.21905   0.22672   0.23333   0.23706   0.25833
 Alpha virt. eigenvalues --    0.25864   0.27258   0.28571   0.30064   0.30980
 Alpha virt. eigenvalues --    0.31568   0.31844   0.33341   0.33669   0.35486
 Alpha virt. eigenvalues --    0.36205   0.36516   0.37320   0.37939   0.38204
 Alpha virt. eigenvalues --    0.38957   0.39687   0.41327   0.41816   0.43634
 Alpha virt. eigenvalues --    0.43812   0.44662   0.45996   0.46569   0.47547
 Alpha virt. eigenvalues --    0.47979   0.48019   0.49918   0.51139   0.52710
 Alpha virt. eigenvalues --    0.52926   0.53589   0.55184   0.57113   0.58802
 Alpha virt. eigenvalues --    0.59239   0.60025   0.60989   0.64144   0.64933
 Alpha virt. eigenvalues --    0.65725   0.67938   0.68861   0.68949   0.70632
 Alpha virt. eigenvalues --    0.71486   0.73783   0.74797   0.77590   0.78128
 Alpha virt. eigenvalues --    0.78754   0.81426   0.81734   0.82440   0.85062
 Alpha virt. eigenvalues --    0.87618   0.89618   0.91679   0.92812   0.92912
 Alpha virt. eigenvalues --    0.93669   0.98807   1.00631   1.02723   1.07168
 Alpha virt. eigenvalues --    1.07963   1.09098   1.10134   1.11200   1.13095
 Alpha virt. eigenvalues --    1.13605   1.19364   1.21130   1.21921   1.23092
 Alpha virt. eigenvalues --    1.24619   1.25330   1.29574   1.29613   1.31924
 Alpha virt. eigenvalues --    1.34486   1.35594   1.39607   1.42617   1.42726
 Alpha virt. eigenvalues --    1.43968   1.47759   1.47925   1.49243   1.49739
 Alpha virt. eigenvalues --    1.51583   1.53088   1.54716   1.54842   1.56338
 Alpha virt. eigenvalues --    1.57995   1.58664   1.59297   1.63085   1.63689
 Alpha virt. eigenvalues --    1.63932   1.68070   1.68826   1.69617   1.73823
 Alpha virt. eigenvalues --    1.73894   1.75178   1.75500   1.77529   1.78428
 Alpha virt. eigenvalues --    1.79712   1.80449   1.81344   1.81359   1.84870
 Alpha virt. eigenvalues --    1.85225   1.85807   1.88244   1.88958   1.89500
 Alpha virt. eigenvalues --    1.91424   1.93751   1.94965   1.98451   2.01001
 Alpha virt. eigenvalues --    2.02396   2.03199   2.05821   2.06818   2.10275
 Alpha virt. eigenvalues --    2.10637   2.11494   2.12098   2.15006   2.15547
 Alpha virt. eigenvalues --    2.17829   2.19328   2.21544   2.22528   2.23875
 Alpha virt. eigenvalues --    2.24537   2.24848   2.26890   2.32398   2.33212
 Alpha virt. eigenvalues --    2.33514   2.37839   2.41147   2.42501   2.45701
 Alpha virt. eigenvalues --    2.48024   2.48283   2.50664   2.57484   2.60053
 Alpha virt. eigenvalues --    2.60453   2.62245   2.63247   2.64783   2.66134
 Alpha virt. eigenvalues --    2.68504   2.69799   2.69823   2.73274   2.75300
 Alpha virt. eigenvalues --    2.76171   2.77713   2.80797   2.81051   2.83183
 Alpha virt. eigenvalues --    2.84915   2.87307   2.87404   2.87801   2.92718
 Alpha virt. eigenvalues --    2.94797   2.96974   2.97533   2.99616   3.03327
 Alpha virt. eigenvalues --    3.04590   3.06173   3.07882   3.10579   3.11954
 Alpha virt. eigenvalues --    3.12531   3.13128   3.14509   3.15489   3.16528
 Alpha virt. eigenvalues --    3.17819   3.19938   3.21678   3.22165   3.24992
 Alpha virt. eigenvalues --    3.27697   3.29248   3.31123   3.32182   3.33225
 Alpha virt. eigenvalues --    3.36295   3.37158   3.38837   3.39184   3.40995
 Alpha virt. eigenvalues --    3.42082   3.42890   3.43740   3.47063   3.48457
 Alpha virt. eigenvalues --    3.49126   3.51187   3.52983   3.54878   3.57202
 Alpha virt. eigenvalues --    3.59511   3.61959   3.66861   3.67698   3.71183
 Alpha virt. eigenvalues --    3.72817   3.76085   3.81619   3.87665   3.89329
 Alpha virt. eigenvalues --    3.91160   3.96362   3.97621   4.03215   4.04217
 Alpha virt. eigenvalues --    4.06551   4.06639   4.07352   4.11665   4.14967
 Alpha virt. eigenvalues --    4.16273   4.18167   4.19366   4.24153   4.25684
 Alpha virt. eigenvalues --    4.34469   4.39244   4.43412   4.53212   4.63154
 Alpha virt. eigenvalues --    4.64642   4.65881   4.71120   4.76048   4.79333
 Alpha virt. eigenvalues --    4.83018   4.85171   4.86744   4.98016   5.01687
 Alpha virt. eigenvalues --    5.05831   5.11167   5.18237   5.21173   5.22425
 Alpha virt. eigenvalues --    5.23549   5.39603   5.41962   5.51564   5.61502
 Alpha virt. eigenvalues --    5.74912   5.87691   8.93290   9.42828   9.52115
 Alpha virt. eigenvalues --   10.79105  10.83886  11.37311  20.22799  22.24087
 Alpha virt. eigenvalues --   22.53964  22.69414  22.69896  22.88567  22.95123
 Alpha virt. eigenvalues --   23.36917  25.86837  32.54311
          Condensed to atoms (all electrons):
               1          2          3          4          5          6
     1  Cl  16.795181   0.360168  -0.071573   0.002704  -0.001428   0.000018
     2  C    0.360168   4.759180   0.597709  -0.108692  -0.004063  -0.000420
     3  N   -0.071573   0.597709   6.478199   0.429384  -0.038361   0.003952
     4  C    0.002704  -0.108692   0.429384   4.985028   0.277907  -0.000101
     5  C   -0.001428  -0.004063  -0.038361   0.277907   5.188553   0.463924
     6  C    0.000018  -0.000420   0.003952  -0.000101   0.463924   4.943863
     7  C   -0.000007  -0.000104  -0.002796  -0.094019   0.011175   0.465456
     8  C   -0.000216   0.004926   0.018393   0.038994  -0.121807   0.002597
     9  C    0.003271  -0.109754  -0.108471   0.405073   0.064766  -0.095818
    10  S   -0.061577   0.451201  -0.103081  -0.095662   0.027354  -0.002013
    11  H   -0.000060  -0.000379   0.007153  -0.035397   0.403352  -0.029941
    12  H   -0.000000   0.000032  -0.000111   0.009692  -0.042163   0.422930
    13  H   -0.000000   0.000007  -0.000007  -0.001772   0.006303  -0.036512
    14  H   -0.000002  -0.000206  -0.000170   0.008579  -0.001359   0.003496
               7          8          9         10         11         12
     1  Cl  -0.000007  -0.000216   0.003271  -0.061577  -0.000060  -0.000000
     2  C   -0.000104   0.004926  -0.109754   0.451201  -0.000379   0.000032
     3  N   -0.002796   0.018393  -0.108471  -0.103081   0.007153  -0.000111
     4  C   -0.094019   0.038994   0.405073  -0.095662  -0.035397   0.009692
     5  C    0.011175  -0.121807   0.064766   0.027354   0.403352  -0.042163
     6  C    0.465456   0.002597  -0.095818  -0.002013  -0.029941   0.422930
     7  C    4.940557   0.469449   0.003139   0.003439   0.005303  -0.039222
     8  C    0.469449   5.172573   0.287848  -0.053805  -0.002253   0.006708
     9  C    0.003139   0.287848   5.171788   0.423301   0.010683  -0.001915
    10  S    0.003439  -0.053805   0.423301  15.342245   0.000055   0.000016
    11  H    0.005303  -0.002253   0.010683   0.000055   0.468935  -0.004465
    12  H   -0.039222   0.006708  -0.001915   0.000016  -0.004465   0.485684
    13  H    0.421541  -0.042470   0.007894  -0.000194  -0.000107  -0.003769
    14  H   -0.028327   0.403088  -0.029233  -0.003025   0.000061  -0.000197
              13         14
     1  Cl  -0.000000  -0.000002
     2  C    0.000007  -0.000206
     3  N   -0.000007  -0.000170
     4  C   -0.001772   0.008579
     5  C    0.006303  -0.001359
     6  C   -0.036512   0.003496
     7  C    0.421541  -0.028327
     8  C   -0.042470   0.403088
     9  C    0.007894  -0.029233
    10  S   -0.000194  -0.003025
    11  H   -0.000107   0.000061
    12  H   -0.003769  -0.000197
    13  H    0.485503  -0.003318
    14  H   -0.003318   0.477311
 Mulliken charges:
               1
     1  Cl  -0.026478
     2  C    0.050394
     3  N   -0.210220
     4  C    0.178281
     5  C   -0.234153
     6  C   -0.141431
     7  C   -0.155583
     8  C   -0.184025
     9  C   -0.032572
    10  S    0.071746
    11  H    0.177060
    12  H    0.166780
    13  H    0.166901
    14  H    0.173302
 Sum of Mulliken charges =  -0.00000
 Mulliken charges with hydrogens summed into heavy atoms:
               1
     1  Cl  -0.026478
     2  C    0.050394
     3  N   -0.210220
     4  C    0.178281
     5  C   -0.057094
     6  C    0.025349
     7  C    0.011318
     8  C   -0.010723
     9  C   -0.032572
    10  S    0.071746
 Electronic spatial extent (au):  <R**2>=           1955.5506
 Charge=             -0.0000 electrons
 Dipole moment (field-independent basis, Debye):
    X=              2.3778    Y=              1.5801    Z=             -0.0002  Tot=              2.8549
 Quadrupole moment (field-independent basis, Debye-Ang):
   XX=            -62.3843   YY=            -67.6269   ZZ=            -74.2651
   XY=             -1.5052   XZ=              0.0001   YZ=             -0.0005
 Traceless Quadrupole moment (field-independent basis, Debye-Ang):
   XX=              5.7078   YY=              0.4652   ZZ=             -6.1730
   XY=             -1.5052   XZ=              0.0001   YZ=             -0.0005
 Octapole moment (field-independent basis, Debye-Ang**2):
  XXX=              7.9999  YYY=              5.9406  ZZZ=             -0.0009  XYY=             11.1265
  XXY=             -0.0660  XXZ=             -0.0022  XZZ=            -13.4755  YZZ=             -0.1565
  YYZ=             -0.0029  XYZ=              0.0004
 Hexadecapole moment (field-independent basis, Debye-Ang**3):
 XXXX=          -1793.6793 YYYY=           -514.7018 ZZZZ=            -86.2729 XXXY=              6.6708
 XXXZ=              0.0086 YYYX=             -5.2105 YYYZ=              0.0035 ZZZX=             -0.0020
 ZZZY=              0.0064 XXYY=           -395.8466 XXZZ=           -374.7662 YYZZ=           -113.6173
 XXYZ=              0.0034 YYXZ=             -0.0001 ZZXY=              3.3762
 N-N= 6.293101930393D+02 E-N=-4.052058341910D+03  KE= 1.179590836322D+03
 Calculating spin-rotation constants.
 Leave Link  601 at Tue Sep 17 10:21:42 2024, MaxMem=  1342177280 cpu:               1.8 elap:               1.8
 (Enter /groups/ReismanLab/Software/Gaussian16_RevC/Linux_Binary_AVX2-enabled-CPU/g16/l9999.exe)
 Unable to Open any file for archive entry.
 1\1\GINC-HPC-53-06\SP\RM062X\def2TZVP\C7H4Cl1N1S1\MANTIND\17-Sep-2024\
 0\\#p M062X/def2tzvp geom=check guess=read scf(xqc,tight) integral(gri
 d=ultrafine) scrf(SMD, solvent=1,4-Dioxane) nmr=giao\\spe\\0,1\Cl,0,3.
 1224260175,0.382524065,-0.000018758\C,0,1.40130843,0.2108238602,0.0002
 598449\N,0,0.5890344692,1.2035866799,0.0000244333\C,0,-0.7247929088,0.
 7462460411,-0.0000145806\C,0,-1.8584904142,1.5672782308,-0.0000516564\
 C,0,-3.1150353459,0.9743338917,-0.0000133155\C,0,-3.2541455486,-0.4231
 849239,0.0000320715\C,0,-2.1394109197,-1.2574077409,0.0000305472\C,0,-
 0.8780702059,-0.6620968374,0.0000212897\S,0,0.7075531068,-1.4198125764
 ,-0.0001687068\H,0,-1.732822861,2.6441200847,-0.0000810873\H,0,-4.0023
 651643,1.5987976152,-0.0000286942\H,0,-4.2462201349,-0.8630173186,0.00
 00339458\H,0,-2.2514246088,-2.3361044379,0.0000041789\\Version=ES64L-G
 16RevC.02\State=1-A\HF=-1182.2899364\RMSD=2.449e-09\Dipole=-0.9397179,
 -0.6152615,-0.0000681\Quadrupole=4.2280905,0.3613672,-4.5894577,-1.145
 5997,-0.0000788,0.0003445\PG=C01 [X(C7H4Cl1N1S1)]\\@
 The archive entry for this job was punched.


 There was a great rattling of the words for the fewness of ideas.
                   -- Charles Baxter in Gryphon
 Job cpu time:       0 days  0 hours  6 minutes 45.1 seconds.
 Elapsed time:       0 days  0 hours  6 minutes 46.5 seconds.
 File lengths (MBytes):  RWF=    224 Int=      0 D2E=      0 Chk=     24 Scr=     16
 Normal termination of Gaussian 16 at Tue Sep 17 10:21:42 2024.
