 Entering Gaussian System, Link 0=g16
 Input=smiles_00079_conf_0.gjf
 Output=smiles_00079_conf_0.log
 Initial command:
 /groups/ReismanLab/Software/Gaussian16_RevC/Linux_Binary_AVX2-enabled-CPU/g16/l1.exe "/central/groups/ReismanLab/DM/dft_final/smiles_00079/Gau-1087827.inp" -scrdir="/central/groups/ReismanLab/DM/dft_final/smiles_00079/"
 Entering Link 1 = /groups/ReismanLab/Software/Gaussian16_RevC/Linux_Binary_AVX2-enabled-CPU/g16/l1.exe PID=   1087831.
  
 Copyright (c) 1988-2021, Gaussian, Inc.  All Rights Reserved.
  
 This is part of the Gaussian(R) 16 program.  It is based on
 the Gaussian(R) 09 system (copyright 2009, Gaussian, Inc.),
 the Gaussian(R) 03 system (copyright 2003, Gaussian, Inc.),
 the Gaussian(R) 98 system (copyright 1998, Gaussian, Inc.),
 the Gaussian(R) 94 system (copyright 1995, Gaussian, Inc.),
 the Gaussian 92(TM) system (copyright 1992, Gaussian, Inc.),
 the Gaussian 90(TM) system (copyright 1990, Gaussian, Inc.),
 the Gaussian 88(TM) system (copyright 1988, Gaussian, Inc.),
 the Gaussian 86(TM) system (copyright 1986, Carnegie Mellon
 University), and the Gaussian 82(TM) system (copyright 1983,
 Carnegie Mellon University). Gaussian is a federally registered
 trademark of Gaussian, Inc.
  
 This software contains proprietary and confidential information,
 including trade secrets, belonging to Gaussian, Inc.
  
 This software is provided under written license and may be
 used, copied, transmitted, or stored only in accord with that
 written license.
  
 The following legend is applicable only to US Government
 contracts under FAR:
  
                    RESTRICTED RIGHTS LEGEND
  
 Use, reproduction and disclosure by the US Government is
 subject to restrictions as set forth in subparagraphs (a)
 and (c) of the Commercial Computer Software - Restricted
 Rights clause in FAR 52.227-19.
  
 Gaussian, Inc.
 340 Quinnipiac St., Bldg. 40, Wallingford CT 06492
  
  
 ---------------------------------------------------------------
 Warning -- This program may not be used in any manner that
 competes with the business of Gaussian, Inc. or will provide
 assistance to any competitor of Gaussian, Inc.  The licensee
 of this program is prohibited from giving any competitor of
 Gaussian, Inc. access to this program.  By using this program,
 the user acknowledges that Gaussian, Inc. is engaged in the
 business of creating and licensing software in the field of
 computational chemistry and represents and warrants to the
 licensee that it is not a competitor of Gaussian, Inc. and that
 it will not use this program in any manner prohibited above.
 ---------------------------------------------------------------
  

 Cite this work as:
 Gaussian 16, Revision C.02,
 M. J. Frisch, G. W. Trucks, H. B. Schlegel, G. E. Scuseria, 
 M. A. Robb, J. R. Cheeseman, G. Scalmani, V. Barone, 
 G. A. Petersson, H. Nakatsuji, X. Li, M. Caricato, A. V. Marenich, 
 J. Bloino, B. G. Janesko, R. Gomperts, B. Mennucci, H. P. Hratchian, 
 J. V. Ortiz, A. F. Izmaylov, J. L. Sonnenberg, D. Williams-Young, 
 F. Ding, F. Lipparini, F. Egidi, J. Goings, B. Peng, A. Petrone, 
 T. Henderson, D. Ranasinghe, V. G. Zakrzewski, J. Gao, N. Rega, 
 G. Zheng, W. Liang, M. Hada, M. Ehara, K. Toyota, R. Fukuda, 
 J. Hasegawa, M. Ishida, T. Nakajima, Y. Honda, O. Kitao, H. Nakai, 
 T. Vreven, K. Throssell, J. A. Montgomery, Jr., J. E. Peralta, 
 F. Ogliaro, M. J. Bearpark, J. J. Heyd, E. N. Brothers, K. N. Kudin, 
 V. N. Staroverov, T. A. Keith, R. Kobayashi, J. Normand, 
 K. Raghavachari, A. P. Rendell, J. C. Burant, S. S. Iyengar, 
 J. Tomasi, M. Cossi, J. M. Millam, M. Klene, C. Adamo, R. Cammi, 
 J. W. Ochterski, R. L. Martin, K. Morokuma, O. Farkas, 
 J. B. Foresman, and D. J. Fox, Gaussian, Inc., Wallingford CT, 2019.
 
 ******************************************
 Gaussian 16:  ES64L-G16RevC.02  7-Dec-2021
                17-Sep-2024 
 ******************************************
 %nprocshared=8
 Will use up to    8 processors via shared memory.
 %Mem=10GB
 %Chk=smiles_00079_conf_0.chk
 ----------------------------------------------------------------------
 #p B3LYP/6-31G(d,p) EmpiricalDispersion=GD3BJ opt freq scf(xqc,tight) 
 integral(grid=ultrafine)
 ----------------------------------------------------------------------
 1/18=20,19=15,26=4,38=1/1,3;
 2/9=110,12=2,17=6,18=5,40=1/2;
 3/5=1,6=6,7=101,11=2,25=1,30=1,71=1,74=-5,75=-5,124=41/1,2,3;
 4//1;
 5/5=2,8=3,13=1,32=2,38=5/2,8;
 6/7=2,8=2,9=2,10=2,28=1/1;
 7//1,2,3,16;
 1/18=20,19=15,26=4/3(2);
 2/9=110/2;
 99//99;
 2/9=110/2;
 3/5=1,6=6,7=101,11=2,25=1,30=1,71=1,74=-5,75=-5,124=41/1,2,3;
 4/5=5,16=3,69=1/1;
 5/5=2,8=3,13=1,32=2,38=5/2,8;
 7//1,2,3,16;
 1/18=20,19=15,26=4/3(-5);
 2/9=110/2;
 6/7=2,8=2,9=2,10=2,19=2,28=1/1;
 99/9=1/99;
 Leave Link    1 at Tue Sep 17 09:50:12 2024, MaxMem=  1342177280 cpu:               0.1 elap:               0.8
 (Enter /groups/ReismanLab/Software/Gaussian16_RevC/Linux_Binary_AVX2-enabled-CPU/g16/l101.exe)
 ----------------------------------
 opt-freq conformers_unique/conf_aa
 ----------------------------------
 Symbolic Z-matrix:
 Charge =  0 Multiplicity = 1
 C                    -0.47476  -3.00934   0.00009 
 C                    -0.072    -1.56943   0.00005 
 C                     1.25249  -1.21286   0.00004 
 C                     1.58481   0.15314   0.00015 
 Cl                    3.25032   0.59442  -0.00012 
 N                     0.72802   1.12485   0.00016 
 C                    -0.5853    0.81311   0.00008 
 C                    -1.51524   1.87086   0.00009 
 C                    -2.85704   1.6082   -0.00001 
 C                    -3.31889   0.28441  -0.00014 
 C                    -2.43696  -0.7623   -0.00015 
 C                    -1.04705  -0.5321    0. 
 H                     0.40283  -3.65021   0.00179 
 H                    -1.07094  -3.23699  -0.88253 
 H                    -1.07395  -3.23626   0.88078 
 H                     2.03708  -1.95264   0.00004 
 H                    -1.13076   2.87824   0.00021 
 H                    -3.5707    2.41869   0.00005 
 H                    -4.38211   0.09422  -0.00031 
 H                    -2.80721  -1.77601  -0.00038 
 
 ITRead=  0  0  0  0  0  0  0  0  0  0  0  0  0  0  0  0  0  0  0  0
 MicOpt= -1 -1 -1 -1 -1 -1 -1 -1 -1 -1 -1 -1 -1 -1 -1 -1 -1 -1 -1 -1
 NAtoms=     20 NQM=       20 NQMF=       0 NMMI=      0 NMMIF=      0
                NMic=       0 NMicF=      0.
                    Isotopes and Nuclear Properties:
 (Nuclear quadrupole moments (NQMom) in fm**2, nuclear magnetic moments (NMagM)
  in nuclear magnetons)

  Atom         1           2           3           4           5           6           7           8           9          10
 IAtWgt=          12          12          12          12          35          14          12          12          12          12
 AtmWgt=  12.0000000  12.0000000  12.0000000  12.0000000  34.9688527  14.0030740  12.0000000  12.0000000  12.0000000  12.0000000
 NucSpn=           0           0           0           0           3           2           0           0           0           0
 AtZEff=  -0.0000000  -0.0000000  -0.0000000  -0.0000000  -0.0000000  -0.0000000  -0.0000000  -0.0000000  -0.0000000  -0.0000000
 NQMom=    0.0000000   0.0000000   0.0000000   0.0000000  -8.1650000   2.0440000   0.0000000   0.0000000   0.0000000   0.0000000
 NMagM=    0.0000000   0.0000000   0.0000000   0.0000000   0.8218740   0.4037610   0.0000000   0.0000000   0.0000000   0.0000000
 AtZNuc=   6.0000000   6.0000000   6.0000000   6.0000000  17.0000000   7.0000000   6.0000000   6.0000000   6.0000000   6.0000000

  Atom        11          12          13          14          15          16          17          18          19          20
 IAtWgt=          12          12           1           1           1           1           1           1           1           1
 AtmWgt=  12.0000000  12.0000000   1.0078250   1.0078250   1.0078250   1.0078250   1.0078250   1.0078250   1.0078250   1.0078250
 NucSpn=           0           0           1           1           1           1           1           1           1           1
 AtZEff=  -0.0000000  -0.0000000  -0.0000000  -0.0000000  -0.0000000  -0.0000000  -0.0000000  -0.0000000  -0.0000000  -0.0000000
 NQMom=    0.0000000   0.0000000   0.0000000   0.0000000   0.0000000   0.0000000   0.0000000   0.0000000   0.0000000   0.0000000
 NMagM=    0.0000000   0.0000000   2.7928460   2.7928460   2.7928460   2.7928460   2.7928460   2.7928460   2.7928460   2.7928460
 AtZNuc=   6.0000000   6.0000000   1.0000000   1.0000000   1.0000000   1.0000000   1.0000000   1.0000000   1.0000000   1.0000000
 Leave Link  101 at Tue Sep 17 09:50:13 2024, MaxMem=  1342177280 cpu:               0.2 elap:               0.2
 (Enter /groups/ReismanLab/Software/Gaussian16_RevC/Linux_Binary_AVX2-enabled-CPU/g16/l103.exe)

 GradGradGradGradGradGradGradGradGradGradGradGradGradGradGradGradGradGrad
 Berny optimization.
 Initialization pass.
                           ----------------------------
                           !    Initial Parameters    !
                           ! (Angstroms and Degrees)  !
 --------------------------                            --------------------------
 ! Name  Definition              Value          Derivative Info.                !
 --------------------------------------------------------------------------------
 ! R1    R(1,2)                  1.4952         estimate D2E/DX2                !
 ! R2    R(1,13)                 1.0867         estimate D2E/DX2                !
 ! R3    R(1,14)                 1.0892         estimate D2E/DX2                !
 ! R4    R(1,15)                 1.0891         estimate D2E/DX2                !
 ! R5    R(2,3)                  1.3716         estimate D2E/DX2                !
 ! R6    R(2,12)                 1.4236         estimate D2E/DX2                !
 ! R7    R(3,4)                  1.4058         estimate D2E/DX2                !
 ! R8    R(3,16)                 1.0784         estimate D2E/DX2                !
 ! R9    R(4,5)                  1.723          estimate D2E/DX2                !
 ! R10   R(4,6)                  1.2955         estimate D2E/DX2                !
 ! R11   R(6,7)                  1.3498         estimate D2E/DX2                !
 ! R12   R(7,8)                  1.4084         estimate D2E/DX2                !
 ! R13   R(7,12)                 1.4223         estimate D2E/DX2                !
 ! R14   R(8,9)                  1.3673         estimate D2E/DX2                !
 ! R15   R(8,17)                 1.0783         estimate D2E/DX2                !
 ! R16   R(9,10)                 1.402          estimate D2E/DX2                !
 ! R17   R(9,18)                 1.0799         estimate D2E/DX2                !
 ! R18   R(10,11)                1.3687         estimate D2E/DX2                !
 ! R19   R(10,19)                1.0801         estimate D2E/DX2                !
 ! R20   R(11,12)                1.4088         estimate D2E/DX2                !
 ! R21   R(11,20)                1.0792         estimate D2E/DX2                !
 ! A1    A(2,1,13)             110.5121         estimate D2E/DX2                !
 ! A2    A(2,1,14)             110.4085         estimate D2E/DX2                !
 ! A3    A(2,1,15)             110.4184         estimate D2E/DX2                !
 ! A4    A(13,1,14)            108.6663         estimate D2E/DX2                !
 ! A5    A(13,1,15)            108.673          estimate D2E/DX2                !
 ! A6    A(14,1,15)            108.0956         estimate D2E/DX2                !
 ! A7    A(1,2,3)              120.6944         estimate D2E/DX2                !
 ! A8    A(1,2,12)             121.1457         estimate D2E/DX2                !
 ! A9    A(3,2,12)             118.1598         estimate D2E/DX2                !
 ! A10   A(2,3,4)              118.7408         estimate D2E/DX2                !
 ! A11   A(2,3,16)             121.6165         estimate D2E/DX2                !
 ! A12   A(4,3,16)             119.6427         estimate D2E/DX2                !
 ! A13   A(3,4,5)              118.5131         estimate D2E/DX2                !
 ! A14   A(3,4,6)              124.9229         estimate D2E/DX2                !
 ! A15   A(5,4,6)              116.564          estimate D2E/DX2                !
 ! A16   A(4,6,7)              118.0507         estimate D2E/DX2                !
 ! A17   A(6,7,8)              117.9679         estimate D2E/DX2                !
 ! A18   A(6,7,12)             122.2982         estimate D2E/DX2                !
 ! A19   A(8,7,12)             119.734          estimate D2E/DX2                !
 ! A20   A(7,8,9)              120.2454         estimate D2E/DX2                !
 ! A21   A(7,8,17)             117.7892         estimate D2E/DX2                !
 ! A22   A(9,8,17)             121.9654         estimate D2E/DX2                !
 ! A23   A(8,9,10)             120.3086         estimate D2E/DX2                !
 ! A24   A(8,9,18)             120.2896         estimate D2E/DX2                !
 ! A25   A(10,9,18)            119.4018         estimate D2E/DX2                !
 ! A26   A(9,10,11)            120.6502         estimate D2E/DX2                !
 ! A27   A(9,10,19)            119.3752         estimate D2E/DX2                !
 ! A28   A(11,10,19)           119.9746         estimate D2E/DX2                !
 ! A29   A(10,11,12)           120.7125         estimate D2E/DX2                !
 ! A30   A(10,11,20)           119.8187         estimate D2E/DX2                !
 ! A31   A(12,11,20)           119.4688         estimate D2E/DX2                !
 ! A32   A(2,12,7)             117.8276         estimate D2E/DX2                !
 ! A33   A(2,12,11)            123.8231         estimate D2E/DX2                !
 ! A34   A(7,12,11)            118.3493         estimate D2E/DX2                !
 ! D1    D(13,1,2,3)             0.0945         estimate D2E/DX2                !
 ! D2    D(13,1,2,12)         -179.9059         estimate D2E/DX2                !
 ! D3    D(14,1,2,3)          -120.1577         estimate D2E/DX2                !
 ! D4    D(14,1,2,12)           59.8418         estimate D2E/DX2                !
 ! D5    D(15,1,2,3)           120.3616         estimate D2E/DX2                !
 ! D6    D(15,1,2,12)          -59.6389         estimate D2E/DX2                !
 ! D7    D(1,2,3,4)           -179.993          estimate D2E/DX2                !
 ! D8    D(1,2,3,16)             0.0017         estimate D2E/DX2                !
 ! D9    D(12,2,3,4)             0.0074         estimate D2E/DX2                !
 ! D10   D(12,2,3,16)         -179.9978         estimate D2E/DX2                !
 ! D11   D(1,2,12,7)           179.9948         estimate D2E/DX2                !
 ! D12   D(1,2,12,11)           -0.0071         estimate D2E/DX2                !
 ! D13   D(3,2,12,7)            -0.0057         estimate D2E/DX2                !
 ! D14   D(3,2,12,11)          179.9925         estimate D2E/DX2                !
 ! D15   D(2,3,4,5)           -179.9899         estimate D2E/DX2                !
 ! D16   D(2,3,4,6)             -0.0057         estimate D2E/DX2                !
 ! D17   D(16,3,4,5)             0.0152         estimate D2E/DX2                !
 ! D18   D(16,3,4,6)           179.9995         estimate D2E/DX2                !
 ! D19   D(3,4,6,7)              0.0016         estimate D2E/DX2                !
 ! D20   D(5,4,6,7)            179.9861         estimate D2E/DX2                !
 ! D21   D(4,6,7,8)            179.9998         estimate D2E/DX2                !
 ! D22   D(4,6,7,12)             0.0003         estimate D2E/DX2                !
 ! D23   D(6,7,8,9)            179.9988         estimate D2E/DX2                !
 ! D24   D(6,7,8,17)            -0.0029         estimate D2E/DX2                !
 ! D25   D(12,7,8,9)            -0.0017         estimate D2E/DX2                !
 ! D26   D(12,7,8,17)          179.9967         estimate D2E/DX2                !
 ! D27   D(6,7,12,2)             0.0018         estimate D2E/DX2                !
 ! D28   D(6,7,12,11)         -179.9965         estimate D2E/DX2                !
 ! D29   D(8,7,12,2)          -179.9978         estimate D2E/DX2                !
 ! D30   D(8,7,12,11)            0.004          estimate D2E/DX2                !
 ! D31   D(7,8,9,10)            -0.0008         estimate D2E/DX2                !
 ! D32   D(7,8,9,18)           179.9966         estimate D2E/DX2                !
 ! D33   D(17,8,9,10)         -179.9991         estimate D2E/DX2                !
 ! D34   D(17,8,9,18)           -0.0016         estimate D2E/DX2                !
 ! D35   D(8,9,10,11)            0.0009         estimate D2E/DX2                !
 ! D36   D(8,9,10,19)         -179.9941         estimate D2E/DX2                !
 ! D37   D(18,9,10,11)        -179.9966         estimate D2E/DX2                !
 ! D38   D(18,9,10,19)           0.0085         estimate D2E/DX2                !
 ! D39   D(9,10,11,12)           0.0015         estimate D2E/DX2                !
 ! D40   D(9,10,11,20)        -179.992          estimate D2E/DX2                !
 ! D41   D(19,10,11,12)        179.9965         estimate D2E/DX2                !
 ! D42   D(19,10,11,20)          0.0029         estimate D2E/DX2                !
 ! D43   D(10,11,12,2)         179.9979         estimate D2E/DX2                !
 ! D44   D(10,11,12,7)          -0.0039         estimate D2E/DX2                !
 ! D45   D(20,11,12,2)          -0.0085         estimate D2E/DX2                !
 ! D46   D(20,11,12,7)         179.9897         estimate D2E/DX2                !
 --------------------------------------------------------------------------------
 Trust Radius=3.00D-01 FncErr=1.00D-07 GrdErr=1.00D-06 EigMax=2.50D+02 EigMin=1.00D-04
 Number of steps in this run=    111 maximum allowed number of steps=    120.
 GradGradGradGradGradGradGradGradGradGradGradGradGradGradGradGradGradGrad

 Leave Link  103 at Tue Sep 17 09:50:13 2024, MaxMem=  1342177280 cpu:               0.0 elap:               0.0
 (Enter /groups/ReismanLab/Software/Gaussian16_RevC/Linux_Binary_AVX2-enabled-CPU/g16/l202.exe)
                          Input orientation:                          
 ---------------------------------------------------------------------
 Center     Atomic      Atomic             Coordinates (Angstroms)
 Number     Number       Type             X           Y           Z
 ---------------------------------------------------------------------
      1          6           0       -0.474763   -3.009342    0.000089
      2          6           0       -0.072003   -1.569433    0.000047
      3          6           0        1.252491   -1.212864    0.000041
      4          6           0        1.584814    0.153142    0.000152
      5         17           0        3.250321    0.594424   -0.000124
      6          7           0        0.728025    1.124850    0.000157
      7          6           0       -0.585299    0.813110    0.000082
      8          6           0       -1.515237    1.870859    0.000091
      9          6           0       -2.857041    1.608204   -0.000008
     10          6           0       -3.318894    0.284409   -0.000137
     11          6           0       -2.436959   -0.762303   -0.000147
     12          6           0       -1.047052   -0.532102    0.000005
     13          1           0        0.402829   -3.650211    0.001790
     14          1           0       -1.070938   -3.236988   -0.882527
     15          1           0       -1.073949   -3.236259    0.880782
     16          1           0        2.037079   -1.952638    0.000037
     17          1           0       -1.130759    2.878241    0.000206
     18          1           0       -3.570704    2.418691    0.000053
     19          1           0       -4.382105    0.094216   -0.000312
     20          1           0       -2.807212   -1.776008   -0.000376
 ---------------------------------------------------------------------
                    Distance matrix (angstroms):
                    1          2          3          4          5
     1  C    0.000000
     2  C    1.495177   0.000000
     3  C    2.492135   1.371650   0.000000
     4  C    3.774012   2.390044   1.405849   0.000000
     5  Cl   5.182990   3.964860   2.693996   1.722974   0.000000
     6  N    4.305606   2.810553   2.395824   1.295494   2.577465
     7  C    3.824050   2.437208   2.735332   2.268248   3.841848
     8  C    4.989884   3.730755   4.143629   3.544132   4.933541
     9  C    5.195862   4.225378   4.984644   4.674108   6.190930
    10  C    4.351767   3.738855   4.810341   4.905465   6.576526
    11  C    2.983185   2.498895   3.716859   4.124646   5.846867
    12  C    2.542486   1.423650   2.398194   2.719610   4.442575
    13  H    1.086685   2.134269   2.581199   3.982787   5.111276
    14  H    1.089155   2.134841   3.205359   4.396035   5.842228
    15  H    1.089098   2.134923   3.206579   4.396882   5.843752
    16  H    2.725064   2.143612   1.078353   2.153800   2.821255
    17  H    5.924016   4.571955   4.734661   3.847142   4.940615
    18  H    6.248871   5.305284   6.037499   5.631348   7.060759
    19  H    4.989930   4.620034   5.784214   5.967211   7.648800
    20  H    2.638453   2.742999   4.098575   4.797032   6.504817
                    6          7          8          9         10
     6  N    0.000000
     7  C    1.349815   0.000000
     8  C    2.364054   1.408410   0.000000
     9  C    3.617503   2.406863   1.367269   0.000000
    10  C    4.133267   2.784254   2.402082   1.402049   0.000000
    11  C    3.684898   2.431167   2.789823   2.407441   1.368728
    12  C    2.428248   1.422255   2.448145   2.803028   2.414116
    13  H    4.786123   4.571393   5.844758   6.186896   5.415945
    14  H    4.800107   4.173504   5.202548   5.238786   4.269913
    15  H    4.800196   4.172744   5.201249   5.236795   4.267423
    16  H    3.344332   3.811329   5.219011   6.052438   5.804380
    17  H    2.555280   2.135952   1.078259   2.143139   3.393508
    18  H    4.489219   3.389769   2.127219   1.079909   2.149085
    19  H    5.213026   3.864266   3.372743   2.148949   1.080089
    20  H    4.573060   3.411807   3.868957   3.384578   2.123001
                   11         12         13         14         15
    11  C    0.000000
    12  C    1.408841   0.000000
    13  H    4.050236   3.438716   0.000000
    14  H    2.961194   2.845319   1.767699   0.000000
    15  H    2.958764   2.844109   1.767727   1.763312   0.000000
    16  H    4.629678   3.395554   2.356381   3.476816   3.478777
    17  H    3.867780   3.411369   6.706160   6.178901   6.177843
    18  H    3.376996   3.882782   7.254001   6.246157   6.244030
    19  H    2.125376   3.393355   6.075882   4.779022   4.776221
    20  H    1.079205   2.155334   3.717124   2.434605   2.431660
                   16         17         18         19         20
    16  H    0.000000
    17  H    5.776901   0.000000
    18  H    7.110256   2.482845   0.000000
    19  H    6.737622   4.280426   2.462023   0.000000
    20  H    4.847511   4.946971   4.263615   2.445000   0.000000
 Stoichiometry    C10H8ClN
 Framework group  C1[X(C10H8ClN)]
 Deg. of freedom    54
 Full point group                 C1      NOp   1
 Largest Abelian subgroup         C1      NOp   1
 Largest concise Abelian subgroup C1      NOp   1
                         Standard orientation:                         
 ---------------------------------------------------------------------
 Center     Atomic      Atomic             Coordinates (Angstroms)
 Number     Number       Type             X           Y           Z
 ---------------------------------------------------------------------
      1          6           0       -0.328322    2.966226   -0.000090
      2          6           0        0.045788    1.518609   -0.000048
      3          6           0        1.362946    1.135830   -0.000042
      4          6           0        1.668100   -0.236501   -0.000153
      5         17           0        3.324522   -0.710743    0.000124
      6          7           0        0.792199   -1.191018   -0.000157
      7          6           0       -0.514681   -0.853280   -0.000083
      8          6           0       -1.465424   -1.892369   -0.000092
      9          6           0       -2.801752   -1.603142    0.000008
     10          6           0       -3.237248   -0.270443    0.000136
     11          6           0       -2.334717    0.758564    0.000146
     12          6           0       -0.949652    0.500829   -0.000005
     13          1           0        0.561813    3.589556   -0.001791
     14          1           0       -0.919863    3.205656    0.882526
     15          1           0       -0.922888    3.204987   -0.880782
     16          1           0        2.162059    1.859891   -0.000038
     17          1           0       -1.101010   -2.907181   -0.000207
     18          1           0       -3.531356   -2.399309   -0.000054
     19          1           0       -4.296476   -0.059192    0.000311
     20          1           0       -2.684784    1.779415    0.000375
 ---------------------------------------------------------------------
 Rotational constants (GHZ):           1.5043939           0.6129859           0.4367045
 Leave Link  202 at Tue Sep 17 09:50:13 2024, MaxMem=  1342177280 cpu:               0.0 elap:               0.0
 (Enter /groups/ReismanLab/Software/Gaussian16_RevC/Linux_Binary_AVX2-enabled-CPU/g16/l301.exe)
 Standard basis: 6-31G(d,p) (6D, 7F)
 Ernie: Thresh=  0.10000D-02 Tol=  0.10000D-05 Strict=F.
 There are   224 symmetry adapted cartesian basis functions of A   symmetry.
 There are   224 symmetry adapted basis functions of A   symmetry.
   224 basis functions,   416 primitive gaussians,   224 cartesian basis functions
    46 alpha electrons       46 beta electrons
       nuclear repulsion energy       720.0086334994 Hartrees.
 IExCor=  402 DFT=T Ex+Corr=B3LYP ExCW=0 ScaHFX=  0.200000
 ScaDFX=  0.800000  0.720000  1.000000  0.810000 ScalE2=  1.000000  1.000000
 IRadAn=      5 IRanWt=     -1 IRanGd=            0 ICorTp=0 IEmpDi=141
 NAtoms=   20 NActive=   20 NUniq=   20 SFac= 1.00D+00 NAtFMM=   60 NAOKFM=F Big=F
 Integral buffers will be    131072 words long.
 Raffenetti 2 integral format.
 Two-electron integral symmetry is turned on.
 R6Disp:  Grimme-D3(BJ) Dispersion energy=       -0.0443991761 Hartrees.
 Nuclear repulsion after empirical dispersion term =      719.9642343233 Hartrees.
 Leave Link  301 at Tue Sep 17 09:50:13 2024, MaxMem=  1342177280 cpu:               0.1 elap:               0.0
 (Enter /groups/ReismanLab/Software/Gaussian16_RevC/Linux_Binary_AVX2-enabled-CPU/g16/l302.exe)
 NPDir=0 NMtPBC=     1 NCelOv=     1 NCel=       1 NClECP=     1 NCelD=      1
         NCelK=      1 NCelE2=     1 NClLst=     1 CellRange=     0.0.
 One-electron integrals computed using PRISM.
 One-electron integral symmetry used in STVInt
 NBasis=   224 RedAO= T EigKep=  3.55D-04  NBF=   224
 NBsUse=   224 1.00D-06 EigRej= -1.00D+00 NBFU=   224
 Precomputing XC quadrature grid using
 IXCGrd= 4 IRadAn=           5 IRanWt=          -1 IRanGd=           0 AccXCQ= 0.00D+00.
 Generated NRdTot=       0 NPtTot=           0 NUsed=           0 NTot=          32
 NSgBfM=   223   223   223   223   223 MxSgAt=    20 MxSgA2=    20.
 Leave Link  302 at Tue Sep 17 09:50:13 2024, MaxMem=  1342177280 cpu:               1.1 elap:               0.2
 (Enter /groups/ReismanLab/Software/Gaussian16_RevC/Linux_Binary_AVX2-enabled-CPU/g16/l303.exe)
 DipDrv:  MaxL=1.
 Leave Link  303 at Tue Sep 17 09:50:13 2024, MaxMem=  1342177280 cpu:               0.1 elap:               0.0
 (Enter /groups/ReismanLab/Software/Gaussian16_RevC/Linux_Binary_AVX2-enabled-CPU/g16/l401.exe)
 ExpMin= 1.43D-01 ExpMax= 2.52D+04 ExpMxC= 3.78D+03 IAcc=3 IRadAn=         5 AccDes= 0.00D+00
 Harris functional with IExCor=  402 and IRadAn=       5 diagonalized for initial guess.
 HarFok:  IExCor=  402 AccDes= 0.00D+00 IRadAn=         5 IDoV= 1 UseB2=F ITyADJ=14
 ICtDFT=  3500011 ScaDFX=  1.000000  1.000000  1.000000  1.000000
 FoFCou: FMM=F IPFlag=           0 FMFlag=      100000 FMFlg1=           0
         NFxFlg=           0 DoJE=T BraDBF=F KetDBF=T FulRan=T
         wScrn=  0.000000 ICntrl=       500 IOpCl=  0 I1Cent=   200000004 NGrid=           0
         NMat0=    1 NMatS0=      1 NMatT0=    0 NMatD0=    1 NMtDS0=    0 NMtDT0=    0
 Petite list used in FoFCou.
 Harris En= -900.850079546489    
 JPrj=0 DoOrth=F DoCkMO=F.
 Leave Link  401 at Tue Sep 17 09:50:14 2024, MaxMem=  1342177280 cpu:               5.4 elap:               0.7
 (Enter /groups/ReismanLab/Software/Gaussian16_RevC/Linux_Binary_AVX2-enabled-CPU/g16/l502.exe)
 Integral symmetry usage will be decided dynamically.
 Closed shell SCF:
 Using DIIS extrapolation, IDIIS=  1040.
 NGot=  1342177280 LenX=  1342072249 LenY=  1342021632
 Requested convergence on RMS density matrix=1.00D-08 within  32 cycles.
 Requested convergence on MAX density matrix=1.00D-06.
 Requested convergence on             energy=1.00D-06.
 No special actions if energy rises.
 Fock matrices will be formed incrementally for  20 cycles.
 Integral accuracy reduced to 1.0D-05 until final iterations.

 Cycle   1  Pass 0  IDiag  1:
 FoFJK:  IHMeth= 1 ICntrl=       0 DoSepK=F KAlg= 0 I1Cent=           0 FoldK=F
 IRaf= 880000000 NMat=       1 IRICut=       1 DoRegI=T DoRafI=F ISym2E= 0 IDoP0=0 IntGTp=1.
 FoFCou: FMM=F IPFlag=           0 FMFlag=      100000 FMFlg1=           0
         NFxFlg=           0 DoJE=F BraDBF=F KetDBF=F FulRan=T
         wScrn=  0.000000 ICntrl=         0 IOpCl=  0 I1Cent=           0 NGrid=           0
         NMat0=    1 NMatS0=      1 NMatT0=    0 NMatD0=    1 NMtDS0=    0 NMtDT0=    0
 Symmetry not used in FoFCou.
 E= -900.613381610091    
 DIIS: error= 3.52D-02 at cycle   1 NSaved=   1.
 NSaved= 1 IEnMin= 1 EnMin= -900.613381610091     IErMin= 1 ErrMin= 3.52D-02
 ErrMax= 3.52D-02  0.00D+00 EMaxC= 1.00D-01 BMatC= 2.72D-01 BMatP= 2.72D-01
 IDIUse=3 WtCom= 6.48D-01 WtEn= 3.52D-01
 Coeff-Com:  0.100D+01
 Coeff-En:   0.100D+01
 Coeff:      0.100D+01
 Gap=     0.356 Goal=   None    Shift=    0.000
 GapD=    0.356 DampG=1.000 DampE=0.500 DampFc=0.5000 IDamp=-1.
 Damping current iteration by 5.00D-01
 RMSDP=6.21D-03 MaxDP=1.80D-01              OVMax= 2.40D-01

 Cycle   2  Pass 0  IDiag  1:
 RMSU=  3.05D-03    CP:  9.77D-01
 E= -900.733711851954     Delta-E=       -0.120330241863 Rises=F Damp=T
 DIIS: error= 1.07D-02 at cycle   2 NSaved=   2.
 NSaved= 2 IEnMin= 2 EnMin= -900.733711851954     IErMin= 2 ErrMin= 1.07D-02
 ErrMax= 1.07D-02  0.00D+00 EMaxC= 1.00D-01 BMatC= 2.17D-02 BMatP= 2.72D-01
 IDIUse=3 WtCom= 8.93D-01 WtEn= 1.07D-01
 Coeff-Com:  0.768D-01 0.923D+00
 Coeff-En:   0.160D+00 0.840D+00
 Coeff:      0.858D-01 0.914D+00
 Gap=     0.320 Goal=   None    Shift=    0.000
 RMSDP=1.99D-03 MaxDP=5.97D-02 DE=-1.20D-01 OVMax= 2.69D-01

 Cycle   3  Pass 0  IDiag  1:
 RMSU=  1.88D-03    CP:  9.62D-01  8.27D-01
 E= -900.881143978468     Delta-E=       -0.147432126514 Rises=F Damp=F
 DIIS: error= 8.18D-03 at cycle   3 NSaved=   3.
 NSaved= 3 IEnMin= 3 EnMin= -900.881143978468     IErMin= 3 ErrMin= 8.18D-03
 ErrMax= 8.18D-03  0.00D+00 EMaxC= 1.00D-01 BMatC= 2.07D-02 BMatP= 2.17D-02
 IDIUse=3 WtCom= 9.18D-01 WtEn= 8.18D-02
 Coeff-Com: -0.115D-01 0.496D+00 0.516D+00
 Coeff-En:   0.000D+00 0.000D+00 0.100D+01
 Coeff:     -0.105D-01 0.455D+00 0.555D+00
 Gap=     0.176 Goal=   None    Shift=    0.000
 RMSDP=1.13D-03 MaxDP=4.48D-02 DE=-1.47D-01 OVMax= 7.67D-02

 Cycle   4  Pass 0  IDiag  1:
 RMSU=  9.80D-04    CP:  9.64D-01  8.98D-01  7.20D-01
 E= -900.896019242814     Delta-E=       -0.014875264346 Rises=F Damp=F
 DIIS: error= 5.36D-03 at cycle   4 NSaved=   4.
 NSaved= 4 IEnMin= 4 EnMin= -900.896019242814     IErMin= 4 ErrMin= 5.36D-03
 ErrMax= 5.36D-03  0.00D+00 EMaxC= 1.00D-01 BMatC= 6.82D-03 BMatP= 2.07D-02
 IDIUse=3 WtCom= 9.46D-01 WtEn= 5.36D-02
 Coeff-Com: -0.189D-01 0.102D+00 0.373D+00 0.544D+00
 Coeff-En:   0.000D+00 0.000D+00 0.282D+00 0.718D+00
 Coeff:     -0.179D-01 0.965D-01 0.368D+00 0.554D+00
 Gap=     0.180 Goal=   None    Shift=    0.000
 RMSDP=4.85D-04 MaxDP=1.57D-02 DE=-1.49D-02 OVMax= 2.93D-02

 Cycle   5  Pass 0  IDiag  1:
 RMSU=  1.95D-04    CP:  9.64D-01  8.92D-01  7.88D-01  5.67D-01
 E= -900.902825827594     Delta-E=       -0.006806584780 Rises=F Damp=F
 DIIS: error= 7.88D-04 at cycle   5 NSaved=   5.
 NSaved= 5 IEnMin= 5 EnMin= -900.902825827594     IErMin= 5 ErrMin= 7.88D-04
 ErrMax= 7.88D-04  0.00D+00 EMaxC= 1.00D-01 BMatC= 1.70D-04 BMatP= 6.82D-03
 IDIUse=3 WtCom= 9.92D-01 WtEn= 7.88D-03
 Coeff-Com: -0.676D-02 0.205D-01 0.141D+00 0.257D+00 0.588D+00
 Coeff-En:   0.000D+00 0.000D+00 0.000D+00 0.000D+00 0.100D+01
 Coeff:     -0.671D-02 0.204D-01 0.140D+00 0.255D+00 0.591D+00
 Gap=     0.179 Goal=   None    Shift=    0.000
 RMSDP=1.07D-04 MaxDP=4.20D-03 DE=-6.81D-03 OVMax= 7.34D-03

 Cycle   6  Pass 0  IDiag  1:
 RMSU=  7.04D-05    CP:  9.63D-01  8.91D-01  7.95D-01  6.07D-01  6.55D-01
 E= -900.902973850391     Delta-E=       -0.000148022796 Rises=F Damp=F
 DIIS: error= 4.13D-04 at cycle   6 NSaved=   6.
 NSaved= 6 IEnMin= 6 EnMin= -900.902973850391     IErMin= 6 ErrMin= 4.13D-04
 ErrMax= 4.13D-04  0.00D+00 EMaxC= 1.00D-01 BMatC= 4.03D-05 BMatP= 1.70D-04
 IDIUse=3 WtCom= 9.96D-01 WtEn= 4.13D-03
 Coeff-Com: -0.229D-02 0.290D-02 0.552D-01 0.110D+00 0.373D+00 0.461D+00
 Coeff-En:   0.000D+00 0.000D+00 0.000D+00 0.000D+00 0.180D+00 0.820D+00
 Coeff:     -0.228D-02 0.288D-02 0.550D-01 0.109D+00 0.372D+00 0.463D+00
 Gap=     0.179 Goal=   None    Shift=    0.000
 RMSDP=4.23D-05 MaxDP=1.07D-03 DE=-1.48D-04 OVMax= 3.35D-03

 Cycle   7  Pass 0  IDiag  1:
 RMSU=  2.40D-05    CP:  9.63D-01  8.90D-01  7.96D-01  6.09D-01  7.25D-01
                    CP:  5.54D-01
 E= -900.903015628479     Delta-E=       -0.000041778089 Rises=F Damp=F
 DIIS: error= 1.84D-04 at cycle   7 NSaved=   7.
 NSaved= 7 IEnMin= 7 EnMin= -900.903015628479     IErMin= 7 ErrMin= 1.84D-04
 ErrMax= 1.84D-04  0.00D+00 EMaxC= 1.00D-01 BMatC= 3.85D-06 BMatP= 4.03D-05
 IDIUse=3 WtCom= 9.98D-01 WtEn= 1.84D-03
 Coeff-Com: -0.525D-03-0.746D-03 0.173D-01 0.355D-01 0.156D+00 0.278D+00
 Coeff-Com:  0.514D+00
 Coeff-En:   0.000D+00 0.000D+00 0.000D+00 0.000D+00 0.000D+00 0.392D-01
 Coeff-En:   0.961D+00
 Coeff:     -0.524D-03-0.744D-03 0.172D-01 0.354D-01 0.156D+00 0.278D+00
 Coeff:      0.515D+00
 Gap=     0.179 Goal=   None    Shift=    0.000
 RMSDP=1.31D-05 MaxDP=3.77D-04 DE=-4.18D-05 OVMax= 1.02D-03

 Cycle   8  Pass 0  IDiag  1:
 RMSU=  7.00D-06    CP:  9.63D-01  8.90D-01  7.97D-01  6.08D-01  7.21D-01
                    CP:  6.13D-01  6.02D-01
 E= -900.903019672829     Delta-E=       -0.000004044349 Rises=F Damp=F
 DIIS: error= 3.66D-05 at cycle   8 NSaved=   8.
 NSaved= 8 IEnMin= 8 EnMin= -900.903019672829     IErMin= 8 ErrMin= 3.66D-05
 ErrMax= 3.66D-05  0.00D+00 EMaxC= 1.00D-01 BMatC= 3.42D-07 BMatP= 3.85D-06
 IDIUse=1 WtCom= 1.00D+00 WtEn= 0.00D+00
 Coeff-Com:  0.985D-04-0.896D-03 0.196D-02 0.350D-02 0.291D-01 0.797D-01
 Coeff-Com:  0.271D+00 0.616D+00
 Coeff:      0.985D-04-0.896D-03 0.196D-02 0.350D-02 0.291D-01 0.797D-01
 Coeff:      0.271D+00 0.616D+00
 Gap=     0.179 Goal=   None    Shift=    0.000
 RMSDP=3.64D-06 MaxDP=1.32D-04 DE=-4.04D-06 OVMax= 2.51D-04

 Initial convergence to 1.0D-05 achieved.  Increase integral accuracy.
 Cycle   9  Pass 1  IDiag  1:
 E= -900.903020676953     Delta-E=       -0.000001004124 Rises=F Damp=F
 DIIS: error= 3.26D-05 at cycle   1 NSaved=   1.
 NSaved= 1 IEnMin= 1 EnMin= -900.903020676953     IErMin= 1 ErrMin= 3.26D-05
 ErrMax= 3.26D-05  0.00D+00 EMaxC= 1.00D-01 BMatC= 1.11D-07 BMatP= 1.11D-07
 IDIUse=1 WtCom= 1.00D+00 WtEn= 0.00D+00
 Coeff-Com:  0.100D+01
 Coeff:      0.100D+01
 Gap=     0.179 Goal=   None    Shift=    0.000
 RMSDP=3.64D-06 MaxDP=1.32D-04 DE=-1.00D-06 OVMax= 1.43D-04

 Cycle  10  Pass 1  IDiag  1:
 RMSU=  2.20D-05    CP:  1.00D+00
 E= -900.903020693269     Delta-E=       -0.000000016316 Rises=F Damp=F
 DIIS: error= 1.93D-05 at cycle   2 NSaved=   2.
 NSaved= 2 IEnMin= 2 EnMin= -900.903020693269     IErMin= 2 ErrMin= 1.93D-05
 ErrMax= 1.93D-05  0.00D+00 EMaxC= 1.00D-01 BMatC= 7.22D-08 BMatP= 1.11D-07
 IDIUse=1 WtCom= 1.00D+00 WtEn= 0.00D+00
 Coeff-Com:  0.429D+00 0.571D+00
 Coeff:      0.429D+00 0.571D+00
 Gap=     0.179 Goal=   None    Shift=    0.000
 RMSDP=2.40D-06 MaxDP=7.02D-05 DE=-1.63D-08 OVMax= 1.66D-04

 Cycle  11  Pass 1  IDiag  1:
 RMSU=  2.39D-06    CP:  1.00D+00  1.00D+00
 E= -900.903020743319     Delta-E=       -0.000000050050 Rises=F Damp=F
 DIIS: error= 1.28D-05 at cycle   3 NSaved=   3.
 NSaved= 3 IEnMin= 3 EnMin= -900.903020743319     IErMin= 3 ErrMin= 1.28D-05
 ErrMax= 1.28D-05  0.00D+00 EMaxC= 1.00D-01 BMatC= 2.88D-08 BMatP= 7.22D-08
 IDIUse=1 WtCom= 1.00D+00 WtEn= 0.00D+00
 Coeff-Com:  0.425D-01 0.382D+00 0.576D+00
 Coeff:      0.425D-01 0.382D+00 0.576D+00
 Gap=     0.179 Goal=   None    Shift=    0.000
 RMSDP=1.01D-06 MaxDP=2.96D-05 DE=-5.01D-08 OVMax= 6.41D-05

 Cycle  12  Pass 1  IDiag  1:
 RMSU=  5.00D-07    CP:  1.00D+00  1.01D+00  6.38D-01
 E= -900.903020772640     Delta-E=       -0.000000029321 Rises=F Damp=F
 DIIS: error= 2.82D-06 at cycle   4 NSaved=   4.
 NSaved= 4 IEnMin= 4 EnMin= -900.903020772640     IErMin= 4 ErrMin= 2.82D-06
 ErrMax= 2.82D-06  0.00D+00 EMaxC= 1.00D-01 BMatC= 2.18D-09 BMatP= 2.88D-08
 IDIUse=1 WtCom= 1.00D+00 WtEn= 0.00D+00
 Coeff-Com: -0.190D-02 0.193D+00 0.340D+00 0.469D+00
 Coeff:     -0.190D-02 0.193D+00 0.340D+00 0.469D+00
 Gap=     0.179 Goal=   None    Shift=    0.000
 RMSDP=2.61D-07 MaxDP=1.31D-05 DE=-2.93D-08 OVMax= 9.35D-06

 Cycle  13  Pass 1  IDiag  1:
 RMSU=  1.02D-07    CP:  1.00D+00  1.01D+00  6.47D-01  5.23D-01
 E= -900.903020774760     Delta-E=       -0.000000002120 Rises=F Damp=F
 DIIS: error= 4.36D-07 at cycle   5 NSaved=   5.
 NSaved= 5 IEnMin= 5 EnMin= -900.903020774760     IErMin= 5 ErrMin= 4.36D-07
 ErrMax= 4.36D-07  0.00D+00 EMaxC= 1.00D-01 BMatC= 5.89D-11 BMatP= 2.18D-09
 IDIUse=1 WtCom= 1.00D+00 WtEn= 0.00D+00
 Coeff-Com: -0.226D-02 0.968D-01 0.172D+00 0.264D+00 0.469D+00
 Coeff:     -0.226D-02 0.968D-01 0.172D+00 0.264D+00 0.469D+00
 Gap=     0.179 Goal=   None    Shift=    0.000
 RMSDP=4.59D-08 MaxDP=2.05D-06 DE=-2.12D-09 OVMax= 3.02D-06

 Cycle  14  Pass 1  IDiag  1:
 RMSU=  3.14D-08    CP:  1.00D+00  1.01D+00  6.44D-01  5.13D-01  6.86D-01
 E= -900.903020774802     Delta-E=       -0.000000000042 Rises=F Damp=F
 DIIS: error= 8.62D-08 at cycle   6 NSaved=   6.
 NSaved= 6 IEnMin= 6 EnMin= -900.903020774802     IErMin= 6 ErrMin= 8.62D-08
 ErrMax= 8.62D-08  0.00D+00 EMaxC= 1.00D-01 BMatC= 2.06D-12 BMatP= 5.89D-11
 IDIUse=1 WtCom= 1.00D+00 WtEn= 0.00D+00
 Coeff-Com: -0.878D-03 0.285D-01 0.505D-01 0.819D-01 0.194D+00 0.646D+00
 Coeff:     -0.878D-03 0.285D-01 0.505D-01 0.819D-01 0.194D+00 0.646D+00
 Gap=     0.179 Goal=   None    Shift=    0.000
 RMSDP=1.16D-08 MaxDP=3.48D-07 DE=-4.23D-11 OVMax= 1.28D-06

 Cycle  15  Pass 1  IDiag  1:
 RMSU=  1.05D-08    CP:  1.00D+00  1.01D+00  6.44D-01  5.15D-01  7.21D-01
                    CP:  9.14D-01
 E= -900.903020774823     Delta-E=       -0.000000000021 Rises=F Damp=F
 DIIS: error= 6.89D-08 at cycle   7 NSaved=   7.
 NSaved= 7 IEnMin= 7 EnMin= -900.903020774823     IErMin= 7 ErrMin= 6.89D-08
 ErrMax= 6.89D-08  0.00D+00 EMaxC= 1.00D-01 BMatC= 7.01D-13 BMatP= 2.06D-12
 IDIUse=1 WtCom= 1.00D+00 WtEn= 0.00D+00
 Coeff-Com: -0.447D-04-0.262D-02-0.513D-02-0.435D-02 0.146D-01 0.377D+00
 Coeff-Com:  0.620D+00
 Coeff:     -0.447D-04-0.262D-02-0.513D-02-0.435D-02 0.146D-01 0.377D+00
 Coeff:      0.620D+00
 Gap=     0.179 Goal=   None    Shift=    0.000
 RMSDP=6.11D-09 MaxDP=2.05D-07 DE=-2.07D-11 OVMax= 8.11D-07

 SCF Done:  E(RB3LYP) =  -900.903020775     A.U. after   15 cycles
            NFock= 15  Conv=0.61D-08     -V/T= 2.0059
 KE= 8.956424912759D+02 PE=-3.554788425905D+03 EE= 1.038278679531D+03
 Leave Link  502 at Tue Sep 17 09:50:26 2024, MaxMem=  1342177280 cpu:              92.7 elap:              12.1
 (Enter /groups/ReismanLab/Software/Gaussian16_RevC/Linux_Binary_AVX2-enabled-CPU/g16/l508.exe)
 QCSCF skips out because SCF is already converged.
 Leave Link  508 at Tue Sep 17 09:50:26 2024, MaxMem=  1342177280 cpu:               0.0 elap:               0.0
 (Enter /groups/ReismanLab/Software/Gaussian16_RevC/Linux_Binary_AVX2-enabled-CPU/g16/l601.exe)
 Copying SCF densities to generalized density rwf, IOpCl= 0 IROHF=0.

 **********************************************************************

            Population analysis using the SCF Density.

 **********************************************************************

 Orbital symmetries:
       Occupied  (A) (A) (A) (A) (A) (A) (A) (A) (A) (A) (A) (A)
                 (A) (A) (A) (A) (A) (A) (A) (A) (A) (A) (A) (A)
                 (A) (A) (A) (A) (A) (A) (A) (A) (A) (A) (A) (A)
                 (A) (A) (A) (A) (A) (A) (A) (A) (A) (A)
       Virtual   (A) (A) (A) (A) (A) (A) (A) (A) (A) (A) (A) (A)
                 (A) (A) (A) (A) (A) (A) (A) (A) (A) (A) (A) (A)
                 (A) (A) (A) (A) (A) (A) (A) (A) (A) (A) (A) (A)
                 (A) (A) (A) (A) (A) (A) (A) (A) (A) (A) (A) (A)
                 (A) (A) (A) (A) (A) (A) (A) (A) (A) (A) (A) (A)
                 (A) (A) (A) (A) (A) (A) (A) (A) (A) (A) (A) (A)
                 (A) (A) (A) (A) (A) (A) (A) (A) (A) (A) (A) (A)
                 (A) (A) (A) (A) (A) (A) (A) (A) (A) (A) (A) (A)
                 (A) (A) (A) (A) (A) (A) (A) (A) (A) (A) (A) (A)
                 (A) (A) (A) (A) (A) (A) (A) (A) (A) (A) (A) (A)
                 (A) (A) (A) (A) (A) (A) (A) (A) (A) (A) (A) (A)
                 (A) (A) (A) (A) (A) (A) (A) (A) (A) (A) (A) (A)
                 (A) (A) (A) (A) (A) (A) (A) (A) (A) (A) (A) (A)
                 (A) (A) (A) (A) (A) (A) (A) (A) (A) (A) (A) (A)
                 (A) (A) (A) (A) (A) (A) (A) (A) (A) (A)
 The electronic state is 1-A.
 Alpha  occ. eigenvalues -- -101.54292 -14.33226 -10.27854 -10.22980 -10.22415
 Alpha  occ. eigenvalues --  -10.20622 -10.20517 -10.19974 -10.19933 -10.19835
 Alpha  occ. eigenvalues --  -10.19784 -10.19190  -9.46049  -7.22415  -7.21499
 Alpha  occ. eigenvalues --   -7.21420  -0.97132  -0.87463  -0.84534  -0.83058
 Alpha  occ. eigenvalues --   -0.75298  -0.74647  -0.72569  -0.64221  -0.62889
 Alpha  occ. eigenvalues --   -0.59009  -0.54073  -0.52680  -0.49901  -0.47138
 Alpha  occ. eigenvalues --   -0.44917  -0.44428  -0.43608  -0.43032  -0.41952
 Alpha  occ. eigenvalues --   -0.40343  -0.39938  -0.37116  -0.36283  -0.35717
 Alpha  occ. eigenvalues --   -0.31543  -0.31089  -0.30326  -0.26663  -0.25141
 Alpha  occ. eigenvalues --   -0.23577
 Alpha virt. eigenvalues --   -0.05653  -0.02066   0.01966   0.05145   0.08408
 Alpha virt. eigenvalues --    0.08812   0.10949   0.13041   0.14766   0.16121
 Alpha virt. eigenvalues --    0.16366   0.18129   0.19142   0.19852   0.21864
 Alpha virt. eigenvalues --    0.25090   0.26831   0.29228   0.30763   0.31270
 Alpha virt. eigenvalues --    0.33068   0.34411   0.38259   0.40448   0.41959
 Alpha virt. eigenvalues --    0.44870   0.46740   0.48521   0.50047   0.50133
 Alpha virt. eigenvalues --    0.51141   0.52498   0.53308   0.54973   0.55316
 Alpha virt. eigenvalues --    0.55878   0.58578   0.58748   0.59439   0.60535
 Alpha virt. eigenvalues --    0.61194   0.61223   0.63224   0.65884   0.66143
 Alpha virt. eigenvalues --    0.66517   0.68816   0.69919   0.73031   0.73727
 Alpha virt. eigenvalues --    0.77832   0.78397   0.80047   0.81060   0.81991
 Alpha virt. eigenvalues --    0.82827   0.84316   0.84750   0.85473   0.87608
 Alpha virt. eigenvalues --    0.88139   0.88811   0.89251   0.93268   0.94906
 Alpha virt. eigenvalues --    0.95347   0.95689   0.98886   1.01420   1.03295
 Alpha virt. eigenvalues --    1.04922   1.06899   1.07966   1.11505   1.14127
 Alpha virt. eigenvalues --    1.17254   1.19712   1.22112   1.23992   1.24169
 Alpha virt. eigenvalues --    1.28036   1.28471   1.33186   1.34069   1.35676
 Alpha virt. eigenvalues --    1.40497   1.40753   1.42368   1.46539   1.46656
 Alpha virt. eigenvalues --    1.49900   1.54117   1.55799   1.58007   1.68660
 Alpha virt. eigenvalues --    1.70838   1.75461   1.77134   1.77633   1.80974
 Alpha virt. eigenvalues --    1.82009   1.86134   1.88306   1.89372   1.90887
 Alpha virt. eigenvalues --    1.90942   1.93039   1.93945   1.98313   1.99365
 Alpha virt. eigenvalues --    1.99596   2.01943   2.04000   2.06415   2.06662
 Alpha virt. eigenvalues --    2.10491   2.13255   2.15978   2.16181   2.17139
 Alpha virt. eigenvalues --    2.25631   2.25662   2.27992   2.29958   2.32434
 Alpha virt. eigenvalues --    2.34743   2.38251   2.38328   2.38881   2.42543
 Alpha virt. eigenvalues --    2.44852   2.45484   2.45945   2.46644   2.49818
 Alpha virt. eigenvalues --    2.54602   2.56446   2.58579   2.59223   2.63518
 Alpha virt. eigenvalues --    2.64051   2.68003   2.68753   2.70424   2.73562
 Alpha virt. eigenvalues --    2.75745   2.76989   2.80663   2.83972   2.85841
 Alpha virt. eigenvalues --    2.86859   2.95664   3.02801   3.08214   3.14964
 Alpha virt. eigenvalues --    3.18507   3.21068   3.24215   3.25146   3.34117
 Alpha virt. eigenvalues --    3.38427   3.41887   3.45941   3.50130   3.62189
 Alpha virt. eigenvalues --    3.88291   4.08594   4.10533   4.13546   4.14092
 Alpha virt. eigenvalues --    4.20267   4.27278   4.36809   4.41265   4.45710
 Alpha virt. eigenvalues --    4.46453   4.62542   4.88441
          Condensed to atoms (all electrons):
               1          2          3          4          5          6
     1  C    5.046644   0.370038  -0.076951   0.008976  -0.000212  -0.000230
     2  C    0.370038   4.889760   0.492904  -0.014757   0.003599  -0.058203
     3  C   -0.076951   0.492904   5.068647   0.411975  -0.080282  -0.026963
     4  C    0.008976  -0.014757   0.411975   4.907582   0.253615   0.462387
     5  Cl  -0.000212   0.003599  -0.080282   0.253615  16.900045  -0.081852
     6  N   -0.000230  -0.058203  -0.026963   0.462387  -0.081852   6.933493
     7  C    0.008447  -0.030217  -0.053775  -0.042988   0.003415   0.385385
     8  C   -0.000166   0.008888   0.001050   0.004215  -0.000337  -0.081418
     9  C   -0.000001  -0.000111   0.000019  -0.000240   0.000005   0.005647
    10  C    0.000276   0.009552  -0.000470   0.000064  -0.000001  -0.000566
    11  C   -0.019075  -0.100097   0.013891  -0.000629   0.000036   0.011709
    12  C   -0.068781   0.428442   0.014822  -0.045826   0.001271  -0.054315
    13  H    0.377775  -0.029678  -0.004147   0.000206  -0.000015  -0.000001
    14  H    0.370601  -0.024980   0.000494  -0.000254   0.000004   0.000019
    15  H    0.370608  -0.024979   0.000518  -0.000254   0.000004   0.000019
    16  H   -0.011332  -0.035213   0.364128  -0.042252   0.000718   0.005032
    17  H    0.000002  -0.000131  -0.000002   0.000322  -0.000035   0.000221
    18  H   -0.000000   0.000008   0.000000   0.000002  -0.000000  -0.000133
    19  H    0.000000  -0.000225   0.000002  -0.000000  -0.000000   0.000004
    20  H    0.006827  -0.015686   0.000008  -0.000001  -0.000000  -0.000115
               7          8          9         10         11         12
     1  C    0.008447  -0.000166  -0.000001   0.000276  -0.019075  -0.068781
     2  C   -0.030217   0.008888  -0.000111   0.009552  -0.100097   0.428442
     3  C   -0.053775   0.001050   0.000019  -0.000470   0.013891   0.014822
     4  C   -0.042988   0.004215  -0.000240   0.000064  -0.000629  -0.045826
     5  Cl   0.003415  -0.000337   0.000005  -0.000001   0.000036   0.001271
     6  N    0.385385  -0.081418   0.005647  -0.000566   0.011709  -0.054315
     7  C    4.754038   0.475365  -0.016075  -0.045952  -0.027158   0.401526
     8  C    0.475365   4.942673   0.540822  -0.027543  -0.052250  -0.059229
     9  C   -0.016075   0.540822   4.833854   0.503629  -0.028375  -0.036625
    10  C   -0.045952  -0.027543   0.503629   4.844384   0.513578   0.001339
    11  C   -0.027158  -0.052250  -0.028375   0.513578   5.074942   0.415415
    12  C    0.401526  -0.059229  -0.036625   0.001339   0.415415   4.922142
    13  H   -0.000138   0.000003  -0.000000  -0.000002   0.000214   0.003652
    14  H   -0.000163  -0.000007   0.000000   0.000059   0.002505  -0.003821
    15  H   -0.000162  -0.000007   0.000000   0.000059   0.002515  -0.003843
    16  H    0.000303   0.000014  -0.000000   0.000001  -0.000093   0.005892
    17  H   -0.029082   0.354858  -0.044262   0.005082   0.000081   0.007092
    18  H    0.003860  -0.035573   0.368389  -0.042285   0.005018   0.000748
    19  H    0.001051   0.004218  -0.041014   0.367943  -0.035319   0.003513
    20  H    0.004777   0.000493   0.004896  -0.043729   0.365415  -0.035937
              13         14         15         16         17         18
     1  C    0.377775   0.370601   0.370608  -0.011332   0.000002  -0.000000
     2  C   -0.029678  -0.024980  -0.024979  -0.035213  -0.000131   0.000008
     3  C   -0.004147   0.000494   0.000518   0.364128  -0.000002   0.000000
     4  C    0.000206  -0.000254  -0.000254  -0.042252   0.000322   0.000002
     5  Cl  -0.000015   0.000004   0.000004   0.000718  -0.000035  -0.000000
     6  N   -0.000001   0.000019   0.000019   0.005032   0.000221  -0.000133
     7  C   -0.000138  -0.000163  -0.000162   0.000303  -0.029082   0.003860
     8  C    0.000003  -0.000007  -0.000007   0.000014   0.354858  -0.035573
     9  C   -0.000000   0.000000   0.000000  -0.000000  -0.044262   0.368389
    10  C   -0.000002   0.000059   0.000059   0.000001   0.005082  -0.042285
    11  C    0.000214   0.002505   0.002515  -0.000093   0.000081   0.005018
    12  C    0.003652  -0.003821  -0.003843   0.005892   0.007092   0.000748
    13  H    0.580225  -0.026778  -0.026778   0.006330  -0.000000  -0.000000
    14  H   -0.026778   0.579651  -0.033498   0.000221  -0.000000   0.000000
    15  H   -0.026778  -0.033498   0.579667   0.000219  -0.000000   0.000000
    16  H    0.006330   0.000221   0.000219   0.602045  -0.000001   0.000000
    17  H   -0.000000  -0.000000  -0.000000  -0.000001   0.607911  -0.006559
    18  H   -0.000000   0.000000   0.000000   0.000000  -0.006559   0.620443
    19  H   -0.000000  -0.000001  -0.000001  -0.000000  -0.000178  -0.006062
    20  H   -0.000107   0.001445   0.001455  -0.000010   0.000019  -0.000214
              19         20
     1  C    0.000000   0.006827
     2  C   -0.000225  -0.015686
     3  C    0.000002   0.000008
     4  C   -0.000000  -0.000001
     5  Cl  -0.000000  -0.000000
     6  N    0.000004  -0.000115
     7  C    0.001051   0.004777
     8  C    0.004218   0.000493
     9  C   -0.041014   0.004896
    10  C    0.367943  -0.043729
    11  C   -0.035319   0.365415
    12  C    0.003513  -0.035937
    13  H   -0.000000  -0.000107
    14  H   -0.000001   0.001445
    15  H   -0.000001   0.001455
    16  H   -0.000000  -0.000010
    17  H   -0.000178   0.000019
    18  H   -0.006062  -0.000214
    19  H    0.622620  -0.006230
    20  H   -0.006230   0.630813
 Mulliken charges:
               1
     1  C   -0.383446
     2  C    0.131087
     3  C   -0.125869
     4  C    0.097858
     5  Cl   0.000022
     6  N   -0.500122
     7  C    0.207542
     8  C   -0.076068
     9  C   -0.090560
    10  C   -0.085419
    11  C   -0.142322
    12  C    0.102524
    13  H    0.119239
    14  H    0.134504
    15  H    0.134456
    16  H    0.103999
    17  H    0.104660
    18  H    0.092358
    19  H    0.089676
    20  H    0.085880
 Sum of Mulliken charges =  -0.00000
 Mulliken charges with hydrogens summed into heavy atoms:
               1
     1  C    0.004753
     2  C    0.131087
     3  C   -0.021870
     4  C    0.097858
     5  Cl   0.000022
     6  N   -0.500122
     7  C    0.207542
     8  C    0.028591
     9  C    0.001798
    10  C    0.004258
    11  C   -0.056442
    12  C    0.102524
 Electronic spatial extent (au):  <R**2>=           2395.8862
 Charge=             -0.0000 electrons
 Dipole moment (field-independent basis, Debye):
    X=             -2.7222    Y=              2.6879    Z=              0.0003  Tot=              3.8256
 Quadrupole moment (field-independent basis, Debye-Ang):
   XX=            -72.8404   YY=            -69.3863   ZZ=            -77.7909
   XY=              4.2396   XZ=             -0.0007   YZ=              0.0009
 Traceless Quadrupole moment (field-independent basis, Debye-Ang):
   XX=              0.4988   YY=              3.9529   ZZ=             -4.4517
   XY=              4.2396   XZ=             -0.0007   YZ=              0.0009
 Octapole moment (field-independent basis, Debye-Ang**2):
  XXX=            -17.8960  YYY=              6.4140  ZZZ=              0.0035  XYY=             -6.3435
  XXY=              1.5088  XXZ=              0.0015  XZZ=              8.7470  YZZ=              0.7269
  YYZ=              0.0013  XYZ=             -0.0027
 Hexadecapole moment (field-independent basis, Debye-Ang**3):
 XXXX=          -1988.2697 YYYY=           -959.4205 ZZZZ=            -86.0908 XXXY=             11.2497
 XXXZ=              0.0019 YYYX=             16.9832 YYYZ=              0.0034 ZZZX=              0.0043
 ZZZY=              0.0093 XXYY=           -487.6035 XXZZ=           -384.1820 YYZZ=           -187.3025
 XXYZ=             -0.0073 YYXZ=             -0.0012 ZZXY=             -9.7574
 N-N= 7.199642343233D+02 E-N=-3.554788430108D+03  KE= 8.956424912759D+02
 No NMR shielding tensors so no spin-rotation constants.
 Leave Link  601 at Tue Sep 17 09:50:26 2024, MaxMem=  1342177280 cpu:               0.7 elap:               0.1
 (Enter /groups/ReismanLab/Software/Gaussian16_RevC/Linux_Binary_AVX2-enabled-CPU/g16/l701.exe)
 ... and contract with generalized density number  0.
 Compute integral first derivatives.
 R6Disp: Adding Grimme-D3(BJ) dispersion energy 1st derivatives to the gradient.
 Leave Link  701 at Tue Sep 17 09:50:26 2024, MaxMem=  1342177280 cpu:               0.6 elap:               0.1
 (Enter /groups/ReismanLab/Software/Gaussian16_RevC/Linux_Binary_AVX2-enabled-CPU/g16/l702.exe)
 L702 exits ... SP integral derivatives will be done elsewhere.
 Leave Link  702 at Tue Sep 17 09:50:26 2024, MaxMem=  1342177280 cpu:               0.0 elap:               0.0
 (Enter /groups/ReismanLab/Software/Gaussian16_RevC/Linux_Binary_AVX2-enabled-CPU/g16/l703.exe)
 Integral derivatives from FoFJK, PRISM(SPDF).
 Compute integral first derivatives, UseDBF=F ICtDFT=           0.
 Calling FoFJK, ICntrl=      2127 FMM=F ISym2X=0 I1Cent= 0 IOpClX= 0 NMat=1 NMatS=1 NMatT=0.
 FoFJK:  IHMeth= 1 ICntrl=    2127 DoSepK=F KAlg= 0 I1Cent=           0 FoldK=F
 IRaf=         0 NMat=       1 IRICut=       1 DoRegI=T DoRafI=F ISym2E= 0 IDoP0=0 IntGTp=1.
 FoFCou: FMM=F IPFlag=           0 FMFlag=      100000 FMFlg1=         800
         NFxFlg=           0 DoJE=F BraDBF=F KetDBF=F FulRan=T
         wScrn=  0.000000 ICntrl=      2127 IOpCl=  0 I1Cent=           0 NGrid=           0
         NMat0=    1 NMatS0=      1 NMatT0=    0 NMatD0=    1 NMtDS0=    0 NMtDT0=    0
 Symmetry not used in FoFCou.
 Leave Link  703 at Tue Sep 17 09:50:30 2024, MaxMem=  1342177280 cpu:              26.6 elap:               3.4
 (Enter /groups/ReismanLab/Software/Gaussian16_RevC/Linux_Binary_AVX2-enabled-CPU/g16/l716.exe)
 Dipole        =-1.07098635D+00 1.05749196D+00 1.27808297D-04
 ***** Axes restored to original set *****
 -------------------------------------------------------------------
 Center     Atomic                   Forces (Hartrees/Bohr)
 Number     Number              X              Y              Z
 -------------------------------------------------------------------
      1        6           0.001116514    0.001281021   -0.000034801
      2        6           0.000523208   -0.000952734    0.000013726
      3        6           0.001248005   -0.003781092    0.000012942
      4        6          -0.010471294    0.000971194   -0.000027956
      5       17           0.019617132    0.002857510    0.000006096
      6        7           0.008169794    0.010865391    0.000006097
      7        6          -0.004053634   -0.002315617    0.000003934
      8        6           0.001304007    0.003762725    0.000003102
      9        6          -0.003723543    0.004637743    0.000004895
     10        6          -0.006788646   -0.001695501   -0.000006996
     11        6          -0.000126815   -0.006366283   -0.000003760
     12        6           0.000192354   -0.000291770   -0.000003230
     13        1           0.001786517   -0.003108790    0.000004792
     14        1          -0.002691403   -0.002515941   -0.002416119
     15        1          -0.002700637   -0.002516224    0.002433656
     16        1           0.002190286   -0.003185321    0.000002257
     17        1           0.002043654    0.003790238   -0.000000881
     18        1          -0.002335129    0.003377657   -0.000002288
     19        1          -0.003796752   -0.001169401    0.000002002
     20        1          -0.001503618   -0.003644805    0.000002533
 -------------------------------------------------------------------
 Cartesian Forces:  Max     0.019617132 RMS     0.004091580
 Leave Link  716 at Tue Sep 17 09:50:30 2024, MaxMem=  1342177280 cpu:               0.0 elap:               0.0
 (Enter /groups/ReismanLab/Software/Gaussian16_RevC/Linux_Binary_AVX2-enabled-CPU/g16/l103.exe)

 GradGradGradGradGradGradGradGradGradGradGradGradGradGradGradGradGradGrad
 Berny optimization.
 FormGI is forming the generalized inverse of G from B-inverse, IUseBI=4.
 Internal  Forces:  Max     0.019694673 RMS     0.004094132
 Search for a local minimum.
 Step number   1 out of a maximum of  111
 All quantities printed in internal units (Hartrees-Bohrs-Radians)
 RMS Force = .40941D-02 SwitMx=.10000D-02 MixMth= 1
 Mixed Optimization -- RFO/linear search
 Second derivative matrix not updated -- first step.
 ITU=  0
     Eigenvalues ---    0.00830   0.01587   0.01861   0.01907   0.01982
     Eigenvalues ---    0.02143   0.02168   0.02181   0.02226   0.02249
     Eigenvalues ---    0.02282   0.02316   0.02372   0.02390   0.02602
     Eigenvalues ---    0.07361   0.07403   0.16000   0.16000   0.16000
     Eigenvalues ---    0.16000   0.16000   0.16000   0.16000   0.16000
     Eigenvalues ---    0.22000   0.22558   0.23523   0.24492   0.25000
     Eigenvalues ---    0.25000   0.25000   0.25000   0.32889   0.33261
     Eigenvalues ---    0.34910   0.34917   0.35199   0.35984   0.36005
     Eigenvalues ---    0.36091   0.36194   0.36206   0.37614   0.40897
     Eigenvalues ---    0.41611   0.43170   0.43913   0.44738   0.48904
     Eigenvalues ---    0.49519   0.50776   0.53919   0.66251
 RFO step:  Lambda=-4.10779462D-03 EMin= 8.29750797D-03
 Linear search not attempted -- first point.
 Iteration  1 RMS(Cart)=  0.01936790 RMS(Int)=  0.00007161
 Iteration  2 RMS(Cart)=  0.00012203 RMS(Int)=  0.00001402
 Iteration  3 RMS(Cart)=  0.00000003 RMS(Int)=  0.00001402
 ITry= 1 IFail=0 DXMaxC= 1.11D-01 DCOld= 1.00D+10 DXMaxT= 3.00D-01 DXLimC= 3.00D+00 Rises=F
 Variable       Old X    -DE/DX   Delta X   Delta X   Delta X     New X
                                 (Linear)    (Quad)   (Total)
    R1        2.82547   0.00728   0.00000   0.02185   0.02185   2.84733
    R2        2.05354   0.00328   0.00000   0.00920   0.00920   2.06274
    R3        2.05820   0.00396   0.00000   0.01120   0.01120   2.06941
    R4        2.05810   0.00398   0.00000   0.01126   0.01126   2.06936
    R5        2.59204   0.00645   0.00000   0.01189   0.01189   2.60393
    R6        2.69031   0.00606   0.00000   0.01333   0.01332   2.70363
    R7        2.65667   0.01038   0.00000   0.02316   0.02317   2.67984
    R8        2.03779   0.00378   0.00000   0.01032   0.01032   2.04811
    R9        3.25595   0.01969   0.00000   0.05849   0.05849   3.31444
   R10        2.44813   0.00917   0.00000   0.01391   0.01392   2.46205
   R11        2.55078   0.01558   0.00000   0.02877   0.02878   2.57956
   R12        2.66151   0.00870   0.00000   0.01928   0.01928   2.68079
   R13        2.68767   0.00881   0.00000   0.02015   0.02015   2.70782
   R14        2.58376   0.01030   0.00000   0.02010   0.02010   2.60386
   R15        2.03761   0.00427   0.00000   0.01166   0.01166   2.04928
   R16        2.64949   0.01072   0.00000   0.02395   0.02395   2.67344
   R17        2.04073   0.00408   0.00000   0.01120   0.01120   2.05193
   R18        2.58652   0.00962   0.00000   0.01880   0.01880   2.60532
   R19        2.04107   0.00394   0.00000   0.01083   0.01083   2.05191
   R20        2.66232   0.00853   0.00000   0.01883   0.01883   2.68115
   R21        2.03940   0.00394   0.00000   0.01079   0.01079   2.05019
    A1        1.92880   0.00135   0.00000   0.00895   0.00889   1.93769
    A2        1.92699   0.00192   0.00000   0.01139   0.01134   1.93833
    A3        1.92717   0.00191   0.00000   0.01129   0.01124   1.93840
    A4        1.89659  -0.00157   0.00000  -0.00891  -0.00897   1.88762
    A5        1.89670  -0.00158   0.00000  -0.00897  -0.00902   1.88768
    A6        1.88662  -0.00222   0.00000  -0.01488  -0.01492   1.87170
    A7        2.10652   0.00037   0.00000   0.00336   0.00337   2.10989
    A8        2.11439  -0.00081   0.00000  -0.00127  -0.00126   2.11313
    A9        2.06228   0.00044   0.00000  -0.00209  -0.00211   2.06017
   A10        2.07242   0.00211   0.00000   0.00715   0.00714   2.07956
   A11        2.12261  -0.00188   0.00000  -0.00864  -0.00863   2.11398
   A12        2.08816  -0.00022   0.00000   0.00149   0.00149   2.08965
   A13        2.06844  -0.00328   0.00000  -0.01353  -0.01354   2.05491
   A14        2.18032  -0.00080   0.00000  -0.00192  -0.00191   2.17841
   A15        2.03443   0.00408   0.00000   0.01545   0.01545   2.04987
   A16        2.06037  -0.00264   0.00000  -0.00650  -0.00647   2.05390
   A17        2.05893   0.00067   0.00000   0.00289   0.00289   2.06182
   A18        2.13451   0.00064   0.00000   0.00404   0.00405   2.13855
   A19        2.08975  -0.00132   0.00000  -0.00694  -0.00694   2.08281
   A20        2.09868   0.00073   0.00000   0.00333   0.00333   2.10201
   A21        2.05581  -0.00093   0.00000  -0.00513  -0.00513   2.05068
   A22        2.12870   0.00021   0.00000   0.00180   0.00180   2.13050
   A23        2.09978  -0.00007   0.00000   0.00111   0.00111   2.10089
   A24        2.09945  -0.00045   0.00000  -0.00354  -0.00354   2.09591
   A25        2.08395   0.00052   0.00000   0.00243   0.00243   2.08638
   A26        2.10574  -0.00105   0.00000  -0.00350  -0.00350   2.10225
   A27        2.08349   0.00102   0.00000   0.00475   0.00475   2.08824
   A28        2.09395   0.00003   0.00000  -0.00125  -0.00125   2.09270
   A29        2.10683  -0.00009   0.00000  -0.00076  -0.00076   2.10607
   A30        2.09123  -0.00012   0.00000  -0.00063  -0.00062   2.09061
   A31        2.08512   0.00021   0.00000   0.00139   0.00139   2.08651
   A32        2.05648   0.00025   0.00000  -0.00068  -0.00070   2.05578
   A33        2.16112  -0.00205   0.00000  -0.00608  -0.00607   2.15505
   A34        2.06559   0.00180   0.00000   0.00676   0.00676   2.07235
    D1        0.00165   0.00000   0.00000  -0.00021  -0.00021   0.00144
    D2       -3.13995  -0.00000   0.00000  -0.00031  -0.00031  -3.14026
    D3       -2.09715  -0.00016   0.00000  -0.00229  -0.00229  -2.09944
    D4        1.04444  -0.00016   0.00000  -0.00238  -0.00239   1.04205
    D5        2.10071   0.00015   0.00000   0.00174   0.00174   2.10245
    D6       -1.04089   0.00015   0.00000   0.00164   0.00165  -1.03925
    D7       -3.14147  -0.00001   0.00000  -0.00023  -0.00023   3.14149
    D8        0.00003  -0.00000   0.00000  -0.00018  -0.00018  -0.00015
    D9        0.00013  -0.00000   0.00000  -0.00013  -0.00013  -0.00000
   D10       -3.14155  -0.00000   0.00000  -0.00008  -0.00008   3.14155
   D11        3.14150   0.00000   0.00000   0.00009   0.00009  -3.14159
   D12       -0.00012   0.00000   0.00000   0.00009   0.00009  -0.00003
   D13       -0.00010   0.00000   0.00000   0.00000   0.00000  -0.00010
   D14        3.14146   0.00000   0.00000   0.00000   0.00000   3.14146
   D15       -3.14142  -0.00001   0.00000  -0.00029  -0.00029   3.14148
   D16       -0.00010   0.00001   0.00000   0.00023   0.00023   0.00014
   D17        0.00027  -0.00001   0.00000  -0.00034  -0.00033  -0.00007
   D18        3.14158   0.00001   0.00000   0.00019   0.00019  -3.14142
   D19        0.00003  -0.00000   0.00000  -0.00017  -0.00017  -0.00014
   D20        3.14135   0.00001   0.00000   0.00034   0.00034  -3.14149
   D21        3.14159   0.00000   0.00000   0.00007   0.00007  -3.14153
   D22        0.00000   0.00000   0.00000   0.00002   0.00002   0.00003
   D23        3.14157  -0.00000   0.00000  -0.00006  -0.00006   3.14151
   D24       -0.00005  -0.00000   0.00000  -0.00001  -0.00001  -0.00006
   D25       -0.00003  -0.00000   0.00000  -0.00002  -0.00002  -0.00005
   D26        3.14153   0.00000   0.00000   0.00003   0.00003   3.14157
   D27        0.00003   0.00000   0.00000   0.00006   0.00006   0.00009
   D28       -3.14153   0.00000   0.00000   0.00006   0.00006  -3.14147
   D29       -3.14155   0.00000   0.00000   0.00002   0.00002  -3.14154
   D30        0.00007   0.00000   0.00000   0.00002   0.00002   0.00008
   D31       -0.00001  -0.00000   0.00000  -0.00000  -0.00000  -0.00001
   D32        3.14153   0.00000   0.00000   0.00005   0.00005   3.14159
   D33       -3.14158  -0.00000   0.00000  -0.00006  -0.00006   3.14155
   D34       -0.00003  -0.00000   0.00000  -0.00000  -0.00000  -0.00003
   D35        0.00002   0.00000   0.00000   0.00003   0.00003   0.00004
   D36       -3.14149  -0.00000   0.00000  -0.00005  -0.00005  -3.14154
   D37       -3.14153  -0.00000   0.00000  -0.00003  -0.00003  -3.14156
   D38        0.00015  -0.00000   0.00000  -0.00010  -0.00010   0.00005
   D39        0.00003  -0.00000   0.00000  -0.00003  -0.00003  -0.00000
   D40       -3.14145  -0.00000   0.00000  -0.00009  -0.00009  -3.14154
   D41        3.14153   0.00000   0.00000   0.00005   0.00005   3.14158
   D42        0.00005  -0.00000   0.00000  -0.00001  -0.00001   0.00004
   D43        3.14156   0.00000   0.00000   0.00001   0.00001   3.14157
   D44       -0.00007   0.00000   0.00000   0.00001   0.00001  -0.00006
   D45       -0.00015   0.00000   0.00000   0.00007   0.00007  -0.00008
   D46        3.14141   0.00000   0.00000   0.00007   0.00007   3.14148
         Item               Value     Threshold  Converged?
 Maximum Force            0.019695     0.000450     NO 
 RMS     Force            0.004094     0.000300     NO 
 Maximum Displacement     0.110805     0.001800     NO 
 RMS     Displacement     0.019404     0.001200     NO 
 Predicted change in Energy=-2.075956D-03
 Lowest energy point so far.  Saving SCF results.
 GradGradGradGradGradGradGradGradGradGradGradGradGradGradGradGradGradGrad

 Leave Link  103 at Tue Sep 17 09:50:30 2024, MaxMem=  1342177280 cpu:               0.1 elap:               0.0
 (Enter /groups/ReismanLab/Software/Gaussian16_RevC/Linux_Binary_AVX2-enabled-CPU/g16/l202.exe)
                          Input orientation:                          
 ---------------------------------------------------------------------
 Center     Atomic      Atomic             Coordinates (Angstroms)
 Number     Number       Type             X           Y           Z
 ---------------------------------------------------------------------
      1          6           0       -0.475277   -3.020452    0.000029
      2          6           0       -0.067133   -1.570043    0.000081
      3          6           0        1.262785   -1.209433    0.000069
      4          6           0        1.605355    0.166676   -0.000010
      5         17           0        3.308956    0.583806    0.000148
      6          7           0        0.747048    1.146856    0.000072
      7          6           0       -0.580125    0.827551    0.000071
      8          6           0       -1.523115    1.887379    0.000078
      9          6           0       -2.874660    1.619146   -0.000022
     10          6           0       -3.338676    0.282686   -0.000152
     11          6           0       -2.445070   -0.767176   -0.000130
     12          6           0       -1.046693   -0.527279    0.000018
     13          1           0        0.399472   -3.673369    0.001450
     14          1           0       -1.078045   -3.259561   -0.882414
     15          1           0       -1.080551   -3.258990    0.880877
     16          1           0        2.046256   -1.958319    0.000157
     17          1           0       -1.137262    2.900841    0.000142
     18          1           0       -3.591486    2.434742   -0.000009
     19          1           0       -4.406315    0.084803   -0.000281
     20          1           0       -2.812818   -1.787865   -0.000280
 ---------------------------------------------------------------------
                    Distance matrix (angstroms):
                    1          2          3          4          5
     1  C    0.000000
     2  C    1.506741   0.000000
     3  C    2.510109   1.377941   0.000000
     4  C    3.806154   2.411100   1.418108   0.000000
     5  Cl   5.226002   4.004627   2.720758   1.753926   0.000000
     6  N    4.342871   2.836270   2.412070   1.302860   2.623051
     7  C    3.849431   2.451860   2.746930   2.283216   3.896711
     8  C    5.018442   3.751486   4.165511   3.570454   5.004819
     9  C    5.223304   4.248898   5.011917   4.709585   6.269691
    10  C    4.371473   3.759734   4.837341   4.945392   6.654449
    11  C    2.992881   2.509817   3.734137   4.156684   5.910496
    12  C    2.557817   1.430697   2.408116   2.741337   4.495130
    13  H    1.091553   2.154461   2.610802   4.024934   5.156417
    14  H    1.095083   2.157594   3.234390   4.440536   5.898827
    15  H    1.095057   2.157628   3.235387   4.441310   5.900045
    16  H    2.736102   2.148760   1.083816   2.170253   2.838453
    17  H    5.958182   4.597170   4.759683   3.872674   5.013732
    18  H    6.282507   5.334732   6.069923   5.670210   7.144373
    19  H    5.009558   4.644031   5.814959   6.012227   7.731391
    20  H    2.642607   2.754312   4.116446   4.831198   6.565130
                    6          7          8          9         10
     6  N    0.000000
     7  C    1.365043   0.000000
     8  C    2.387889   1.418614   0.000000
     9  C    3.652372   2.427243   1.377904   0.000000
    10  C    4.176114   2.811847   2.423077   1.414721   0.000000
    11  C    3.721980   2.453808   2.810100   2.424681   1.378674
    12  C    2.453616   1.432917   2.461209   2.819326   2.430891
    13  H    4.832740   4.606288   5.883728   6.223395   5.442805
    14  H    4.850386   4.210841   5.240979   5.273349   4.293757
    15  H    4.850506   4.210233   5.239922   5.271719   4.291714
    16  H    3.366014   3.828701   5.246885   6.083886   5.832632
    17  H    2.574313   2.146842   1.084430   2.159002   3.420666
    18  H    4.525652   3.413409   2.139571   1.085835   2.166855
    19  H    5.261664   3.897616   3.400312   2.167989   1.085822
    20  H    4.613591   3.438796   3.894964   3.407571   2.136283
                   11         12         13         14         15
    11  C    0.000000
    12  C    1.418805   0.000000
    13  H    4.066618   3.462553   0.000000
    14  H    2.976435   2.871416   1.770737   0.000000
    15  H    2.974428   2.870418   1.770754   1.763293   0.000000
    16  H    4.646593   3.407963   2.377665   3.497630   3.499190
    17  H    3.894189   3.429316   6.751428   6.223581   6.222734
    18  H    3.400963   3.905066   7.296353   6.286582   6.284850
    19  H    2.138306   3.414924   6.100775   4.800032   4.797718
    20  H    1.084916   2.169855   3.724774   2.439977   2.437498
                   16         17         18         19         20
    16  H    0.000000
    17  H    5.809150   0.000000
    18  H    7.147246   2.498092   0.000000
    19  H    6.768310   4.314716   2.487199   0.000000
    20  H    4.862063   4.979101   4.293801   2.458885   0.000000
 Stoichiometry    C10H8ClN
 Framework group  C1[X(C10H8ClN)]
 Deg. of freedom    54
 Full point group                 C1      NOp   1
 RotChk:  IX=0 Diff= 1.35D-04
 Largest Abelian subgroup         C1      NOp   1
 Largest concise Abelian subgroup C1      NOp   1
                         Standard orientation:                         
 ---------------------------------------------------------------------
 Center     Atomic      Atomic             Coordinates (Angstroms)
 Number     Number       Type             X           Y           Z
 ---------------------------------------------------------------------
      1          6           0       -0.339607    2.979579    0.000002
      2          6           0        0.039817    1.521393   -0.000050
      3          6           0        1.362355    1.134593   -0.000038
      4          6           0        1.677685   -0.248012    0.000041
      5         17           0        3.372717   -0.698701   -0.000117
      6          7           0        0.800190   -1.211052   -0.000041
      7          6           0       -0.520419   -0.865603   -0.000040
      8          6           0       -1.484153   -1.906604   -0.000047
      9          6           0       -2.830137   -1.611735    0.000053
     10          6           0       -3.267673   -0.266373    0.000183
     11          6           0       -2.353510    0.765639    0.000161
     12          6           0       -0.960143    0.498176    0.000013
     13          1           0        0.547864    3.615095   -0.001419
     14          1           0       -0.937536    3.230543    0.882445
     15          1           0       -0.940053    3.230022   -0.880846
     16          1           0        2.160461    1.867863   -0.000126
     17          1           0       -1.118387   -2.927487   -0.000111
     18          1           0       -3.562929   -2.413018    0.000041
     19          1           0       -4.331196   -0.047447    0.000312
     20          1           0       -2.701032    1.793390    0.000311
 ---------------------------------------------------------------------
 Rotational constants (GHZ):           1.4899761           0.5992503           0.4285035
 Leave Link  202 at Tue Sep 17 09:50:30 2024, MaxMem=  1342177280 cpu:               0.0 elap:               0.0
 (Enter /groups/ReismanLab/Software/Gaussian16_RevC/Linux_Binary_AVX2-enabled-CPU/g16/l301.exe)
 Standard basis: 6-31G(d,p) (6D, 7F)
 Ernie: Thresh=  0.10000D-02 Tol=  0.10000D-05 Strict=F.
 There are   224 symmetry adapted cartesian basis functions of A   symmetry.
 There are   224 symmetry adapted basis functions of A   symmetry.
   224 basis functions,   416 primitive gaussians,   224 cartesian basis functions
    46 alpha electrons       46 beta electrons
       nuclear repulsion energy       713.8423713942 Hartrees.
 IExCor=  402 DFT=T Ex+Corr=B3LYP ExCW=0 ScaHFX=  0.200000
 ScaDFX=  0.800000  0.720000  1.000000  0.810000 ScalE2=  1.000000  1.000000
 IRadAn=      5 IRanWt=     -1 IRanGd=            0 ICorTp=0 IEmpDi=141
 NAtoms=   20 NActive=   20 NUniq=   20 SFac= 1.00D+00 NAtFMM=   60 NAOKFM=F Big=F
 Integral buffers will be    131072 words long.
 Raffenetti 2 integral format.
 Two-electron integral symmetry is turned on.
 R6Disp:  Grimme-D3(BJ) Dispersion energy=       -0.0441324390 Hartrees.
 Nuclear repulsion after empirical dispersion term =      713.7982389552 Hartrees.
 Leave Link  301 at Tue Sep 17 09:50:30 2024, MaxMem=  1342177280 cpu:               0.1 elap:               0.0
 (Enter /groups/ReismanLab/Software/Gaussian16_RevC/Linux_Binary_AVX2-enabled-CPU/g16/l302.exe)
 NPDir=0 NMtPBC=     1 NCelOv=     1 NCel=       1 NClECP=     1 NCelD=      1
         NCelK=      1 NCelE2=     1 NClLst=     1 CellRange=     0.0.
 One-electron integrals computed using PRISM.
 One-electron integral symmetry used in STVInt
 NBasis=   224 RedAO= T EigKep=  3.83D-04  NBF=   224
 NBsUse=   224 1.00D-06 EigRej= -1.00D+00 NBFU=   224
 Precomputing XC quadrature grid using
 IXCGrd= 4 IRadAn=           5 IRanWt=          -1 IRanGd=           0 AccXCQ= 0.00D+00.
 Generated NRdTot=       0 NPtTot=           0 NUsed=           0 NTot=          32
 NSgBfM=   223   223   223   223   223 MxSgAt=    20 MxSgA2=    20.
 Leave Link  302 at Tue Sep 17 09:50:30 2024, MaxMem=  1342177280 cpu:               1.0 elap:               0.2
 (Enter /groups/ReismanLab/Software/Gaussian16_RevC/Linux_Binary_AVX2-enabled-CPU/g16/l303.exe)
 DipDrv:  MaxL=1.
 Leave Link  303 at Tue Sep 17 09:50:30 2024, MaxMem=  1342177280 cpu:               0.1 elap:               0.0
 (Enter /groups/ReismanLab/Software/Gaussian16_RevC/Linux_Binary_AVX2-enabled-CPU/g16/l401.exe)
 Initial guess from the checkpoint file:  "smiles_00079_conf_0.chk"
 B after Tr=    -0.000000    0.000000    0.000000
         Rot=    1.000000   -0.000006   -0.000015   -0.000851 Ang=  -0.10 deg.
 Guess basis will be translated and rotated to current coordinates.
 JPrj=2 DoOrth=T DoCkMO=T.
 Generating alternative initial guess.
 ExpMin= 1.43D-01 ExpMax= 2.52D+04 ExpMxC= 3.78D+03 IAcc=3 IRadAn=         5 AccDes= 0.00D+00
 Harris functional with IExCor=  402 and IRadAn=       5 diagonalized for initial guess.
 HarFok:  IExCor=  402 AccDes= 0.00D+00 IRadAn=         5 IDoV= 1 UseB2=F ITyADJ=14
 ICtDFT=  3500011 ScaDFX=  1.000000  1.000000  1.000000  1.000000
 FoFCou: FMM=F IPFlag=           0 FMFlag=      100000 FMFlg1=           0
         NFxFlg=           0 DoJE=T BraDBF=F KetDBF=T FulRan=T
         wScrn=  0.000000 ICntrl=       500 IOpCl=  0 I1Cent=   200000004 NGrid=           0
         NMat0=    1 NMatS0=      1 NMatT0=    0 NMatD0=    1 NMtDS0=    0 NMtDT0=    0
 Petite list used in FoFCou.
 Harris En= -900.841593335538    
 Leave Link  401 at Tue Sep 17 09:50:31 2024, MaxMem=  1342177280 cpu:               4.6 elap:               0.6
 (Enter /groups/ReismanLab/Software/Gaussian16_RevC/Linux_Binary_AVX2-enabled-CPU/g16/l502.exe)
 Integral symmetry usage will be decided dynamically.
 Closed shell SCF:
 Using DIIS extrapolation, IDIIS=  1040.
 NGot=  1342177280 LenX=  1342072249 LenY=  1342021632
 Requested convergence on RMS density matrix=1.00D-08 within  32 cycles.
 Requested convergence on MAX density matrix=1.00D-06.
 Requested convergence on             energy=1.00D-06.
 No special actions if energy rises.
 Fock matrices will be formed incrementally for  20 cycles.
 Integral accuracy reduced to 1.0D-05 until final iterations.

 Cycle   1  Pass 0  IDiag  1:
 FoFJK:  IHMeth= 1 ICntrl=       0 DoSepK=F KAlg= 0 I1Cent=           0 FoldK=F
 IRaf= 880000000 NMat=       1 IRICut=       1 DoRegI=T DoRafI=F ISym2E= 0 IDoP0=0 IntGTp=1.
 FoFCou: FMM=F IPFlag=           0 FMFlag=      100000 FMFlg1=           0
         NFxFlg=           0 DoJE=F BraDBF=F KetDBF=F FulRan=T
         wScrn=  0.000000 ICntrl=         0 IOpCl=  0 I1Cent=           0 NGrid=           0
         NMat0=    1 NMatS0=      1 NMatT0=    0 NMatD0=    1 NMtDS0=    0 NMtDT0=    0
 Symmetry not used in FoFCou.
 E= -900.904293364772    
 DIIS: error= 1.03D-03 at cycle   1 NSaved=   1.
 NSaved= 1 IEnMin= 1 EnMin= -900.904293364772     IErMin= 1 ErrMin= 1.03D-03
 ErrMax= 1.03D-03  0.00D+00 EMaxC= 1.00D-01 BMatC= 4.93D-04 BMatP= 4.93D-04
 IDIUse=3 WtCom= 9.90D-01 WtEn= 1.03D-02
 Coeff-Com:  0.100D+01
 Coeff-En:   0.100D+01
 Coeff:      0.100D+01
 Gap=     1.874 Goal=   None    Shift=    0.000
 GapD=    1.874 DampG=2.000 DampE=1.000 DampFc=2.0000 IDamp=-1.
 RMSDP=3.23D-04 MaxDP=6.80D-03              OVMax= 7.81D-03

 Cycle   2  Pass 0  IDiag  1:
 RMSU=  3.18D-04    CP:  9.98D-01
 E= -900.904874918503     Delta-E=       -0.000581553732 Rises=F Damp=F
 DIIS: error= 6.25D-04 at cycle   2 NSaved=   2.
 NSaved= 2 IEnMin= 2 EnMin= -900.904874918503     IErMin= 2 ErrMin= 6.25D-04
[...]
 End of Minotr F.D. properties file   788 does not exist.
 Leave Link 1002 at Tue Sep 17 10:47:01 2024, MaxMem=  1342177280 cpu:             855.7 elap:             858.3
 (Enter /groups/ReismanLab/Software/Gaussian16_RevC/Linux_Binary_AVX2-enabled-CPU/g16/l601.exe)
 Copying SCF densities to generalized density rwf, IOpCl= 0 IROHF=0.

 **********************************************************************

            Population analysis using the SCF Density.

 **********************************************************************

 Orbital symmetries:
       Occupied  (A) (A) (A) (A) (A) (A) (A) (A) (A) (A) (A) (A)
                 (A) (A) (A) (A) (A) (A) (A) (A) (A) (A) (A) (A)
                 (A) (A) (A) (A) (A) (A) (A) (A) (A) (A) (A) (A)
                 (A) (A) (A) (A) (A) (A) (A) (A) (A) (A)
       Virtual   (A) (A) (A) (A) (A) (A) (A) (A) (A) (A) (A) (A)
                 (A) (A) (A) (A) (A) (A) (A) (A) (A) (A) (A) (A)
                 (A) (A) (A) (A) (A) (A) (A) (A) (A) (A) (A) (A)
                 (A) (A) (A) (A) (A) (A) (A) (A) (A) (A) (A) (A)
                 (A) (A) (A) (A) (A) (A) (A) (A) (A) (A) (A) (A)
                 (A) (A) (A) (A) (A) (A) (A) (A) (A) (A) (A) (A)
                 (A) (A) (A) (A) (A) (A) (A) (A) (A) (A) (A) (A)
                 (A) (A) (A) (A) (A) (A) (A) (A) (A) (A) (A) (A)
                 (A) (A) (A) (A) (A) (A) (A) (A) (A) (A) (A) (A)
                 (A) (A) (A) (A) (A) (A) (A) (A) (A) (A) (A) (A)
                 (A) (A) (A) (A) (A) (A) (A) (A) (A) (A) (A) (A)
                 (A) (A) (A) (A) (A) (A) (A) (A) (A) (A) (A) (A)
                 (A) (A) (A) (A) (A) (A) (A) (A) (A) (A) (A) (A)
                 (A) (A) (A) (A) (A) (A) (A) (A) (A) (A) (A) (A)
                 (A) (A) (A) (A) (A) (A) (A) (A) (A) (A) (A) (A)
                 (A) (A) (A) (A) (A) (A) (A) (A) (A) (A) (A) (A)
                 (A) (A) (A) (A) (A) (A) (A) (A) (A) (A) (A) (A)
                 (A) (A) (A) (A) (A) (A) (A) (A) (A) (A) (A) (A)
                 (A) (A) (A) (A) (A) (A) (A) (A) (A) (A) (A) (A)
                 (A) (A) (A) (A) (A) (A) (A) (A) (A) (A) (A) (A)
                 (A) (A) (A) (A) (A) (A) (A) (A) (A) (A) (A) (A)
                 (A) (A) (A) (A) (A) (A) (A) (A) (A) (A) (A) (A)
                 (A) (A) (A) (A) (A) (A) (A) (A) (A) (A) (A) (A)
                 (A) (A) (A) (A) (A) (A) (A) (A) (A) (A) (A) (A)
                 (A) (A) (A) (A) (A) (A) (A) (A) (A) (A) (A) (A)
                 (A) (A) (A) (A) (A) (A) (A) (A) (A) (A) (A) (A)
                 (A) (A) (A) (A) (A) (A) (A) (A) (A) (A) (A) (A)
                 (A) (A) (A) (A) (A) (A) (A) (A) (A) (A) (A) (A)
                 (A) (A) (A) (A) (A) (A) (A) (A) (A) (A) (A) (A)
                 (A) (A) (A) (A) (A) (A) (A) (A) (A) (A) (A) (A)
                 (A) (A) (A) (A) (A) (A) (A) (A) (A) (A) (A) (A)
                 (A) (A) (A) (A) (A) (A) (A) (A)
 The electronic state is 1-A.
 Alpha  occ. eigenvalues -- -102.64430 -14.76049 -10.64266 -10.59070 -10.58126
 Alpha  occ. eigenvalues --  -10.56420 -10.55955 -10.55440 -10.55267 -10.55167
 Alpha  occ. eigenvalues --  -10.54798 -10.54407  -9.80707  -7.52890  -7.52403
 Alpha  occ. eigenvalues --   -7.52372  -1.08024  -0.97260  -0.94251  -0.92684
 Alpha  occ. eigenvalues --   -0.84656  -0.84081  -0.81248  -0.72500  -0.71149
 Alpha  occ. eigenvalues --   -0.66967  -0.61350  -0.60056  -0.56981  -0.53833
 Alpha  occ. eigenvalues --   -0.51894  -0.51037  -0.49798  -0.49200  -0.48430
 Alpha  occ. eigenvalues --   -0.46555  -0.45684  -0.44036  -0.42401  -0.41359
 Alpha  occ. eigenvalues --   -0.38304  -0.38156  -0.36367  -0.34371  -0.30464
 Alpha  occ. eigenvalues --   -0.29049
 Alpha virt. eigenvalues --   -0.03533  -0.00148   0.04210   0.07053   0.07339
 Alpha virt. eigenvalues --    0.09427   0.11044   0.11194   0.11624   0.12658
 Alpha virt. eigenvalues --    0.14217   0.14991   0.15702   0.16482   0.17027
 Alpha virt. eigenvalues --    0.17977   0.21423   0.21495   0.22160   0.22524
 Alpha virt. eigenvalues --    0.23774   0.23966   0.24354   0.25597   0.26509
 Alpha virt. eigenvalues --    0.26679   0.28540   0.29658   0.29804   0.30623
 Alpha virt. eigenvalues --    0.31985   0.32183   0.32828   0.33223   0.35362
 Alpha virt. eigenvalues --    0.35713   0.36173   0.36324   0.37694   0.38595
 Alpha virt. eigenvalues --    0.39308   0.40111   0.40234   0.40475   0.41371
 Alpha virt. eigenvalues --    0.42382   0.42478   0.42511   0.44363   0.45845
 Alpha virt. eigenvalues --    0.46476   0.46649   0.48416   0.48912   0.49207
 Alpha virt. eigenvalues --    0.49877   0.49909   0.50944   0.51072   0.52020
 Alpha virt. eigenvalues --    0.52273   0.54902   0.56322   0.56899   0.57580
 Alpha virt. eigenvalues --    0.59551   0.60158   0.60295   0.62475   0.63155
 Alpha virt. eigenvalues --    0.63562   0.64190   0.65557   0.66760   0.68558
 Alpha virt. eigenvalues --    0.70394   0.71149   0.71725   0.72593   0.74460
 Alpha virt. eigenvalues --    0.75170   0.75263   0.75913   0.76997   0.78545
 Alpha virt. eigenvalues --    0.79049   0.80010   0.81209   0.81420   0.83448
 Alpha virt. eigenvalues --    0.86028   0.87081   0.87457   0.90559   0.91215
 Alpha virt. eigenvalues --    0.92217   0.93399   0.93795   0.95328   0.98274
 Alpha virt. eigenvalues --    0.99665   1.00679   1.02981   1.03217   1.05892
 Alpha virt. eigenvalues --    1.07788   1.09651   1.10226   1.12190   1.14076
 Alpha virt. eigenvalues --    1.14837   1.16671   1.17820   1.20191   1.22287
 Alpha virt. eigenvalues --    1.22426   1.24527   1.26427   1.26505   1.28813
 Alpha virt. eigenvalues --    1.30065   1.30284   1.32882   1.35286   1.35940
 Alpha virt. eigenvalues --    1.36881   1.38413   1.40057   1.44819   1.45597
 Alpha virt. eigenvalues --    1.46229   1.48325   1.49620   1.50158   1.50434
 Alpha virt. eigenvalues --    1.51528   1.53514   1.54791   1.54851   1.56738
 Alpha virt. eigenvalues --    1.57896   1.58513   1.59265   1.60061   1.62244
 Alpha virt. eigenvalues --    1.63090   1.66177   1.66495   1.68449   1.68536
 Alpha virt. eigenvalues --    1.72514   1.73208   1.73747   1.74412   1.75436
 Alpha virt. eigenvalues --    1.76137   1.79479   1.79853   1.80508   1.83092
 Alpha virt. eigenvalues --    1.83581   1.85281   1.88289   1.88320   1.89190
 Alpha virt. eigenvalues --    1.89805   1.91703   1.93160   1.96682   1.98081
 Alpha virt. eigenvalues --    1.98461   2.00129   2.02059   2.02183   2.03514
 Alpha virt. eigenvalues --    2.03795   2.08272   2.10956   2.11596   2.11780
 Alpha virt. eigenvalues --    2.12934   2.14536   2.15795   2.17715   2.19562
 Alpha virt. eigenvalues --    2.19633   2.19875   2.21063   2.23470   2.23698
 Alpha virt. eigenvalues --    2.25809   2.26677   2.28615   2.28718   2.30688
 Alpha virt. eigenvalues --    2.31541   2.33455   2.34316   2.36081   2.37783
 Alpha virt. eigenvalues --    2.38288   2.41494   2.42171   2.44601   2.48457
 Alpha virt. eigenvalues --    2.49283   2.50462   2.52946   2.53588   2.54548
 Alpha virt. eigenvalues --    2.57231   2.59850   2.59986   2.61198   2.62824
 Alpha virt. eigenvalues --    2.64026   2.64063   2.66432   2.66684   2.69187
 Alpha virt. eigenvalues --    2.70241   2.72487   2.73312   2.73837   2.76324
 Alpha virt. eigenvalues --    2.76642   2.77202   2.80197   2.81298   2.81330
 Alpha virt. eigenvalues --    2.82266   2.85789   2.88241   2.88481   2.90145
 Alpha virt. eigenvalues --    2.92396   2.92805   2.93657   2.94363   2.94716
 Alpha virt. eigenvalues --    2.96377   2.96585   2.98703   2.99416   3.02217
 Alpha virt. eigenvalues --    3.03398   3.04797   3.05167   3.07301   3.07984
 Alpha virt. eigenvalues --    3.09183   3.10417   3.11406   3.12147   3.14395
 Alpha virt. eigenvalues --    3.17343   3.17346   3.17625   3.18533   3.20818
 Alpha virt. eigenvalues --    3.22106   3.23309   3.23542   3.25759   3.26190
 Alpha virt. eigenvalues --    3.27910   3.28094   3.29168   3.30019   3.31074
 Alpha virt. eigenvalues --    3.31481   3.33788   3.34396   3.34985   3.36998
 Alpha virt. eigenvalues --    3.37148   3.39071   3.40720   3.41111   3.43052
 Alpha virt. eigenvalues --    3.45990   3.46629   3.46866   3.48180   3.48356
 Alpha virt. eigenvalues --    3.51448   3.52337   3.55213   3.56005   3.57746
 Alpha virt. eigenvalues --    3.61311   3.62361   3.62565   3.63975   3.64926
 Alpha virt. eigenvalues --    3.70639   3.73324   3.75513   3.77105   3.78189
 Alpha virt. eigenvalues --    3.78258   3.79237   3.83984   3.88415   3.89612
 Alpha virt. eigenvalues --    3.90954   3.94382   3.95461   3.96502   4.00345
 Alpha virt. eigenvalues --    4.04206   4.04355   4.07232   4.07955   4.10206
 Alpha virt. eigenvalues --    4.11194   4.12813   4.13067   4.15916   4.17692
 Alpha virt. eigenvalues --    4.19242   4.20458   4.21873   4.25629   4.28882
 Alpha virt. eigenvalues --    4.29646   4.29811   4.32310   4.35387   4.36443
 Alpha virt. eigenvalues --    4.43196   4.43844   4.45569   4.49685   4.55205
 Alpha virt. eigenvalues --    4.58541   4.60675   4.66810   4.67333   4.70623
 Alpha virt. eigenvalues --    4.71365   4.78037   4.80097   4.83299   4.90433
 Alpha virt. eigenvalues --    4.91986   4.92797   4.93090   5.00529   5.05387
 Alpha virt. eigenvalues --    5.11575   5.15603   5.19965   5.20314   5.23960
 Alpha virt. eigenvalues --    5.28267   5.33415   5.41036   5.44288   5.52800
 Alpha virt. eigenvalues --    5.58956   5.69424   5.73001   5.82323   6.16791
 Alpha virt. eigenvalues --   10.81496  10.87791  11.39883  22.28311  22.54887
 Alpha virt. eigenvalues --   22.70062  22.72863  22.79227  22.89930  22.99079
 Alpha virt. eigenvalues --   23.00888  23.21909  23.56456  25.87170  32.72974
          Condensed to atoms (all electrons):
               1          2          3          4          5          6
     1  C    5.177055   0.250853  -0.054114   0.001675  -0.000561  -0.001725
     2  C    0.250853   5.110264   0.575435  -0.068038   0.012679  -0.010336
     3  C   -0.054114   0.575435   5.221940   0.397513  -0.089189  -0.098179
     4  C    0.001675  -0.068038   0.397513   4.712035   0.352621   0.615637
     5  Cl  -0.000561   0.012679  -0.089189   0.352621  16.895907  -0.078115
     6  N   -0.001725  -0.010336  -0.098179   0.615637  -0.078115   6.469487
     7  C    0.005853  -0.054607  -0.043607  -0.085407  -0.000059   0.432821
     8  C    0.002262   0.013294   0.023314  -0.017613  -0.003094  -0.033489
     9  C   -0.000999  -0.002685  -0.002935   0.001353   0.000063   0.001015
    10  C    0.001028   0.002012   0.001950  -0.001521  -0.000041  -0.001703
    11  C   -0.013675  -0.093074  -0.002134   0.012121   0.000314   0.017045
    12  C   -0.079583   0.346101  -0.075280  -0.031272   0.001733  -0.109826
    13  H    0.411070  -0.044572  -0.017354   0.001910  -0.000061  -0.000015
    14  H    0.425328  -0.041965   0.000091  -0.000282   0.000013   0.000127
    15  H    0.425385  -0.041996   0.000116  -0.000282   0.000013   0.000127
    16  H   -0.006003  -0.022879   0.380495  -0.025534   0.004368   0.006058
    17  H    0.000035  -0.000802   0.001424   0.000124  -0.000174   0.016043
    18  H   -0.000011   0.000059  -0.000026   0.000039   0.000000  -0.000211
    19  H    0.000101   0.000069   0.000018  -0.000012  -0.000000   0.000003
    20  H    0.002955  -0.006668  -0.000357  -0.000098  -0.000002  -0.000203
               7          8          9         10         11         12
     1  C    0.005853   0.002262  -0.000999   0.001028  -0.013675  -0.079583
     2  C   -0.054607   0.013294  -0.002685   0.002012  -0.093074   0.346101
     3  C   -0.043607   0.023314  -0.002935   0.001950  -0.002134  -0.075280
     4  C   -0.085407  -0.017613   0.001353  -0.001521   0.012121  -0.031272
     5  Cl  -0.000059  -0.003094   0.000063  -0.000041   0.000314   0.001733
     6  N    0.432821  -0.033489   0.001015  -0.001703   0.017045  -0.109826
     7  C    5.038607   0.278979   0.010179  -0.085313   0.063480   0.292022
     8  C    0.278979   5.159394   0.483801   0.019807  -0.161318   0.088901
     9  C    0.010179   0.483801   4.939894   0.427471   0.014396  -0.091443
    10  C   -0.085313   0.019807   0.427471   4.951994   0.500917  -0.020220
    11  C    0.063480  -0.161318   0.014396   0.500917   5.248072   0.298783
    12  C    0.292022   0.088901  -0.091443  -0.020220   0.298783   5.296229
    13  H   -0.000124  -0.000017   0.000011  -0.000014  -0.000130   0.020223
    14  H   -0.000111  -0.000093  -0.000002   0.000172  -0.002530  -0.010297
    15  H   -0.000105  -0.000092  -0.000002   0.000178  -0.002537  -0.010333
    16  H    0.001588  -0.000110   0.000043  -0.000043  -0.000113   0.012515
    17  H   -0.057682   0.416111  -0.035418   0.008494  -0.004238   0.016130
    18  H    0.012150  -0.044208   0.427014  -0.044493   0.008634  -0.003644
    19  H   -0.001443   0.004796  -0.034830   0.413963  -0.033684   0.008256
    20  H    0.001735   0.001826  -0.000351  -0.008297   0.384240  -0.015865
              13         14         15         16         17         18
     1  C    0.411070   0.425328   0.425385  -0.006003   0.000035  -0.000011
     2  C   -0.044572  -0.041965  -0.041996  -0.022879  -0.000802   0.000059
     3  C   -0.017354   0.000091   0.000116   0.380495   0.001424  -0.000026
     4  C    0.001910  -0.000282  -0.000282  -0.025534   0.000124   0.000039
     5  Cl  -0.000061   0.000013   0.000013   0.004368  -0.000174   0.000000
     6  N   -0.000015   0.000127   0.000127   0.006058   0.016043  -0.000211
     7  C   -0.000124  -0.000111  -0.000105   0.001588  -0.057682   0.012150
     8  C   -0.000017  -0.000093  -0.000092  -0.000110   0.416111  -0.044208
     9  C    0.000011  -0.000002  -0.000002   0.000043  -0.035418   0.427014
    10  C   -0.000014   0.000172   0.000178  -0.000043   0.008494  -0.044493
    11  C   -0.000130  -0.002530  -0.002537  -0.000113  -0.004238   0.008634
    12  C    0.020223  -0.010297  -0.010333   0.012515   0.016130  -0.003644
    13  H    0.503778  -0.018156  -0.018172   0.002547  -0.000000   0.000000
    14  H   -0.018156   0.504934  -0.037724   0.000058  -0.000001   0.000001
    15  H   -0.018172  -0.037724   0.504993   0.000059  -0.000001   0.000001
    16  H    0.002547   0.000058   0.000059   0.474917  -0.000014   0.000000
    17  H   -0.000000  -0.000001  -0.000001  -0.000014   0.475069  -0.006020
    18  H    0.000000   0.000001   0.000001   0.000000  -0.006020   0.488699
    19  H   -0.000001  -0.000006  -0.000006  -0.000000  -0.000117  -0.003404
    20  H    0.000593  -0.004162  -0.004169   0.000002   0.000076  -0.000243
              19         20
     1  C    0.000101   0.002955
     2  C    0.000069  -0.006668
     3  C    0.000018  -0.000357
     4  C   -0.000012  -0.000098
     5  Cl  -0.000000  -0.000002
     6  N    0.000003  -0.000203
     7  C   -0.001443   0.001735
     8  C    0.004796   0.001826
     9  C   -0.034830  -0.000351
    10  C    0.413963  -0.008297
    11  C   -0.033684   0.384240
    12  C    0.008256  -0.015865
    13  H   -0.000001   0.000593
    14  H   -0.000006  -0.004162
    15  H   -0.000006  -0.004169
    16  H   -0.000000   0.000002
    17  H   -0.000117   0.000076
    18  H   -0.003404  -0.000243
    19  H    0.483710  -0.003239
    20  H   -0.003239   0.467200
 Mulliken charges:
               1
     1  C   -0.546928
     2  C    0.076855
     3  C   -0.219121
     4  C    0.135031
     5  Cl  -0.096416
     6  N   -0.224563
     7  C    0.191044
     8  C   -0.232450
     9  C   -0.136574
    10  C   -0.166340
    11  C   -0.234570
    12  C    0.066870
    13  H    0.158485
    14  H    0.184606
    15  H    0.184550
    16  H    0.172046
    17  H    0.170960
    18  H    0.165664
    19  H    0.165825
    20  H    0.185025
 Sum of Mulliken charges =  -0.00000
 Mulliken charges with hydrogens summed into heavy atoms:
               1
     1  C   -0.019287
     2  C    0.076855
     3  C   -0.047074
     4  C    0.135031
     5  Cl  -0.096416
     6  N   -0.224563
     7  C    0.191044
     8  C   -0.061490
     9  C    0.029090
    10  C   -0.000516
    11  C   -0.049545
    12  C    0.066870
 Electronic spatial extent (au):  <R**2>=           2437.1982
 Charge=              0.0000 electrons
 Dipole moment (field-independent basis, Debye):
    X=             -3.3298    Y=              3.3675    Z=              0.0004  Tot=              4.7357
 Quadrupole moment (field-independent basis, Debye-Ang):
   XX=            -72.8477   YY=            -68.6865   ZZ=            -80.2820
   XY=              4.8609   XZ=             -0.0007   YZ=              0.0002
 Traceless Quadrupole moment (field-independent basis, Debye-Ang):
   XX=              1.0910   YY=              5.2522   ZZ=             -6.3433
   XY=              4.8609   XZ=             -0.0007   YZ=              0.0002
 Octapole moment (field-independent basis, Debye-Ang**2):
  XXX=            -27.4989  YYY=             12.3779  ZZZ=             -0.0011  XYY=             -9.2917
  XXY=              2.6255  XXZ=              0.0020  XZZ=             10.6105  YZZ=              1.6203
  YYZ=              0.0007  XYZ=             -0.0012
 Hexadecapole moment (field-independent basis, Debye-Ang**3):
 XXXX=          -2031.3787 YYYY=           -959.5763 ZZZZ=            -97.3864 XXXY=             19.5956
 XXXZ=              0.0601 YYYX=             22.6683 YYYZ=             -0.0088 ZZZX=              0.0875
 ZZZY=             -0.0032 XXYY=           -495.0770 XXZZ=           -405.4980 YYZZ=           -195.5918
 XXYZ=             -0.0078 YYXZ=              0.0214 ZZXY=            -11.9274
 N-N= 7.140687376353D+02 E-N=-3.545200429635D+03  KE= 8.979951537149D+02
 Calculating spin-rotation constants.
 Leave Link  601 at Tue Sep 17 10:47:06 2024, MaxMem=  1342177280 cpu:               4.2 elap:               4.2
 (Enter /groups/ReismanLab/Software/Gaussian16_RevC/Linux_Binary_AVX2-enabled-CPU/g16/l9999.exe)
 Unable to Open any file for archive entry.
 1\1\GINC-HPC-52-14\SP\RM062X\def2TZVP\C10H8Cl1N1\MANTIND\17-Sep-2024\0
 \\#p M062X/def2tzvp geom=check guess=read scf(xqc,tight) integral(grid
 =ultrafine) scrf(SMD, solvent=1,4-Dioxane) nmr=giao\\spe\\0,1\C,0,-0.4
 743898444,-3.0182777079,-0.0000069222\C,0,-0.0674896218,-1.5702749044,
 0.0000561699\C,0,1.2608450364,-1.2110699912,0.0001287437\C,0,1.5929226
 013,0.1658468938,0.0000792314\Cl,0,3.3110662672,0.5784247973,0.0003925
 068\N,0,0.7468542895,1.1498881362,0.0001075425\C,0,-0.5831204695,0.826
 0440643,0.0000576573\C,0,-1.5231665243,1.8852446874,0.0000147919\C,0,-
 2.8738230545,1.6179963101,-0.0001064843\C,0,-3.3373737658,0.2828700786
 ,-0.0001929444\C,0,-2.4435325794,-0.7660360177,-0.0001470096\C,0,-1.04
 67107904,-0.5262458721,-0.0000123068\H,0,0.4009274006,-3.670839698,0.0
 006678469\H,0,-1.0782207647,-3.2584104226,-0.8818623964\H,0,-1.0794222
 912,-3.2581938247,0.8810720956\H,0,2.0474302874,-1.9558614511,0.000241
 4705\H,0,-1.1369441556,2.8984094655,0.0000703583\H,0,-3.5890473868,2.4
 345401642,-0.000137186\H,0,-4.4045187787,0.0847229971,-0.0002963008\H,
 0,-2.8096412601,-1.7867796262,-0.0002290224\\Version=ES64L-G16RevC.02\
 State=1-A\HF=-900.8299294\RMSD=5.074e-09\Dipole=-1.3375949,-1.2970341,
 -0.0001614\Quadrupole=0.6606061,4.0554698,-4.7160759,-3.5457345,0.0005
 537,0.00012\PG=C01 [X(C10H8Cl1N1)]\\@
 The archive entry for this job was punched.


 BUT 'GLORY' DOESN'T MEAN 'A NICE KNOCK DOWN ARGUMENT', ALICE OBJECTED.
 WHEN I USE A WORD, HUMPTY DUMPTY SAID, IN A RATHER SCORNFUL TONE,
 IT MEANS JUST WHAT I CHOOSE IT TO MEAN....
 NEITHER MORE NOR LESS....
 THE QUESTION IS, SAID ALICE,
 WHETHER YOU CAN MAKE WORDS MEAN SO MANY DIFFERENT THINGS...
 THE QUESTION IS, SAID HUMPTY DUMPTY,
 WHICH IS TO BE MASTER....
 THAT IS ALL.....

 ALICE THROUGH THE LOOKING GLASS
 Job cpu time:       0 days  0 hours 15 minutes 43.8 seconds.
 Elapsed time:       0 days  0 hours 15 minutes 47.3 seconds.
 File lengths (MBytes):  RWF=    280 Int=      0 D2E=      0 Chk=     32 Scr=     16
 Normal termination of Gaussian 16 at Tue Sep 17 10:47:06 2024.
