 Entering Gaussian System, Link 0=g16
 Input=smiles_00105_conf_5.gjf
 Output=smiles_00105_conf_5.log
 Initial command:
 /groups/ReismanLab/Software/Gaussian16_RevC/Linux_Binary_AVX2-enabled-CPU/g16/l1.exe "/central/groups/ReismanLab/DM/dft_final/smiles_00105/Gau-4169090.inp" -scrdir="/central/groups/ReismanLab/DM/dft_final/smiles_00105/"
 Entering Link 1 = /groups/ReismanLab/Software/Gaussian16_RevC/Linux_Binary_AVX2-enabled-CPU/g16/l1.exe PID=   4169093.
  
 Copyright (c) 1988-2021, Gaussian, Inc.  All Rights Reserved.
  
 This is part of the Gaussian(R) 16 program.  It is based on
 the Gaussian(R) 09 system (copyright 2009, Gaussian, Inc.),
 the Gaussian(R) 03 system (copyright 2003, Gaussian, Inc.),
 the Gaussian(R) 98 system (copyright 1998, Gaussian, Inc.),
 the Gaussian(R) 94 system (copyright 1995, Gaussian, Inc.),
 the Gaussian 92(TM) system (copyright 1992, Gaussian, Inc.),
 the Gaussian 90(TM) system (copyright 1990, Gaussian, Inc.),
 the Gaussian 88(TM) system (copyright 1988, Gaussian, Inc.),
 the Gaussian 86(TM) system (copyright 1986, Carnegie Mellon
 University), and the Gaussian 82(TM) system (copyright 1983,
 Carnegie Mellon University). Gaussian is a federally registered
 trademark of Gaussian, Inc.
  
 This software contains proprietary and confidential information,
 including trade secrets, belonging to Gaussian, Inc.
  
 This software is provided under written license and may be
 used, copied, transmitted, or stored only in accord with that
 written license.
  
 The following legend is applicable only to US Government
 contracts under FAR:
  
                    RESTRICTED RIGHTS LEGEND
  
 Use, reproduction and disclosure by the US Government is
 subject to restrictions as set forth in subparagraphs (a)
 and (c) of the Commercial Computer Software - Restricted
 Rights clause in FAR 52.227-19.
  
 Gaussian, Inc.
 340 Quinnipiac St., Bldg. 40, Wallingford CT 06492
  
  
 ---------------------------------------------------------------
 Warning -- This program may not be used in any manner that
 competes with the business of Gaussian, Inc. or will provide
 assistance to any competitor of Gaussian, Inc.  The licensee
 of this program is prohibited from giving any competitor of
 Gaussian, Inc. access to this program.  By using this program,
 the user acknowledges that Gaussian, Inc. is engaged in the
 business of creating and licensing software in the field of
 computational chemistry and represents and warrants to the
 licensee that it is not a competitor of Gaussian, Inc. and that
 it will not use this program in any manner prohibited above.
 ---------------------------------------------------------------
  

 Cite this work as:
 Gaussian 16, Revision C.02,
 M. J. Frisch, G. W. Trucks, H. B. Schlegel, G. E. Scuseria, 
 M. A. Robb, J. R. Cheeseman, G. Scalmani, V. Barone, 
 G. A. Petersson, H. Nakatsuji, X. Li, M. Caricato, A. V. Marenich, 
 J. Bloino, B. G. Janesko, R. Gomperts, B. Mennucci, H. P. Hratchian, 
 J. V. Ortiz, A. F. Izmaylov, J. L. Sonnenberg, D. Williams-Young, 
 F. Ding, F. Lipparini, F. Egidi, J. Goings, B. Peng, A. Petrone, 
 T. Henderson, D. Ranasinghe, V. G. Zakrzewski, J. Gao, N. Rega, 
 G. Zheng, W. Liang, M. Hada, M. Ehara, K. Toyota, R. Fukuda, 
 J. Hasegawa, M. Ishida, T. Nakajima, Y. Honda, O. Kitao, H. Nakai, 
 T. Vreven, K. Throssell, J. A. Montgomery, Jr., J. E. Peralta, 
 F. Ogliaro, M. J. Bearpark, J. J. Heyd, E. N. Brothers, K. N. Kudin, 
 V. N. Staroverov, T. A. Keith, R. Kobayashi, J. Normand, 
 K. Raghavachari, A. P. Rendell, J. C. Burant, S. S. Iyengar, 
 J. Tomasi, M. Cossi, J. M. Millam, M. Klene, C. Adamo, R. Cammi, 
 J. W. Ochterski, R. L. Martin, K. Morokuma, O. Farkas, 
 J. B. Foresman, and D. J. Fox, Gaussian, Inc., Wallingford CT, 2019.
 
 ******************************************
 Gaussian 16:  ES64L-G16RevC.02  7-Dec-2021
                17-Sep-2024 
 ******************************************
 %nprocshared=8
 Will use up to    8 processors via shared memory.
 %Mem=10GB
 %Chk=smiles_00105_conf_5.chk
 ----------------------------------------------------------------------
 #p B3LYP/6-31G(d,p) EmpiricalDispersion=GD3BJ opt freq scf(xqc,tight) 
 integral(grid=ultrafine)
 ----------------------------------------------------------------------
 1/18=20,19=15,26=4,38=1/1,3;
 2/9=110,12=2,17=6,18=5,40=1/2;
 3/5=1,6=6,7=101,11=2,25=1,30=1,71=1,74=-5,75=-5,124=41/1,2,3;
 4//1;
 5/5=2,8=3,13=1,32=2,38=5/2,8;
 6/7=2,8=2,9=2,10=2,28=1/1;
 7//1,2,3,16;
 1/18=20,19=15,26=4/3(2);
 2/9=110/2;
 99//99;
 2/9=110/2;
 3/5=1,6=6,7=101,11=2,25=1,30=1,71=1,74=-5,75=-5,124=41/1,2,3;
 4/5=5,16=3,69=1/1;
 5/5=2,8=3,13=1,32=2,38=5/2,8;
 7//1,2,3,16;
 1/18=20,19=15,26=4/3(-5);
 2/9=110/2;
 6/7=2,8=2,9=2,10=2,19=2,28=1/1;
 99/9=1/99;
 Leave Link    1 at Tue Sep 17 09:47:29 2024, MaxMem=  1342177280 cpu:               0.2 elap:               5.6
 (Enter /groups/ReismanLab/Software/Gaussian16_RevC/Linux_Binary_AVX2-enabled-CPU/g16/l101.exe)
 ----------------------------------
 opt-freq conformers_unique/conf_af
 ----------------------------------
 Symbolic Z-matrix:
 Charge =  0 Multiplicity = 1
 C                    -4.29429   1.02191   1.50823 
 C                    -3.88804   0.30487   0.21916 
 C                    -4.43567   1.038    -1.00702 
 C                    -2.38875   0.16619   0.13419 
 C                    -1.56105   1.27537   0.09469 
 C                    -0.17707   1.1745    0.01685 
 C                     0.5855    2.48563  -0.01759 
 C                     1.3445    2.70416  -1.32976 
 C                     1.48656   2.68828   1.20418 
 C                     0.37403  -0.10763  -0.0217 
 Br                    2.27622  -0.29558  -0.12838 
 C                    -0.4163   -1.25651   0.01521 
 C                     0.07311  -2.69186  -0.02102 
 C                     0.7743   -3.05363  -1.3337 
 C                     0.91729  -3.06924   1.19992 
 C                    -1.79433  -1.08215   0.0932 
 H                    -5.37818   1.0602    1.59075 
 H                    -3.91358   2.04013   1.52157 
 H                    -3.89914   0.49646   2.37502 
 H                    -4.32183  -0.70125   0.23711 
 H                    -4.13882   0.52505  -1.91934 
 H                    -4.05977   2.05722  -1.04887 
 H                    -5.52205   1.07479  -0.96811 
 H                    -1.99966   2.26184   0.12518 
 H                    -0.17942   3.27045   0.03022 
 H                     1.67914   3.73794  -1.38438 
 H                     2.21866   2.06708  -1.41072 
 H                     0.69132   2.5089   -2.1785 
 H                     1.82317   3.72239   1.23585 
 H                     2.36557   2.05329   1.17728 
 H                     0.93317   2.47873   2.11797 
 H                    -0.83157  -3.31027   0.02623 
 H                     0.90012  -4.13285  -1.38912 
 H                     1.75622  -2.59982  -1.41457 
 H                     0.17168  -2.73375  -2.18201 
 H                     0.4165   -2.75587   2.11431 
 H                     1.90417  -2.61979   1.17294 
 H                     1.04358  -4.14941   1.23033 
 H                    -2.4242   -1.96055   0.12294 
 
 ITRead=  0  0  0  0  0  0  0  0  0  0  0  0  0  0  0  0  0  0  0  0
 ITRead=  0  0  0  0  0  0  0  0  0  0  0  0  0  0  0  0  0  0  0
 MicOpt= -1 -1 -1 -1 -1 -1 -1 -1 -1 -1 -1 -1 -1 -1 -1 -1 -1 -1 -1 -1
 MicOpt= -1 -1 -1 -1 -1 -1 -1 -1 -1 -1 -1 -1 -1 -1 -1 -1 -1 -1 -1
 NAtoms=     39 NQM=       39 NQMF=       0 NMMI=      0 NMMIF=      0
                NMic=       0 NMicF=      0.
                    Isotopes and Nuclear Properties:
 (Nuclear quadrupole moments (NQMom) in fm**2, nuclear magnetic moments (NMagM)
  in nuclear magnetons)

  Atom         1           2           3           4           5           6           7           8           9          10
 IAtWgt=          12          12          12          12          12          12          12          12          12          12
 AtmWgt=  12.0000000  12.0000000  12.0000000  12.0000000  12.0000000  12.0000000  12.0000000  12.0000000  12.0000000  12.0000000
 NucSpn=           0           0           0           0           0           0           0           0           0           0
 AtZEff=  -0.0000000  -0.0000000  -0.0000000  -0.0000000  -0.0000000  -0.0000000  -0.0000000  -0.0000000  -0.0000000  -0.0000000
 NQMom=    0.0000000   0.0000000   0.0000000   0.0000000   0.0000000   0.0000000   0.0000000   0.0000000   0.0000000   0.0000000
 NMagM=    0.0000000   0.0000000   0.0000000   0.0000000   0.0000000   0.0000000   0.0000000   0.0000000   0.0000000   0.0000000
 AtZNuc=   6.0000000   6.0000000   6.0000000   6.0000000   6.0000000   6.0000000   6.0000000   6.0000000   6.0000000   6.0000000

  Atom        11          12          13          14          15          16          17          18          19          20
 IAtWgt=          79          12          12          12          12          12           1           1           1           1
 AtmWgt=  78.9183361  12.0000000  12.0000000  12.0000000  12.0000000  12.0000000   1.0078250   1.0078250   1.0078250   1.0078250
 NucSpn=           3           0           0           0           0           0           1           1           1           1
 AtZEff=  -0.0000000  -0.0000000  -0.0000000  -0.0000000  -0.0000000  -0.0000000  -0.0000000  -0.0000000  -0.0000000  -0.0000000
 NQMom=   31.3000000   0.0000000   0.0000000   0.0000000   0.0000000   0.0000000   0.0000000   0.0000000   0.0000000   0.0000000
 NMagM=    2.1063990   0.0000000   0.0000000   0.0000000   0.0000000   0.0000000   2.7928460   2.7928460   2.7928460   2.7928460
 AtZNuc=  35.0000000   6.0000000   6.0000000   6.0000000   6.0000000   6.0000000   1.0000000   1.0000000   1.0000000   1.0000000

  Atom        21          22          23          24          25          26          27          28          29          30
 IAtWgt=           1           1           1           1           1           1           1           1           1           1
 AtmWgt=   1.0078250   1.0078250   1.0078250   1.0078250   1.0078250   1.0078250   1.0078250   1.0078250   1.0078250   1.0078250
 NucSpn=           1           1           1           1           1           1           1           1           1           1
 AtZEff=  -0.0000000  -0.0000000  -0.0000000  -0.0000000  -0.0000000  -0.0000000  -0.0000000  -0.0000000  -0.0000000  -0.0000000
 NQMom=    0.0000000   0.0000000   0.0000000   0.0000000   0.0000000   0.0000000   0.0000000   0.0000000   0.0000000   0.0000000
 NMagM=    2.7928460   2.7928460   2.7928460   2.7928460   2.7928460   2.7928460   2.7928460   2.7928460   2.7928460   2.7928460
 AtZNuc=   1.0000000   1.0000000   1.0000000   1.0000000   1.0000000   1.0000000   1.0000000   1.0000000   1.0000000   1.0000000

  Atom        31          32          33          34          35          36          37          38          39
 IAtWgt=           1           1           1           1           1           1           1           1           1
 AtmWgt=   1.0078250   1.0078250   1.0078250   1.0078250   1.0078250   1.0078250   1.0078250   1.0078250   1.0078250
 NucSpn=           1           1           1           1           1           1           1           1           1
 AtZEff=  -0.0000000  -0.0000000  -0.0000000  -0.0000000  -0.0000000  -0.0000000  -0.0000000  -0.0000000  -0.0000000
 NQMom=    0.0000000   0.0000000   0.0000000   0.0000000   0.0000000   0.0000000   0.0000000   0.0000000   0.0000000
 NMagM=    2.7928460   2.7928460   2.7928460   2.7928460   2.7928460   2.7928460   2.7928460   2.7928460   2.7928460
 AtZNuc=   1.0000000   1.0000000   1.0000000   1.0000000   1.0000000   1.0000000   1.0000000   1.0000000   1.0000000
 Leave Link  101 at Tue Sep 17 09:47:29 2024, MaxMem=  1342177280 cpu:               0.2 elap:               0.2
 (Enter /groups/ReismanLab/Software/Gaussian16_RevC/Linux_Binary_AVX2-enabled-CPU/g16/l103.exe)

 GradGradGradGradGradGradGradGradGradGradGradGradGradGradGradGradGradGrad
 Berny optimization.
 Initialization pass.
                           ----------------------------
                           !    Initial Parameters    !
                           ! (Angstroms and Degrees)  !
 --------------------------                            --------------------------
 ! Name  Definition              Value          Derivative Info.                !
 --------------------------------------------------------------------------------
 ! R1    R(1,2)                  1.53           estimate D2E/DX2                !
 ! R2    R(1,17)                 1.0877         estimate D2E/DX2                !
 ! R3    R(1,18)                 1.0871         estimate D2E/DX2                !
 ! R4    R(1,19)                 1.0879         estimate D2E/DX2                !
 ! R5    R(2,3)                  1.53           estimate D2E/DX2                !
 ! R6    R(2,4)                  1.5081         estimate D2E/DX2                !
 ! R7    R(2,20)                 1.0958         estimate D2E/DX2                !
 ! R8    R(3,21)                 1.0879         estimate D2E/DX2                !
 ! R9    R(3,22)                 1.0871         estimate D2E/DX2                !
 ! R10   R(3,23)                 1.0877         estimate D2E/DX2                !
 ! R11   R(4,5)                  1.3845         estimate D2E/DX2                !
 ! R12   R(4,16)                 1.3833         estimate D2E/DX2                !
 ! R13   R(5,6)                  1.3898         estimate D2E/DX2                !
 ! R14   R(5,24)                 1.08           estimate D2E/DX2                !
 ! R15   R(6,7)                  1.5171         estimate D2E/DX2                !
 ! R16   R(6,10)                 1.3961         estimate D2E/DX2                !
 ! R17   R(7,8)                  1.5315         estimate D2E/DX2                !
 ! R18   R(7,9)                  1.5316         estimate D2E/DX2                !
 ! R19   R(7,25)                 1.097          estimate D2E/DX2                !
 ! R20   R(8,26)                 1.088          estimate D2E/DX2                !
 ! R21   R(8,27)                 1.0847         estimate D2E/DX2                !
 ! R22   R(8,28)                 1.0886         estimate D2E/DX2                !
 ! R23   R(9,29)                 1.088          estimate D2E/DX2                !
 ! R24   R(9,30)                 1.0847         estimate D2E/DX2                !
 ! R25   R(9,31)                 1.0886         estimate D2E/DX2                !
 ! R26   R(10,11)                1.9144         estimate D2E/DX2                !
 ! R27   R(10,12)                1.395          estimate D2E/DX2                !
 ! R28   R(12,13)                1.5169         estimate D2E/DX2                !
 ! R29   R(12,16)                1.3912         estimate D2E/DX2                !
 ! R30   R(13,14)                1.5316         estimate D2E/DX2                !
 ! R31   R(13,15)                1.5316         estimate D2E/DX2                !
 ! R32   R(13,32)                1.0969         estimate D2E/DX2                !
 ! R33   R(14,33)                1.0879         estimate D2E/DX2                !
 ! R34   R(14,34)                1.0847         estimate D2E/DX2                !
 ! R35   R(14,35)                1.0886         estimate D2E/DX2                !
 ! R36   R(15,36)                1.0886         estimate D2E/DX2                !
 ! R37   R(15,37)                1.0847         estimate D2E/DX2                !
 ! R38   R(15,38)                1.088          estimate D2E/DX2                !
 ! R39   R(16,39)                1.0813         estimate D2E/DX2                !
 ! A1    A(2,1,17)             110.1824         estimate D2E/DX2                !
 ! A2    A(2,1,18)             110.8727         estimate D2E/DX2                !
 ! A3    A(2,1,19)             110.3943         estimate D2E/DX2                !
 ! A4    A(17,1,18)            108.3643         estimate D2E/DX2                !
 ! A5    A(17,1,19)            108.5724         estimate D2E/DX2                !
 ! A6    A(18,1,19)            108.3852         estimate D2E/DX2                !
 ! A7    A(1,2,3)              110.832          estimate D2E/DX2                !
 ! A8    A(1,2,4)              110.7654         estimate D2E/DX2                !
 ! A9    A(1,2,20)             108.1429         estimate D2E/DX2                !
 ! A10   A(3,2,4)              110.7778         estimate D2E/DX2                !
 ! A11   A(3,2,20)             108.143          estimate D2E/DX2                !
 ! A12   A(4,2,20)             108.0622         estimate D2E/DX2                !
 ! A13   A(2,3,21)             110.3942         estimate D2E/DX2                !
 ! A14   A(2,3,22)             110.8745         estimate D2E/DX2                !
 ! A15   A(2,3,23)             110.1832         estimate D2E/DX2                !
 ! A16   A(21,3,22)            108.386          estimate D2E/DX2                !
 ! A17   A(21,3,23)            108.5711         estimate D2E/DX2                !
 ! A18   A(22,3,23)            108.3622         estimate D2E/DX2                !
 ! A19   A(2,4,5)              121.4848         estimate D2E/DX2                !
 ! A20   A(2,4,16)             120.7889         estimate D2E/DX2                !
 ! A21   A(5,4,16)             117.7263         estimate D2E/DX2                !
 ! A22   A(4,5,6)              122.5994         estimate D2E/DX2                !
 ! A23   A(4,5,24)             119.2189         estimate D2E/DX2                !
 ! A24   A(6,5,24)             118.1817         estimate D2E/DX2                !
 ! A25   A(5,6,7)              116.0445         estimate D2E/DX2                !
 ! A26   A(5,6,10)             117.4698         estimate D2E/DX2                !
 ! A27   A(7,6,10)             126.4857         estimate D2E/DX2                !
 ! A28   A(6,7,8)              113.0697         estimate D2E/DX2                !
 ! A29   A(6,7,9)              113.0764         estimate D2E/DX2                !
 ! A30   A(6,7,25)             105.4751         estimate D2E/DX2                !
 ! A31   A(8,7,9)              111.9017         estimate D2E/DX2                !
 ! A32   A(8,7,25)             106.3093         estimate D2E/DX2                !
 ! A33   A(9,7,25)             106.3083         estimate D2E/DX2                !
 ! A34   A(7,8,26)             109.331          estimate D2E/DX2                !
 ! A35   A(7,8,27)             112.3048         estimate D2E/DX2                !
 ! A36   A(7,8,28)             110.1831         estimate D2E/DX2                !
 ! A37   A(26,8,27)            107.8452         estimate D2E/DX2                !
 ! A38   A(26,8,28)            108.4116         estimate D2E/DX2                !
 ! A39   A(27,8,28)            108.663          estimate D2E/DX2                !
 ! A40   A(7,9,29)             109.3303         estimate D2E/DX2                !
 ! A41   A(7,9,30)             112.3036         estimate D2E/DX2                !
 ! A42   A(7,9,31)             110.1852         estimate D2E/DX2                !
 ! A43   A(29,9,30)            107.8441         estimate D2E/DX2                !
 ! A44   A(29,9,31)            108.4087         estimate D2E/DX2                !
 ! A45   A(30,9,31)            108.6666         estimate D2E/DX2                !
 ! A46   A(6,10,11)            118.9421         estimate D2E/DX2                !
 ! A47   A(6,10,12)            122.1398         estimate D2E/DX2                !
 ! A48   A(11,10,12)           118.9181         estimate D2E/DX2                !
 ! A49   A(10,12,13)           126.5754         estimate D2E/DX2                !
 ! A50   A(10,12,16)           117.3526         estimate D2E/DX2                !
 ! A51   A(13,12,16)           116.072          estimate D2E/DX2                !
 ! A52   A(12,13,14)           113.0597         estimate D2E/DX2                !
 ! A53   A(12,13,15)           113.0751         estimate D2E/DX2                !
 ! A54   A(12,13,32)           105.4475         estimate D2E/DX2                !
 ! A55   A(14,13,15)           111.8821         estimate D2E/DX2                !
 ! A56   A(14,13,32)           106.3411         estimate D2E/DX2                !
 ! A57   A(15,13,32)           106.3402         estimate D2E/DX2                !
 ! A58   A(13,14,33)           109.325          estimate D2E/DX2                !
 ! A59   A(13,14,34)           112.3038         estimate D2E/DX2                !
 ! A60   A(13,14,35)           110.1844         estimate D2E/DX2                !
 ! A61   A(33,14,34)           107.8495         estimate D2E/DX2                !
 ! A62   A(33,14,35)           108.4092         estimate D2E/DX2                !
 ! A63   A(34,14,35)           108.6668         estimate D2E/DX2                !
 ! A64   A(13,15,36)           110.188          estimate D2E/DX2                !
 ! A65   A(13,15,37)           112.3046         estimate D2E/DX2                !
 ! A66   A(13,15,38)           109.3233         estimate D2E/DX2                !
 ! A67   A(36,15,37)           108.6717         estimate D2E/DX2                !
 ! A68   A(36,15,38)           108.4045         estimate D2E/DX2                !
 ! A69   A(37,15,38)           107.8463         estimate D2E/DX2                !
 ! A70   A(4,16,12)            122.7121         estimate D2E/DX2                !
 ! A71   A(4,16,39)            118.8158         estimate D2E/DX2                !
 ! A72   A(12,16,39)           118.4721         estimate D2E/DX2                !
 ! D1    D(17,1,2,3)            60.2399         estimate D2E/DX2                !
 ! D2    D(17,1,2,4)          -176.3791         estimate D2E/DX2                !
 ! D3    D(17,1,2,20)          -58.1379         estimate D2E/DX2                !
 ! D4    D(18,1,2,3)           -59.721          estimate D2E/DX2                !
 ! D5    D(18,1,2,4)            63.6599         estimate D2E/DX2                !
 ! D6    D(18,1,2,20)         -178.0988         estimate D2E/DX2                !
 ! D7    D(19,1,2,3)          -179.8466         estimate D2E/DX2                !
 ! D8    D(19,1,2,4)           -56.4657         estimate D2E/DX2                !
 ! D9    D(19,1,2,20)           61.7756         estimate D2E/DX2                !
 ! D10   D(1,2,3,21)           179.7321         estimate D2E/DX2                !
 ! D11   D(1,2,3,22)            59.6044         estimate D2E/DX2                !
 ! D12   D(1,2,3,23)           -60.3556         estimate D2E/DX2                !
 ! D13   D(4,2,3,21)            56.3583         estimate D2E/DX2                !
 ! D14   D(4,2,3,22)           -63.7695         estimate D2E/DX2                !
 ! D15   D(4,2,3,23)           176.2706         estimate D2E/DX2                !
 ! D16   D(20,2,3,21)          -61.8901         estimate D2E/DX2                !
 ! D17   D(20,2,3,22)          177.9821         estimate D2E/DX2                !
 ! D18   D(20,2,3,23)           58.0222         estimate D2E/DX2                !
 ! D19   D(1,2,4,5)            -61.7151         estimate D2E/DX2                !
 ! D20   D(1,2,4,16)           118.2776         estimate D2E/DX2                !
 ! D21   D(3,2,4,5)             61.697          estimate D2E/DX2                !
 ! D22   D(3,2,4,16)          -118.3103         estimate D2E/DX2                !
 ! D23   D(20,2,4,5)           179.9945         estimate D2E/DX2                !
 ! D24   D(20,2,4,16)           -0.0128         estimate D2E/DX2                !
 ! D25   D(2,4,5,6)            179.9791         estimate D2E/DX2                !
 ! D26   D(2,4,5,24)            -0.0167         estimate D2E/DX2                !
 ! D27   D(16,4,5,6)            -0.0138         estimate D2E/DX2                !
 ! D28   D(16,4,5,24)          179.9904         estimate D2E/DX2                !
 ! D29   D(2,4,16,12)         -179.9805         estimate D2E/DX2                !
 ! D30   D(2,4,16,39)            0.0132         estimate D2E/DX2                !
 ! D31   D(5,4,16,12)            0.0125         estimate D2E/DX2                !
 ! D32   D(5,4,16,39)         -179.9938         estimate D2E/DX2                !
 ! D33   D(4,5,6,7)           -179.991          estimate D2E/DX2                !
 ! D34   D(4,5,6,10)             0.0029         estimate D2E/DX2                !
 ! D35   D(24,5,6,7)             0.0049         estimate D2E/DX2                !
 ! D36   D(24,5,6,10)          179.9988         estimate D2E/DX2                !
 ! D37   D(5,6,7,8)           -115.7468         estimate D2E/DX2                !
 ! D38   D(5,6,7,9)            115.779          estimate D2E/DX2                !
 ! D39   D(5,6,7,25)             0.0149         estimate D2E/DX2                !
 ! D40   D(10,6,7,8)            64.2599         estimate D2E/DX2                !
 ! D41   D(10,6,7,9)           -64.2143         estimate D2E/DX2                !
 ! D42   D(10,6,7,25)         -179.9783         estimate D2E/DX2                !
 ! D43   D(5,6,10,11)         -179.9791         estimate D2E/DX2                !
 ! D44   D(5,6,10,12)            0.01           estimate D2E/DX2                !
 ! D45   D(7,6,10,11)            0.0141         estimate D2E/DX2                !
 ! D46   D(7,6,10,12)         -179.9968         estimate D2E/DX2                !
 ! D47   D(6,7,8,26)           167.3815         estimate D2E/DX2                !
 ! D48   D(6,7,8,27)           -72.9535         estimate D2E/DX2                !
 ! D49   D(6,7,8,28)            48.3322         estimate D2E/DX2                !
 ! D50   D(9,7,8,26)           -63.5389         estimate D2E/DX2                !
 ! D51   D(9,7,8,27)            56.126          estimate D2E/DX2                !
 ! D52   D(9,7,8,28)           177.4118         estimate D2E/DX2                !
 ! D53   D(25,7,8,26)           52.1174         estimate D2E/DX2                !
 ! D54   D(25,7,8,27)          171.7824         estimate D2E/DX2                !
 ! D55   D(25,7,8,28)          -66.9319         estimate D2E/DX2                !
 ! D56   D(6,7,9,29)          -167.1921         estimate D2E/DX2                !
 ! D57   D(6,7,9,30)            73.1455         estimate D2E/DX2                !
 ! D58   D(6,7,9,31)           -48.1455         estimate D2E/DX2                !
 ! D59   D(8,7,9,29)            63.7319         estimate D2E/DX2                !
 ! D60   D(8,7,9,30)           -55.9306         estimate D2E/DX2                !
 ! D61   D(8,7,9,31)          -177.2215         estimate D2E/DX2                !
 ! D62   D(25,7,9,29)          -51.9251         estimate D2E/DX2                !
 ! D63   D(25,7,9,30)         -171.5875         estimate D2E/DX2                !
 ! D64   D(25,7,9,31)           67.1215         estimate D2E/DX2                !
 ! D65   D(6,10,12,13)         179.9919         estimate D2E/DX2                !
 ! D66   D(6,10,12,16)          -0.0113         estimate D2E/DX2                !
 ! D67   D(11,10,12,13)         -0.019          estimate D2E/DX2                !
 ! D68   D(11,10,12,16)        179.9779         estimate D2E/DX2                !
 ! D69   D(10,12,13,14)        -64.2577         estimate D2E/DX2                !
 ! D70   D(10,12,13,15)         64.1791         estimate D2E/DX2                !
 ! D71   D(10,12,13,32)        179.9641         estimate D2E/DX2                !
 ! D72   D(16,12,13,14)        115.7454         estimate D2E/DX2                !
 ! D73   D(16,12,13,15)       -115.8178         estimate D2E/DX2                !
 ! D74   D(16,12,13,32)         -0.0328         estimate D2E/DX2                !
 ! D75   D(10,12,16,4)          -0.0004         estimate D2E/DX2                !
 ! D76   D(10,12,16,39)       -179.9941         estimate D2E/DX2                !
 ! D77   D(13,12,16,4)         179.9968         estimate D2E/DX2                !
 ! D78   D(13,12,16,39)          0.0031         estimate D2E/DX2                !
 ! D79   D(12,13,14,33)       -167.4607         estimate D2E/DX2                !
 ! D80   D(12,13,14,34)         72.8736         estimate D2E/DX2                !
 ! D81   D(12,13,14,35)        -48.4172         estimate D2E/DX2                !
 ! D82   D(15,13,14,33)         63.4874         estimate D2E/DX2                !
 ! D83   D(15,13,14,34)        -56.1784         estimate D2E/DX2                !
 ! D84   D(15,13,14,35)       -177.4692         estimate D2E/DX2                !
 ! D85   D(32,13,14,33)        -52.2156         estimate D2E/DX2                !
 ! D86   D(32,13,14,34)       -171.8814         estimate D2E/DX2                !
 ! D87   D(32,13,14,35)         66.8278         estimate D2E/DX2                !
 ! D88   D(12,13,15,36)         48.1479         estimate D2E/DX2                !
 ! D89   D(12,13,15,37)        -73.1523         estimate D2E/DX2                !
 ! D90   D(12,13,15,38)        167.1867         estimate D2E/DX2                !
 ! D91   D(14,13,15,36)        177.1918         estimate D2E/DX2                !
 ! D92   D(14,13,15,37)         55.8916         estimate D2E/DX2                !
 ! D93   D(14,13,15,38)        -63.7694         estimate D2E/DX2                !
 ! D94   D(32,13,15,36)        -67.1047         estimate D2E/DX2                !
 ! D95   D(32,13,15,37)        171.5952         estimate D2E/DX2                !
 ! D96   D(32,13,15,38)         51.9341         estimate D2E/DX2                !
 --------------------------------------------------------------------------------
 Trust Radius=3.00D-01 FncErr=1.00D-07 GrdErr=1.00D-06 EigMax=2.50D+02 EigMin=1.00D-04
 Number of steps in this run=    217 maximum allowed number of steps=    234.
 GradGradGradGradGradGradGradGradGradGradGradGradGradGradGradGradGradGrad

 Leave Link  103 at Tue Sep 17 09:47:29 2024, MaxMem=  1342177280 cpu:               0.1 elap:               0.1
 (Enter /groups/ReismanLab/Software/Gaussian16_RevC/Linux_Binary_AVX2-enabled-CPU/g16/l202.exe)
                          Input orientation:                          
 ---------------------------------------------------------------------
 Center     Atomic      Atomic             Coordinates (Angstroms)
 Number     Number       Type             X           Y           Z
 ---------------------------------------------------------------------
      1          6           0       -4.294287    1.021912    1.508233
      2          6           0       -3.888041    0.304875    0.219165
      3          6           0       -4.435668    1.038003   -1.007023
      4          6           0       -2.388749    0.166195    0.134191
      5          6           0       -1.561054    1.275366    0.094689
      6          6           0       -0.177070    1.174502    0.016847
      7          6           0        0.585497    2.485626   -0.017587
      8          6           0        1.344501    2.704158   -1.329760
      9          6           0        1.486562    2.688283    1.204180
     10          6           0        0.374033   -0.107630   -0.021701
     11         35           0        2.276217   -0.295580   -0.128376
     12          6           0       -0.416297   -1.256506    0.015208
     13          6           0        0.073110   -2.691856   -0.021023
     14          6           0        0.774302   -3.053628   -1.333697
     15          6           0        0.917290   -3.069239    1.199920
     16          6           0       -1.794333   -1.082154    0.093197
     17          1           0       -5.378178    1.060204    1.590753
     18          1           0       -3.913581    2.040130    1.521569
     19          1           0       -3.899138    0.496456    2.375015
     20          1           0       -4.321832   -0.701247    0.237114
     21          1           0       -4.138818    0.525050   -1.919335
     22          1           0       -4.059766    2.057224   -1.048871
     23          1           0       -5.522049    1.074788   -0.968107
     24          1           0       -1.999662    2.261840    0.125182
     25          1           0       -0.179417    3.270449    0.030221
     26          1           0        1.679143    3.737941   -1.384379
     27          1           0        2.218662    2.067084   -1.410725
     28          1           0        0.691316    2.508896   -2.178503
     29          1           0        1.823168    3.722394    1.235853
     30          1           0        2.365569    2.053288    1.177281
     31          1           0        0.933171    2.478731    2.117965
     32          1           0       -0.831568   -3.310275    0.026228
     33          1           0        0.900120   -4.132853   -1.389117
     34          1           0        1.756224   -2.599822   -1.414573
     35          1           0        0.171685   -2.733752   -2.182012
     36          1           0        0.416495   -2.755867    2.114310
     37          1           0        1.904167   -2.619791    1.172936
     38          1           0        1.043576   -4.149407    1.230327
     39          1           0       -2.424198   -1.960546    0.122943
 ---------------------------------------------------------------------
                    Distance matrix (angstroms):
                    1          2          3          4          5
     1  C    0.000000
     2  C    1.529992   0.000000
     3  C    2.519278   1.530003   0.000000
     4  C    2.500264   1.508088   2.500459   0.000000
     5  C    3.087541   2.524325   3.087639   1.384522   0.000000
     6  C    4.381665   3.816868   4.382077   2.433511   1.389836
     7  C    5.318166   4.982396   5.318524   3.774777   2.466783
     8  C    6.533000   5.961142   6.024166   4.745689   3.537336
     9  C    6.023907   5.961312   6.533425   4.745929   3.537692
    10  C    5.040811   4.288758   5.041483   2.780692   2.381341
    11  Br   6.898246   6.203177   6.899265   4.695113   4.152382
    12  C    4.739106   3.812153   4.739733   2.434913   2.779777
    13  C    5.933368   4.972806   5.934064   3.775354   4.292170
    14  C    7.097689   5.952173   6.632642   4.746245   5.121948
    15  C    6.632730   5.952960   7.098887   4.746968   5.122433
    16  C    3.560785   2.514623   3.561207   1.383251   2.369033
    17  H    1.087702   2.161547   2.763559   3.443474   4.105477
    18  H    1.087144   2.169797   2.769587   2.785959   2.855738
    19  H    1.087915   2.164375   3.466889   2.722434   3.357563
    20  H    2.141443   1.095801   2.141454   2.121287   3.398409
    21  H    3.466881   2.164382   1.087913   2.721853   3.356208
    22  H    2.768692   2.169823   1.087137   2.787100   2.857025
    23  H    2.764499   2.161565   1.087700   3.443569   4.106001
    24  H    2.952212   2.721125   2.951913   2.131478   1.080018
    25  H    4.916563   4.752285   4.916845   3.811607   2.427639
    26  H    7.171184   6.734302   6.694996   5.622381   4.330218
    27  H    7.213266   6.561535   6.745524   5.218082   4.144797
    28  H    6.376472   5.619345   5.460939   4.508171   3.429602
    29  H    6.692537   6.732830   7.170040   5.621428   4.329337
    30  H    6.747366   6.563731   7.215179   5.220412   4.146750
    31  H    5.460807   5.619179   6.376965   4.507587   3.429707
    32  H    5.740610   4.737991   5.741486   3.810815   4.643806
    33  H    7.870713   6.723577   7.440053   5.623072   6.124369
    34  H    7.633377   6.554700   7.193010   5.218268   5.319707
    35  H    6.904188   5.610728   6.069137   4.508913   4.925319
    36  H    6.068807   5.611483   6.905045   4.508737   4.923455
    37  H    7.196892   6.558431   7.637092   5.222053   5.323779
    38  H    7.437242   6.721899   7.870011   5.621992   6.123882
    39  H    3.783030   2.698931   3.783402   2.127066   3.349170
                    6          7          8          9         10
     6  C    0.000000
     7  C    1.517149   0.000000
     8  C    2.543301   1.531548   0.000000
     9  C    2.543416   1.531569   2.537969   0.000000
    10  C    1.396089   2.601867   3.249459   3.249252   0.000000
    11  Br   2.863712   3.256672   3.363012   3.361949   1.914421
    12  C    2.442751   3.874044   4.538305   4.538269   1.394955
    13  C    3.874629   5.202775   5.696156   5.696040   2.601687
    14  C    4.539401   5.696588   5.785952   6.318044   3.249685
    15  C    4.539452   5.696396   6.317746   5.785599   3.249402
    16  C    2.777384   4.290095   5.119887   5.120034   2.380065
    17  H    5.435234   6.339086   7.511750   7.065744   6.087017
    18  H    4.120074   4.775896   6.018176   5.448154   5.037677
    19  H    4.458082   5.458324   6.789334   5.931334   4.936513
    20  H    4.554778   5.856869   6.794057   6.794231   4.740308
    21  H    4.457133   5.457074   5.929831   6.788285   4.936306
    22  H    4.121926   4.777608   5.450093   6.019653   5.039865
    23  H    5.435888   6.340037   7.066480   7.512844   6.087494
    24  H    2.125060   2.598752   3.673680   3.674214   3.357141
    25  H    2.095991   1.096963   2.119566   2.119571   3.423510
    26  H    3.461240   2.152318   1.087968   2.799912   4.283529
    27  H    2.928173   2.187061   1.084702   2.785603   3.171975
    28  H    2.711875   2.163631   1.088642   3.479532   3.405683
    29  H    3.461023   2.152333   2.801481   1.087976   4.283750
    30  H    2.929827   2.187071   2.784146   1.084711   3.173853
    31  H    2.710783   2.163679   3.479485   1.088649   3.402950
    32  H    4.532293   5.966779   6.538149   6.537889   3.422383
    33  H    5.595096   6.766413   6.851695   7.320998   4.283575
    34  H    4.475725   5.402217   5.320613   5.907169   3.171997
    35  H    4.497895   5.665498   5.627850   6.526382   3.406523
    36  H    4.494382   5.660988   6.521862   5.622468   3.402573
    37  H    4.479370   5.405693   5.909413   5.324568   3.174810
    38  H    5.595223   6.766889   7.322292   6.852075   4.283903
    39  H    3.858674   5.370890   6.170325   6.170473   3.359214
                   11         12         13         14         15
    11  Br   0.000000
    12  C    2.862451   0.000000
    13  C    3.256891   1.516925   0.000000
    14  C    3.363833   2.542974   1.531555   0.000000
    15  C    3.362177   2.543226   1.531587   2.537696   0.000000
    16  C    4.151767   1.391210   2.468103   3.538449   3.539244
    17  H    7.961364   5.698224   6.811191   7.957954   7.539097
    18  H    6.818465   5.036659   6.376911   7.488335   7.038923
    19  H    6.710387   4.557604   5.628951   6.942527   6.106801
    20  H    6.620604   3.951046   4.831633   5.828527   5.829475
    21  H    6.710710   4.557802   5.629601   6.106443   6.943550
    22  H    6.821120   5.038644   6.378941   7.040607   7.490579
    23  H    7.962161   5.698293   6.811048   7.538004   7.958542
    24  H    4.988771   3.859780   5.371859   6.170689   6.171230
    25  H    4.332650   4.533173   5.967870   6.539403   6.539312
    26  H    4.266537   5.594123   6.766119   6.851767   7.320978
    27  H    2.688850   4.474655   5.402052   5.321071   5.906847
    28  H    3.818379   4.496379   5.664337   5.626922   6.525366
    29  H    4.267375   5.594159   6.766464   7.322375   6.851875
    30  H    2.688848   4.477044   5.404414   5.909122   5.323374
    31  H    3.814003   4.493845   5.661267   6.522745   5.623436
    32  H    4.332506   2.095361   1.096867   2.119925   2.119942
    33  H    4.267057   3.460991   2.152232   1.087948   2.799050
    34  H    2.689652   2.927220   2.187081   1.084735   2.785630
    35  H    3.819837   2.712148   2.163641   1.088626   3.479359
    36  H    3.813294   2.710693   2.163714   3.479287   1.088626
    37  H    2.689571   2.929750   2.187122   2.783526   1.084738
    38  H    4.268191   3.460726   2.152240   2.801332   1.087950
    39  H    4.992912   2.130481   2.606164   3.680629   3.681661
                   16         17         18         19         20
    16  C    0.000000
    17  H    4.435800   0.000000
    18  H    4.034863   1.763543   0.000000
    19  H    3.482658   1.766476   1.763947   0.000000
    20  H    2.560089   2.459861   3.054774   2.486722   0.000000
    21  H    3.482814   3.760735   3.766434   4.301129   2.487483
    22  H    4.036359   3.114463   2.574650   3.766271   3.054767
    23  H    4.435609   2.562943   3.117297   3.760954   2.459142
    24  H    3.350444   3.873784   2.379525   3.433124   3.766283
    25  H    4.642959   5.860679   4.204971   5.198983   5.742541
    26  H    6.122220   8.113413   6.527301   7.467094   7.638543
    27  H    5.318233   8.230107   6.797315   7.363843   7.290892
    28  H    4.922876   7.290046   5.925821   6.771759   6.424320
    29  H    6.121736   7.685870   5.985143   6.667020   7.637219
    30  H    5.320810   7.818107   6.288596   6.565429   7.293334
    31  H    4.921266   6.490247   4.902965   5.229408   6.423778
    32  H    2.428153   6.497730   6.353085   5.423835   4.362734
    33  H    4.331755   8.675512   8.351619   7.657159   6.456728
    34  H    4.145255   8.563146   7.892831   7.478706   6.578406
    35  H    3.430681   7.709010   7.293549   6.911753   5.493172
    36  H    3.431323   6.958071   6.488643   5.410200   5.495187
    37  H    4.148381   8.170036   7.462078   6.695845   6.581766
    38  H    4.330686   8.277010   7.935276   6.879301   6.454757
    39  H    1.081290   4.472740   4.492196   3.644741   2.280325
                   21         22         23         24         25
    21  H    0.000000
    22  H    1.763949   0.000000
    23  H    1.766459   1.763512   0.000000
    24  H    3.431104   2.379978   3.874478   0.000000
    25  H    5.197580   4.206359   5.861851   2.083171   0.000000
    26  H    6.667647   5.989361   7.689137   4.241610   2.381992
    27  H    6.561563   6.288855   7.816596   4.493462   3.045521
    28  H    5.228098   4.904371   6.490580   3.550967   2.493312
    29  H    7.464817   6.526995   8.112920   4.240382   2.380787
    30  H    7.364210   6.800051   8.232537   4.495070   3.045354
    31  H    6.770652   5.927557   7.291417   3.552427   2.494663
    32  H    5.425204   6.355089   6.497546   5.694094   6.612960
    33  H    6.882448   7.939351   8.278952   7.182893   7.615038
    34  H    6.691123   7.459729   8.165498   6.333505   6.347773
    35  H    5.410103   6.491735   6.956805   5.915558   6.408406
    36  H    6.912711   7.294414   7.709833   5.913699   6.404297
    37  H    7.481298   7.898063   8.566368   6.337823   6.351539
    38  H    7.656900   8.352312   8.673682   7.182391   7.615132
    39  H    3.645409   4.493407   4.472172   4.243676   5.693062
                   26         27         28         29         30
    26  H    0.000000
    27  H    1.756001   0.000000
    28  H    1.765499   1.765635   0.000000
    29  H    2.624233   3.146560   3.796247   0.000000
    30  H    3.141868   2.592208   3.777828   1.756002   0.000000
    31  H    3.795853   3.778041   4.303376   1.765478   1.765688
    32  H    7.613858   6.347025   6.406463   7.613754   6.349363
    33  H    7.909254   6.338631   6.691754   8.333510   6.855821
    34  H    6.338304   4.689763   5.274146   6.855630   5.361011
    35  H    6.692642   5.275701   5.268338   7.489393   6.246097
    36  H    7.483625   6.239753   6.798639   6.687173   5.273033
    37  H    6.856476   5.361064   6.245525   6.343015   4.695805
    38  H    8.333720   6.855708   7.488472   7.910313   6.342232
    39  H    7.182074   6.334832   5.914305   7.181539   6.337536
                   31         32         33         34         35
    31  H    0.000000
    32  H    6.403300   0.000000
    33  H    7.484234   2.382978   0.000000
    34  H    6.240829   3.045869   1.756060   0.000000
    35  H    6.799973   2.493034   1.765442   1.765691   0.000000
    36  H    5.260036   2.495017   3.795258   3.777861   4.303347
    37  H    5.275494   3.045644   3.140316   2.591812   3.777586
    38  H    6.688221   2.381210   2.623422   3.147154   3.795831
    39  H    5.912633   2.089879   4.249275   4.499840   3.556581
                   36         37         38         39
    36  H    0.000000
    37  H    1.765748   0.000000
    38  H    1.765392   1.756028   0.000000
    39  H    3.559160   4.502425   4.247690   0.000000
 Stoichiometry    C15H23Br
 Framework group  C1[X(C15H23Br)]
 Deg. of freedom   111
 Full point group                 C1      NOp   1
 Largest Abelian subgroup         C1      NOp   1
 Largest concise Abelian subgroup C1      NOp   1
                         Standard orientation:                         
 ---------------------------------------------------------------------
 Center     Atomic      Atomic             Coordinates (Angstroms)
 Number     Number       Type             X           Y           Z
 ---------------------------------------------------------------------
      1          6           0        4.343329   -0.079591   -1.260289
      2          6           0        3.700322   -0.662645   -0.000343
      3          6           0        4.344429   -0.079447    1.258988
      4          6           0        2.211437   -0.422751    0.000107
      5          6           0        1.685362    0.857931    0.000337
      6          6           0        0.317784    1.105665    0.000324
      7          6           0       -0.094717    2.565659    0.000380
      8          6           0       -0.846946    2.976711    1.269564
      9          6           0       -0.847612    2.976799   -1.268405
     10          6           0       -0.536684    0.001605    0.000130
     11         35           0       -2.428593    0.294331   -0.000506
     12          6           0       -0.056775   -1.308199    0.000161
     13          6           0       -0.889641   -2.576029    0.000137
     14          6           0       -1.730604   -2.741364    1.269430
     15          6           0       -1.732120   -2.740788   -1.268266
     16          6           0        1.323374   -1.483283    0.000152
     17          1           0        5.405427   -0.313193   -1.282056
     18          1           0        4.229701    1.001232   -1.288478
     19          1           0        3.878448   -0.496833   -2.150993
     20          1           0        3.870027   -1.745225   -0.000358
     21          1           0        3.878959   -0.495077    2.150136
     22          1           0        4.232633    1.001584    1.286171
     23          1           0        5.406138   -0.314786    1.280887
     24          1           0        2.356943    1.703755    0.000466
     25          1           0        0.843071    3.134766    0.000145
     26          1           0       -0.915929    4.061665    1.311886
     27          1           0       -1.855384    2.578168    1.297735
     28          1           0       -0.311169    2.631555    2.152147
     29          1           0       -0.913624    4.061881   -1.312346
     30          1           0       -1.857217    2.581051   -1.294471
     31          1           0       -0.314058    2.628803   -2.151227
     32          1           0       -0.166418   -3.400689   -0.000488
     33          1           0       -2.124255   -3.754744    1.311038
     34          1           0       -2.571398   -2.056614    1.298299
     35          1           0       -1.115332   -2.575047    2.151974
     36          1           0       -1.119080   -2.569266   -2.151367
     37          1           0       -2.575798   -2.059447   -1.293508
     38          1           0       -2.121694   -3.755638   -1.312383
     39          1           0        1.715139   -2.491107    0.000077
 ---------------------------------------------------------------------
 Rotational constants (GHZ):           0.5335779           0.3077769           0.2234455
 Leave Link  202 at Tue Sep 17 09:47:29 2024, MaxMem=  1342177280 cpu:               0.1 elap:               0.0
 (Enter /groups/ReismanLab/Software/Gaussian16_RevC/Linux_Binary_AVX2-enabled-CPU/g16/l301.exe)
 Standard basis: 6-31G(d,p) (6D, 7F)
 Ernie: Thresh=  0.10000D-02 Tol=  0.10000D-05 Strict=F.
 There are   370 symmetry adapted cartesian basis functions of A   symmetry.
 There are   370 symmetry adapted basis functions of A   symmetry.
   370 basis functions,   664 primitive gaussians,   370 cartesian basis functions
    74 alpha electrons       74 beta electrons
       nuclear repulsion energy      1552.7073015485 Hartrees.
 IExCor=  402 DFT=T Ex+Corr=B3LYP ExCW=0 ScaHFX=  0.200000
 ScaDFX=  0.800000  0.720000  1.000000  0.810000 ScalE2=  1.000000  1.000000
 IRadAn=      5 IRanWt=     -1 IRanGd=            0 ICorTp=0 IEmpDi=141
 NAtoms=   39 NActive=   39 NUniq=   39 SFac= 1.00D+00 NAtFMM=   60 NAOKFM=F Big=F
 Integral buffers will be    131072 words long.
 Raffenetti 2 integral format.
 Two-electron integral symmetry is turned on.
 R6Disp:  Grimme-D3(BJ) Dispersion energy=       -0.0826911998 Hartrees.
 Nuclear repulsion after empirical dispersion term =     1552.6246103488 Hartrees.
 Leave Link  301 at Tue Sep 17 09:47:29 2024, MaxMem=  1342177280 cpu:               0.1 elap:               0.1
 (Enter /groups/ReismanLab/Software/Gaussian16_RevC/Linux_Binary_AVX2-enabled-CPU/g16/l302.exe)
 NPDir=0 NMtPBC=     1 NCelOv=     1 NCel=       1 NClECP=     1 NCelD=      1
         NCelK=      1 NCelE2=     1 NClLst=     1 CellRange=     0.0.
 One-electron integrals computed using PRISM.
 One-electron integral symmetry used in STVInt
 NBasis=   370 RedAO= T EigKep=  3.11D-04  NBF=   370
 NBsUse=   370 1.00D-06 EigRej= -1.00D+00 NBFU=   370
 Precomputing XC quadrature grid using
 IXCGrd= 4 IRadAn=           5 IRanWt=          -1 IRanGd=           0 AccXCQ= 0.00D+00.
 Generated NRdTot=       0 NPtTot=           0 NUsed=           0 NTot=          32
 NSgBfM=   369   369   369   369   369 MxSgAt=    39 MxSgA2=    39.
 Leave Link  302 at Tue Sep 17 09:47:30 2024, MaxMem=  1342177280 cpu:               2.8 elap:               0.5
 (Enter /groups/ReismanLab/Software/Gaussian16_RevC/Linux_Binary_AVX2-enabled-CPU/g16/l303.exe)
 DipDrv:  MaxL=1.
 Leave Link  303 at Tue Sep 17 09:47:30 2024, MaxMem=  1342177280 cpu:               0.2 elap:               0.1
 (Enter /groups/ReismanLab/Software/Gaussian16_RevC/Linux_Binary_AVX2-enabled-CPU/g16/l401.exe)
 ExpMin= 1.43D-01 ExpMax= 5.74D+05 ExpMxC= 5.74D+03 IAcc=3 IRadAn=         5 AccDes= 0.00D+00
 Harris functional with IExCor=  402 and IRadAn=       5 diagonalized for initial guess.
 HarFok:  IExCor=  402 AccDes= 0.00D+00 IRadAn=         5 IDoV= 1 UseB2=F ITyADJ=14
 ICtDFT=  3500011 ScaDFX=  1.000000  1.000000  1.000000  1.000000
 FoFCou: FMM=F IPFlag=           0 FMFlag=      100000 FMFlg1=           0
         NFxFlg=           0 DoJE=T BraDBF=F KetDBF=T FulRan=T
         wScrn=  0.000000 ICntrl=       500 IOpCl=  0 I1Cent=   200000004 NGrid=           0
         NMat0=    1 NMatS0=      1 NMatT0=    0 NMatD0=    1 NMtDS0=    0 NMtDT0=    0
 Petite list used in FoFCou.
 Harris En= -3157.51989295259    
 JPrj=0 DoOrth=F DoCkMO=F.
 Leave Link  401 at Tue Sep 17 09:47:31 2024, MaxMem=  1342177280 cpu:              14.2 elap:               1.9
 (Enter /groups/ReismanLab/Software/Gaussian16_RevC/Linux_Binary_AVX2-enabled-CPU/g16/l502.exe)
 Integral symmetry usage will be decided dynamically.
 Closed shell SCF:
 Using DIIS extrapolation, IDIIS=  1040.
 NGot=  1342177280 LenX=  1341895517 LenY=  1341758176
 Requested convergence on RMS density matrix=1.00D-08 within  32 cycles.
 Requested convergence on MAX density matrix=1.00D-06.
 Requested convergence on             energy=1.00D-06.
 No special actions if energy rises.
 Fock matrices will be formed incrementally for  20 cycles.
 Integral accuracy reduced to 1.0D-05 until final iterations.

 Cycle   1  Pass 0  IDiag  1:
 FoFJK:  IHMeth= 1 ICntrl=       0 DoSepK=F KAlg= 0 I1Cent=           0 FoldK=F
 IRaf= 800000000 NMat=       1 IRICut=       1 DoRegI=T DoRafI=F ISym2E= 0 IDoP0=0 IntGTp=1.
 FoFCou: FMM=F IPFlag=           0 FMFlag=      100000 FMFlg1=           0
         NFxFlg=           0 DoJE=F BraDBF=F KetDBF=F FulRan=T
         wScrn=  0.000000 ICntrl=         0 IOpCl=  0 I1Cent=           0 NGrid=           0
         NMat0=    1 NMatS0=      1 NMatT0=    0 NMatD0=    1 NMtDS0=    0 NMtDT0=    0
 Symmetry not used in FoFCou.
 E= -3156.74919085413    
 DIIS: error= 1.38D-01 at cycle   1 NSaved=   1.
 NSaved= 1 IEnMin= 1 EnMin= -3156.74919085413     IErMin= 1 ErrMin= 1.38D-01
 ErrMax= 1.38D-01  0.00D+00 EMaxC= 1.00D-01 BMatC= 8.56D-01 BMatP= 8.56D-01
 IDIUse=3 WtCom= 0.00D+00 WtEn= 1.00D+00
 Coeff-Com:  0.100D+01
 Coeff-En:   0.100D+01
 Coeff:      0.100D+01
 Gap=     0.284 Goal=   None    Shift=    0.000
 GapD=    0.284 DampG=1.000 DampE=0.250 DampFc=0.2500 IDamp=-1.
 Damping current iteration by 2.50D-01
 RMSDP=4.51D-03 MaxDP=1.39D-01              OVMax= 1.72D-01

 Cycle   2  Pass 0  IDiag  1:
 RMSU=  1.10D-03    CP:  9.91D-01
 E= -3156.94822370630     Delta-E=       -0.199032852170 Rises=F Damp=T
 DIIS: error= 1.02D-01 at cycle   2 NSaved=   2.
 NSaved= 2 IEnMin= 2 EnMin= -3156.94822370630     IErMin= 2 ErrMin= 1.02D-01
 ErrMax= 1.02D-01  0.00D+00 EMaxC= 1.00D-01 BMatC= 3.21D-01 BMatP= 8.56D-01
 IDIUse=3 WtCom= 0.00D+00 WtEn= 1.00D+00
 Coeff-Com: -0.119D+01 0.219D+01
 Coeff-En:   0.000D+00 0.100D+01
 Coeff:      0.000D+00 0.100D+01
 Gap=     0.227 Goal=   None    Shift=    0.000
 RMSDP=2.20D-03 MaxDP=1.11D-01 DE=-1.99D-01 OVMax= 6.41D-02

 Cycle   3  Pass 0  IDiag  1:
 RMSU=  7.56D-04    CP:  9.64D-01  2.77D+00
 E= -3157.16188883312     Delta-E=       -0.213665126817 Rises=F Damp=F
 DIIS: error= 1.64D-02 at cycle   3 NSaved=   3.
 NSaved= 3 IEnMin= 3 EnMin= -3157.16188883312     IErMin= 3 ErrMin= 1.64D-02
 ErrMax= 1.64D-02  0.00D+00 EMaxC= 1.00D-01 BMatC= 1.23D-01 BMatP= 3.21D-01
 IDIUse=3 WtCom= 8.36D-01 WtEn= 1.64D-01
 EnCoef did   100 forward-backward iterations
 Coeff-Com:  0.208D+01-0.270D+01 0.163D+01
 Coeff-En:   0.152D+00 0.224D-02 0.845D+00
 Coeff:      0.176D+01-0.226D+01 0.150D+01
 Gap=     0.248 Goal=   None    Shift=    0.000
 RMSDP=1.15D-03 MaxDP=3.63D-02 DE=-2.14D-01 OVMax= 4.91D-02

 Cycle   4  Pass 0  IDiag  1:
 RMSU=  2.75D-04    CP:  9.67D-01  1.79D+00  1.37D+00
 E= -3157.28999085124     Delta-E=       -0.128102018121 Rises=F Damp=F
 DIIS: error= 2.37D-03 at cycle   4 NSaved=   4.
 NSaved= 4 IEnMin= 4 EnMin= -3157.28999085124     IErMin= 4 ErrMin= 2.37D-03
 ErrMax= 2.37D-03  0.00D+00 EMaxC= 1.00D-01 BMatC= 3.34D-03 BMatP= 1.23D-01
 IDIUse=3 WtCom= 9.76D-01 WtEn= 2.37D-02
 Coeff-Com:  0.599D+00-0.783D+00 0.541D+00 0.643D+00
 Coeff-En:   0.000D+00 0.000D+00 0.000D+00 0.100D+01
 Coeff:      0.585D+00-0.764D+00 0.528D+00 0.651D+00
 Gap=     0.222 Goal=   None    Shift=    0.000
 RMSDP=2.04D-04 MaxDP=1.11D-02 DE=-1.28D-01 OVMax= 2.13D-02

 Cycle   5  Pass 0  IDiag  1:
 RMSU=  1.21D-04    CP:  9.66D-01  1.86D+00  1.41D+00  4.74D-01
 E= -3157.29257213977     Delta-E=       -0.002581288531 Rises=F Damp=F
 DIIS: error= 1.49D-03 at cycle   5 NSaved=   5.
 NSaved= 5 IEnMin= 5 EnMin= -3157.29257213977     IErMin= 5 ErrMin= 1.49D-03
 ErrMax= 1.49D-03  0.00D+00 EMaxC= 1.00D-01 BMatC= 7.18D-04 BMatP= 3.34D-03
 IDIUse=3 WtCom= 9.85D-01 WtEn= 1.49D-02
 Coeff-Com:  0.593D-01-0.759D-01 0.930D-01 0.384D+00 0.540D+00
 Coeff-En:   0.000D+00 0.000D+00 0.000D+00 0.133D+00 0.867D+00
 Coeff:      0.584D-01-0.747D-01 0.916D-01 0.380D+00 0.545D+00
 Gap=     0.223 Goal=   None    Shift=    0.000
 RMSDP=9.84D-05 MaxDP=5.99D-03 DE=-2.58D-03 OVMax= 1.26D-02

 Cycle   6  Pass 0  IDiag  1:
 RMSU=  4.17D-05    CP:  9.66D-01  1.87D+00  1.38D+00  6.55D-01  4.24D-01
 E= -3157.29323673111     Delta-E=       -0.000664591334 Rises=F Damp=F
 DIIS: error= 5.51D-04 at cycle   6 NSaved=   6.
 NSaved= 6 IEnMin= 6 EnMin= -3157.29323673111     IErMin= 6 ErrMin= 5.51D-04
 ErrMax= 5.51D-04  0.00D+00 EMaxC= 1.00D-01 BMatC= 7.96D-05 BMatP= 7.18D-04
 IDIUse=3 WtCom= 9.94D-01 WtEn= 5.51D-03
 Coeff-Com:  0.147D-01-0.182D-01 0.385D-01 0.219D+00 0.354D+00 0.392D+00
 Coeff-En:   0.000D+00 0.000D+00 0.000D+00 0.000D+00 0.371D-01 0.963D+00
 Coeff:      0.146D-01-0.181D-01 0.383D-01 0.218D+00 0.353D+00 0.395D+00
 Gap=     0.223 Goal=   None    Shift=    0.000
 RMSDP=3.03D-05 MaxDP=1.50D-03 DE=-6.65D-04 OVMax= 3.68D-03

 Cycle   7  Pass 0  IDiag  1:
 RMSU=  1.12D-05    CP:  9.66D-01  1.88D+00  1.38D+00  6.36D-01  5.30D-01
                    CP:  4.24D-01
 E= -3157.29332110102     Delta-E=       -0.000084369915 Rises=F Damp=F
 DIIS: error= 7.64D-05 at cycle   7 NSaved=   7.
 NSaved= 7 IEnMin= 7 EnMin= -3157.29332110102     IErMin= 7 ErrMin= 7.64D-05
 ErrMax= 7.64D-05  0.00D+00 EMaxC= 1.00D-01 BMatC= 1.68D-06 BMatP= 7.96D-05
 IDIUse=1 WtCom= 1.00D+00 WtEn= 0.00D+00
 Coeff-Com:  0.290D-02-0.343D-02 0.107D-01 0.676D-01 0.115D+00 0.182D+00
 Coeff-Com:  0.624D+00
 Coeff:      0.290D-02-0.343D-02 0.107D-01 0.676D-01 0.115D+00 0.182D+00
 Coeff:      0.624D+00
 Gap=     0.223 Goal=   None    Shift=    0.000
 RMSDP=5.64D-06 MaxDP=2.98D-04 DE=-8.44D-05 OVMax= 6.39D-04

 Initial convergence to 1.0D-05 achieved.  Increase integral accuracy.
 Cycle   8  Pass 1  IDiag  1:
 E= -3157.29336392457     Delta-E=       -0.000042823547 Rises=F Damp=F
 DIIS: error= 1.26D-04 at cycle   1 NSaved=   1.
 NSaved= 1 IEnMin= 1 EnMin= -3157.29336392457     IErMin= 1 ErrMin= 1.26D-04
 ErrMax= 1.26D-04  0.00D+00 EMaxC= 1.00D-01 BMatC= 1.03D-06 BMatP= 1.03D-06
 IDIUse=3 WtCom= 9.99D-01 WtEn= 1.26D-03
 Coeff-Com:  0.100D+01
 Coeff-En:   0.100D+01
 Coeff:      0.100D+01
 Gap=     0.223 Goal=   None    Shift=    0.000
 RMSDP=5.64D-06 MaxDP=2.98D-04 DE=-4.28D-05 OVMax= 4.54D-04

 Cycle   9  Pass 1  IDiag  1:
 RMSU=  3.24D-05    CP:  1.00D+00
 E= -3157.29336396458     Delta-E=       -0.000000040009 Rises=F Damp=F
 DIIS: error= 4.58D-05 at cycle   2 NSaved=   2.
 NSaved= 2 IEnMin= 2 EnMin= -3157.29336396458     IErMin= 2 ErrMin= 4.58D-05
 ErrMax= 4.58D-05  0.00D+00 EMaxC= 1.00D-01 BMatC= 6.68D-07 BMatP= 1.03D-06
 IDIUse=1 WtCom= 1.00D+00 WtEn= 0.00D+00
 Coeff-Com:  0.426D+00 0.574D+00
 Coeff:      0.426D+00 0.574D+00
 Gap=     0.223 Goal=   None    Shift=    0.000
 RMSDP=4.24D-06 MaxDP=2.51D-04 DE=-4.00D-08 OVMax= 5.05D-04

 Cycle  10  Pass 1  IDiag  1:
 RMSU=  4.21D-06    CP:  1.00D+00  9.83D-01
 E= -3157.29336431554     Delta-E=       -0.000000350963 Rises=F Damp=F
 DIIS: error= 3.44D-05 at cycle   3 NSaved=   3.
 NSaved= 3 IEnMin= 3 EnMin= -3157.29336431554     IErMin= 3 ErrMin= 3.44D-05
 ErrMax= 3.44D-05  0.00D+00 EMaxC= 1.00D-01 BMatC= 3.29D-07 BMatP= 6.68D-07
 IDIUse=1 WtCom= 1.00D+00 WtEn= 0.00D+00
 Coeff-Com:  0.329D-01 0.407D+00 0.560D+00
 Coeff:      0.329D-01 0.407D+00 0.560D+00
 Gap=     0.223 Goal=   None    Shift=    0.000
 RMSDP=2.03D-06 MaxDP=1.19D-04 DE=-3.51D-07 OVMax= 2.35D-04

 Cycle  11  Pass 1  IDiag  1:
 RMSU=  8.19D-07    CP:  1.00D+00  1.00D+00  5.79D-01
 E= -3157.29336464922     Delta-E=       -0.000000333681 Rises=F Damp=F
 DIIS: error= 7.65D-06 at cycle   4 NSaved=   4.
 NSaved= 4 IEnMin= 4 EnMin= -3157.29336464922     IErMin= 4 ErrMin= 7.65D-06
 ErrMax= 7.65D-06  0.00D+00 EMaxC= 1.00D-01 BMatC= 2.37D-08 BMatP= 3.29D-07
 IDIUse=1 WtCom= 1.00D+00 WtEn= 0.00D+00
 Coeff-Com: -0.187D-02 0.225D+00 0.350D+00 0.427D+00
 Coeff:     -0.187D-02 0.225D+00 0.350D+00 0.427D+00
 Gap=     0.223 Goal=   None    Shift=    0.000
 RMSDP=4.88D-07 MaxDP=2.86D-05 DE=-3.34D-07 OVMax= 4.44D-05

 Cycle  12  Pass 1  IDiag  1:
 RMSU=  1.36D-07    CP:  1.00D+00  9.99D-01  6.05D-01  4.45D-01
 E= -3157.29336467356     Delta-E=       -0.000000024339 Rises=F Damp=F
 DIIS: error= 8.49D-07 at cycle   5 NSaved=   5.
 NSaved= 5 IEnMin= 5 EnMin= -3157.29336467356     IErMin= 5 ErrMin= 8.49D-07
 ErrMax= 8.49D-07  0.00D+00 EMaxC= 1.00D-01 BMatC= 2.87D-10 BMatP= 2.37D-08
 IDIUse=1 WtCom= 1.00D+00 WtEn= 0.00D+00
 Coeff-Com: -0.156D-02 0.119D+00 0.187D+00 0.240D+00 0.454D+00
 Coeff:     -0.156D-02 0.119D+00 0.187D+00 0.240D+00 0.454D+00
 Gap=     0.223 Goal=   None    Shift=    0.000
 RMSDP=6.80D-08 MaxDP=2.69D-06 DE=-2.43D-08 OVMax= 6.77D-06

 Cycle  13  Pass 1  IDiag  1:
 RMSU=  4.36D-08    CP:  1.00D+00  9.99D-01  6.03D-01  4.46D-01  6.22D-01
 E= -3157.29336467379     Delta-E=       -0.000000000227 Rises=F Damp=F
 DIIS: error= 3.25D-07 at cycle   6 NSaved=   6.
 NSaved= 6 IEnMin= 6 EnMin= -3157.29336467379     IErMin= 6 ErrMin= 3.25D-07
 ErrMax= 3.25D-07  0.00D+00 EMaxC= 1.00D-01 BMatC= 1.69D-11 BMatP= 2.87D-10
 IDIUse=1 WtCom= 1.00D+00 WtEn= 0.00D+00
 Coeff-Com: -0.762D-03 0.530D-01 0.833D-01 0.108D+00 0.255D+00 0.501D+00
 Coeff:     -0.762D-03 0.530D-01 0.833D-01 0.108D+00 0.255D+00 0.501D+00
 Gap=     0.223 Goal=   None    Shift=    0.000
 RMSDP=1.60D-08 MaxDP=9.05D-07 DE=-2.27D-10 OVMax= 2.17D-06

 Cycle  14  Pass 1  IDiag  1:
 RMSU=  1.29D-08    CP:  1.00D+00  9.99D-01  6.03D-01  4.45D-01  6.49D-01
                    CP:  7.99D-01
 E= -3157.29336467391     Delta-E=       -0.000000000119 Rises=F Damp=F
 DIIS: error= 7.74D-08 at cycle   7 NSaved=   7.
 NSaved= 7 IEnMin= 7 EnMin= -3157.29336467391     IErMin= 7 ErrMin= 7.74D-08
 ErrMax= 7.74D-08  0.00D+00 EMaxC= 1.00D-01 BMatC= 1.69D-12 BMatP= 1.69D-11
 IDIUse=1 WtCom= 1.00D+00 WtEn= 0.00D+00
 Coeff-Com: -0.208D-03 0.131D-01 0.206D-01 0.275D-01 0.784D-01 0.274D+00
 Coeff-Com:  0.587D+00
 Coeff:     -0.208D-03 0.131D-01 0.206D-01 0.275D-01 0.784D-01 0.274D+00
 Coeff:      0.587D+00
 Gap=     0.223 Goal=   None    Shift=    0.000
 RMSDP=5.45D-09 MaxDP=2.68D-07 DE=-1.19D-10 OVMax= 6.22D-07

 SCF Done:  E(RB3LYP) =  -3157.29336467     A.U. after   14 cycles
            NFock= 14  Conv=0.55D-08     -V/T= 2.0068
 KE= 3.136027737789D+03 PE=-1.059270049046D+04 EE= 2.746754777653D+03
 Leave Link  502 at Tue Sep 17 09:48:08 2024, MaxMem=  1342177280 cpu:             280.3 elap:              36.3
 (Enter /groups/ReismanLab/Software/Gaussian16_RevC/Linux_Binary_AVX2-enabled-CPU/g16/l508.exe)
 QCSCF skips out because SCF is already converged.
 Leave Link  508 at Tue Sep 17 09:48:08 2024, MaxMem=  1342177280 cpu:               0.1 elap:               0.0
 (Enter /groups/ReismanLab/Software/Gaussian16_RevC/Linux_Binary_AVX2-enabled-CPU/g16/l601.exe)
 Copying SCF densities to generalized density rwf, IOpCl= 0 IROHF=0.

 **********************************************************************

            Population analysis using the SCF Density.

 **********************************************************************

 Orbital symmetries:
       Occupied  (A) (A) (A) (A) (A) (A) (A) (A) (A) (A) (A) (A)
                 (A) (A) (A) (A) (A) (A) (A) (A) (A) (A) (A) (A)
                 (A) (A) (A) (A) (A) (A) (A) (A) (A) (A) (A) (A)
                 (A) (A) (A) (A) (A) (A) (A) (A) (A) (A) (A) (A)
                 (A) (A) (A) (A) (A) (A) (A) (A) (A) (A) (A) (A)
                 (A) (A) (A) (A) (A) (A) (A) (A) (A) (A) (A) (A)
                 (A) (A)
       Virtual   (A) (A) (A) (A) (A) (A) (A) (A) (A) (A) (A) (A)
                 (A) (A) (A) (A) (A) (A) (A) (A) (A) (A) (A) (A)
                 (A) (A) (A) (A) (A) (A) (A) (A) (A) (A) (A) (A)
                 (A) (A) (A) (A) (A) (A) (A) (A) (A) (A) (A) (A)
                 (A) (A) (A) (A) (A) (A) (A) (A) (A) (A) (A) (A)
                 (A) (A) (A) (A) (A) (A) (A) (A) (A) (A) (A) (A)
                 (A) (A) (A) (A) (A) (A) (A) (A) (A) (A) (A) (A)
                 (A) (A) (A) (A) (A) (A) (A) (A) (A) (A) (A) (A)
                 (A) (A) (A) (A) (A) (A) (A) (A) (A) (A) (A) (A)
                 (A) (A) (A) (A) (A) (A) (A) (A) (A) (A) (A) (A)
                 (A) (A) (A) (A) (A) (A) (A) (A) (A) (A) (A) (A)
                 (A) (A) (A) (A) (A) (A) (A) (A) (A) (A) (A) (A)
                 (A) (A) (A) (A) (A) (A) (A) (A) (A) (A) (A) (A)
                 (A) (A) (A) (A) (A) (A) (A) (A) (A) (A) (A) (A)
                 (A) (A) (A) (A) (A) (A) (A) (A) (A) (A) (A) (A)
                 (A) (A) (A) (A) (A) (A) (A) (A) (A) (A) (A) (A)
                 (A) (A) (A) (A) (A) (A) (A) (A) (A) (A) (A) (A)
                 (A) (A) (A) (A) (A) (A) (A) (A) (A) (A) (A) (A)
                 (A) (A) (A) (A) (A) (A) (A) (A) (A) (A) (A) (A)
                 (A) (A) (A) (A) (A) (A) (A) (A) (A) (A) (A) (A)
                 (A) (A) (A) (A) (A) (A) (A) (A) (A) (A) (A) (A)
                 (A) (A) (A) (A) (A) (A) (A) (A) (A) (A) (A) (A)
                 (A) (A) (A) (A) (A) (A) (A) (A) (A) (A) (A) (A)
                 (A) (A) (A) (A) (A) (A) (A) (A) (A) (A) (A) (A)
                 (A) (A) (A) (A) (A) (A) (A) (A)
 The electronic state is 1-A.
 Alpha  occ. eigenvalues -- -482.90821 -61.86863 -56.38791 -56.38429 -56.38401
 Alpha  occ. eigenvalues --  -10.23457 -10.19817 -10.19763 -10.19289 -10.19125
 Alpha  occ. eigenvalues --  -10.19110 -10.18789 -10.18162 -10.18149 -10.17413
 Alpha  occ. eigenvalues --  -10.17413 -10.16481 -10.16480 -10.16473 -10.16472
 Alpha  occ. eigenvalues --   -8.57718  -6.53008  -6.51789  -6.51749  -2.64581
 Alpha  occ. eigenvalues --   -2.64234  -2.64205  -2.63232  -2.63232  -0.87957
 Alpha  occ. eigenvalues --   -0.82387  -0.81412  -0.77946  -0.77578  -0.72958
 Alpha  occ. eigenvalues --   -0.70802  -0.68679  -0.67958  -0.67929  -0.62442
 Alpha  occ. eigenvalues --   -0.61828  -0.59411  -0.56050  -0.53255  -0.49218
 Alpha  occ. eigenvalues --   -0.48028  -0.46348  -0.44349  -0.43761  -0.43714
 Alpha  occ. eigenvalues --   -0.42843  -0.42255  -0.41820  -0.41004  -0.40651
 Alpha  occ. eigenvalues --   -0.38942  -0.38746  -0.37925  -0.37902  -0.37422
 Alpha  occ. eigenvalues --   -0.35959  -0.35745  -0.34309  -0.34023  -0.33744
 Alpha  occ. eigenvalues --   -0.33283  -0.33127  -0.32643  -0.31547  -0.31052
 Alpha  occ. eigenvalues --   -0.29631  -0.26630  -0.24176  -0.22773
 Alpha virt. eigenvalues --   -0.00479   0.00042   0.01825   0.08865   0.09686
 Alpha virt. eigenvalues --    0.10193   0.11949   0.12454   0.14097   0.14727
 Alpha virt. eigenvalues --    0.15196   0.15323   0.15722   0.15766   0.16219
 Alpha virt. eigenvalues --    0.16806   0.17603   0.17616   0.19250   0.19383
 Alpha virt. eigenvalues --    0.19557   0.19929   0.20167   0.20264   0.20435
 Alpha virt. eigenvalues --    0.20916   0.21047   0.21484   0.22393   0.23907
 Alpha virt. eigenvalues --    0.25678   0.26091   0.27503   0.28443   0.29419
 Alpha virt. eigenvalues --    0.29986   0.32204   0.33098   0.35083   0.38035
 Alpha virt. eigenvalues --    0.38820   0.43819   0.44596   0.45317   0.46690
 Alpha virt. eigenvalues --    0.47293   0.49017   0.49799   0.50094   0.50671
 Alpha virt. eigenvalues --    0.50929   0.51095   0.51852   0.52934   0.53416
 Alpha virt. eigenvalues --    0.53524   0.55190   0.57330   0.58781   0.60105
 Alpha virt. eigenvalues --    0.60324   0.61823   0.63261   0.63466   0.63756
 Alpha virt. eigenvalues --    0.64817   0.65016   0.66465   0.66720   0.67294
 Alpha virt. eigenvalues --    0.67433   0.68944   0.70362   0.70459   0.72865
 Alpha virt. eigenvalues --    0.75263   0.76266   0.77286   0.77764   0.79434
 Alpha virt. eigenvalues --    0.80425   0.81035   0.82005   0.82479   0.82565
 Alpha virt. eigenvalues --    0.83046   0.84044   0.84078   0.85092   0.87318
 Alpha virt. eigenvalues --    0.87380   0.87759   0.88321   0.88668   0.88738
 Alpha virt. eigenvalues --    0.89586   0.89916   0.90215   0.90276   0.91624
 Alpha virt. eigenvalues --    0.91883   0.92175   0.92688   0.95158   0.95806
 Alpha virt. eigenvalues --    0.96848   0.97759   0.98347   0.98521   0.99704
 Alpha virt. eigenvalues --    1.00513   1.01866   1.01925   1.02396   1.05977
 Alpha virt. eigenvalues --    1.07548   1.09392   1.12507   1.15807   1.20165
 Alpha virt. eigenvalues --    1.22271   1.24035   1.25262   1.27352   1.28309
 Alpha virt. eigenvalues --    1.28390   1.33459   1.37241   1.38864   1.39741
 Alpha virt. eigenvalues --    1.41827   1.42806   1.45994   1.48020   1.51304
 Alpha virt. eigenvalues --    1.52247   1.52988   1.54990   1.55600   1.56304
 Alpha virt. eigenvalues --    1.57097   1.58816   1.59436   1.61617   1.61662
 Alpha virt. eigenvalues --    1.69100   1.69640   1.72749   1.76804   1.77558
 Alpha virt. eigenvalues --    1.79590   1.82265   1.82510   1.82631   1.82984
 Alpha virt. eigenvalues --    1.83867   1.84786   1.85407   1.86020   1.87335
 Alpha virt. eigenvalues --    1.87478   1.88577   1.89773   1.91378   1.93528
 Alpha virt. eigenvalues --    1.94046   1.96134   2.00140   2.03048   2.03958
 Alpha virt. eigenvalues --    2.04750   2.04906   2.05547   2.06133   2.06990
 Alpha virt. eigenvalues --    2.07452   2.08662   2.10001   2.10316   2.10922
 Alpha virt. eigenvalues --    2.11648   2.11749   2.12123   2.12386   2.12420
 Alpha virt. eigenvalues --    2.12734   2.13203   2.13463   2.13788   2.14412
 Alpha virt. eigenvalues --    2.15634   2.16868   2.16924   2.17937   2.18247
 Alpha virt. eigenvalues --    2.21284   2.23564   2.26592   2.30000   2.30049
 Alpha virt. eigenvalues --    2.32522   2.32723   2.33307   2.33780   2.34773
 Alpha virt. eigenvalues --    2.35274   2.37722   2.40632   2.41215   2.41538
 Alpha virt. eigenvalues --    2.44300   2.48616   2.50337   2.51872   2.52329
 Alpha virt. eigenvalues --    2.53724   2.54265   2.57635   2.60646   2.60912
 Alpha virt. eigenvalues --    2.63149   2.65259   2.65379   2.66618   2.68258
 Alpha virt. eigenvalues --    2.69644   2.70013   2.70437   2.71783   2.72752
 Alpha virt. eigenvalues --    2.72968   2.73367   2.74079   2.75212   2.75528
 Alpha virt. eigenvalues --    2.76611   2.78121   2.82828   2.84874   2.87845
 Alpha virt. eigenvalues --    2.90238   2.90356   2.90852   2.91388   2.91869
 Alpha virt. eigenvalues --    2.92453   2.93063   2.93525   2.94249   2.97311
 Alpha virt. eigenvalues --    2.99268   3.04481   3.04895   3.10211   3.20944
 Alpha virt. eigenvalues --    3.22333   3.22692   3.23147   3.25082   3.26492
 Alpha virt. eigenvalues --    3.26807   3.26913   3.34787   3.35902   3.36875
 Alpha virt. eigenvalues --    3.42395   3.43263   3.44379   3.44654   3.47911
 Alpha virt. eigenvalues --    3.49041   3.49276   3.50086   3.50463   3.50616
 Alpha virt. eigenvalues --    3.54959   3.56433   3.56637   3.72576   4.13982
 Alpha virt. eigenvalues --    4.18968   4.21452   4.35508   4.36211   4.38173
 Alpha virt. eigenvalues --    4.48889   4.50694   4.51521   4.52123   4.52383
 Alpha virt. eigenvalues --    4.65417   4.71100   4.72246   4.85618   8.76970
 Alpha virt. eigenvalues --   75.71202
          Condensed to atoms (all electrons):
               1          2          3          4          5          6
     1  C    4.953839   0.365727  -0.056542  -0.044993  -0.006073   0.000169
     2  C    0.365727   4.959447   0.365700   0.359842  -0.060573   0.005269
     3  C   -0.056542   0.365700   4.953831  -0.044968  -0.006060   0.000168
     4  C   -0.044993   0.359842  -0.044968   4.755683   0.486135  -0.012292
     5  C   -0.006073  -0.060573  -0.006060   0.486135   5.065709   0.504846
     6  C    0.000169   0.005269   0.000168  -0.012292   0.504846   4.834996
     7  C    0.000000  -0.000210   0.000000   0.007931  -0.041704   0.371482
     8  C    0.000000   0.000003  -0.000000  -0.000359  -0.001180  -0.036636
     9  C   -0.000000   0.000003   0.000000  -0.000358  -0.001176  -0.036621
    10  C    0.000013   0.001195   0.000013  -0.045711  -0.035123   0.465473
    11  Br  -0.000000   0.000007  -0.000000  -0.000217   0.006820  -0.080820
    12  C   -0.000306   0.007151  -0.000305  -0.017035  -0.057114  -0.016906
    13  C    0.000003  -0.000249   0.000003   0.008225   0.000546   0.005046
    14  C   -0.000000   0.000002   0.000000  -0.000362   0.000032  -0.000228
    15  C    0.000000   0.000002  -0.000000  -0.000361   0.000032  -0.000228
    16  C   -0.000810  -0.038504  -0.000806   0.511458  -0.038264  -0.055349
    17  H    0.373814  -0.029910  -0.003592   0.005031   0.000151   0.000002
    18  H    0.384401  -0.032896  -0.006404  -0.009034   0.003212  -0.000035
    19  H    0.379531  -0.032088   0.005633  -0.000990  -0.000001  -0.000067
    20  H   -0.043381   0.381914  -0.043376  -0.043946   0.005827  -0.000202
    21  H    0.005633  -0.032103   0.379536  -0.001001   0.000001  -0.000067
    22  H   -0.006412  -0.032898   0.384396  -0.009013   0.003197  -0.000034
    23  H   -0.003581  -0.029881   0.373821   0.005029   0.000151   0.000002
    24  H    0.000542  -0.008262   0.000551  -0.049999   0.362350  -0.039980
    25  H   -0.000003  -0.000013  -0.000003   0.001098  -0.011196  -0.050184
    26  H   -0.000000  -0.000000   0.000000   0.000004  -0.000035   0.004536
    27  H    0.000000  -0.000000  -0.000000   0.000028  -0.000007  -0.007185
    28  H    0.000000   0.000000   0.000000  -0.000073   0.001355  -0.001674
    29  H    0.000000  -0.000000  -0.000000   0.000004  -0.000035   0.004534
    30  H   -0.000000  -0.000000   0.000000   0.000028  -0.000007  -0.007151
    31  H    0.000000   0.000000   0.000000  -0.000073   0.001354  -0.001686
    32  H   -0.000000  -0.000012  -0.000000   0.001084  -0.000043  -0.000089
    33  H    0.000000  -0.000000   0.000000   0.000005  -0.000000   0.000007
    34  H    0.000000  -0.000000  -0.000000   0.000028  -0.000008   0.000036
    35  H    0.000000   0.000001  -0.000000  -0.000078  -0.000012  -0.000061
    36  H   -0.000000   0.000001   0.000000  -0.000078  -0.000012  -0.000062
    37  H   -0.000000  -0.000000   0.000000   0.000028  -0.000008   0.000037
    38  H    0.000000  -0.000000   0.000000   0.000005  -0.000000   0.000007
    39  H    0.000262  -0.012057   0.000262  -0.043655   0.006837   0.000566
               7          8          9         10         11         12
     1  C    0.000000   0.000000  -0.000000   0.000013  -0.000000  -0.000306
     2  C   -0.000210   0.000003   0.000003   0.001195   0.000007   0.007151
     3  C    0.000000  -0.000000   0.000000   0.000013  -0.000000  -0.000305
     4  C    0.007931  -0.000359  -0.000358  -0.045711  -0.000217  -0.017035
     5  C   -0.041704  -0.001180  -0.001176  -0.035123   0.006820  -0.057114
     6  C    0.371482  -0.036636  -0.036621   0.465473  -0.080820  -0.016906
     7  C    4.951217   0.357883   0.357844  -0.063552  -0.004419   0.005119
     8  C    0.357883   4.974768  -0.050475  -0.005763  -0.015977  -0.000228
     9  C    0.357844  -0.050475   4.974786  -0.005776  -0.015978  -0.000229
    10  C   -0.063552  -0.005763  -0.005776   5.077007   0.275065   0.471099
    11  Br  -0.004419  -0.015977  -0.015978   0.275065  35.039240  -0.081975
    12  C    0.005119  -0.000228  -0.000229   0.471099  -0.081975   4.853851
    13  C   -0.000101   0.000001   0.000002  -0.065181  -0.004456   0.369712
    14  C    0.000001  -0.000003   0.000000  -0.005793  -0.015894  -0.036262
    15  C    0.000001   0.000000  -0.000003  -0.005812  -0.015901  -0.036233
    16  C    0.000586   0.000032   0.000032  -0.036733   0.006660   0.486569
    17  H   -0.000000   0.000000  -0.000000  -0.000000   0.000000   0.000004
    18  H    0.000000   0.000000  -0.000001  -0.000003  -0.000000   0.000017
    19  H    0.000001  -0.000000   0.000000  -0.000016  -0.000000  -0.000044
    20  H    0.000002  -0.000000  -0.000000  -0.000007  -0.000000   0.000391
    21  H    0.000001   0.000000  -0.000000  -0.000016  -0.000000  -0.000044
    22  H    0.000000  -0.000001   0.000000  -0.000003  -0.000000   0.000017
    23  H   -0.000000  -0.000000   0.000000  -0.000000   0.000000   0.000004
    24  H   -0.014738   0.000485   0.000484   0.006099  -0.000164   0.000632
    25  H    0.390169  -0.044826  -0.044831   0.005809  -0.000045  -0.000090
    26  H   -0.029376   0.370798  -0.003438   0.000197   0.000424   0.000007
    27  H   -0.030620   0.387176  -0.007340   0.001087   0.008470   0.000034
    28  H   -0.033744   0.378339   0.005487   0.000392   0.000651  -0.000062
    29  H   -0.029349  -0.003415   0.370770   0.000198   0.000428   0.000007
    30  H   -0.030635  -0.007357   0.387190   0.001089   0.008425   0.000034
    31  H   -0.033770   0.005486   0.378371   0.000394   0.000652  -0.000063
    32  H    0.000002  -0.000000  -0.000000   0.005818  -0.000043  -0.050052
    33  H   -0.000000   0.000000   0.000000   0.000194   0.000420   0.004529
    34  H    0.000003  -0.000001   0.000000   0.001098   0.008447  -0.007264
    35  H   -0.000000   0.000001  -0.000000   0.000415   0.000647  -0.001706
    36  H   -0.000000  -0.000000   0.000001   0.000419   0.000649  -0.001724
    37  H    0.000003   0.000000  -0.000000   0.001101   0.008383  -0.007214
    38  H   -0.000000   0.000000   0.000000   0.000194   0.000425   0.004525
    39  H    0.000009  -0.000000  -0.000000   0.006035  -0.000160  -0.045130
              13         14         15         16         17         18
     1  C    0.000003  -0.000000   0.000000  -0.000810   0.373814   0.384401
     2  C   -0.000249   0.000002   0.000002  -0.038504  -0.029910  -0.032896
     3  C    0.000003   0.000000  -0.000000  -0.000806  -0.003592  -0.006404
     4  C    0.008225  -0.000362  -0.000361   0.511458   0.005031  -0.009034
     5  C    0.000546   0.000032   0.000032  -0.038264   0.000151   0.003212
     6  C    0.005046  -0.000228  -0.000228  -0.055349   0.000002  -0.000035
     7  C   -0.000101   0.000001   0.000001   0.000586  -0.000000   0.000000
     8  C    0.000001  -0.000003   0.000000   0.000032   0.000000   0.000000
     9  C    0.000002   0.000000  -0.000003   0.000032  -0.000000  -0.000001
    10  C   -0.065181  -0.005793  -0.005812  -0.036733  -0.000000  -0.000003
    11  Br  -0.004456  -0.015894  -0.015901   0.006660   0.000000  -0.000000
    12  C    0.369712  -0.036262  -0.036233   0.486569   0.000004   0.000017
    13  C    4.952437   0.357815   0.357752  -0.039243  -0.000000  -0.000000
    14  C    0.357815   4.974061  -0.050353  -0.001235  -0.000000  -0.000000
    15  C    0.357752  -0.050353   4.974089  -0.001223   0.000000  -0.000000
    16  C   -0.039243  -0.001235  -0.001223   5.062226  -0.000039   0.000045
    17  H   -0.000000  -0.000000   0.000000  -0.000039   0.616596  -0.030866
    18  H   -0.000000  -0.000000  -0.000000   0.000045  -0.030866   0.606256
    19  H    0.000001   0.000000  -0.000000   0.001296  -0.029756  -0.030986
    20  H   -0.000008  -0.000000  -0.000000  -0.008253  -0.004622   0.005892
    21  H    0.000001  -0.000000   0.000000   0.001296  -0.000075   0.000006
    22  H   -0.000000  -0.000000  -0.000000   0.000044  -0.000322   0.004869
    23  H   -0.000000   0.000000  -0.000000  -0.000039   0.003379  -0.000323
    24  H    0.000010  -0.000000  -0.000000   0.006189  -0.000152   0.002369
    25  H    0.000002  -0.000000  -0.000000  -0.000039  -0.000000   0.000004
    26  H   -0.000000   0.000000   0.000000  -0.000000  -0.000000   0.000000
    27  H    0.000003  -0.000001   0.000000  -0.000009  -0.000000   0.000000
    28  H   -0.000000   0.000001  -0.000000  -0.000012  -0.000000  -0.000000
    29  H   -0.000000   0.000000   0.000000  -0.000000  -0.000000   0.000000
    30  H    0.000003   0.000000  -0.000000  -0.000008   0.000000   0.000000
    31  H   -0.000000  -0.000000   0.000001  -0.000012   0.000000   0.000000
    32  H    0.390344  -0.044710  -0.044713  -0.011067  -0.000000   0.000000
    33  H   -0.029422   0.370821  -0.003442  -0.000025   0.000000   0.000000
    34  H   -0.030577   0.387232  -0.007352  -0.000005  -0.000000   0.000000
    35  H   -0.033744   0.378392   0.005483   0.001337   0.000000  -0.000000
    36  H   -0.033779   0.005481   0.378441   0.001335   0.000000  -0.000000
    37  H   -0.030595  -0.007376   0.387250  -0.000006   0.000000   0.000000
    38  H   -0.029380  -0.003410   0.370779  -0.000025  -0.000000  -0.000000
    39  H   -0.014626   0.000493   0.000493   0.361425  -0.000025   0.000004
              19         20         21         22         23         24
     1  C    0.379531  -0.043381   0.005633  -0.006412  -0.003581   0.000542
     2  C   -0.032088   0.381914  -0.032103  -0.032898  -0.029881  -0.008262
     3  C    0.005633  -0.043376   0.379536   0.384396   0.373821   0.000551
     4  C   -0.000990  -0.043946  -0.001001  -0.009013   0.005029  -0.049999
     5  C   -0.000001   0.005827   0.000001   0.003197   0.000151   0.362350
     6  C   -0.000067  -0.000202  -0.000067  -0.000034   0.000002  -0.039980
[...]
     33          1           0       -2.238719   -3.735456    1.270913
     34          1           0       -2.483719   -1.985685    1.394905
     35          1           0       -1.080953   -2.735030    2.165499
     36          1           0       -1.080955   -2.735148   -2.165102
     37          1           0       -2.483927   -1.986215   -1.394485
     38          1           0       -2.238380   -3.735906   -1.270446
     39          1           0        1.730295   -2.499054    0.000129
 ---------------------------------------------------------------------
 Rotational constants (GHZ):           0.5256759           0.3025644           0.2200194
 Leave Link  202 at Tue Sep 17 10:01:03 2024, MaxMem=  1342177280 cpu:               0.0 elap:               0.0
 (Enter /groups/ReismanLab/Software/Gaussian16_RevC/Linux_Binary_AVX2-enabled-CPU/g16/l301.exe)
 Standard basis: def2TZVP (5D, 7F)
 Ernie: Thresh=  0.10000D-02 Tol=  0.10000D-05 Strict=F.
 There are   733 symmetry adapted cartesian basis functions of A   symmetry.
 There are   651 symmetry adapted basis functions of A   symmetry.
   651 basis functions,  1063 primitive gaussians,   733 cartesian basis functions
    74 alpha electrons       74 beta electrons
       nuclear repulsion energy      1541.3104597959 Hartrees.
 IExCor= 4336 DFT=T Ex+Corr=M062X ExCW=0 ScaHFX=  0.540000
 ScaDFX=  1.000000  1.000000  1.000000  1.000000 ScalE2=  1.000000  1.000000
 IRadAn=      5 IRanWt=     -1 IRanGd=            0 ICorTp=0 IEmpDi=  4
 NAtoms=   39 NActive=   39 NUniq=   39 SFac= 1.00D+00 NAtFMM=   60 NAOKFM=F Big=F
 Integral buffers will be    131072 words long.
 Raffenetti 2 integral format.
 Two-electron integral symmetry is turned on.
 ------------------------------------------------------------------------------
 Polarizable Continuum Model (PCM)
 =================================
 Model                : PCM.
 Atomic radii         : SMD-Coulomb.
 Polarization charges : Total charges.
 Charge compensation  : None.
 Solution method      : On-the-fly selection.
 Cavity type          : VdW (van der Waals Surface) (Alpha=1.000).
 Cavity algorithm     : GePol (No added spheres)
                        Default sphere list used, NSphG=   39.
                        Lebedev-Laikov grids with approx.  5.0 points / Ang**2.
                        Smoothing algorithm: York/Karplus (Gamma=1.0000).
                        Polarization charges: spherical gaussians, with
                                              point-specific exponents (IZeta= 3).
                        Self-potential: point-specific (ISelfS= 7).
                        Self-field    : sphere-specific E.n sum rule (ISelfD= 2).
 Solvent              : 1,4-Dioxane, Eps=   2.209900 Eps(inf)=   2.023222
 ------------------------------------------------------------------------------
 GePol: Number of generator spheres                  =      39
 GePol: Total number of spheres                      =      39
 GePol: Number of exposed spheres                    =      39 (100.00%)
 GePol: Number of points                             =    2634
 GePol: Average weight of points                     =       0.11
 GePol: Minimum weight of points                     =   0.19D-11
 GePol: Maximum weight of points                     =    0.21647
 GePol: Number of points with low weight             =     146
 GePol: Fraction of low-weight points (<1% of avg)   =       5.54%
 GePol: Cavity surface area                          =    302.884 Ang**2
 GePol: Cavity volume                                =    294.825 Ang**3
 ------------------------------------------------------------------------------
 Atomic radii for non-electrostatic terms: SMD-CDS.
 ------------------------------------------------------------------------------
 PCM non-electrostatic energy =        -0.0040114622 Hartrees.
 Nuclear repulsion after PCM non-electrostatic terms =     1541.3064483337 Hartrees.
 Leave Link  301 at Tue Sep 17 10:01:03 2024, MaxMem=  1342177280 cpu:               0.1 elap:               0.1
 (Enter /groups/ReismanLab/Software/Gaussian16_RevC/Linux_Binary_AVX2-enabled-CPU/g16/l302.exe)
 NPDir=0 NMtPBC=     1 NCelOv=     1 NCel=       1 NClECP=     1 NCelD=      1
         NCelK=      1 NCelE2=     1 NClLst=     1 CellRange=     0.0.
 One-electron integrals computed using PRISM.
 One-electron integral symmetry used in STVInt
   1 Symmetry operations used in ECPInt.
 ECPInt:  NShTT=   37401 NPrTT=  114468 LenC2=   34202 LenP2D=   76089.
 LDataN:  DoStor=T MaxTD1= 6 Len=  172
 NBasis=   651 RedAO= T EigKep=  4.32D-06  NBF=   651
 NBsUse=   651 1.00D-06 EigRej= -1.00D+00 NBFU=   651
 Precomputing XC quadrature grid using
 IXCGrd= 4 IRadAn=           5 IRanWt=          -1 IRanGd=           0 AccXCQ= 0.00D+00.
 Generated NRdTot=       0 NPtTot=           0 NUsed=           0 NTot=          32
 NSgBfM=   725   725   725   725   725 MxSgAt=    39 MxSgA2=    39.
 Leave Link  302 at Tue Sep 17 10:01:05 2024, MaxMem=  1342177280 cpu:               1.4 elap:               1.4
 (Enter /groups/ReismanLab/Software/Gaussian16_RevC/Linux_Binary_AVX2-enabled-CPU/g16/l303.exe)
 DipDrv:  MaxL=1.
 Leave Link  303 at Tue Sep 17 10:01:05 2024, MaxMem=  1342177280 cpu:               0.1 elap:               0.1
 (Enter /groups/ReismanLab/Software/Gaussian16_RevC/Linux_Binary_AVX2-enabled-CPU/g16/l401.exe)
 Initial guess from the checkpoint file:  "smiles_00105_conf_5.chk"
 B after Tr=     0.000000   -0.000000   -0.000000
         Rot=    1.000000   -0.000000   -0.000000    0.000000 Ang=   0.00 deg.
 Guess basis will be translated and rotated to current coordinates.
 JPrj=2 DoOrth=T DoCkMO=T.
 Leave Link  401 at Tue Sep 17 10:01:05 2024, MaxMem=  1342177280 cpu:               0.3 elap:               0.4
 (Enter /groups/ReismanLab/Software/Gaussian16_RevC/Linux_Binary_AVX2-enabled-CPU/g16/l502.exe)
 Integral symmetry usage will be decided dynamically.
 Closed shell SCF:
 Using DIIS extrapolation, IDIIS=  1040.
 NGot=  1342177280 LenX=  1341090710 LenY=  1340552688
 Requested convergence on RMS density matrix=1.00D-08 within  32 cycles.
 Requested convergence on MAX density matrix=1.00D-06.
 Requested convergence on             energy=1.00D-06.
 No special actions if energy rises.
 Fock matrices will be formed incrementally for  20 cycles.

 Cycle   1  Pass 1  IDiag  1:
 FoFJK:  IHMeth= 1 ICntrl=       0 DoSepK=F KAlg= 0 I1Cent=           0 FoldK=F
 IRaf= 860000000 NMat=       1 IRICut=       1 DoRegI=T DoRafI=F ISym2E= 0 IDoP0=0 IntGTp=1.
 FoFCou: FMM=F IPFlag=           0 FMFlag=      100000 FMFlg1=           0
         NFxFlg=           0 DoJE=F BraDBF=F KetDBF=F FulRan=T
         wScrn=  0.000000 ICntrl=         0 IOpCl=  0 I1Cent=           0 NGrid=           0
         NMat0=    1 NMatS0=      1 NMatT0=    0 NMatD0=    1 NMtDS0=    0 NMtDT0=    0
 Symmetry not used in FoFCou.
 Inv3:  Mode=1 IEnd=    20813868.
 Iteration    1 A*A^-1 deviation from unit magnitude is 3.11D-15 for    933.
 Iteration    1 A*A^-1 deviation from orthogonality  is 2.82D-15 for   2105    241.
 Iteration    1 A^-1*A deviation from unit magnitude is 2.89D-15 for    933.
 Iteration    1 A^-1*A deviation from orthogonality  is 4.04D-15 for   2285   2231.
 E= -3159.37847878663    
 DIIS: error= 1.64D-01 at cycle   1 NSaved=   1.
 NSaved= 1 IEnMin= 1 EnMin= -3159.37847878663     IErMin= 1 ErrMin= 1.64D-01
 ErrMax= 1.64D-01  0.00D+00 EMaxC= 1.00D-01 BMatC= 4.77D+00 BMatP= 4.77D+00
 IDIUse=3 WtCom= 0.00D+00 WtEn= 1.00D+00
 Coeff-Com:  0.100D+01
 Coeff-En:   0.100D+01
 Coeff:      0.100D+01
 Gap=     0.742 Goal=   None    Shift=    0.000
 GapD=    0.742 DampG=2.000 DampE=0.250 DampFc=0.5000 IDamp=-1.
 Damping current iteration by 5.00D-01
 RMSDP=9.22D-03 MaxDP=1.05D+00              OVMax= 3.84D-02

 Cycle   2  Pass 1  IDiag  1:
 RMSU=  3.07D-03    CP:  7.48D-01
 E= -3159.48453253361     Delta-E=       -0.106053746983 Rises=F Damp=T
 DIIS: error= 8.20D-02 at cycle   2 NSaved=   2.
 NSaved= 2 IEnMin= 2 EnMin= -3159.48453253361     IErMin= 2 ErrMin= 8.20D-02
 ErrMax= 8.20D-02  0.00D+00 EMaxC= 1.00D-01 BMatC= 1.20D+00 BMatP= 4.77D+00
 IDIUse=3 WtCom= 1.80D-01 WtEn= 8.20D-01
 Coeff-Com: -0.101D+01 0.201D+01
 Coeff-En:   0.000D+00 0.100D+01
 Coeff:     -0.181D+00 0.118D+01
 Gap=     0.297 Goal=   None    Shift=    0.000
 RMSDP=4.69D-03 MaxDP=5.29D-01 DE=-1.06D-01 OVMax= 3.90D-03

 Cycle   3  Pass 1  IDiag  1:
 RMSU=  2.22D-04    CP:  4.92D-01  2.02D+00
 E= -3159.59327572760     Delta-E=       -0.108743193992 Rises=F Damp=F
 DIIS: error= 5.16D-04 at cycle   3 NSaved=   3.
 NSaved= 3 IEnMin= 3 EnMin= -3159.59327572760     IErMin= 3 ErrMin= 5.16D-04
 ErrMax= 5.16D-04  0.00D+00 EMaxC= 1.00D-01 BMatC= 2.07D-04 BMatP= 1.20D+00
 IDIUse=3 WtCom= 9.95D-01 WtEn= 5.16D-03
 Coeff-Com:  0.884D-01-0.180D+00 0.109D+01
 Coeff-En:   0.000D+00 0.000D+00 0.100D+01
 Coeff:      0.880D-01-0.179D+00 0.109D+01
 Gap=     0.298 Goal=   None    Shift=    0.000
 RMSDP=1.90D-04 MaxDP=1.61D-02 DE=-1.09D-01 OVMax= 4.86D-03

 Cycle   4  Pass 1  IDiag  1:
 RMSU=  9.24D-05    CP:  4.86D-01  2.04D+00  1.58D+00
 E= -3159.59344172875     Delta-E=       -0.000166001147 Rises=F Damp=F
 DIIS: error= 2.52D-04 at cycle   4 NSaved=   4.
 NSaved= 4 IEnMin= 4 EnMin= -3159.59344172875     IErMin= 4 ErrMin= 2.52D-04
 ErrMax= 2.52D-04  0.00D+00 EMaxC= 1.00D-01 BMatC= 4.10D-05 BMatP= 2.07D-04
 IDIUse=3 WtCom= 9.97D-01 WtEn= 2.52D-03
 Coeff-Com:  0.866D-01-0.174D+00 0.283D+00 0.804D+00
 Coeff-En:   0.000D+00 0.000D+00 0.000D+00 0.100D+01
 Coeff:      0.864D-01-0.173D+00 0.283D+00 0.804D+00
 Gap=     0.297 Goal=   None    Shift=    0.000
 RMSDP=2.21D-05 MaxDP=1.72D-03 DE=-1.66D-04 OVMax= 1.89D-03

 Cycle   5  Pass 1  IDiag  1:
 RMSU=  1.76D-05    CP:  4.86D-01  2.04D+00  1.64D+00  9.93D-01
 E= -3159.59347877563     Delta-E=       -0.000037046875 Rises=F Damp=F
 DIIS: error= 7.14D-05 at cycle   5 NSaved=   5.
 NSaved= 5 IEnMin= 5 EnMin= -3159.59347877563     IErMin= 5 ErrMin= 7.14D-05
 ErrMax= 7.14D-05  0.00D+00 EMaxC= 1.00D-01 BMatC= 4.80D-06 BMatP= 4.10D-05
 IDIUse=1 WtCom= 1.00D+00 WtEn= 0.00D+00
 Coeff-Com:  0.232D-01-0.463D-01 0.270D-01 0.312D+00 0.684D+00
 Coeff:      0.232D-01-0.463D-01 0.270D-01 0.312D+00 0.684D+00
 Gap=     0.298 Goal=   None    Shift=    0.000
 RMSDP=6.63D-06 MaxDP=3.15D-04 DE=-3.70D-05 OVMax= 1.16D-03

 Cycle   6  Pass 1  IDiag  1:
 RMSU=  5.16D-06    CP:  4.86D-01  2.04D+00  1.66D+00  1.02D+00  9.73D-01
 E= -3159.59348315348     Delta-E=       -0.000004377851 Rises=F Damp=F
 DIIS: error= 4.03D-05 at cycle   6 NSaved=   6.
 NSaved= 6 IEnMin= 6 EnMin= -3159.59348315348     IErMin= 6 ErrMin= 4.03D-05
 ErrMax= 4.03D-05  0.00D+00 EMaxC= 1.00D-01 BMatC= 9.14D-07 BMatP= 4.80D-06
 IDIUse=1 WtCom= 1.00D+00 WtEn= 0.00D+00
 Coeff-Com:  0.188D-02-0.370D-02-0.164D-01 0.829D-01 0.366D+00 0.569D+00
 Coeff:      0.188D-02-0.370D-02-0.164D-01 0.829D-01 0.366D+00 0.569D+00
 Gap=     0.298 Goal=   None    Shift=    0.000
 RMSDP=2.33D-06 MaxDP=1.61D-04 DE=-4.38D-06 OVMax= 3.35D-04

 Cycle   7  Pass 1  IDiag  1:
 RMSU=  1.83D-06    CP:  4.86D-01  2.04D+00  1.66D+00  1.02D+00  9.91D-01
                    CP:  9.72D-01
 E= -3159.59348406035     Delta-E=       -0.000000906873 Rises=F Damp=F
 DIIS: error= 6.49D-06 at cycle   7 NSaved=   7.
 NSaved= 7 IEnMin= 7 EnMin= -3159.59348406035     IErMin= 7 ErrMin= 6.49D-06
 ErrMax= 6.49D-06  0.00D+00 EMaxC= 1.00D-01 BMatC= 4.34D-08 BMatP= 9.14D-07
 IDIUse=1 WtCom= 1.00D+00 WtEn= 0.00D+00
 Coeff-Com: -0.216D-02 0.433D-02-0.870D-02-0.105D-01 0.517D-01 0.201D+00
 Coeff-Com:  0.764D+00
 Coeff:     -0.216D-02 0.433D-02-0.870D-02-0.105D-01 0.517D-01 0.201D+00
 Coeff:      0.764D+00
 Gap=     0.298 Goal=   None    Shift=    0.000
 RMSDP=8.74D-07 MaxDP=9.07D-05 DE=-9.07D-07 OVMax= 9.67D-05

 Cycle   8  Pass 1  IDiag  1:
 RMSU=  4.86D-07    CP:  4.86D-01  2.04D+00  1.66D+00  1.02D+00  1.01D+00
                    CP:  1.07D+00  1.00D+00
 E= -3159.59348410634     Delta-E=       -0.000000045992 Rises=F Damp=F
 DIIS: error= 4.74D-06 at cycle   8 NSaved=   8.
 NSaved= 8 IEnMin= 8 EnMin= -3159.59348410634     IErMin= 8 ErrMin= 4.74D-06
 ErrMax= 4.74D-06  0.00D+00 EMaxC= 1.00D-01 BMatC= 8.91D-09 BMatP= 4.34D-08
 IDIUse=1 WtCom= 1.00D+00 WtEn= 0.00D+00
 Coeff-Com: -0.974D-03 0.195D-02-0.148D-02-0.142D-01-0.193D-01 0.210D-01
 Coeff-Com:  0.368D+00 0.645D+00
 Coeff:     -0.974D-03 0.195D-02-0.148D-02-0.142D-01-0.193D-01 0.210D-01
 Coeff:      0.368D+00 0.645D+00
 Gap=     0.298 Goal=   None    Shift=    0.000
 RMSDP=2.52D-07 MaxDP=1.40D-05 DE=-4.60D-08 OVMax= 4.76D-05

 Cycle   9  Pass 1  IDiag  1:
 RMSU=  1.71D-07    CP:  4.86D-01  2.04D+00  1.66D+00  1.02D+00  1.02D+00
                    CP:  1.09D+00  1.05D+00  9.28D-01
 E= -3159.59348411634     Delta-E=       -0.000000009997 Rises=F Damp=F
 DIIS: error= 6.11D-07 at cycle   9 NSaved=   9.
 NSaved= 9 IEnMin= 9 EnMin= -3159.59348411634     IErMin= 9 ErrMin= 6.11D-07
 ErrMax= 6.11D-07  0.00D+00 EMaxC= 1.00D-01 BMatC= 3.84D-10 BMatP= 8.91D-09
 IDIUse=1 WtCom= 1.00D+00 WtEn= 0.00D+00
 Coeff-Com: -0.350D-04 0.691D-04 0.309D-03-0.239D-02-0.764D-02-0.133D-01
 Coeff-Com:  0.304D-01 0.178D+00 0.815D+00
 Coeff:     -0.350D-04 0.691D-04 0.309D-03-0.239D-02-0.764D-02-0.133D-01
 Coeff:      0.304D-01 0.178D+00 0.815D+00
 Gap=     0.298 Goal=   None    Shift=    0.000
 RMSDP=8.18D-08 MaxDP=3.95D-06 DE=-1.00D-08 OVMax= 1.34D-05

 Cycle  10  Pass 1  IDiag  1:
 RMSU=  5.84D-08    CP:  4.86D-01  2.04D+00  1.66D+00  1.02D+00  1.02D+00
                    CP:  1.09D+00  1.06D+00  9.75D-01  1.18D+00
 E= -3159.59348411696     Delta-E=       -0.000000000624 Rises=F Damp=F
 DIIS: error= 4.05D-07 at cycle  10 NSaved=  10.
 NSaved=10 IEnMin=10 EnMin= -3159.59348411696     IErMin=10 ErrMin= 4.05D-07
 ErrMax= 4.05D-07  0.00D+00 EMaxC= 1.00D-01 BMatC= 9.83D-11 BMatP= 3.84D-10
 IDIUse=1 WtCom= 1.00D+00 WtEn= 0.00D+00
 Coeff-Com:  0.114D-03-0.229D-03 0.321D-03 0.125D-02 0.476D-03-0.101D-01
 Coeff-Com: -0.538D-01-0.285D-01 0.352D+00 0.738D+00
 Coeff:      0.114D-03-0.229D-03 0.321D-03 0.125D-02 0.476D-03-0.101D-01
 Coeff:     -0.538D-01-0.285D-01 0.352D+00 0.738D+00
 Gap=     0.298 Goal=   None    Shift=    0.000
 RMSDP=3.48D-08 MaxDP=1.82D-06 DE=-6.24D-10 OVMax= 6.39D-06

 Cycle  11  Pass 1  IDiag  1:
 RMSU=  2.31D-08    CP:  4.86D-01  2.04D+00  1.66D+00  1.02D+00  1.02D+00
                    CP:  1.09D+00  1.07D+00  1.00D+00  1.28D+00  1.11D+00
 E= -3159.59348411715     Delta-E=       -0.000000000186 Rises=F Damp=F
 DIIS: error= 1.60D-07 at cycle  11 NSaved=  11.
 NSaved=11 IEnMin=11 EnMin= -3159.59348411715     IErMin=11 ErrMin= 1.60D-07
 ErrMax= 1.60D-07  0.00D+00 EMaxC= 1.00D-01 BMatC= 1.20D-11 BMatP= 9.83D-11
 IDIUse=1 WtCom= 1.00D+00 WtEn= 0.00D+00
 Coeff-Com:  0.484D-04-0.970D-04 0.942D-04 0.764D-03 0.128D-02-0.286D-02
 Coeff-Com: -0.267D-01-0.291D-01 0.668D-01 0.319D+00 0.671D+00
 Coeff:      0.484D-04-0.970D-04 0.942D-04 0.764D-03 0.128D-02-0.286D-02
 Coeff:     -0.267D-01-0.291D-01 0.668D-01 0.319D+00 0.671D+00
 Gap=     0.298 Goal=   None    Shift=    0.000
 RMSDP=1.12D-08 MaxDP=5.51D-07 DE=-1.86D-10 OVMax= 2.44D-06

 Cycle  12  Pass 1  IDiag  1:
 RMSU=  8.41D-09    CP:  4.86D-01  2.04D+00  1.66D+00  1.02D+00  1.02D+00
                    CP:  1.09D+00  1.07D+00  1.01D+00  1.29D+00  1.17D+00
                    CP:  1.01D+00
 E= -3159.59348411713     Delta-E=        0.000000000016 Rises=F Damp=F
 DIIS: error= 6.05D-08 at cycle  12 NSaved=  12.
 NSaved=12 IEnMin=11 EnMin= -3159.59348411715     IErMin=12 ErrMin= 6.05D-08
 ErrMax= 6.05D-08  0.00D+00 EMaxC= 1.00D-01 BMatC= 1.43D-12 BMatP= 1.20D-11
 IDIUse=1 WtCom= 1.00D+00 WtEn= 0.00D+00
 Coeff-Com:  0.683D-05-0.136D-04-0.180D-05 0.982D-04 0.424D-03 0.376D-03
 Coeff-Com: -0.184D-02-0.523D-02-0.280D-01-0.144D-01 0.233D+00 0.816D+00
 Coeff:      0.683D-05-0.136D-04-0.180D-05 0.982D-04 0.424D-03 0.376D-03
 Coeff:     -0.184D-02-0.523D-02-0.280D-01-0.144D-01 0.233D+00 0.816D+00
 Gap=     0.298 Goal=   None    Shift=    0.000
 RMSDP=4.63D-09 MaxDP=2.13D-07 DE= 1.64D-11 OVMax= 8.68D-07

 Error on total polarization charges =  0.03928
 SCF Done:  E(RM062X) =  -3159.59348412     A.U. after   12 cycles
            NFock= 12  Conv=0.46D-08     -V/T= 2.0021
 KE= 3.152843022506D+03 PE=-1.059098469094D+04 EE= 2.737241735979D+03
 SMD-CDS (non-electrostatic) energy       (kcal/mol) =      -2.52
 (included in total energy above)
 Leave Link  502 at Tue Sep 17 10:44:55 2024, MaxMem=  1342177280 cpu:            2623.4 elap:            2630.2
 (Enter /groups/ReismanLab/Software/Gaussian16_RevC/Linux_Binary_AVX2-enabled-CPU/g16/l508.exe)
 QCSCF skips out because SCF is already converged.
 Leave Link  508 at Tue Sep 17 10:44:55 2024, MaxMem=  1342177280 cpu:               0.0 elap:               0.0
 (Enter /groups/ReismanLab/Software/Gaussian16_RevC/Linux_Binary_AVX2-enabled-CPU/g16/l801.exe)
 DoSCS=F DFT=T ScalE2(SS,OS)=  1.000000  1.000000
 Range of M.O.s used for correlation:     1   651
 NBasis=   651 NAE=    74 NBE=    74 NFC=     0 NFV=     0
 NROrb=    651 NOA=    74 NOB=    74 NVA=   577 NVB=   577

 **** Warning!!: The largest alpha MO coefficient is  0.64624025D+02

 Leave Link  801 at Tue Sep 17 10:44:56 2024, MaxMem=  1342177280 cpu:               0.0 elap:               0.0
 (Enter /groups/ReismanLab/Software/Gaussian16_RevC/Linux_Binary_AVX2-enabled-CPU/g16/l1002.exe)
 Minotr:  Closed shell wavefunction.
 NEqPCM:  Using equilibrium solvation (IEInf=0, Eps=   2.2099, EpsInf=   2.0232)
          Direct CPHF calculation.
          Differentiating once with respect to electric field.
                with respect to dipole field.
          Electric field/nuclear overlap derivatives assumed to be zero.
          Requested convergence is 1.0D-08 RMS, and 1.0D-07 maximum.
          Secondary convergence is 1.0D-12 RMS, and 1.0D-12 maximum.
          NewPWx=F KeepS1=T KeepF1=T KeepIn=T MapXYZ=F SortEE=F KeepMc=T.
        11777 words used for storage of precomputed grid.
 Two-electron integral symmetry used by symmetrizing perturbed Fock matrices.
          MDV=    1342177280 using IRadAn=       1.
          Solving linear equations simultaneously, MaxMat=     384.
          There are     3 degrees of freedom in the 1st order CPHF.  IDoFFX=0 NUNeed=     3.
      3 vectors produced by pass  0 Test12= 1.42D-12 3.33D-08 XBig12= 1.41D+02 5.09D+00.
 AX will form     3 AO Fock derivatives at one time.
 FoFJK:  IHMeth= 1 ICntrl=       0 DoSepK=F KAlg= 0 I1Cent=           0 FoldK=F
 IRaf= 830000000 NMat=       3 IRICut=       1 DoRegI=T DoRafI=F ISym2E=-1 IDoP0=0 IntGTp=1.
 FoFCou: FMM=F IPFlag=           0 FMFlag=      100000 FMFlg1=           0
         NFxFlg=           0 DoJE=F BraDBF=F KetDBF=F FulRan=T
         wScrn=  0.000000 ICntrl=         0 IOpCl=  0 I1Cent=           0 NGrid=           0
         NMat0=    3 NMatS0=      3 NMatT0=    0 NMatD0=    3 NMtDS0=    0 NMtDT0=    0
 Petite list used in FoFCou.
      3 vectors produced by pass  1 Test12= 1.42D-12 3.33D-08 XBig12= 2.19D+01 1.11D+00.
      3 vectors produced by pass  2 Test12= 1.42D-12 3.33D-08 XBig12= 6.13D+00 8.43D-01.
      3 vectors produced by pass  3 Test12= 1.42D-12 3.33D-08 XBig12= 1.05D+00 2.87D-01.
      3 vectors produced by pass  4 Test12= 1.42D-12 3.33D-08 XBig12= 2.73D-01 1.42D-01.
      3 vectors produced by pass  5 Test12= 1.42D-12 3.33D-08 XBig12= 3.19D-02 3.67D-02.
      3 vectors produced by pass  6 Test12= 1.42D-12 3.33D-08 XBig12= 8.13D-03 2.86D-02.
      3 vectors produced by pass  7 Test12= 1.42D-12 3.33D-08 XBig12= 8.23D-04 7.51D-03.
      3 vectors produced by pass  8 Test12= 1.42D-12 3.33D-08 XBig12= 1.82D-04 4.49D-03.
      3 vectors produced by pass  9 Test12= 1.42D-12 3.33D-08 XBig12= 3.33D-05 1.89D-03.
      3 vectors produced by pass 10 Test12= 1.42D-12 3.33D-08 XBig12= 3.35D-06 3.21D-04.
      3 vectors produced by pass 11 Test12= 1.42D-12 3.33D-08 XBig12= 7.54D-07 2.56D-04.
      3 vectors produced by pass 12 Test12= 1.42D-12 3.33D-08 XBig12= 8.54D-08 2.99D-05.
      3 vectors produced by pass 13 Test12= 1.42D-12 3.33D-08 XBig12= 1.14D-08 1.83D-05.
