 Entering Gaussian System, Link 0=g16
 Input=smiles_00105_conf_4.gjf
 Output=smiles_00105_conf_4.log
 Initial command:
 /groups/ReismanLab/Software/Gaussian16_RevC/Linux_Binary_AVX2-enabled-CPU/g16/l1.exe "/central/groups/ReismanLab/DM/dft_final/smiles_00105/Gau-3834595.inp" -scrdir="/central/groups/ReismanLab/DM/dft_final/smiles_00105/"
 Entering Link 1 = /groups/ReismanLab/Software/Gaussian16_RevC/Linux_Binary_AVX2-enabled-CPU/g16/l1.exe PID=   3834599.
  
 Copyright (c) 1988-2021, Gaussian, Inc.  All Rights Reserved.
  
 This is part of the Gaussian(R) 16 program.  It is based on
 the Gaussian(R) 09 system (copyright 2009, Gaussian, Inc.),
 the Gaussian(R) 03 system (copyright 2003, Gaussian, Inc.),
 the Gaussian(R) 98 system (copyright 1998, Gaussian, Inc.),
 the Gaussian(R) 94 system (copyright 1995, Gaussian, Inc.),
 the Gaussian 92(TM) system (copyright 1992, Gaussian, Inc.),
 the Gaussian 90(TM) system (copyright 1990, Gaussian, Inc.),
 the Gaussian 88(TM) system (copyright 1988, Gaussian, Inc.),
 the Gaussian 86(TM) system (copyright 1986, Carnegie Mellon
 University), and the Gaussian 82(TM) system (copyright 1983,
 Carnegie Mellon University). Gaussian is a federally registered
 trademark of Gaussian, Inc.
  
 This software contains proprietary and confidential information,
 including trade secrets, belonging to Gaussian, Inc.
  
 This software is provided under written license and may be
 used, copied, transmitted, or stored only in accord with that
 written license.
  
 The following legend is applicable only to US Government
 contracts under FAR:
  
                    RESTRICTED RIGHTS LEGEND
  
 Use, reproduction and disclosure by the US Government is
 subject to restrictions as set forth in subparagraphs (a)
 and (c) of the Commercial Computer Software - Restricted
 Rights clause in FAR 52.227-19.
  
 Gaussian, Inc.
 340 Quinnipiac St., Bldg. 40, Wallingford CT 06492
  
  
 ---------------------------------------------------------------
 Warning -- This program may not be used in any manner that
 competes with the business of Gaussian, Inc. or will provide
 assistance to any competitor of Gaussian, Inc.  The licensee
 of this program is prohibited from giving any competitor of
 Gaussian, Inc. access to this program.  By using this program,
 the user acknowledges that Gaussian, Inc. is engaged in the
 business of creating and licensing software in the field of
 computational chemistry and represents and warrants to the
 licensee that it is not a competitor of Gaussian, Inc. and that
 it will not use this program in any manner prohibited above.
 ---------------------------------------------------------------
  

 Cite this work as:
 Gaussian 16, Revision C.02,
 M. J. Frisch, G. W. Trucks, H. B. Schlegel, G. E. Scuseria, 
 M. A. Robb, J. R. Cheeseman, G. Scalmani, V. Barone, 
 G. A. Petersson, H. Nakatsuji, X. Li, M. Caricato, A. V. Marenich, 
 J. Bloino, B. G. Janesko, R. Gomperts, B. Mennucci, H. P. Hratchian, 
 J. V. Ortiz, A. F. Izmaylov, J. L. Sonnenberg, D. Williams-Young, 
 F. Ding, F. Lipparini, F. Egidi, J. Goings, B. Peng, A. Petrone, 
 T. Henderson, D. Ranasinghe, V. G. Zakrzewski, J. Gao, N. Rega, 
 G. Zheng, W. Liang, M. Hada, M. Ehara, K. Toyota, R. Fukuda, 
 J. Hasegawa, M. Ishida, T. Nakajima, Y. Honda, O. Kitao, H. Nakai, 
 T. Vreven, K. Throssell, J. A. Montgomery, Jr., J. E. Peralta, 
 F. Ogliaro, M. J. Bearpark, J. J. Heyd, E. N. Brothers, K. N. Kudin, 
 V. N. Staroverov, T. A. Keith, R. Kobayashi, J. Normand, 
 K. Raghavachari, A. P. Rendell, J. C. Burant, S. S. Iyengar, 
 J. Tomasi, M. Cossi, J. M. Millam, M. Klene, C. Adamo, R. Cammi, 
 J. W. Ochterski, R. L. Martin, K. Morokuma, O. Farkas, 
 J. B. Foresman, and D. J. Fox, Gaussian, Inc., Wallingford CT, 2019.
 
 ******************************************
 Gaussian 16:  ES64L-G16RevC.02  7-Dec-2021
                17-Sep-2024 
 ******************************************
 %nprocshared=8
 Will use up to    8 processors via shared memory.
 %Mem=10GB
 %Chk=smiles_00105_conf_4.chk
 ----------------------------------------------------------------------
 #p B3LYP/6-31G(d,p) EmpiricalDispersion=GD3BJ opt freq scf(xqc,tight) 
 integral(grid=ultrafine)
 ----------------------------------------------------------------------
 1/18=20,19=15,26=4,38=1/1,3;
 2/9=110,12=2,17=6,18=5,40=1/2;
 3/5=1,6=6,7=101,11=2,25=1,30=1,71=1,74=-5,75=-5,124=41/1,2,3;
 4//1;
 5/5=2,8=3,13=1,32=2,38=5/2,8;
 6/7=2,8=2,9=2,10=2,28=1/1;
 7//1,2,3,16;
 1/18=20,19=15,26=4/3(2);
 2/9=110/2;
 99//99;
 2/9=110/2;
 3/5=1,6=6,7=101,11=2,25=1,30=1,71=1,74=-5,75=-5,124=41/1,2,3;
 4/5=5,16=3,69=1/1;
 5/5=2,8=3,13=1,32=2,38=5/2,8;
 7//1,2,3,16;
 1/18=20,19=15,26=4/3(-5);
 2/9=110/2;
 6/7=2,8=2,9=2,10=2,19=2,28=1/1;
 99/9=1/99;
 Leave Link    1 at Tue Sep 17 09:47:08 2024, MaxMem=  1342177280 cpu:               0.2 elap:               0.8
 (Enter /groups/ReismanLab/Software/Gaussian16_RevC/Linux_Binary_AVX2-enabled-CPU/g16/l101.exe)
 ----------------------------------
 opt-freq conformers_unique/conf_ae
 ----------------------------------
 Symbolic Z-matrix:
 Charge =  0 Multiplicity = 1
 C                    -4.36827   0.37331  -1.27705 
 C                    -3.67129   0.94853  -0.04252 
 C                    -4.36445   0.48394   1.23993 
 C                    -2.2107    0.57211  -0.02645 
 C                    -1.23005   1.54688  -0.05802 
 C                     0.12345   1.23439  -0.04286 
 C                     1.11964   2.36929  -0.07965 
 C                     0.96076   3.26756   1.1493 
 C                     0.97235   3.1748   -1.37268 
 C                     0.48043  -0.1123    0.00494 
 Br                    2.35147  -0.54035   0.02434 
 C                    -0.47076  -1.13209   0.03798 
 C                    -0.1909   -2.62106   0.08935 
 C                     0.52946  -3.13362  -1.16096 
 C                     0.52467  -3.04843   1.37389 
 C                    -1.80786  -0.75286   0.02162 
 H                    -3.86564   0.70239  -2.18403 
 H                    -5.40283   0.70721  -1.31366 
 H                    -4.36004  -0.71353  -1.25567 
 H                    -3.74022   2.0412   -0.09055 
 H                    -4.34996  -0.60037   1.31673 
 H                    -5.40074   0.81439   1.24761 
 H                    -3.8627    0.89629   2.11273 
 H                    -1.5245    2.58499  -0.09564 
 H                     2.13515   1.96741  -0.06006 
 H                     1.72693   4.03948   1.14465 
 H                    -0.01266   3.7518    1.1617 
 H                     1.06551   2.68399   2.06167 
 H                    -0.00121   3.65555  -1.42983 
 H                     1.08614   2.52594  -2.2387 
 H                     1.73807   3.94587  -1.41741 
 H                    -1.17417  -3.10719   0.10388 
 H                     0.5181   -4.22148  -1.16412 
 H                     1.56454  -2.81111  -1.19805 
 H                     0.0226   -2.78145  -2.05775 
 H                     0.01309  -2.639     2.24326 
 H                     1.55901  -2.7221    1.39431 
 H                     0.5152   -4.13376   1.44863 
 H                    -2.557    -1.53047   0.04743 
 
 ITRead=  0  0  0  0  0  0  0  0  0  0  0  0  0  0  0  0  0  0  0  0
 ITRead=  0  0  0  0  0  0  0  0  0  0  0  0  0  0  0  0  0  0  0
 MicOpt= -1 -1 -1 -1 -1 -1 -1 -1 -1 -1 -1 -1 -1 -1 -1 -1 -1 -1 -1 -1
 MicOpt= -1 -1 -1 -1 -1 -1 -1 -1 -1 -1 -1 -1 -1 -1 -1 -1 -1 -1 -1
 NAtoms=     39 NQM=       39 NQMF=       0 NMMI=      0 NMMIF=      0
                NMic=       0 NMicF=      0.
                    Isotopes and Nuclear Properties:
 (Nuclear quadrupole moments (NQMom) in fm**2, nuclear magnetic moments (NMagM)
  in nuclear magnetons)

  Atom         1           2           3           4           5           6           7           8           9          10
 IAtWgt=          12          12          12          12          12          12          12          12          12          12
 AtmWgt=  12.0000000  12.0000000  12.0000000  12.0000000  12.0000000  12.0000000  12.0000000  12.0000000  12.0000000  12.0000000
 NucSpn=           0           0           0           0           0           0           0           0           0           0
 AtZEff=  -0.0000000  -0.0000000  -0.0000000  -0.0000000  -0.0000000  -0.0000000  -0.0000000  -0.0000000  -0.0000000  -0.0000000
 NQMom=    0.0000000   0.0000000   0.0000000   0.0000000   0.0000000   0.0000000   0.0000000   0.0000000   0.0000000   0.0000000
 NMagM=    0.0000000   0.0000000   0.0000000   0.0000000   0.0000000   0.0000000   0.0000000   0.0000000   0.0000000   0.0000000
 AtZNuc=   6.0000000   6.0000000   6.0000000   6.0000000   6.0000000   6.0000000   6.0000000   6.0000000   6.0000000   6.0000000

  Atom        11          12          13          14          15          16          17          18          19          20
 IAtWgt=          79          12          12          12          12          12           1           1           1           1
 AtmWgt=  78.9183361  12.0000000  12.0000000  12.0000000  12.0000000  12.0000000   1.0078250   1.0078250   1.0078250   1.0078250
 NucSpn=           3           0           0           0           0           0           1           1           1           1
 AtZEff=  -0.0000000  -0.0000000  -0.0000000  -0.0000000  -0.0000000  -0.0000000  -0.0000000  -0.0000000  -0.0000000  -0.0000000
 NQMom=   31.3000000   0.0000000   0.0000000   0.0000000   0.0000000   0.0000000   0.0000000   0.0000000   0.0000000   0.0000000
 NMagM=    2.1063990   0.0000000   0.0000000   0.0000000   0.0000000   0.0000000   2.7928460   2.7928460   2.7928460   2.7928460
 AtZNuc=  35.0000000   6.0000000   6.0000000   6.0000000   6.0000000   6.0000000   1.0000000   1.0000000   1.0000000   1.0000000

  Atom        21          22          23          24          25          26          27          28          29          30
 IAtWgt=           1           1           1           1           1           1           1           1           1           1
 AtmWgt=   1.0078250   1.0078250   1.0078250   1.0078250   1.0078250   1.0078250   1.0078250   1.0078250   1.0078250   1.0078250
 NucSpn=           1           1           1           1           1           1           1           1           1           1
 AtZEff=  -0.0000000  -0.0000000  -0.0000000  -0.0000000  -0.0000000  -0.0000000  -0.0000000  -0.0000000  -0.0000000  -0.0000000
 NQMom=    0.0000000   0.0000000   0.0000000   0.0000000   0.0000000   0.0000000   0.0000000   0.0000000   0.0000000   0.0000000
 NMagM=    2.7928460   2.7928460   2.7928460   2.7928460   2.7928460   2.7928460   2.7928460   2.7928460   2.7928460   2.7928460
 AtZNuc=   1.0000000   1.0000000   1.0000000   1.0000000   1.0000000   1.0000000   1.0000000   1.0000000   1.0000000   1.0000000

  Atom        31          32          33          34          35          36          37          38          39
 IAtWgt=           1           1           1           1           1           1           1           1           1
 AtmWgt=   1.0078250   1.0078250   1.0078250   1.0078250   1.0078250   1.0078250   1.0078250   1.0078250   1.0078250
 NucSpn=           1           1           1           1           1           1           1           1           1
 AtZEff=  -0.0000000  -0.0000000  -0.0000000  -0.0000000  -0.0000000  -0.0000000  -0.0000000  -0.0000000  -0.0000000
 NQMom=    0.0000000   0.0000000   0.0000000   0.0000000   0.0000000   0.0000000   0.0000000   0.0000000   0.0000000
 NMagM=    2.7928460   2.7928460   2.7928460   2.7928460   2.7928460   2.7928460   2.7928460   2.7928460   2.7928460
 AtZNuc=   1.0000000   1.0000000   1.0000000   1.0000000   1.0000000   1.0000000   1.0000000   1.0000000   1.0000000
 Leave Link  101 at Tue Sep 17 09:47:08 2024, MaxMem=  1342177280 cpu:               0.3 elap:               0.3
 (Enter /groups/ReismanLab/Software/Gaussian16_RevC/Linux_Binary_AVX2-enabled-CPU/g16/l103.exe)

 GradGradGradGradGradGradGradGradGradGradGradGradGradGradGradGradGradGrad
 Berny optimization.
 Initialization pass.
                           ----------------------------
                           !    Initial Parameters    !
                           ! (Angstroms and Degrees)  !
 --------------------------                            --------------------------
 ! Name  Definition              Value          Derivative Info.                !
 --------------------------------------------------------------------------------
 ! R1    R(1,2)                  1.5299         estimate D2E/DX2                !
 ! R2    R(1,17)                 1.0879         estimate D2E/DX2                !
 ! R3    R(1,18)                 1.0877         estimate D2E/DX2                !
 ! R4    R(1,19)                 1.0871         estimate D2E/DX2                !
 ! R5    R(2,3)                  1.53           estimate D2E/DX2                !
 ! R6    R(2,4)                  1.5084         estimate D2E/DX2                !
 ! R7    R(2,20)                 1.0959         estimate D2E/DX2                !
 ! R8    R(3,21)                 1.0871         estimate D2E/DX2                !
 ! R9    R(3,22)                 1.0877         estimate D2E/DX2                !
 ! R10   R(3,23)                 1.0879         estimate D2E/DX2                !
 ! R11   R(4,5)                  1.3831         estimate D2E/DX2                !
 ! R12   R(4,16)                 1.3857         estimate D2E/DX2                !
 ! R13   R(5,6)                  1.3892         estimate D2E/DX2                !
 ! R14   R(5,24)                 1.0797         estimate D2E/DX2                !
 ! R15   R(6,7)                  1.5105         estimate D2E/DX2                !
 ! R16   R(6,10)                 1.394          estimate D2E/DX2                !
 ! R17   R(7,8)                  1.5305         estimate D2E/DX2                !
 ! R18   R(7,9)                  1.5305         estimate D2E/DX2                !
 ! R19   R(7,25)                 1.0923         estimate D2E/DX2                !
 ! R20   R(8,26)                 1.0876         estimate D2E/DX2                !
 ! R21   R(8,27)                 1.0873         estimate D2E/DX2                !
 ! R22   R(8,28)                 1.0881         estimate D2E/DX2                !
 ! R23   R(9,29)                 1.0873         estimate D2E/DX2                !
 ! R24   R(9,30)                 1.0881         estimate D2E/DX2                !
 ! R25   R(9,31)                 1.0876         estimate D2E/DX2                !
 ! R26   R(10,11)                1.9195         estimate D2E/DX2                !
 ! R27   R(10,12)                1.3949         estimate D2E/DX2                !
 ! R28   R(12,13)                1.5159         estimate D2E/DX2                !
 ! R29   R(12,16)                1.3899         estimate D2E/DX2                !
 ! R30   R(13,14)                1.5313         estimate D2E/DX2                !
 ! R31   R(13,15)                1.5313         estimate D2E/DX2                !
 ! R32   R(13,32)                1.097          estimate D2E/DX2                !
 ! R33   R(14,33)                1.0879         estimate D2E/DX2                !
 ! R34   R(14,34)                1.0848         estimate D2E/DX2                !
 ! R35   R(14,35)                1.0887         estimate D2E/DX2                !
 ! R36   R(15,36)                1.0886         estimate D2E/DX2                !
 ! R37   R(15,37)                1.0848         estimate D2E/DX2                !
 ! R38   R(15,38)                1.0879         estimate D2E/DX2                !
 ! R39   R(16,39)                1.0801         estimate D2E/DX2                !
 ! A1    A(2,1,17)             110.3956         estimate D2E/DX2                !
 ! A2    A(2,1,18)             110.1841         estimate D2E/DX2                !
 ! A3    A(2,1,19)             110.8901         estimate D2E/DX2                !
 ! A4    A(17,1,18)            108.5735         estimate D2E/DX2                !
 ! A5    A(17,1,19)            108.3803         estimate D2E/DX2                !
 ! A6    A(18,1,19)            108.347          estimate D2E/DX2                !
 ! A7    A(1,2,3)              110.8418         estimate D2E/DX2                !
 ! A8    A(1,2,4)              110.8483         estimate D2E/DX2                !
 ! A9    A(1,2,20)             108.1107         estimate D2E/DX2                !
 ! A10   A(3,2,4)              110.7299         estimate D2E/DX2                !
 ! A11   A(3,2,20)             108.1191         estimate D2E/DX2                !
 ! A12   A(4,2,20)             108.0711         estimate D2E/DX2                !
 ! A13   A(2,3,21)             110.8568         estimate D2E/DX2                !
 ! A14   A(2,3,22)             110.1988         estimate D2E/DX2                !
 ! A15   A(2,3,23)             110.3905         estimate D2E/DX2                !
 ! A16   A(21,3,22)            108.3737         estimate D2E/DX2                !
 ! A17   A(21,3,23)            108.3743         estimate D2E/DX2                !
 ! A18   A(22,3,23)            108.5774         estimate D2E/DX2                !
 ! A19   A(2,4,5)              120.6932         estimate D2E/DX2                !
 ! A20   A(2,4,16)             121.3652         estimate D2E/DX2                !
 ! A21   A(5,4,16)             117.9415         estimate D2E/DX2                !
 ! A22   A(4,5,6)              122.1436         estimate D2E/DX2                !
 ! A23   A(4,5,24)             119.0172         estimate D2E/DX2                !
 ! A24   A(6,5,24)             118.8392         estimate D2E/DX2                !
 ! A25   A(5,6,7)              118.2473         estimate D2E/DX2                !
 ! A26   A(5,6,10)             117.8513         estimate D2E/DX2                !
 ! A27   A(7,6,10)             123.9014         estimate D2E/DX2                !
 ! A28   A(6,7,8)              110.6677         estimate D2E/DX2                !
 ! A29   A(6,7,9)              110.6419         estimate D2E/DX2                !
 ! A30   A(6,7,25)             109.6491         estimate D2E/DX2                !
 ! A31   A(8,7,9)              111.0692         estimate D2E/DX2                !
 ! A32   A(8,7,25)             107.3402         estimate D2E/DX2                !
 ! A33   A(9,7,25)             107.3524         estimate D2E/DX2                !
 ! A34   A(7,8,26)             109.8767         estimate D2E/DX2                !
 ! A35   A(7,8,27)             111.3144         estimate D2E/DX2                !
 ! A36   A(7,8,28)             110.3968         estimate D2E/DX2                !
 ! A37   A(26,8,27)            108.339          estimate D2E/DX2                !
 ! A38   A(26,8,28)            108.446          estimate D2E/DX2                !
 ! A39   A(27,8,28)            108.3903         estimate D2E/DX2                !
 ! A40   A(7,9,29)             111.3017         estimate D2E/DX2                !
 ! A41   A(7,9,30)             110.3953         estimate D2E/DX2                !
 ! A42   A(7,9,31)             109.884          estimate D2E/DX2                !
 ! A43   A(29,9,30)            108.3896         estimate D2E/DX2                !
 ! A44   A(29,9,31)            108.3468         estimate D2E/DX2                !
 ! A45   A(30,9,31)            108.446          estimate D2E/DX2                !
 ! A46   A(6,10,11)            117.7359         estimate D2E/DX2                !
 ! A47   A(6,10,12)            122.1705         estimate D2E/DX2                !
 ! A48   A(11,10,12)           120.0936         estimate D2E/DX2                !
 ! A49   A(10,12,13)           126.3694         estimate D2E/DX2                !
 ! A50   A(10,12,16)           117.1441         estimate D2E/DX2                !
 ! A51   A(13,12,16)           116.4865         estimate D2E/DX2                !
 ! A52   A(12,13,14)           112.8273         estimate D2E/DX2                !
 ! A53   A(12,13,15)           112.8821         estimate D2E/DX2                !
 ! A54   A(12,13,32)           105.6789         estimate D2E/DX2                !
 ! A55   A(14,13,15)           111.8199         estimate D2E/DX2                !
 ! A56   A(14,13,32)           106.5079         estimate D2E/DX2                !
 ! A57   A(15,13,32)           106.5033         estimate D2E/DX2                !
 ! A58   A(13,14,33)           109.3999         estimate D2E/DX2                !
 ! A59   A(13,14,34)           112.1645         estimate D2E/DX2                !
 ! A60   A(13,14,35)           110.1999         estimate D2E/DX2                !
 ! A61   A(33,14,34)           107.887          estimate D2E/DX2                !
 ! A62   A(33,14,35)           108.4347         estimate D2E/DX2                !
 ! A63   A(34,14,35)           108.6576         estimate D2E/DX2                !
 ! A64   A(13,15,36)           110.2029         estimate D2E/DX2                !
 ! A65   A(13,15,37)           112.173          estimate D2E/DX2                !
 ! A66   A(13,15,38)           109.3896         estimate D2E/DX2                !
 ! A67   A(36,15,37)           108.6569         estimate D2E/DX2                !
 ! A68   A(36,15,38)           108.4353         estimate D2E/DX2                !
 ! A69   A(37,15,38)           107.8856         estimate D2E/DX2                !
 ! A70   A(4,16,12)            122.7489         estimate D2E/DX2                !
 ! A71   A(4,16,39)            119.183          estimate D2E/DX2                !
 ! A72   A(12,16,39)           118.0681         estimate D2E/DX2                !
 ! D1    D(17,1,2,3)          -179.6048         estimate D2E/DX2                !
 ! D2    D(17,1,2,4)           -56.2198         estimate D2E/DX2                !
 ! D3    D(17,1,2,20)           62.0604         estimate D2E/DX2                !
 ! D4    D(18,1,2,3)            60.4784         estimate D2E/DX2                !
 ! D5    D(18,1,2,4)          -176.1366         estimate D2E/DX2                !
 ! D6    D(18,1,2,20)          -57.8564         estimate D2E/DX2                !
 ! D7    D(19,1,2,3)           -59.473          estimate D2E/DX2                !
 ! D8    D(19,1,2,4)            63.912          estimate D2E/DX2                !
 ! D9    D(19,1,2,20)         -177.8078         estimate D2E/DX2                !
 ! D10   D(1,2,3,21)            59.8527         estimate D2E/DX2                !
 ! D11   D(1,2,3,22)           -60.1203         estimate D2E/DX2                !
 ! D12   D(1,2,3,23)           179.9518         estimate D2E/DX2                !
 ! D13   D(4,2,3,21)           -63.6005         estimate D2E/DX2                !
 ! D14   D(4,2,3,22)           176.4265         estimate D2E/DX2                !
 ! D15   D(4,2,3,23)            56.4987         estimate D2E/DX2                !
 ! D16   D(20,2,3,21)          178.1824         estimate D2E/DX2                !
 ! D17   D(20,2,3,22)           58.2093         estimate D2E/DX2                !
 ! D18   D(20,2,3,23)          -61.7185         estimate D2E/DX2                !
 ! D19   D(1,2,4,5)            118.8632         estimate D2E/DX2                !
 ! D20   D(1,2,4,16)           -61.2085         estimate D2E/DX2                !
 ! D21   D(3,2,4,5)           -117.6874         estimate D2E/DX2                !
 ! D22   D(3,2,4,16)            62.2409         estimate D2E/DX2                !
 ! D23   D(20,2,4,5)             0.5589         estimate D2E/DX2                !
 ! D24   D(20,2,4,16)         -179.5128         estimate D2E/DX2                !
 ! D25   D(2,4,5,6)            179.9264         estimate D2E/DX2                !
 ! D26   D(2,4,5,24)            -0.071          estimate D2E/DX2                !
 ! D27   D(16,4,5,6)            -0.0043         estimate D2E/DX2                !
 ! D28   D(16,4,5,24)          179.9983         estimate D2E/DX2                !
 ! D29   D(2,4,16,12)         -179.9798         estimate D2E/DX2                !
 ! D30   D(2,4,16,39)            0.0373         estimate D2E/DX2                !
 ! D31   D(5,4,16,12)           -0.0496         estimate D2E/DX2                !
 ! D32   D(5,4,16,39)          179.9675         estimate D2E/DX2                !
 ! D33   D(4,5,6,7)           -179.9822         estimate D2E/DX2                !
 ! D34   D(4,5,6,10)             0.0457         estimate D2E/DX2                !
 ! D35   D(24,5,6,7)             0.0152         estimate D2E/DX2                !
 ! D36   D(24,5,6,10)         -179.9568         estimate D2E/DX2                !
 ! D37   D(5,6,7,8)             61.6456         estimate D2E/DX2                !
 ! D38   D(5,6,7,9)            -61.9059         estimate D2E/DX2                !
 ! D39   D(5,6,7,25)           179.8701         estimate D2E/DX2                !
 ! D40   D(10,6,7,8)          -118.3842         estimate D2E/DX2                !
 ! D41   D(10,6,7,9)           118.0643         estimate D2E/DX2                !
 ! D42   D(10,6,7,25)           -0.1596         estimate D2E/DX2                !
 ! D43   D(5,6,10,11)          179.9521         estimate D2E/DX2                !
 ! D44   D(5,6,10,12)           -0.0366         estimate D2E/DX2                !
 ! D45   D(7,6,10,11)           -0.0182         estimate D2E/DX2                !
 ! D46   D(7,6,10,12)          179.9931         estimate D2E/DX2                !
 ! D47   D(6,7,8,26)           176.1536         estimate D2E/DX2                !
 ! D48   D(6,7,8,27)           -63.8334         estimate D2E/DX2                !
 ! D49   D(6,7,8,28)            56.5899         estimate D2E/DX2                !
 ! D50   D(9,7,8,26)           -60.5415         estimate D2E/DX2                !
 ! D51   D(9,7,8,27)            59.4715         estimate D2E/DX2                !
 ! D52   D(9,7,8,28)           179.8948         estimate D2E/DX2                !
 ! D53   D(25,7,8,26)           56.5312         estimate D2E/DX2                !
 ! D54   D(25,7,8,27)          176.5442         estimate D2E/DX2                !
 ! D55   D(25,7,8,28)          -63.0325         estimate D2E/DX2                !
 ! D56   D(6,7,9,29)            63.7888         estimate D2E/DX2                !
 ! D57   D(6,7,9,30)           -56.6243         estimate D2E/DX2                !
 ! D58   D(6,7,9,31)          -176.1917         estimate D2E/DX2                !
 ! D59   D(8,7,9,29)           -59.5308         estimate D2E/DX2                !
 ! D60   D(8,7,9,30)          -179.9439         estimate D2E/DX2                !
 ! D61   D(8,7,9,31)            60.4886         estimate D2E/DX2                !
 ! D62   D(25,7,9,29)         -176.5961         estimate D2E/DX2                !
 ! D63   D(25,7,9,30)           62.9908         estimate D2E/DX2                !
 ! D64   D(25,7,9,31)          -56.5766         estimate D2E/DX2                !
 ! D65   D(6,10,12,13)         179.9441         estimate D2E/DX2                !
 ! D66   D(6,10,12,16)          -0.0132         estimate D2E/DX2                !
 ! D67   D(11,10,12,13)         -0.0444         estimate D2E/DX2                !
 ! D68   D(11,10,12,16)        179.9983         estimate D2E/DX2                !
 ! D69   D(10,12,13,14)        -63.9887         estimate D2E/DX2                !
 ! D70   D(10,12,13,15)         63.9902         estimate D2E/DX2                !
 ! D71   D(10,12,13,32)       -179.9878         estimate D2E/DX2                !
 ! D72   D(16,12,13,14)        115.9689         estimate D2E/DX2                !
 ! D73   D(16,12,13,15)       -116.0522         estimate D2E/DX2                !
 ! D74   D(16,12,13,32)         -0.0303         estimate D2E/DX2                !
 ! D75   D(10,12,16,4)           0.0578         estimate D2E/DX2                !
 ! D76   D(10,12,16,39)       -179.9592         estimate D2E/DX2                !
 ! D77   D(13,12,16,4)        -179.9038         estimate D2E/DX2                !
 ! D78   D(13,12,16,39)          0.0793         estimate D2E/DX2                !
 ! D79   D(12,13,14,33)       -168.2982         estimate D2E/DX2                !
 ! D80   D(12,13,14,34)         72.0275         estimate D2E/DX2                !
 ! D81   D(12,13,14,35)        -49.168          estimate D2E/DX2                !
 ! D82   D(15,13,14,33)         63.169          estimate D2E/DX2                !
 ! D83   D(15,13,14,34)        -56.5053         estimate D2E/DX2                !
 ! D84   D(15,13,14,35)       -177.7008         estimate D2E/DX2                !
 ! D85   D(32,13,14,33)        -52.7949         estimate D2E/DX2                !
 ! D86   D(32,13,14,34)       -172.4692         estimate D2E/DX2                !
 ! D87   D(32,13,14,35)         66.3353         estimate D2E/DX2                !
 ! D88   D(12,13,15,36)         49.3378         estimate D2E/DX2                !
 ! D89   D(12,13,15,37)        -71.8647         estimate D2E/DX2                !
 ! D90   D(12,13,15,38)        168.4643         estimate D2E/DX2                !
 ! D91   D(14,13,15,36)        177.8416         estimate D2E/DX2                !
 ! D92   D(14,13,15,37)         56.6392         estimate D2E/DX2                !
 ! D93   D(14,13,15,38)        -63.0319         estimate D2E/DX2                !
 ! D94   D(32,13,15,36)        -66.1917         estimate D2E/DX2                !
 ! D95   D(32,13,15,37)        172.6059         estimate D2E/DX2                !
 ! D96   D(32,13,15,38)         52.9349         estimate D2E/DX2                !
 --------------------------------------------------------------------------------
 Trust Radius=3.00D-01 FncErr=1.00D-07 GrdErr=1.00D-06 EigMax=2.50D+02 EigMin=1.00D-04
 Number of steps in this run=    217 maximum allowed number of steps=    234.
 GradGradGradGradGradGradGradGradGradGradGradGradGradGradGradGradGradGrad

 Leave Link  103 at Tue Sep 17 09:47:09 2024, MaxMem=  1342177280 cpu:               0.1 elap:               0.0
 (Enter /groups/ReismanLab/Software/Gaussian16_RevC/Linux_Binary_AVX2-enabled-CPU/g16/l202.exe)
                          Input orientation:                          
 ---------------------------------------------------------------------
 Center     Atomic      Atomic             Coordinates (Angstroms)
 Number     Number       Type             X           Y           Z
 ---------------------------------------------------------------------
      1          6           0       -4.368274    0.373307   -1.277053
      2          6           0       -3.671290    0.948535   -0.042525
      3          6           0       -4.364450    0.483939    1.239932
      4          6           0       -2.210702    0.572106   -0.026447
      5          6           0       -1.230055    1.546877   -0.058019
      6          6           0        0.123453    1.234390   -0.042862
      7          6           0        1.119635    2.369290   -0.079647
      8          6           0        0.960759    3.267563    1.149297
      9          6           0        0.972347    3.174798   -1.372684
     10          6           0        0.480431   -0.112298    0.004939
     11         35           0        2.351465   -0.540352    0.024336
     12          6           0       -0.470763   -1.132088    0.037983
     13          6           0       -0.190901   -2.621057    0.089347
     14          6           0        0.529458   -3.133620   -1.160961
     15          6           0        0.524671   -3.048431    1.373893
     16          6           0       -1.807858   -0.752861    0.021616
     17          1           0       -3.865638    0.702391   -2.184029
     18          1           0       -5.402835    0.707210   -1.313662
     19          1           0       -4.360042   -0.713531   -1.255673
     20          1           0       -3.740224    2.041196   -0.090552
     21          1           0       -4.349958   -0.600370    1.316726
     22          1           0       -5.400737    0.814386    1.247608
     23          1           0       -3.862697    0.896287    2.112733
     24          1           0       -1.524498    2.584987   -0.095642
     25          1           0        2.135149    1.967411   -0.060061
     26          1           0        1.726927    4.039475    1.144651
     27          1           0       -0.012660    3.751800    1.161698
     28          1           0        1.065513    2.683990    2.061668
     29          1           0       -0.001214    3.655552   -1.429834
     30          1           0        1.086140    2.525936   -2.238698
     31          1           0        1.738070    3.945866   -1.417414
     32          1           0       -1.174174   -3.107186    0.103885
     33          1           0        0.518101   -4.221479   -1.164116
     34          1           0        1.564544   -2.811115   -1.198050
     35          1           0        0.022598   -2.781450   -2.057749
     36          1           0        0.013088   -2.638999    2.243262
     37          1           0        1.559013   -2.722095    1.394309
     38          1           0        0.515195   -4.133755    1.448633
     39          1           0       -2.556998   -1.530474    0.047435
 ---------------------------------------------------------------------
                    Distance matrix (angstroms):
                    1          2          3          4          5
     1  C    0.000000
     2  C    1.529946   0.000000
     3  C    2.519418   1.530038   0.000000
     4  C    2.501730   1.508401   2.500024   0.000000
     5  C    3.565352   2.513540   3.555130   1.383056   0.000000
     6  C    4.737120   3.805493   4.727579   2.426349   1.389194
     7  C    5.961114   4.997288   5.947355   3.784686   2.489553
     8  C    6.531652   5.315468   6.009544   4.325046   3.036122
     9  C    6.031562   5.318734   6.522874   4.326449   3.037934
    10  C    5.038776   4.285371   5.035234   2.776976   2.383818
    11  Br   6.905308   6.204420   6.901475   4.696117   4.146153
    12  C    4.380198   3.818225   4.383722   2.436353   2.786143
    13  C    5.318243   4.987231   5.327603   3.780118   4.298049
    14  C    6.024932   5.963319   6.542275   4.746368   5.120490
    15  C    6.532742   5.965573   6.033166   4.748843   5.123113
    16  C    3.083914   2.524132   3.090329   1.385688   2.372550
    17  H    1.087908   2.164347   3.466993   2.722305   3.489896
    18  H    1.087725   2.161545   2.765671   3.444544   4.437767
    19  H    1.087080   2.169925   2.768031   2.789897   4.042356
    20  H    2.141047   1.095886   2.141237   2.121738   2.558586
    21  H    2.770572   2.169622   1.087122   2.784821   4.029192
    22  H    2.763050   2.161811   1.087724   3.443579   4.431230
    23  H    3.466953   2.164372   1.087919   2.722182   3.473649
    24  H    3.791349   2.699909   3.776703   2.127758   1.079716
    25  H    6.805642   5.895180   6.792309   4.564475   3.391379
    26  H    7.513783   6.332775   7.053779   5.375783   4.050087
    27  H    6.027695   4.763825   5.442712   4.043951   2.798473
    28  H    6.783241   5.465961   5.916078   4.421975   3.325016
    29  H    5.465135   4.766763   6.018689   4.044623   2.799722
    30  H    5.942156   5.472158   6.780822   4.425006   3.328465
    31  H    7.076039   6.335257   7.502478   5.376788   4.051280
    32  H    4.921696   4.765070   4.936055   3.824731   4.657213
    33  H    6.708313   6.748185   7.194421   5.631972   6.128084
    34  H    6.733878   6.548599   7.207919   5.203011   5.301088
    35  H    5.462759   5.623053   6.386208   4.512223   4.929754
    36  H    6.376751   5.627599   5.470124   4.517524   4.935875
    37  H    7.200724   6.549358   6.737203   5.203947   5.302101
    38  H    7.182705   6.751287   6.721428   5.634848   6.130699
    39  H    2.942681   2.719416   2.957498   2.132188   3.352908
                    6          7          8          9         10
     6  C    0.000000
     7  C    1.510540   0.000000
     8  C    2.501223   1.530502   0.000000
     9  C    2.500846   1.530517   2.523713   0.000000
    10  C    1.394019   2.563985   3.600518   3.597893   0.000000
    11  Br   2.849257   3.161366   4.207115   4.201901   1.919472
    12  C    2.441280   3.847448   4.758277   4.756240   1.394931
    13  C    3.870500   5.162328   6.093082   6.089550   2.598399
    14  C    4.527085   5.639111   6.818978   6.327489   3.238844
    15  C    4.528877   5.640786   6.335013   6.817087   3.239886
    16  C    2.771874   4.281156   5.010061   5.010002   2.376313
    17  H    4.558559   5.662149   6.401974   5.493376   4.933926
    18  H    5.694972   6.843093   7.288134   6.836331   6.084663
    19  H    5.036570   6.396381   7.067101   6.600544   5.037937
    20  H    3.947304   4.870934   5.014024   5.013706   4.739260
    21  H    5.022571   6.378494   6.572111   7.057744   5.029081
    22  H    5.688443   6.833343   6.818824   7.283795   6.082032
    23  H    4.544260   5.639140   5.460484   6.381019   4.931815
    24  H    2.131347   2.652965   2.862217   2.865824   3.362322
    25  H    2.141154   1.092319   2.128881   2.129054   2.658479
    26  H    3.442357   2.158061   1.087605   2.766593   4.482178
    27  H    2.794074   2.175859   1.087282   2.779616   4.063556
    28  H    2.723576   2.164992   1.088095   3.470496   3.520182
    29  H    2.793074   2.175725   2.779900   1.087295   4.060450
    30  H    2.723335   2.164986   3.470482   1.088095   3.515832
    31  H    3.442163   2.158164   2.766282   1.087602   4.480339
    32  H    4.533723   5.940289   6.803546   6.800818   3.422990
    33  H    5.583857   6.706426   7.850705   7.413147   4.272408
    34  H    4.447169   5.318399   6.544075   6.017670   3.147395
    35  H    4.494098   5.625523   6.910561   6.070275   3.404213
    36  H    4.499077   5.630570   6.081309   6.913428   3.407744
    37  H    4.447479   5.318628   6.024446   6.540167   3.147178
    38  H    5.585249   6.707502   7.420757   7.847533   4.272888
    39  H    3.851940   5.361152   6.050609   6.050835   3.352463
                   11         12         13         14         15
    11  Br   0.000000
    12  C    2.883628   0.000000
    13  C    3.285907   1.515912   0.000000
    14  C    3.383737   2.538512   1.531309   0.000000
    15  C    3.383629   2.539274   1.531258   2.536289   0.000000
    16  C    4.164749   1.389929   2.471698   3.539710   3.541043
    17  H    6.713692   4.452845   5.451352   5.922713   6.782499
    18  H    7.967171   5.434639   6.341139   7.068762   7.514194
    19  H    6.834672   4.120101   4.778019   5.456466   6.018870
    20  H    6.617119   4.558029   5.862308   6.793724   6.799870
    21  H    6.825170   4.118987   4.784076   6.030339   5.455114
    22  H    7.964191   5.436598   6.347143   7.520317   7.074444
    23  H    6.711270   4.463643   5.472466   6.800607   5.946064
    24  H    4.980485   3.865858   5.377322   6.168964   6.172036
    25  H    2.518490   4.050591   5.146540   5.459922   5.459719
    26  H    4.756046   5.727095   7.011021   7.629094   7.192801
    27  H    5.030432   5.032391   6.464906   7.286814   6.824727
    28  H    4.025018   4.584528   5.797598   6.672127   5.798810
    29  H    5.025467   5.029559   6.460628   6.815187   7.285659
    30  H    4.015531   4.581306   5.791560   5.788091   6.666306
    31  H    4.751951   5.725621   7.008262   7.186490   7.627838
    32  H    4.361777   2.097651   1.096976   2.122003   2.121897
    33  H    4.280694   3.459368   2.152952   1.087922   2.795992
    34  H    2.696264   2.913655   2.185200   1.084798   2.784339
    35  H    3.844635   2.712175   2.163637   1.088650   3.478436
    36  H    3.846552   2.714433   2.163628   3.478509   1.088648
    37  H    2.695332   2.913371   2.185254   2.785451   1.084793
    38  H    4.279376   3.460065   2.152786   2.794718   1.087936
    39  H    5.007383   2.123953   2.605674   3.681916   3.682440
                   16         17         18         19         20
    16  C    0.000000
    17  H    3.349192   0.000000
    18  H    4.103491   1.766503   0.000000
    19  H    2.854235   1.763836   1.763317   0.000000
    20  H    3.399026   2.488126   2.457598   3.054538   0.000000
    21  H    2.857068   3.766568   3.120458   2.574906   3.054518
    22  H    4.107080   3.761011   2.563513   3.111912   2.460292
    23  H    3.363752   4.301135   3.761377   3.766301   2.486018
    24  H    3.351906   3.658751   4.477847   4.501800   2.281486
    25  H    4.791018   6.490067   7.744729   7.127725   5.875916
    26  H    6.059901   7.313893   8.245047   8.087263   5.950512
    27  H    4.981415   5.944597   6.667153   6.684505   4.288244
    28  H    4.922400   6.802127   7.559103   7.210032   5.304748
    29  H    4.980440   4.921763   6.154976   6.174028   4.287193
    30  H    4.922881   5.277160   6.802224   6.412596   5.305026
    31  H    6.059905   6.519922   7.841695   7.676140   5.949793
    32  H    2.439502   5.195325   5.868614   4.210432   5.755715
    33  H    4.341353   6.670973   7.705311   6.009189   7.648984
    34  H    4.134862   6.542458   7.806173   6.285212   7.274066
    35  H    3.433584   5.222211   6.493053   4.911940   6.425466
    36  H    3.436434   6.768332   7.292534   5.922351   6.437257
    37  H    4.134972   7.345642   8.219524   6.789105   7.278439
    38  H    4.343201   7.468350   8.129471   6.540576   7.655567
    39  H    1.080074   3.417259   3.867636   2.369906   3.765089
                   21         22         23         24         25
    21  H    0.000000
    22  H    1.763647   0.000000
    23  H    1.763812   1.766554   0.000000
    24  H    4.486035   4.468174   3.632603   0.000000
    25  H    7.109547   7.734924   6.468578   3.711561   0.000000
    26  H    7.647634   7.824027   6.485424   3.771688   2.431343
    27  H    6.146347   6.137357   4.886841   2.286485   3.047921
    28  H    6.377247   6.780155   5.242685   3.372232   2.481802
    29  H    6.675930   6.663015   5.922363   2.290540   3.047974
    30  H    7.208744   7.560642   6.788351   3.378107   2.481699
    31  H    8.075139   8.238390   7.289065   3.774046   2.431946
    32  H    4.223826   5.877981   5.224119   5.706432   6.060531
    33  H    6.554769   8.136890   7.491372   7.186224   6.491236
    34  H    6.796530   8.224393   7.359419   6.314697   4.945192
    35  H    5.938302   7.298492   6.783376   5.919630   5.568242
    36  H    4.904146   6.498207   5.247571   5.926608   5.570230
    37  H    6.278827   7.808094   6.557725   6.316100   4.943541
    38  H    6.014310   7.715100   6.701365   7.189342   6.490350
    39  H    2.385560   3.876292   3.443759   4.245415   5.853461
                   26         27         28         29         30
    26  H    0.000000
    27  H    1.763295   0.000000
    28  H    1.765142   1.764262   0.000000
    29  H    3.124395   2.593345   3.777886   0.000000
    30  H    3.761445   3.777936   4.303319   1.764265   0.000000
    31  H    2.563799   3.123225   3.761472   1.763390   1.765141
    32  H    7.782952   7.036602   6.510517   7.032976   6.506057
    33  H    8.662276   8.322517   7.641390   7.898602   6.856020
    34  H    7.241906   7.150373   6.408664   6.657560   5.458565
    35  H    7.725615   7.283505   6.923027   6.467600   5.415923
    36  H    6.981849   6.481725   5.429069   7.287882   6.922136
    37  H    6.768261   6.666002   5.469430   7.147341   6.400327
    38  H    8.268156   7.908410   6.867337   8.320190   7.633733
    39  H    7.111979   5.968054   5.911128   5.967347   5.912134
                   31         32         33         34         35
    31  H    0.000000
    32  H    7.780813   0.000000
    33  H    8.261840   2.390244   0.000000
    34  H    6.762767   3.046845   1.756508   0.000000
    35  H    6.972063   2.492193   1.765725   1.765661   0.000000
    36  H    7.728943   2.491129   3.790713   3.778792   4.303380
    37  H    7.238754   3.046933   3.142799   2.593893   3.778994
    38  H    8.659672   2.390849   2.614222   3.139338   3.790263
    39  H    7.112222   2.097953   4.262111   4.492035   3.556832
                   36         37         38         39
    36  H    0.000000
    37  H    1.765647   0.000000
    38  H    1.765741   1.756499   0.000000
    39  H    3.557503   4.491723   4.263660   0.000000
 Stoichiometry    C15H23Br
 Framework group  C1[X(C15H23Br)]
 Deg. of freedom   111
 Full point group                 C1      NOp   1
 Largest Abelian subgroup         C1      NOp   1
 Largest concise Abelian subgroup C1      NOp   1
                         Standard orientation:                         
 ---------------------------------------------------------------------
 Center     Atomic      Atomic             Coordinates (Angstroms)
 Number     Number       Type             X           Y           Z
 ---------------------------------------------------------------------
      1          6           0       -4.171874   -0.686904   -1.256030
      2          6           0       -3.628776    0.004360   -0.003859
      3          6           0       -4.170257   -0.660657    1.263250
      4          6           0       -2.120376    0.006035   -0.003094
      5          6           0       -1.415729    1.196126   -0.003193
      6          6           0       -0.027022    1.232832   -0.000991
      7          6           0        0.652474    2.581912   -0.000882
      8          6           0        0.286050    3.371206    1.258159
      9          6           0        0.294825    3.366275   -1.265534
     10          6           0        0.656572    0.017930    0.000388
     11         35           0        2.575267    0.072511    0.002010
     12          6           0       -0.008265   -1.208375    0.000378
     13          6           0        0.636376   -2.580390    0.000612
     14          6           0        1.449436   -2.854978   -1.267632
     15          6           0        1.449275   -2.856088    1.268657
     16          6           0       -1.397825   -1.176355   -0.000794
     17          1           0       -3.777034   -0.212978   -2.152156
     18          1           0       -5.257418   -0.622186   -1.279492
     19          1           0       -3.891275   -1.737029   -1.271625
     20          1           0       -3.969867    1.045758   -0.014595
     21          1           0       -3.883668   -1.708565    1.303113
     22          1           0       -5.256156   -0.601155    1.283935
     23          1           0       -3.779009   -0.164202    2.148703
     24          1           0       -1.961340    2.127840   -0.004998
     25          1           0        1.736447    2.447204    0.003287
     26          1           0        0.834196    4.310359    1.278443
     27          1           0       -0.777489    3.595115    1.288686
     28          1           0        0.543021    2.803255    2.149983
     29          1           0       -0.768688    3.589037   -1.304636
     30          1           0        0.558791    2.795184   -2.153300
     31          1           0        0.842343    4.305801   -1.285339
     32          1           0       -0.193462   -3.297835    0.000303
     33          1           0        1.711077   -3.910208   -1.307748
     34          1           0        2.370212   -2.282107   -1.295513
     35          1           0        0.861376   -2.612279   -2.151058
     36          1           0        0.860285   -2.616535    2.152320
     37          1           0        2.368957   -2.281565    1.298380
     38          1           0        1.712896   -3.910924    1.306474
     39          1           0       -1.927843   -2.117440   -0.000139
 ---------------------------------------------------------------------
 Rotational constants (GHZ):           0.4858748           0.3183030           0.2195638
 Leave Link  202 at Tue Sep 17 09:47:09 2024, MaxMem=  1342177280 cpu:               0.1 elap:               0.0
 (Enter /groups/ReismanLab/Software/Gaussian16_RevC/Linux_Binary_AVX2-enabled-CPU/g16/l301.exe)
 Standard basis: 6-31G(d,p) (6D, 7F)
 Ernie: Thresh=  0.10000D-02 Tol=  0.10000D-05 Strict=F.
 There are   370 symmetry adapted cartesian basis functions of A   symmetry.
 There are   370 symmetry adapted basis functions of A   symmetry.
   370 basis functions,   664 primitive gaussians,   370 cartesian basis functions
    74 alpha electrons       74 beta electrons
       nuclear repulsion energy      1538.4335208937 Hartrees.
 IExCor=  402 DFT=T Ex+Corr=B3LYP ExCW=0 ScaHFX=  0.200000
 ScaDFX=  0.800000  0.720000  1.000000  0.810000 ScalE2=  1.000000  1.000000
 IRadAn=      5 IRanWt=     -1 IRanGd=            0 ICorTp=0 IEmpDi=141
 NAtoms=   39 NActive=   39 NUniq=   39 SFac= 1.00D+00 NAtFMM=   60 NAOKFM=F Big=F
 Integral buffers will be    131072 words long.
 Raffenetti 2 integral format.
 Two-electron integral symmetry is turned on.
 R6Disp:  Grimme-D3(BJ) Dispersion energy=       -0.0817631836 Hartrees.
 Nuclear repulsion after empirical dispersion term =     1538.3517577102 Hartrees.
 Leave Link  301 at Tue Sep 17 09:47:09 2024, MaxMem=  1342177280 cpu:               0.1 elap:               0.1
 (Enter /groups/ReismanLab/Software/Gaussian16_RevC/Linux_Binary_AVX2-enabled-CPU/g16/l302.exe)
 NPDir=0 NMtPBC=     1 NCelOv=     1 NCel=       1 NClECP=     1 NCelD=      1
         NCelK=      1 NCelE2=     1 NClLst=     1 CellRange=     0.0.
 One-electron integrals computed using PRISM.
 One-electron integral symmetry used in STVInt
 NBasis=   370 RedAO= T EigKep=  3.09D-04  NBF=   370
 NBsUse=   370 1.00D-06 EigRej= -1.00D+00 NBFU=   370
 Precomputing XC quadrature grid using
 IXCGrd= 4 IRadAn=           5 IRanWt=          -1 IRanGd=           0 AccXCQ= 0.00D+00.
 Generated NRdTot=       0 NPtTot=           0 NUsed=           0 NTot=          32
 NSgBfM=   369   369   369   369   369 MxSgAt=    39 MxSgA2=    39.
 Leave Link  302 at Tue Sep 17 09:47:09 2024, MaxMem=  1342177280 cpu:               2.6 elap:               0.4
 (Enter /groups/ReismanLab/Software/Gaussian16_RevC/Linux_Binary_AVX2-enabled-CPU/g16/l303.exe)
 DipDrv:  MaxL=1.
 Leave Link  303 at Tue Sep 17 09:47:09 2024, MaxMem=  1342177280 cpu:               0.1 elap:               0.1
 (Enter /groups/ReismanLab/Software/Gaussian16_RevC/Linux_Binary_AVX2-enabled-CPU/g16/l401.exe)
 ExpMin= 1.43D-01 ExpMax= 5.74D+05 ExpMxC= 5.74D+03 IAcc=3 IRadAn=         5 AccDes= 0.00D+00
 Harris functional with IExCor=  402 and IRadAn=       5 diagonalized for initial guess.
 HarFok:  IExCor=  402 AccDes= 0.00D+00 IRadAn=         5 IDoV= 1 UseB2=F ITyADJ=14
 ICtDFT=  3500011 ScaDFX=  1.000000  1.000000  1.000000  1.000000
 FoFCou: FMM=F IPFlag=           0 FMFlag=      100000 FMFlg1=           0
         NFxFlg=           0 DoJE=T BraDBF=F KetDBF=T FulRan=T
         wScrn=  0.000000 ICntrl=       500 IOpCl=  0 I1Cent=   200000004 NGrid=           0
         NMat0=    1 NMatS0=      1 NMatT0=    0 NMatD0=    1 NMtDS0=    0 NMtDT0=    0
 Petite list used in FoFCou.
 Harris En= -3157.52118875833    
 JPrj=0 DoOrth=F DoCkMO=F.
 Leave Link  401 at Tue Sep 17 09:47:11 2024, MaxMem=  1342177280 cpu:              14.0 elap:               1.8
 (Enter /groups/ReismanLab/Software/Gaussian16_RevC/Linux_Binary_AVX2-enabled-CPU/g16/l502.exe)
 Integral symmetry usage will be decided dynamically.
 Closed shell SCF:
 Using DIIS extrapolation, IDIIS=  1040.
 NGot=  1342177280 LenX=  1341895517 LenY=  1341758176
 Requested convergence on RMS density matrix=1.00D-08 within  32 cycles.
 Requested convergence on MAX density matrix=1.00D-06.
 Requested convergence on             energy=1.00D-06.
 No special actions if energy rises.
 Fock matrices will be formed incrementally for  20 cycles.
 Integral accuracy reduced to 1.0D-05 until final iterations.

 Cycle   1  Pass 0  IDiag  1:
 FoFJK:  IHMeth= 1 ICntrl=       0 DoSepK=F KAlg= 0 I1Cent=           0 FoldK=F
 IRaf= 800000000 NMat=       1 IRICut=       1 DoRegI=T DoRafI=F ISym2E= 0 IDoP0=0 IntGTp=1.
 FoFCou: FMM=F IPFlag=           0 FMFlag=      100000 FMFlg1=           0
         NFxFlg=           0 DoJE=F BraDBF=F KetDBF=F FulRan=T
         wScrn=  0.000000 ICntrl=         0 IOpCl=  0 I1Cent=           0 NGrid=           0
         NMat0=    1 NMatS0=      1 NMatT0=    0 NMatD0=    1 NMtDS0=    0 NMtDT0=    0
 Symmetry not used in FoFCou.
 E= -3156.75010857686    
 DIIS: error= 1.78D-01 at cycle   1 NSaved=   1.
 NSaved= 1 IEnMin= 1 EnMin= -3156.75010857686     IErMin= 1 ErrMin= 1.78D-01
 ErrMax= 1.78D-01  0.00D+00 EMaxC= 1.00D-01 BMatC= 8.52D-01 BMatP= 8.52D-01
 IDIUse=3 WtCom= 0.00D+00 WtEn= 1.00D+00
 Coeff-Com:  0.100D+01
 Coeff-En:   0.100D+01
 Coeff:      0.100D+01
 Gap=     0.298 Goal=   None    Shift=    0.000
 GapD=    0.298 DampG=1.000 DampE=0.250 DampFc=0.2500 IDamp=-1.
 Damping current iteration by 2.50D-01
 RMSDP=4.52D-03 MaxDP=1.39D-01              OVMax= 1.73D-01

 Cycle   2  Pass 0  IDiag  1:
 RMSU=  1.10D-03    CP:  9.91D-01
 E= -3156.94891975092     Delta-E=       -0.198811174061 Rises=F Damp=T
 DIIS: error= 1.31D-01 at cycle   2 NSaved=   2.
 NSaved= 2 IEnMin= 2 EnMin= -3156.94891975092     IErMin= 2 ErrMin= 1.31D-01
 ErrMax= 1.31D-01  0.00D+00 EMaxC= 1.00D-01 BMatC= 3.18D-01 BMatP= 8.52D-01
 IDIUse=3 WtCom= 0.00D+00 WtEn= 1.00D+00
 Coeff-Com: -0.119D+01 0.219D+01
 Coeff-En:   0.000D+00 0.100D+01
 Coeff:      0.000D+00 0.100D+01
 Gap=     0.225 Goal=   None    Shift=    0.000
 RMSDP=2.20D-03 MaxDP=1.11D-01 DE=-1.99D-01 OVMax= 6.12D-02

 Cycle   3  Pass 0  IDiag  1:
 RMSU=  7.69D-04    CP:  9.64D-01  2.76D+00
 E= -3157.16267909979     Delta-E=       -0.213759348862 Rises=F Damp=F
 DIIS: error= 1.40D-02 at cycle   3 NSaved=   3.
 NSaved= 3 IEnMin= 3 EnMin= -3157.16267909979     IErMin= 3 ErrMin= 1.40D-02
 ErrMax= 1.40D-02  0.00D+00 EMaxC= 1.00D-01 BMatC= 1.23D-01 BMatP= 3.18D-01
 IDIUse=3 WtCom= 8.60D-01 WtEn= 1.40D-01
 EnCoef did   100 forward-backward iterations
 Coeff-Com:  0.204D+01-0.266D+01 0.161D+01
 Coeff-En:   0.152D+00 0.222D-02 0.845D+00
 Coeff:      0.178D+01-0.228D+01 0.151D+01
 Gap=     0.247 Goal=   None    Shift=    0.000
 RMSDP=1.13D-03 MaxDP=3.61D-02 DE=-2.14D-01 OVMax= 4.74D-02

 Cycle   4  Pass 0  IDiag  1:
 RMSU=  3.10D-04    CP:  9.67D-01  1.80D+00  1.32D+00
 E= -3157.28990158907     Delta-E=       -0.127222489281 Rises=F Damp=F
 DIIS: error= 2.55D-03 at cycle   4 NSaved=   4.
 NSaved= 4 IEnMin= 4 EnMin= -3157.28990158907     IErMin= 4 ErrMin= 2.55D-03
 ErrMax= 2.55D-03  0.00D+00 EMaxC= 1.00D-01 BMatC= 3.81D-03 BMatP= 1.23D-01
 IDIUse=3 WtCom= 9.75D-01 WtEn= 2.55D-02
 Coeff-Com:  0.743D+00-0.972D+00 0.638D+00 0.590D+00
 Coeff-En:   0.000D+00 0.000D+00 0.000D+00 0.100D+01
 Coeff:      0.725D+00-0.947D+00 0.622D+00 0.601D+00
 Gap=     0.225 Goal=   None    Shift=    0.000
 RMSDP=2.56D-04 MaxDP=1.55D-02 DE=-1.27D-01 OVMax= 3.27D-02

 Cycle   5  Pass 0  IDiag  1:
 RMSU=  1.47D-04    CP:  9.66D-01  1.86D+00  1.39D+00  3.74D-01
 E= -3157.29257078428     Delta-E=       -0.002669195214 Rises=F Damp=F
 DIIS: error= 1.80D-03 at cycle   5 NSaved=   5.
 NSaved= 5 IEnMin= 5 EnMin= -3157.29257078428     IErMin= 5 ErrMin= 1.80D-03
 ErrMax= 1.80D-03  0.00D+00 EMaxC= 1.00D-01 BMatC= 1.15D-03 BMatP= 3.81D-03
 IDIUse=3 WtCom= 9.82D-01 WtEn= 1.80D-02
 Coeff-Com:  0.124D+00-0.161D+00 0.137D+00 0.385D+00 0.515D+00
 Coeff-En:   0.000D+00 0.000D+00 0.000D+00 0.243D+00 0.757D+00
 Coeff:      0.122D+00-0.159D+00 0.135D+00 0.383D+00 0.519D+00
 Gap=     0.225 Goal=   None    Shift=    0.000
 RMSDP=1.27D-04 MaxDP=7.42D-03 DE=-2.67D-03 OVMax= 1.55D-02

 Cycle   6  Pass 0  IDiag  1:
 RMSU=  5.59D-05    CP:  9.67D-01  1.86D+00  1.37D+00  5.93D-01  3.89D-01
 E= -3157.29368000625     Delta-E=       -0.001109221972 Rises=F Damp=F
 DIIS: error= 6.03D-04 at cycle   6 NSaved=   6.
 NSaved= 6 IEnMin= 6 EnMin= -3157.29368000625     IErMin= 6 ErrMin= 6.03D-04
 ErrMax= 6.03D-04  0.00D+00 EMaxC= 1.00D-01 BMatC= 1.26D-04 BMatP= 1.15D-03
 IDIUse=3 WtCom= 9.94D-01 WtEn= 6.03D-03
 Coeff-Com:  0.274D-01-0.352D-01 0.423D-01 0.196D+00 0.329D+00 0.441D+00
 Coeff-En:   0.000D+00 0.000D+00 0.000D+00 0.000D+00 0.626D-01 0.937D+00
 Coeff:      0.272D-01-0.350D-01 0.421D-01 0.195D+00 0.327D+00 0.444D+00
 Gap=     0.225 Goal=   None    Shift=    0.000
 RMSDP=3.77D-05 MaxDP=1.88D-03 DE=-1.11D-03 OVMax= 4.10D-03

 Cycle   7  Pass 0  IDiag  1:
 RMSU=  1.36D-05    CP:  9.67D-01  1.87D+00  1.36D+00  5.70D-01  5.04D-01
                    CP:  4.99D-01
 E= -3157.29381273549     Delta-E=       -0.000132729236 Rises=F Damp=F
 DIIS: error= 7.07D-05 at cycle   7 NSaved=   7.
 NSaved= 7 IEnMin= 7 EnMin= -3157.29381273549     IErMin= 7 ErrMin= 7.07D-05
 ErrMax= 7.07D-05  0.00D+00 EMaxC= 1.00D-01 BMatC= 1.93D-06 BMatP= 1.26D-04
 IDIUse=1 WtCom= 1.00D+00 WtEn= 0.00D+00
 Coeff-Com:  0.447D-02-0.553D-02 0.104D-01 0.625D-01 0.112D+00 0.192D+00
 Coeff-Com:  0.624D+00
 Coeff:      0.447D-02-0.553D-02 0.104D-01 0.625D-01 0.112D+00 0.192D+00
 Coeff:      0.624D+00
 Gap=     0.225 Goal=   None    Shift=    0.000
 RMSDP=6.61D-06 MaxDP=2.47D-04 DE=-1.33D-04 OVMax= 5.92D-04

 Initial convergence to 1.0D-05 achieved.  Increase integral accuracy.
 Cycle   8  Pass 1  IDiag  1:
 E= -3157.29379254736     Delta-E=        0.000020188133 Rises=F Damp=F
 DIIS: error= 1.27D-04 at cycle   1 NSaved=   1.
 NSaved= 1 IEnMin= 1 EnMin= -3157.29379254736     IErMin= 1 ErrMin= 1.27D-04
 ErrMax= 1.27D-04  0.00D+00 EMaxC= 1.00D-01 BMatC= 8.36D-07 BMatP= 8.36D-07
 IDIUse=3 WtCom= 9.99D-01 WtEn= 1.27D-03
 Coeff-Com:  0.100D+01
 Coeff-En:   0.100D+01
 Coeff:      0.100D+01
 Gap=     0.225 Goal=   None    Shift=    0.000
 RMSDP=6.61D-06 MaxDP=2.47D-04 DE= 2.02D-05 OVMax= 3.08D-04

 Cycle   9  Pass 1  IDiag  1:
 RMSU=  2.87D-05    CP:  1.00D+00
 E= -3157.29379284515     Delta-E=       -0.000000297791 Rises=F Damp=F
 DIIS: error= 2.96D-05 at cycle   2 NSaved=   2.
 NSaved= 2 IEnMin= 2 EnMin= -3157.29379284515     IErMin= 2 ErrMin= 2.96D-05
 ErrMax= 2.96D-05  0.00D+00 EMaxC= 1.00D-01 BMatC= 2.69D-07 BMatP= 8.36D-07
 IDIUse=1 WtCom= 1.00D+00 WtEn= 0.00D+00
 Coeff-Com:  0.305D+00 0.695D+00
 Coeff:      0.305D+00 0.695D+00
 Gap=     0.225 Goal=   None    Shift=    0.000
 RMSDP=3.10D-06 MaxDP=1.83D-04 DE=-2.98D-07 OVMax= 3.70D-04

 Cycle  10  Pass 1  IDiag  1:
 RMSU=  3.10D-06    CP:  1.00D+00  9.98D-01
 E= -3157.29379290922     Delta-E=       -0.000000064070 Rises=F Damp=F
 DIIS: error= 2.66D-05 at cycle   3 NSaved=   3.
 NSaved= 3 IEnMin= 3 EnMin= -3157.29379290922     IErMin= 3 ErrMin= 2.66D-05
 ErrMax= 2.66D-05  0.00D+00 EMaxC= 1.00D-01 BMatC= 2.01D-07 BMatP= 2.69D-07
 IDIUse=1 WtCom= 1.00D+00 WtEn= 0.00D+00
 Coeff-Com:  0.233D-01 0.460D+00 0.517D+00
 Coeff:      0.233D-01 0.460D+00 0.517D+00
 Gap=     0.225 Goal=   None    Shift=    0.000
 RMSDP=1.64D-06 MaxDP=9.70D-05 DE=-6.41D-08 OVMax= 2.14D-04

 Cycle  11  Pass 1  IDiag  1:
 RMSU=  6.79D-07    CP:  1.00D+00  1.01D+00  5.30D-01
 E= -3157.29379310608     Delta-E=       -0.000000196862 Rises=F Damp=F
 DIIS: error= 6.57D-06 at cycle   4 NSaved=   4.
 NSaved= 4 IEnMin= 4 EnMin= -3157.29379310608     IErMin= 4 ErrMin= 6.57D-06
 ErrMax= 6.57D-06  0.00D+00 EMaxC= 1.00D-01 BMatC= 1.64D-08 BMatP= 2.01D-07
 IDIUse=1 WtCom= 1.00D+00 WtEn= 0.00D+00
 Coeff-Com: -0.150D-02 0.261D+00 0.333D+00 0.408D+00
 Coeff:     -0.150D-02 0.261D+00 0.333D+00 0.408D+00
 Gap=     0.225 Goal=   None    Shift=    0.000
 RMSDP=4.06D-07 MaxDP=2.16D-05 DE=-1.97D-07 OVMax= 4.81D-05

 Cycle  12  Pass 1  IDiag  1:
 RMSU=  1.08D-07    CP:  1.00D+00  1.01D+00  5.67D-01  4.51D-01
 E= -3157.29379312323     Delta-E=       -0.000000017150 Rises=F Damp=F
 DIIS: error= 7.42D-07 at cycle   5 NSaved=   5.
 NSaved= 5 IEnMin= 5 EnMin= -3157.29379312323     IErMin= 5 ErrMin= 7.42D-07
 ErrMax= 7.42D-07  0.00D+00 EMaxC= 1.00D-01 BMatC= 2.10D-10 BMatP= 1.64D-08
 IDIUse=1 WtCom= 1.00D+00 WtEn= 0.00D+00
 Coeff-Com: -0.141D-02 0.126D+00 0.163D+00 0.217D+00 0.496D+00
 Coeff:     -0.141D-02 0.126D+00 0.163D+00 0.217D+00 0.496D+00
 Gap=     0.225 Goal=   None    Shift=    0.000
 RMSDP=5.67D-08 MaxDP=3.28D-06 DE=-1.72D-08 OVMax= 7.01D-06

 Cycle  13  Pass 1  IDiag  1:
 RMSU=  3.49D-08    CP:  1.00D+00  1.01D+00  5.61D-01  4.50D-01  6.32D-01
 E= -3157.29379312336     Delta-E=       -0.000000000130 Rises=F Damp=F
 DIIS: error= 1.85D-07 at cycle   6 NSaved=   6.
 NSaved= 6 IEnMin= 6 EnMin= -3157.29379312336     IErMin= 6 ErrMin= 1.85D-07
 ErrMax= 1.85D-07  0.00D+00 EMaxC= 1.00D-01 BMatC= 1.03D-11 BMatP= 2.10D-10
 IDIUse=1 WtCom= 1.00D+00 WtEn= 0.00D+00
 Coeff-Com: -0.717D-03 0.607D-01 0.782D-01 0.106D+00 0.281D+00 0.475D+00
 Coeff:     -0.717D-03 0.607D-01 0.782D-01 0.106D+00 0.281D+00 0.475D+00
 Gap=     0.225 Goal=   None    Shift=    0.000
 RMSDP=1.36D-08 MaxDP=7.22D-07 DE=-1.30D-10 OVMax= 1.61D-06

 Cycle  14  Pass 1  IDiag  1:
 RMSU=  1.12D-08    CP:  1.00D+00  1.01D+00  5.60D-01  4.50D-01  6.62D-01
                    CP:  8.03D-01
 E= -3157.29379312340     Delta-E=       -0.000000000036 Rises=F Damp=F
 DIIS: error= 6.83D-08 at cycle   7 NSaved=   7.
 NSaved= 7 IEnMin= 7 EnMin= -3157.29379312340     IErMin= 7 ErrMin= 6.83D-08
 ErrMax= 6.83D-08  0.00D+00 EMaxC= 1.00D-01 BMatC= 1.21D-12 BMatP= 1.03D-11
 IDIUse=1 WtCom= 1.00D+00 WtEn= 0.00D+00
 Coeff-Com: -0.136D-03 0.100D-01 0.129D-01 0.177D-01 0.660D-01 0.269D+00
 Coeff-Com:  0.624D+00
 Coeff:     -0.136D-03 0.100D-01 0.129D-01 0.177D-01 0.660D-01 0.269D+00
 Coeff:      0.624D+00
 Gap=     0.225 Goal=   None    Shift=    0.000
 RMSDP=4.47D-09 MaxDP=2.58D-07 DE=-3.64D-11 OVMax= 5.33D-07

 SCF Done:  E(RB3LYP) =  -3157.29379312     A.U. after   14 cycles
            NFock= 14  Conv=0.45D-08     -V/T= 2.0068
 KE= 3.136111807965D+03 PE=-1.056418922436D+04 EE= 2.732431865556D+03
 Leave Link  502 at Tue Sep 17 09:47:47 2024, MaxMem=  1342177280 cpu:             274.4 elap:              35.9
 (Enter /groups/ReismanLab/Software/Gaussian16_RevC/Linux_Binary_AVX2-enabled-CPU/g16/l508.exe)
 QCSCF skips out because SCF is already converged.
 Leave Link  508 at Tue Sep 17 09:47:47 2024, MaxMem=  1342177280 cpu:               0.1 elap:               0.0
 (Enter /groups/ReismanLab/Software/Gaussian16_RevC/Linux_Binary_AVX2-enabled-CPU/g16/l601.exe)
 Copying SCF densities to generalized density rwf, IOpCl= 0 IROHF=0.

 **********************************************************************

            Population analysis using the SCF Density.

 **********************************************************************

 Orbital symmetries:
       Occupied  (A) (A) (A) (A) (A) (A) (A) (A) (A) (A) (A) (A)
                 (A) (A) (A) (A) (A) (A) (A) (A) (A) (A) (A) (A)
                 (A) (A) (A) (A) (A) (A) (A) (A) (A) (A) (A) (A)
                 (A) (A) (A) (A) (A) (A) (A) (A) (A) (A) (A) (A)
                 (A) (A) (A) (A) (A) (A) (A) (A) (A) (A) (A) (A)
                 (A) (A) (A) (A) (A) (A) (A) (A) (A) (A) (A) (A)
                 (A) (A)
       Virtual   (A) (A) (A) (A) (A) (A) (A) (A) (A) (A) (A) (A)
                 (A) (A) (A) (A) (A) (A) (A) (A) (A) (A) (A) (A)
                 (A) (A) (A) (A) (A) (A) (A) (A) (A) (A) (A) (A)
                 (A) (A) (A) (A) (A) (A) (A) (A) (A) (A) (A) (A)
                 (A) (A) (A) (A) (A) (A) (A) (A) (A) (A) (A) (A)
                 (A) (A) (A) (A) (A) (A) (A) (A) (A) (A) (A) (A)
                 (A) (A) (A) (A) (A) (A) (A) (A) (A) (A) (A) (A)
                 (A) (A) (A) (A) (A) (A) (A) (A) (A) (A) (A) (A)
                 (A) (A) (A) (A) (A) (A) (A) (A) (A) (A) (A) (A)
                 (A) (A) (A) (A) (A) (A) (A) (A) (A) (A) (A) (A)
                 (A) (A) (A) (A) (A) (A) (A) (A) (A) (A) (A) (A)
                 (A) (A) (A) (A) (A) (A) (A) (A) (A) (A) (A) (A)
                 (A) (A) (A) (A) (A) (A) (A) (A) (A) (A) (A) (A)
                 (A) (A) (A) (A) (A) (A) (A) (A) (A) (A) (A) (A)
                 (A) (A) (A) (A) (A) (A) (A) (A) (A) (A) (A) (A)
                 (A) (A) (A) (A) (A) (A) (A) (A) (A) (A) (A) (A)
                 (A) (A) (A) (A) (A) (A) (A) (A) (A) (A) (A) (A)
                 (A) (A) (A) (A) (A) (A) (A) (A) (A) (A) (A) (A)
                 (A) (A) (A) (A) (A) (A) (A) (A) (A) (A) (A) (A)
                 (A) (A) (A) (A) (A) (A) (A) (A) (A) (A) (A) (A)
                 (A) (A) (A) (A) (A) (A) (A) (A) (A) (A) (A) (A)
                 (A) (A) (A) (A) (A) (A) (A) (A) (A) (A) (A) (A)
                 (A) (A) (A) (A) (A) (A) (A) (A) (A) (A) (A) (A)
                 (A) (A) (A) (A) (A) (A) (A) (A) (A) (A) (A) (A)
                 (A) (A) (A) (A) (A) (A) (A) (A)
 The electronic state is 1-A.
 Alpha  occ. eigenvalues -- -482.90642 -61.86720 -56.38724 -56.38354 -56.38325
 Alpha  occ. eigenvalues --  -10.23361 -10.19756 -10.19647 -10.19267 -10.19084
 Alpha  occ. eigenvalues --  -10.18827 -10.18720 -10.18140 -10.18137 -10.17393
 Alpha  occ. eigenvalues --  -10.17392 -10.17088 -10.17087 -10.16452 -10.16451
 Alpha  occ. eigenvalues --   -8.57668  -6.52980  -6.51764  -6.51733  -2.64555
 Alpha  occ. eigenvalues --   -2.64208  -2.64186  -2.63216  -2.63215  -0.87974
 Alpha  occ. eigenvalues --   -0.82326  -0.81625  -0.78117  -0.77517  -0.72766
 Alpha  occ. eigenvalues --   -0.70727  -0.68662  -0.68355  -0.67916  -0.62752
 Alpha  occ. eigenvalues --   -0.61576  -0.59917  -0.54778  -0.53993  -0.50380
 Alpha  occ. eigenvalues --   -0.47994  -0.45201  -0.44945  -0.44244  -0.43305
 Alpha  occ. eigenvalues --   -0.42906  -0.42322  -0.41846  -0.41087  -0.40722
 Alpha  occ. eigenvalues --   -0.38909  -0.38651  -0.38307  -0.38165  -0.37416
 Alpha  occ. eigenvalues --   -0.36037  -0.35796  -0.34327  -0.34253  -0.33979
 Alpha  occ. eigenvalues --   -0.33908  -0.32759  -0.32411  -0.31687  -0.31111
 Alpha  occ. eigenvalues --   -0.29753  -0.26775  -0.24020  -0.22761
 Alpha virt. eigenvalues --   -0.00214  -0.00099   0.01820   0.08840   0.09881
 Alpha virt. eigenvalues --    0.09904   0.11881   0.12195   0.14039   0.15029
 Alpha virt. eigenvalues --    0.15110   0.15162   0.15314   0.15737   0.16368
 Alpha virt. eigenvalues --    0.16593   0.16934   0.17672   0.19286   0.19516
 Alpha virt. eigenvalues --    0.19520   0.19850   0.20219   0.20413   0.20449
 Alpha virt. eigenvalues --    0.20528   0.21173   0.21391   0.22485   0.24057
 Alpha virt. eigenvalues --    0.26724   0.27347   0.27423   0.28279   0.28945
 Alpha virt. eigenvalues --    0.29753   0.31175   0.33728   0.34670   0.37364
 Alpha virt. eigenvalues --    0.39447   0.42587   0.44531   0.45235   0.46536
 Alpha virt. eigenvalues --    0.47850   0.49015   0.49440   0.49482   0.50772
 Alpha virt. eigenvalues --    0.51019   0.51228   0.51656   0.53293   0.53879
 Alpha virt. eigenvalues --    0.54133   0.55399   0.55795   0.56524   0.57448
 Alpha virt. eigenvalues --    0.59810   0.60535   0.61503   0.63004   0.63946
 Alpha virt. eigenvalues --    0.64525   0.65902   0.66052   0.66826   0.66863
 Alpha virt. eigenvalues --    0.67540   0.69414   0.71710   0.72482   0.72793
 Alpha virt. eigenvalues --    0.74178   0.75380   0.77706   0.77846   0.78469
 Alpha virt. eigenvalues --    0.80134   0.80276   0.81516   0.81615   0.82817
 Alpha virt. eigenvalues --    0.83579   0.84193   0.84466   0.84674   0.86652
 Alpha virt. eigenvalues --    0.86846   0.87703   0.88115   0.88638   0.88994
 Alpha virt. eigenvalues --    0.89137   0.89792   0.90123   0.90377   0.90880
 Alpha virt. eigenvalues --    0.92046   0.92327   0.93318   0.94785   0.95399
 Alpha virt. eigenvalues --    0.95933   0.96943   0.98021   0.98944   0.99027
 Alpha virt. eigenvalues --    0.99400   1.00390   1.01267   1.02107   1.06254
 Alpha virt. eigenvalues --    1.07216   1.12450   1.13561   1.18891   1.20077
 Alpha virt. eigenvalues --    1.21995   1.22931   1.26423   1.27407   1.27900
 Alpha virt. eigenvalues --    1.28507   1.34573   1.36860   1.39648   1.42218
 Alpha virt. eigenvalues --    1.42271   1.43839   1.46222   1.48513   1.49948
 Alpha virt. eigenvalues --    1.51203   1.53659   1.53952   1.56133   1.56466
 Alpha virt. eigenvalues --    1.57252   1.58094   1.58609   1.59729   1.60329
 Alpha virt. eigenvalues --    1.66736   1.69671   1.76391   1.77359   1.78561
 Alpha virt. eigenvalues --    1.78711   1.81298   1.82449   1.82765   1.82871
 Alpha virt. eigenvalues --    1.83221   1.83580   1.85668   1.86048   1.86837
 Alpha virt. eigenvalues --    1.88149   1.89277   1.89743   1.90476   1.91981
 Alpha virt. eigenvalues --    1.94252   1.96152   1.98510   2.01595   2.03510
 Alpha virt. eigenvalues --    2.04760   2.04763   2.05041   2.05280   2.05829
 Alpha virt. eigenvalues --    2.07523   2.09301   2.09486   2.10355   2.10913
 Alpha virt. eigenvalues --    2.11631   2.11773   2.11963   2.12217   2.12283
 Alpha virt. eigenvalues --    2.12516   2.13086   2.13195   2.13589   2.13778
 Alpha virt. eigenvalues --    2.15116   2.16724   2.17348   2.18172   2.21031
 Alpha virt. eigenvalues --    2.21384   2.23258   2.26384   2.30294   2.30908
 Alpha virt. eigenvalues --    2.31496   2.31608   2.33007   2.33663   2.34946
 Alpha virt. eigenvalues --    2.35024   2.37274   2.39355   2.40873   2.41472
 Alpha virt. eigenvalues --    2.42525   2.46556   2.52029   2.52385   2.52652
 Alpha virt. eigenvalues --    2.54259   2.54990   2.58154   2.60573   2.61978
 Alpha virt. eigenvalues --    2.63046   2.64434   2.64435   2.67529   2.69758
 Alpha virt. eigenvalues --    2.69957   2.70327   2.70618   2.71993   2.72184
 Alpha virt. eigenvalues --    2.72434   2.73385   2.75308   2.75685   2.75738
 Alpha virt. eigenvalues --    2.76470   2.78374   2.83352   2.85272   2.88389
 Alpha virt. eigenvalues --    2.90348   2.90723   2.91229   2.91587   2.91713
 Alpha virt. eigenvalues --    2.91786   2.92544   2.93207   2.93740   2.99375
 Alpha virt. eigenvalues --    2.99680   3.01556   3.05237   3.09637   3.20918
 Alpha virt. eigenvalues --    3.21518   3.22402   3.23019   3.25102   3.25417
 Alpha virt. eigenvalues --    3.26653   3.27403   3.34748   3.35642   3.36984
 Alpha virt. eigenvalues --    3.42880   3.43281   3.43689   3.44483   3.48322
 Alpha virt. eigenvalues --    3.49265   3.49492   3.49753   3.50596   3.50599
 Alpha virt. eigenvalues --    3.55126   3.56458   3.57121   3.72899   4.13582
 Alpha virt. eigenvalues --    4.21053   4.21526   4.36265   4.37636   4.39244
 Alpha virt. eigenvalues --    4.50128   4.50399   4.51358   4.51994   4.52051
 Alpha virt. eigenvalues --    4.64472   4.71778   4.72540   4.85606   8.71178
 Alpha virt. eigenvalues --   74.62161
          Condensed to atoms (all electrons):
               1          2          3          4          5          6
     1  C    4.954069   0.365877  -0.056595  -0.045261  -0.000557  -0.000310
     2  C    0.365877   4.957423   0.366044   0.361615  -0.041097   0.006971
     3  C   -0.056595   0.366044   4.954136  -0.045595  -0.000767  -0.000313
     4  C   -0.045261   0.361615  -0.045595   4.736532   0.535863  -0.013099
     5  C   -0.000557  -0.041097  -0.000767   0.535863   5.044685   0.471917
     6  C   -0.000310   0.006971  -0.000313  -0.013099   0.471917   4.856532
     7  C    0.000003  -0.000219   0.000003   0.005600  -0.057566   0.369032
     8  C   -0.000000   0.000001   0.000000   0.000187  -0.007696  -0.043900
     9  C    0.000000   0.000001  -0.000000   0.000180  -0.007674  -0.043956
    10  C    0.000014   0.001176   0.000015  -0.042860  -0.042481   0.492479
    11  Br  -0.000000   0.000006  -0.000000  -0.000115   0.006709  -0.076019
    12  C    0.000171   0.005299   0.000162  -0.013189  -0.053906  -0.014110
    13  C    0.000000  -0.000204   0.000000   0.007788   0.000576   0.005355
    14  C   -0.000000   0.000003   0.000000  -0.000352   0.000030  -0.000188
    15  C    0.000000   0.000003  -0.000000  -0.000349   0.000030  -0.000191
    16  C   -0.006022  -0.059285  -0.005998   0.483651  -0.039302  -0.058072
    17  H    0.379529  -0.032135   0.005635  -0.000967   0.001280  -0.000039
    18  H    0.373805  -0.029807  -0.003579   0.005031  -0.000053   0.000004
    19  H    0.384398  -0.032899  -0.006412  -0.008979   0.000046   0.000019
    20  H   -0.043510   0.381968  -0.043434  -0.044253  -0.008193   0.000412
    21  H   -0.006402  -0.032941   0.384420  -0.008983   0.000047   0.000019
    22  H   -0.003612  -0.029908   0.373703   0.005054  -0.000049   0.000004
    23  H    0.005641  -0.032085   0.379450  -0.000951   0.001349  -0.000042
    24  H    0.000245  -0.011922   0.000251  -0.038179   0.361463  -0.051061
    25  H   -0.000000   0.000002  -0.000000  -0.000166   0.005628  -0.038927
    26  H    0.000000  -0.000000  -0.000000   0.000000   0.000188   0.005105
    27  H    0.000000   0.000002  -0.000001   0.000045   0.003563  -0.009783
    28  H   -0.000000   0.000001  -0.000000  -0.000064  -0.000083  -0.001500
    29  H   -0.000001   0.000002   0.000000   0.000043   0.003596  -0.009781
    30  H   -0.000000   0.000001  -0.000000  -0.000062  -0.000090  -0.001508
    31  H   -0.000000  -0.000000   0.000000   0.000001   0.000187   0.005109
    32  H   -0.000003  -0.000013  -0.000003   0.001043  -0.000029  -0.000102
    33  H    0.000000  -0.000000  -0.000000   0.000004  -0.000000   0.000006
    34  H   -0.000000  -0.000000   0.000000   0.000028  -0.000008   0.000043
    35  H    0.000000   0.000000   0.000000  -0.000070  -0.000012  -0.000071
    36  H    0.000000   0.000000   0.000000  -0.000070  -0.000012  -0.000069
    37  H    0.000000  -0.000000  -0.000000   0.000028  -0.000008   0.000043
    38  H   -0.000000  -0.000000   0.000000   0.000004  -0.000000   0.000006
    39  H    0.000540  -0.008349   0.000499  -0.050163   0.006269   0.000651
               7          8          9         10         11         12
     1  C    0.000003  -0.000000   0.000000   0.000014  -0.000000   0.000171
     2  C   -0.000219   0.000001   0.000001   0.001176   0.000006   0.005299
     3  C    0.000003   0.000000  -0.000000   0.000015  -0.000000   0.000162
     4  C    0.005600   0.000187   0.000180  -0.042860  -0.000115  -0.013189
     5  C   -0.057566  -0.007696  -0.007674  -0.042481   0.006709  -0.053906
     6  C    0.369032  -0.043900  -0.043956   0.492479  -0.076019  -0.014110
     7  C    4.983134   0.363348   0.363375  -0.051533  -0.031264   0.006716
     8  C    0.363348   4.950063  -0.054315   0.000885   0.001001  -0.000248
     9  C    0.363375  -0.054315   4.950011   0.000835   0.000997  -0.000248
    10  C   -0.051533   0.000885   0.000835   5.078620   0.271596   0.453102
    11  Br  -0.031264   0.001001   0.000997   0.271596  35.032092  -0.076484
    12  C    0.006716  -0.000248  -0.000248   0.453102  -0.076484   4.835489
    13  C   -0.000110   0.000001   0.000001  -0.062977  -0.004377   0.371110
    14  C   -0.000001   0.000000  -0.000000  -0.005568  -0.015406  -0.037258
    15  C   -0.000001  -0.000000   0.000000  -0.005572  -0.015449  -0.037188
    16  C    0.000601   0.000017   0.000017  -0.036431   0.006615   0.508560
    17  H    0.000000   0.000000   0.000000  -0.000016  -0.000000  -0.000071
    18  H   -0.000000  -0.000000   0.000000  -0.000000   0.000000   0.000002
    19  H    0.000000  -0.000000   0.000000  -0.000003  -0.000000  -0.000031
    20  H   -0.000007  -0.000003  -0.000004  -0.000005  -0.000000  -0.000199
    21  H    0.000000   0.000000  -0.000000  -0.000004  -0.000000  -0.000040
    22  H   -0.000000   0.000000  -0.000000  -0.000000   0.000000   0.000002
    23  H    0.000000   0.000000   0.000000  -0.000016  -0.000000  -0.000066
    24  H   -0.008710  -0.000097  -0.000090   0.005612  -0.000166   0.000614
    25  H    0.388576  -0.042095  -0.042077  -0.013404   0.016275   0.000340
    26  H   -0.031117   0.375681  -0.003374  -0.000031  -0.000024   0.000003
    27  H   -0.032055   0.382541  -0.006739  -0.000285  -0.000055   0.000016
    28  H   -0.032470   0.381069   0.005519   0.001100   0.000654  -0.000034
    29  H   -0.032077  -0.006740   0.382566  -0.000284  -0.000055   0.000016
    30  H   -0.032462   0.005520   0.381069   0.001109   0.000676  -0.000035
    31  H   -0.031126  -0.003378   0.375659  -0.000030  -0.000025   0.000003
    32  H    0.000002  -0.000000  -0.000000   0.005760  -0.000053  -0.049933
    33  H   -0.000000   0.000000  -0.000000   0.000192   0.000378   0.004574
    34  H    0.000004  -0.000000   0.000000   0.001050   0.008672  -0.007374
    35  H    0.000001  -0.000000  -0.000000   0.000311   0.000640  -0.001563
    36  H    0.000001  -0.000000  -0.000000   0.000312   0.000639  -0.001556
    37  H    0.000004   0.000000  -0.000000   0.001049   0.008699  -0.007386
    38  H   -0.000000  -0.000000   0.000000   0.000192   0.000378   0.004570
    39  H    0.000012   0.000000   0.000000   0.006194  -0.000154  -0.040051
              13         14         15         16         17         18
     1  C    0.000000  -0.000000   0.000000  -0.006022   0.379529   0.373805
     2  C   -0.000204   0.000003   0.000003  -0.059285  -0.032135  -0.029807
     3  C    0.000000   0.000000  -0.000000  -0.005998   0.005635  -0.003579
     4  C    0.007788  -0.000352  -0.000349   0.483651  -0.000967   0.005031
     5  C    0.000576   0.000030   0.000030  -0.039302   0.001280  -0.000053
     6  C    0.005355  -0.000188  -0.000191  -0.058072  -0.000039   0.000004
     7  C   -0.000110  -0.000001  -0.000001   0.000601   0.000000  -0.000000
     8  C    0.000001   0.000000  -0.000000   0.000017   0.000000  -0.000000
     9  C    0.000001  -0.000000   0.000000   0.000017   0.000000   0.000000
    10  C   -0.062977  -0.005568  -0.005572  -0.036431  -0.000016  -0.000000
    11  Br  -0.004377  -0.015406  -0.015449   0.006615  -0.000000   0.000000
    12  C    0.371110  -0.037258  -0.037188   0.508560  -0.000071   0.000002
    13  C    4.950417   0.358517   0.358512  -0.042902   0.000001  -0.000000
    14  C    0.358517   4.974556  -0.050845  -0.001133   0.000000  -0.000000
    15  C    0.358512  -0.050845   4.974519  -0.001077  -0.000000   0.000000
    16  C   -0.042902  -0.001133  -0.001077   5.065419  -0.000004   0.000159
    17  H    0.000001   0.000000  -0.000000  -0.000004   0.603156  -0.029781
    18  H   -0.000000  -0.000000   0.000000   0.000159  -0.029781   0.616716
    19  H   -0.000000  -0.000001   0.000000   0.003116  -0.030992  -0.030877
    20  H    0.000002  -0.000000  -0.000000   0.005772  -0.003450  -0.004682
    21  H    0.000000   0.000000  -0.000001   0.003249   0.000005  -0.000325
    22  H   -0.000000   0.000000  -0.000000   0.000154  -0.000075   0.003380
    23  H    0.000001  -0.000000   0.000000  -0.000033  -0.000230  -0.000076
    24  H    0.000010  -0.000000  -0.000000   0.006755   0.000053  -0.000024
    25  H    0.000003   0.000001   0.000001  -0.000030  -0.000000   0.000000
    26  H   -0.000000  -0.000000   0.000000  -0.000000  -0.000000   0.000000
    27  H    0.000000  -0.000000  -0.000000  -0.000008  -0.000000   0.000000
    28  H    0.000000   0.000000   0.000000  -0.000016  -0.000000   0.000000
    29  H    0.000000  -0.000000  -0.000000  -0.000008   0.000001   0.000000
    30  H    0.000000   0.000000   0.000000  -0.000016   0.000000  -0.000000
    31  H   -0.000000   0.000000  -0.000000  -0.000000   0.000000  -0.000000
    32  H    0.389644  -0.044681  -0.044702  -0.010835   0.000000  -0.000000
    33  H   -0.029308   0.370981  -0.003540  -0.000034  -0.000000  -0.000000
    34  H   -0.030634   0.387077  -0.007257  -0.000000   0.000000   0.000000
    35  H   -0.033705   0.378150   0.005506   0.001383   0.000000   0.000000
    36  H   -0.033669   0.005505   0.378132   0.001367   0.000000  -0.000000
    37  H   -0.030622  -0.007242   0.387070  -0.000001  -0.000000  -0.000000
    38  H   -0.029324  -0.003563   0.370979  -0.000036   0.000000  -0.000000
    39  H   -0.014793   0.000467   0.000466   0.362346   0.000111  -0.000153
              19         20         21         22         23         24
     1  C    0.384398  -0.043510  -0.006402  -0.003612   0.005641   0.000245
     2  C   -0.032899   0.381968  -0.032941  -0.029908  -0.032085  -0.011922
     3  C   -0.006412  -0.043434   0.384420   0.373703   0.379450   0.000251
     4  C   -0.008979  -0.044253  -0.008983   0.005054  -0.000951  -0.038179
     5  C    0.000046  -0.008193   0.000047  -0.000049   0.001349   0.361463
     6  C    0.000019   0.000412   0.000019   0.000004  -0.000042  -0.051061
[...]
     16          6           0       -1.479796   -1.123989   -0.027532
     17          1           0       -3.810723    0.072109   -2.206425
     18          1           0       -5.322443   -0.344144   -1.374998
     19          1           0       -3.988501   -1.504445   -1.426031
     20          1           0       -3.966980    1.203330    0.012128
     21          1           0       -4.057551   -1.620419    1.203236
     22          1           0       -5.390022   -0.457280    1.184422
     23          1           0       -3.925142   -0.118992    2.127598
     24          1           0       -1.928436    2.213579    0.118778
     25          1           0        1.657377    2.378276    0.783491
     26          1           0        0.677971    4.584687    0.896151
     27          1           0       -0.822134    4.057633    0.139839
     28          1           0       -0.400086    3.475363    1.760204
     29          1           0        0.415705    3.091496   -1.920708
     30          1           0        1.861834    2.093937   -1.675469
     31          1           0        1.885822    3.811501   -1.235487
     32          1           0       -0.327069   -3.291627   -0.104735
     33          1           0        1.692734   -3.890781   -1.365343
     34          1           0        2.221118   -2.200146   -1.385875
     35          1           0        0.734323   -2.668307   -2.219657
     36          1           0        0.650141   -2.879091    2.106404
     37          1           0        2.174187   -2.357505    1.377899
     38          1           0        1.624940   -4.028597    1.173297
     39          1           0       -2.043882   -2.050640   -0.085458
 ---------------------------------------------------------------------
 Rotational constants (GHZ):           0.4904297           0.3129627           0.2157768
 Leave Link  202 at Tue Sep 17 10:15:08 2024, MaxMem=  1342177280 cpu:               0.0 elap:               0.0
 (Enter /groups/ReismanLab/Software/Gaussian16_RevC/Linux_Binary_AVX2-enabled-CPU/g16/l301.exe)
 Standard basis: def2TZVP (5D, 7F)
 Ernie: Thresh=  0.10000D-02 Tol=  0.10000D-05 Strict=F.
 There are   733 symmetry adapted cartesian basis functions of A   symmetry.
 There are   651 symmetry adapted basis functions of A   symmetry.
   651 basis functions,  1063 primitive gaussians,   733 cartesian basis functions
    74 alpha electrons       74 beta electrons
       nuclear repulsion energy      1533.2137341765 Hartrees.
 IExCor= 4336 DFT=T Ex+Corr=M062X ExCW=0 ScaHFX=  0.540000
 ScaDFX=  1.000000  1.000000  1.000000  1.000000 ScalE2=  1.000000  1.000000
 IRadAn=      5 IRanWt=     -1 IRanGd=            0 ICorTp=0 IEmpDi=  4
 NAtoms=   39 NActive=   39 NUniq=   39 SFac= 1.00D+00 NAtFMM=   60 NAOKFM=F Big=F
 Integral buffers will be    131072 words long.
 Raffenetti 2 integral format.
 Two-electron integral symmetry is turned on.
 ------------------------------------------------------------------------------
 Polarizable Continuum Model (PCM)
 =================================
 Model                : PCM.
 Atomic radii         : SMD-Coulomb.
 Polarization charges : Total charges.
 Charge compensation  : None.
 Solution method      : On-the-fly selection.
 Cavity type          : VdW (van der Waals Surface) (Alpha=1.000).
 Cavity algorithm     : GePol (No added spheres)
                        Default sphere list used, NSphG=   39.
                        Lebedev-Laikov grids with approx.  5.0 points / Ang**2.
                        Smoothing algorithm: York/Karplus (Gamma=1.0000).
                        Polarization charges: spherical gaussians, with
                                              point-specific exponents (IZeta= 3).
                        Self-potential: point-specific (ISelfS= 7).
                        Self-field    : sphere-specific E.n sum rule (ISelfD= 2).
 Solvent              : 1,4-Dioxane, Eps=   2.209900 Eps(inf)=   2.023222
 ------------------------------------------------------------------------------
 GePol: Number of generator spheres                  =      39
 GePol: Total number of spheres                      =      39
 GePol: Number of exposed spheres                    =      39 (100.00%)
 GePol: Number of points                             =    2695
 GePol: Average weight of points                     =       0.11
 GePol: Minimum weight of points                     =   0.85D-11
 GePol: Maximum weight of points                     =    0.21647
 GePol: Number of points with low weight             =     179
 GePol: Fraction of low-weight points (<1% of avg)   =       6.64%
 GePol: Cavity surface area                          =    306.799 Ang**2
 GePol: Cavity volume                                =    295.248 Ang**3
 ------------------------------------------------------------------------------
 Atomic radii for non-electrostatic terms: SMD-CDS.
 ------------------------------------------------------------------------------
 PCM non-electrostatic energy =        -0.0043298674 Hartrees.
 Nuclear repulsion after PCM non-electrostatic terms =     1533.2094043091 Hartrees.
 Leave Link  301 at Tue Sep 17 10:15:08 2024, MaxMem=  1342177280 cpu:               0.1 elap:               0.1
 (Enter /groups/ReismanLab/Software/Gaussian16_RevC/Linux_Binary_AVX2-enabled-CPU/g16/l302.exe)
 NPDir=0 NMtPBC=     1 NCelOv=     1 NCel=       1 NClECP=     1 NCelD=      1
         NCelK=      1 NCelE2=     1 NClLst=     1 CellRange=     0.0.
 One-electron integrals computed using PRISM.
 One-electron integral symmetry used in STVInt
   1 Symmetry operations used in ECPInt.
 ECPInt:  NShTT=   37401 NPrTT=  114468 LenC2=   34183 LenP2D=   76046.
 LDataN:  DoStor=T MaxTD1= 6 Len=  172
 NBasis=   651 RedAO= T EigKep=  4.26D-06  NBF=   651
 NBsUse=   651 1.00D-06 EigRej= -1.00D+00 NBFU=   651
 Precomputing XC quadrature grid using
 IXCGrd= 4 IRadAn=           5 IRanWt=          -1 IRanGd=           0 AccXCQ= 0.00D+00.
 Generated NRdTot=       0 NPtTot=           0 NUsed=           0 NTot=          32
 NSgBfM=   725   725   725   725   725 MxSgAt=    39 MxSgA2=    39.
 Leave Link  302 at Tue Sep 17 10:15:09 2024, MaxMem=  1342177280 cpu:               1.4 elap:               1.4
 (Enter /groups/ReismanLab/Software/Gaussian16_RevC/Linux_Binary_AVX2-enabled-CPU/g16/l303.exe)
 DipDrv:  MaxL=1.
 Leave Link  303 at Tue Sep 17 10:15:09 2024, MaxMem=  1342177280 cpu:               0.1 elap:               0.1
 (Enter /groups/ReismanLab/Software/Gaussian16_RevC/Linux_Binary_AVX2-enabled-CPU/g16/l401.exe)
 Initial guess from the checkpoint file:  "smiles_00105_conf_4.chk"
 B after Tr=    -0.000000    0.000000    0.000000
         Rot=    1.000000   -0.000000   -0.000000   -0.000000 Ang=   0.00 deg.
 Guess basis will be translated and rotated to current coordinates.
 JPrj=2 DoOrth=T DoCkMO=T.
 Leave Link  401 at Tue Sep 17 10:15:10 2024, MaxMem=  1342177280 cpu:               0.3 elap:               0.8
 (Enter /groups/ReismanLab/Software/Gaussian16_RevC/Linux_Binary_AVX2-enabled-CPU/g16/l502.exe)
 Integral symmetry usage will be decided dynamically.
 Closed shell SCF:
 Using DIIS extrapolation, IDIIS=  1040.
 NGot=  1342177280 LenX=  1341090710 LenY=  1340552688
 Requested convergence on RMS density matrix=1.00D-08 within  32 cycles.
 Requested convergence on MAX density matrix=1.00D-06.
 Requested convergence on             energy=1.00D-06.
 No special actions if energy rises.
 Fock matrices will be formed incrementally for  20 cycles.

 Cycle   1  Pass 1  IDiag  1:
 FoFJK:  IHMeth= 1 ICntrl=       0 DoSepK=F KAlg= 0 I1Cent=           0 FoldK=F
 IRaf= 860000000 NMat=       1 IRICut=       1 DoRegI=T DoRafI=F ISym2E= 0 IDoP0=0 IntGTp=1.
 FoFCou: FMM=F IPFlag=           0 FMFlag=      100000 FMFlg1=           0
         NFxFlg=           0 DoJE=F BraDBF=F KetDBF=F FulRan=T
         wScrn=  0.000000 ICntrl=         0 IOpCl=  0 I1Cent=           0 NGrid=           0
         NMat0=    1 NMatS0=      1 NMatT0=    0 NMatD0=    1 NMtDS0=    0 NMtDT0=    0
 Symmetry not used in FoFCou.
 Inv3:  Mode=1 IEnd=    21789075.
 Iteration    1 A*A^-1 deviation from unit magnitude is 3.55D-15 for   2573.
 Iteration    1 A*A^-1 deviation from orthogonality  is 1.80D-15 for   1877    220.
 Iteration    1 A^-1*A deviation from unit magnitude is 3.33D-15 for    190.
 Iteration    1 A^-1*A deviation from orthogonality  is 3.08D-14 for   1509   1492.
 E= -3159.39148246395    
 DIIS: error= 1.07D-01 at cycle   1 NSaved=   1.
 NSaved= 1 IEnMin= 1 EnMin= -3159.39148246395     IErMin= 1 ErrMin= 1.07D-01
 ErrMax= 1.07D-01  0.00D+00 EMaxC= 1.00D-01 BMatC= 4.49D+00 BMatP= 4.49D+00
 IDIUse=3 WtCom= 0.00D+00 WtEn= 1.00D+00
 Coeff-Com:  0.100D+01
 Coeff-En:   0.100D+01
 Coeff:      0.100D+01
 Gap=     0.742 Goal=   None    Shift=    0.000
 GapD=    0.742 DampG=2.000 DampE=0.250 DampFc=0.5000 IDamp=-1.
 Damping current iteration by 5.00D-01
 RMSDP=8.87D-03 MaxDP=1.10D+00              OVMax= 3.84D-02

 Cycle   2  Pass 1  IDiag  1:
 RMSU=  3.00D-03    CP:  7.58D-01
 E= -3159.49389263137     Delta-E=       -0.102410167414 Rises=F Damp=T
 DIIS: error= 5.35D-02 at cycle   2 NSaved=   2.
 NSaved= 2 IEnMin= 2 EnMin= -3159.49389263137     IErMin= 2 ErrMin= 5.35D-02
 ErrMax= 5.35D-02  0.00D+00 EMaxC= 1.00D-01 BMatC= 1.13D+00 BMatP= 4.49D+00
 IDIUse=3 WtCom= 4.65D-01 WtEn= 5.35D-01
 Coeff-Com: -0.101D+01 0.201D+01
 Coeff-En:   0.000D+00 0.100D+01
 Coeff:     -0.467D+00 0.147D+01
 Gap=     0.298 Goal=   None    Shift=    0.000
 RMSDP=4.53D-03 MaxDP=5.55D-01 DE=-1.02D-01 OVMax= 4.86D-03

 Cycle   3  Pass 1  IDiag  1:
 RMSU=  3.11D-04    CP:  5.11D-01  2.02D+00
 E= -3159.59889368482     Delta-E=       -0.105001053450 Rises=F Damp=F
 DIIS: error= 4.70D-04 at cycle   3 NSaved=   3.
 NSaved= 3 IEnMin= 3 EnMin= -3159.59889368482     IErMin= 3 ErrMin= 4.70D-04
 ErrMax= 4.70D-04  0.00D+00 EMaxC= 1.00D-01 BMatC= 2.65D-04 BMatP= 1.13D+00
 IDIUse=3 WtCom= 9.95D-01 WtEn= 4.70D-03
 Coeff-Com: -0.134D+00 0.265D+00 0.869D+00
 Coeff-En:   0.000D+00 0.000D+00 0.100D+01
 Coeff:     -0.133D+00 0.264D+00 0.870D+00
 Gap=     0.299 Goal=   None    Shift=    0.000
 RMSDP=1.50D-04 MaxDP=1.36D-02 DE=-1.05D-01 OVMax= 5.44D-03

 Cycle   4  Pass 1  IDiag  1:
 RMSU=  9.47D-05    CP:  5.06D-01  2.04D+00  1.26D+00
 E= -3159.59908846416     Delta-E=       -0.000194779345 Rises=F Damp=F
 DIIS: error= 2.18D-04 at cycle   4 NSaved=   4.
 NSaved= 4 IEnMin= 4 EnMin= -3159.59908846416     IErMin= 4 ErrMin= 2.18D-04
 ErrMax= 2.18D-04  0.00D+00 EMaxC= 1.00D-01 BMatC= 4.16D-05 BMatP= 2.65D-04
 IDIUse=3 WtCom= 9.98D-01 WtEn= 2.18D-03
 Coeff-Com:  0.266D-01-0.537D-01 0.223D+00 0.804D+00
 Coeff-En:   0.000D+00 0.000D+00 0.000D+00 0.100D+01
 Coeff:      0.265D-01-0.536D-01 0.222D+00 0.805D+00
 Gap=     0.299 Goal=   None    Shift=    0.000
 RMSDP=2.63D-05 MaxDP=1.95D-03 DE=-1.95D-04 OVMax= 2.11D-03

 Cycle   5  Pass 1  IDiag  1:
 RMSU=  1.88D-05    CP:  5.05D-01  2.04D+00  1.31D+00  1.04D+00
 E= -3159.59912533458     Delta-E=       -0.000036870420 Rises=F Damp=F
 DIIS: error= 6.46D-05 at cycle   5 NSaved=   5.
 NSaved= 5 IEnMin= 5 EnMin= -3159.59912533458     IErMin= 5 ErrMin= 6.46D-05
 ErrMax= 6.46D-05  0.00D+00 EMaxC= 1.00D-01 BMatC= 5.57D-06 BMatP= 4.16D-05
 IDIUse=1 WtCom= 1.00D+00 WtEn= 0.00D+00
 Coeff-Com:  0.176D-01-0.352D-01 0.230D-01 0.328D+00 0.667D+00
 Coeff:      0.176D-01-0.352D-01 0.230D-01 0.328D+00 0.667D+00
 Gap=     0.299 Goal=   None    Shift=    0.000
 RMSDP=7.51D-06 MaxDP=5.16D-04 DE=-3.69D-05 OVMax= 1.33D-03

 Cycle   6  Pass 1  IDiag  1:
 RMSU=  5.59D-06    CP:  5.05D-01  2.04D+00  1.33D+00  1.07D+00  9.85D-01
 E= -3159.59913035609     Delta-E=       -0.000005021507 Rises=F Damp=F
 DIIS: error= 2.91D-05 at cycle   6 NSaved=   6.
 NSaved= 6 IEnMin= 6 EnMin= -3159.59913035609     IErMin= 6 ErrMin= 2.91D-05
 ErrMax= 2.91D-05  0.00D+00 EMaxC= 1.00D-01 BMatC= 1.19D-06 BMatP= 5.57D-06
 IDIUse=1 WtCom= 1.00D+00 WtEn= 0.00D+00
 Coeff-Com:  0.541D-02-0.108D-01-0.146D-01 0.883D-01 0.374D+00 0.557D+00
 Coeff:      0.541D-02-0.108D-01-0.146D-01 0.883D-01 0.374D+00 0.557D+00
 Gap=     0.299 Goal=   None    Shift=    0.000
 RMSDP=2.91D-06 MaxDP=2.45D-04 DE=-5.02D-06 OVMax= 3.64D-04

 Cycle   7  Pass 1  IDiag  1:
 RMSU=  2.07D-06    CP:  5.05D-01  2.04D+00  1.33D+00  1.08D+00  1.02D+00
                    CP:  9.53D-01
 E= -3159.59913156175     Delta-E=       -0.000001205666 Rises=F Damp=F
 DIIS: error= 4.83D-06 at cycle   7 NSaved=   7.
 NSaved= 7 IEnMin= 7 EnMin= -3159.59913156175     IErMin= 7 ErrMin= 4.83D-06
 ErrMax= 4.83D-06  0.00D+00 EMaxC= 1.00D-01 BMatC= 3.49D-08 BMatP= 1.19D-06
 IDIUse=1 WtCom= 1.00D+00 WtEn= 0.00D+00
 Coeff-Com: -0.602D-03 0.122D-02-0.650D-02-0.148D-01 0.377D-01 0.159D+00
 Coeff-Com:  0.824D+00
 Coeff:     -0.602D-03 0.122D-02-0.650D-02-0.148D-01 0.377D-01 0.159D+00
 Coeff:      0.824D+00
 Gap=     0.299 Goal=   None    Shift=    0.000
 RMSDP=8.66D-07 MaxDP=7.46D-05 DE=-1.21D-06 OVMax= 7.96D-05

 Cycle   8  Pass 1  IDiag  1:
 RMSU=  5.07D-07    CP:  5.05D-01  2.04D+00  1.33D+00  1.08D+00  1.04D+00
                    CP:  1.04D+00  1.02D+00
 E= -3159.59913160306     Delta-E=       -0.000000041306 Rises=F Damp=F
 DIIS: error= 2.17D-06 at cycle   8 NSaved=   8.
 NSaved= 8 IEnMin= 8 EnMin= -3159.59913160306     IErMin= 8 ErrMin= 2.17D-06
 ErrMax= 2.17D-06  0.00D+00 EMaxC= 1.00D-01 BMatC= 5.70D-09 BMatP= 3.49D-08
 IDIUse=1 WtCom= 1.00D+00 WtEn= 0.00D+00
 Coeff-Com: -0.564D-03 0.113D-02-0.850D-03-0.129D-01-0.167D-01 0.988D-02
 Coeff-Com:  0.343D+00 0.677D+00
 Coeff:     -0.564D-03 0.113D-02-0.850D-03-0.129D-01-0.167D-01 0.988D-02
 Coeff:      0.343D+00 0.677D+00
 Gap=     0.299 Goal=   None    Shift=    0.000
 RMSDP=2.37D-07 MaxDP=1.23D-05 DE=-4.13D-08 OVMax= 4.03D-05

 Cycle   9  Pass 1  IDiag  1:
 RMSU=  1.47D-07    CP:  5.05D-01  2.04D+00  1.33D+00  1.08D+00  1.04D+00
                    CP:  1.05D+00  1.08D+00  9.90D-01
 E= -3159.59913160994     Delta-E=       -0.000000006880 Rises=F Damp=F
 DIIS: error= 6.11D-07 at cycle   9 NSaved=   9.
 NSaved= 9 IEnMin= 9 EnMin= -3159.59913160994     IErMin= 9 ErrMin= 6.11D-07
 ErrMax= 6.11D-07  0.00D+00 EMaxC= 1.00D-01 BMatC= 4.13D-10 BMatP= 5.70D-09
 IDIUse=1 WtCom= 1.00D+00 WtEn= 0.00D+00
 Coeff-Com: -0.680D-04 0.135D-03 0.363D-03-0.179D-02-0.694D-02-0.153D-01
 Coeff-Com:  0.546D-02 0.197D+00 0.821D+00
 Coeff:     -0.680D-04 0.135D-03 0.363D-03-0.179D-02-0.694D-02-0.153D-01
 Coeff:      0.546D-02 0.197D+00 0.821D+00
 Gap=     0.299 Goal=   None    Shift=    0.000
 RMSDP=8.62D-08 MaxDP=5.39D-06 DE=-6.88D-09 OVMax= 1.11D-05

 Cycle  10  Pass 1  IDiag  1:
 RMSU=  5.54D-08    CP:  5.05D-01  2.04D+00  1.33D+00  1.08D+00  1.04D+00
                    CP:  1.06D+00  1.09D+00  1.03D+00  1.17D+00
 E= -3159.59913161046     Delta-E=       -0.000000000521 Rises=F Damp=F
 DIIS: error= 1.82D-07 at cycle  10 NSaved=  10.
 NSaved=10 IEnMin=10 EnMin= -3159.59913161046     IErMin=10 ErrMin= 1.82D-07
 ErrMax= 1.82D-07  0.00D+00 EMaxC= 1.00D-01 BMatC= 5.38D-11 BMatP= 4.13D-10
 IDIUse=1 WtCom= 1.00D+00 WtEn= 0.00D+00
 Coeff-Com:  0.406D-04-0.816D-04 0.200D-03 0.127D-02 0.858D-03-0.698D-02
 Coeff-Com: -0.545D-01-0.262D-01 0.258D+00 0.827D+00
 Coeff:      0.406D-04-0.816D-04 0.200D-03 0.127D-02 0.858D-03-0.698D-02
 Coeff:     -0.545D-01-0.262D-01 0.258D+00 0.827D+00
 Gap=     0.299 Goal=   None    Shift=    0.000
 RMSDP=3.30D-08 MaxDP=2.07D-06 DE=-5.21D-10 OVMax= 5.81D-06

 Cycle  11  Pass 1  IDiag  1:
 RMSU=  2.09D-08    CP:  5.05D-01  2.04D+00  1.33D+00  1.08D+00  1.04D+00
                    CP:  1.06D+00  1.09D+00  1.06D+00  1.24D+00  1.18D+00
 E= -3159.59913161053     Delta-E=       -0.000000000067 Rises=F Damp=F
 DIIS: error= 6.29D-08 at cycle  11 NSaved=  11.
 NSaved=11 IEnMin=11 EnMin= -3159.59913161053     IErMin=11 ErrMin= 6.29D-08
 ErrMax= 6.29D-08  0.00D+00 EMaxC= 1.00D-01 BMatC= 4.54D-12 BMatP= 5.38D-11
 IDIUse=1 WtCom= 1.00D+00 WtEn= 0.00D+00
 Coeff-Com:  0.183D-04-0.365D-04 0.300D-04 0.462D-03 0.932D-03-0.795D-03
 Coeff-Com: -0.152D-01-0.162D-01 0.544D-02 0.235D+00 0.790D+00
 Coeff:      0.183D-04-0.365D-04 0.300D-04 0.462D-03 0.932D-03-0.795D-03
 Coeff:     -0.152D-01-0.162D-01 0.544D-02 0.235D+00 0.790D+00
 Gap=     0.299 Goal=   None    Shift=    0.000
 RMSDP=8.22D-09 MaxDP=3.97D-07 DE=-6.73D-11 OVMax= 1.65D-06

 Error on total polarization charges =  0.03921
 SCF Done:  E(RM062X) =  -3159.59913161     A.U. after   11 cycles
            NFock= 11  Conv=0.82D-08     -V/T= 2.0021
 KE= 3.152843974460D+03 PE=-1.057473249634D+04 EE= 2.729079985958D+03
 SMD-CDS (non-electrostatic) energy       (kcal/mol) =      -2.72
 (included in total energy above)
 Leave Link  502 at Tue Sep 17 10:55:24 2024, MaxMem=  1342177280 cpu:            2407.1 elap:            2413.7
 (Enter /groups/ReismanLab/Software/Gaussian16_RevC/Linux_Binary_AVX2-enabled-CPU/g16/l508.exe)
 QCSCF skips out because SCF is already converged.
 Leave Link  508 at Tue Sep 17 10:55:24 2024, MaxMem=  1342177280 cpu:               0.0 elap:               0.0
 (Enter /groups/ReismanLab/Software/Gaussian16_RevC/Linux_Binary_AVX2-enabled-CPU/g16/l801.exe)
 DoSCS=F DFT=T ScalE2(SS,OS)=  1.000000  1.000000
 Range of M.O.s used for correlation:     1   651
 NBasis=   651 NAE=    74 NBE=    74 NFC=     0 NFV=     0
 NROrb=    651 NOA=    74 NOB=    74 NVA=   577 NVB=   577

 **** Warning!!: The largest alpha MO coefficient is  0.65253030D+02

 Leave Link  801 at Tue Sep 17 10:55:24 2024, MaxMem=  1342177280 cpu:               0.0 elap:               0.0
 (Enter /groups/ReismanLab/Software/Gaussian16_RevC/Linux_Binary_AVX2-enabled-CPU/g16/l1002.exe)
 Minotr:  Closed shell wavefunction.
 NEqPCM:  Using equilibrium solvation (IEInf=0, Eps=   2.2099, EpsInf=   2.0232)
          Direct CPHF calculation.
          Differentiating once with respect to electric field.
                with respect to dipole field.
          Electric field/nuclear overlap derivatives assumed to be zero.
          Requested convergence is 1.0D-08 RMS, and 1.0D-07 maximum.
          Secondary convergence is 1.0D-12 RMS, and 1.0D-12 maximum.
          NewPWx=F KeepS1=T KeepF1=T KeepIn=T MapXYZ=F SortEE=F KeepMc=T.
        11777 words used for storage of precomputed grid.
 Two-electron integral symmetry used by symmetrizing perturbed Fock matrices.
          MDV=    1342177280 using IRadAn=       1.
          Solving linear equations simultaneously, MaxMat=     384.
          There are     3 degrees of freedom in the 1st order CPHF.  IDoFFX=0 NUNeed=     3.
      3 vectors produced by pass  0 Test12= 1.42D-12 3.33D-08 XBig12= 1.41D+02 5.11D+00.
 AX will form     3 AO Fock derivatives at one time.
 FoFJK:  IHMeth= 1 ICntrl=       0 DoSepK=F KAlg= 0 I1Cent=           0 FoldK=F
 IRaf= 830000000 NMat=       3 IRICut=       1 DoRegI=T DoRafI=F ISym2E=-1 IDoP0=0 IntGTp=1.
 FoFCou: FMM=F IPFlag=           0 FMFlag=      100000 FMFlg1=           0
         NFxFlg=           0 DoJE=F BraDBF=F KetDBF=F FulRan=T
         wScrn=  0.000000 ICntrl=         0 IOpCl=  0 I1Cent=           0 NGrid=           0
         NMat0=    3 NMatS0=      3 NMatT0=    0 NMatD0=    3 NMtDS0=    0 NMtDT0=    0
 Petite list used in FoFCou.
      3 vectors produced by pass  1 Test12= 1.42D-12 3.33D-08 XBig12= 2.21D+01 1.10D+00.
      3 vectors produced by pass  2 Test12= 1.42D-12 3.33D-08 XBig12= 6.07D+00 7.82D-01.
      3 vectors produced by pass  3 Test12= 1.42D-12 3.33D-08 XBig12= 1.06D+00 2.72D-01.
      3 vectors produced by pass  4 Test12= 1.42D-12 3.33D-08 XBig12= 2.75D-01 1.47D-01.
      3 vectors produced by pass  5 Test12= 1.42D-12 3.33D-08 XBig12= 3.17D-02 3.69D-02.
      3 vectors produced by pass  6 Test12= 1.42D-12 3.33D-08 XBig12= 8.39D-03 2.92D-02.
      3 vectors produced by pass  7 Test12= 1.42D-12 3.33D-08 XBig12= 8.04D-04 6.28D-03.
      3 vectors produced by pass  8 Test12= 1.42D-12 3.33D-08 XBig12= 1.59D-04 4.87D-03.
      3 vectors produced by pass  9 Test12= 1.42D-12 3.33D-08 XBig12= 2.45D-05 9.67D-04.
      3 vectors produced by pass 10 Test12= 1.42D-12 3.33D-08 XBig12= 3.10D-06 4.55D-04.
