 Entering Gaussian System, Link 0=g16
 Input=smiles_00037_conf_2.gjf
 Output=smiles_00037_conf_2.log
 Initial command:
 /groups/ReismanLab/Software/Gaussian16_RevC/Linux_Binary_AVX2-enabled-CPU/g16/l1.exe "/central/groups/ReismanLab/DM/dft_final/smiles_00037/Gau-1239926.inp" -scrdir="/central/groups/ReismanLab/DM/dft_final/smiles_00037/"
 Entering Link 1 = /groups/ReismanLab/Software/Gaussian16_RevC/Linux_Binary_AVX2-enabled-CPU/g16/l1.exe PID=   1239933.
  
 Copyright (c) 1988-2021, Gaussian, Inc.  All Rights Reserved.
  
 This is part of the Gaussian(R) 16 program.  It is based on
 the Gaussian(R) 09 system (copyright 2009, Gaussian, Inc.),
 the Gaussian(R) 03 system (copyright 2003, Gaussian, Inc.),
 the Gaussian(R) 98 system (copyright 1998, Gaussian, Inc.),
 the Gaussian(R) 94 system (copyright 1995, Gaussian, Inc.),
 the Gaussian 92(TM) system (copyright 1992, Gaussian, Inc.),
 the Gaussian 90(TM) system (copyright 1990, Gaussian, Inc.),
 the Gaussian 88(TM) system (copyright 1988, Gaussian, Inc.),
 the Gaussian 86(TM) system (copyright 1986, Carnegie Mellon
 University), and the Gaussian 82(TM) system (copyright 1983,
 Carnegie Mellon University). Gaussian is a federally registered
 trademark of Gaussian, Inc.
  
 This software contains proprietary and confidential information,
 including trade secrets, belonging to Gaussian, Inc.
  
 This software is provided under written license and may be
 used, copied, transmitted, or stored only in accord with that
 written license.
  
 The following legend is applicable only to US Government
 contracts under FAR:
  
                    RESTRICTED RIGHTS LEGEND
  
 Use, reproduction and disclosure by the US Government is
 subject to restrictions as set forth in subparagraphs (a)
 and (c) of the Commercial Computer Software - Restricted
 Rights clause in FAR 52.227-19.
  
 Gaussian, Inc.
 340 Quinnipiac St., Bldg. 40, Wallingford CT 06492
  
  
 ---------------------------------------------------------------
 Warning -- This program may not be used in any manner that
 competes with the business of Gaussian, Inc. or will provide
 assistance to any competitor of Gaussian, Inc.  The licensee
 of this program is prohibited from giving any competitor of
 Gaussian, Inc. access to this program.  By using this program,
 the user acknowledges that Gaussian, Inc. is engaged in the
 business of creating and licensing software in the field of
 computational chemistry and represents and warrants to the
 licensee that it is not a competitor of Gaussian, Inc. and that
 it will not use this program in any manner prohibited above.
 ---------------------------------------------------------------
  

 Cite this work as:
 Gaussian 16, Revision C.02,
 M. J. Frisch, G. W. Trucks, H. B. Schlegel, G. E. Scuseria, 
 M. A. Robb, J. R. Cheeseman, G. Scalmani, V. Barone, 
 G. A. Petersson, H. Nakatsuji, X. Li, M. Caricato, A. V. Marenich, 
 J. Bloino, B. G. Janesko, R. Gomperts, B. Mennucci, H. P. Hratchian, 
 J. V. Ortiz, A. F. Izmaylov, J. L. Sonnenberg, D. Williams-Young, 
 F. Ding, F. Lipparini, F. Egidi, J. Goings, B. Peng, A. Petrone, 
 T. Henderson, D. Ranasinghe, V. G. Zakrzewski, J. Gao, N. Rega, 
 G. Zheng, W. Liang, M. Hada, M. Ehara, K. Toyota, R. Fukuda, 
 J. Hasegawa, M. Ishida, T. Nakajima, Y. Honda, O. Kitao, H. Nakai, 
 T. Vreven, K. Throssell, J. A. Montgomery, Jr., J. E. Peralta, 
 F. Ogliaro, M. J. Bearpark, J. J. Heyd, E. N. Brothers, K. N. Kudin, 
 V. N. Staroverov, T. A. Keith, R. Kobayashi, J. Normand, 
 K. Raghavachari, A. P. Rendell, J. C. Burant, S. S. Iyengar, 
 J. Tomasi, M. Cossi, J. M. Millam, M. Klene, C. Adamo, R. Cammi, 
 J. W. Ochterski, R. L. Martin, K. Morokuma, O. Farkas, 
 J. B. Foresman, and D. J. Fox, Gaussian, Inc., Wallingford CT, 2019.
 
 ******************************************
 Gaussian 16:  ES64L-G16RevC.02  7-Dec-2021
                17-Sep-2024 
 ******************************************
 %nprocshared=8
 Will use up to    8 processors via shared memory.
 %Mem=10GB
 %Chk=smiles_00037_conf_2.chk
 ----------------------------------------------------------------------
 #p B3LYP/6-31G(d,p) EmpiricalDispersion=GD3BJ opt freq scf(xqc,tight) 
 integral(grid=ultrafine)
 ----------------------------------------------------------------------
 1/18=20,19=15,26=4,38=1/1,3;
 2/9=110,12=2,17=6,18=5,40=1/2;
 3/5=1,6=6,7=101,11=2,25=1,30=1,71=1,74=-5,75=-5,124=41/1,2,3;
 4//1;
 5/5=2,8=3,13=1,32=2,38=5/2,8;
 6/7=2,8=2,9=2,10=2,28=1/1;
 7//1,2,3,16;
 1/18=20,19=15,26=4/3(2);
 2/9=110/2;
 99//99;
 2/9=110/2;
 3/5=1,6=6,7=101,11=2,25=1,30=1,71=1,74=-5,75=-5,124=41/1,2,3;
 4/5=5,16=3,69=1/1;
 5/5=2,8=3,13=1,32=2,38=5/2,8;
 7//1,2,3,16;
 1/18=20,19=15,26=4/3(-5);
 2/9=110/2;
 6/7=2,8=2,9=2,10=2,19=2,28=1/1;
 99/9=1/99;
 Leave Link    1 at Tue Sep 17 09:50:12 2024, MaxMem=  1342177280 cpu:               0.1 elap:               0.7
 (Enter /groups/ReismanLab/Software/Gaussian16_RevC/Linux_Binary_AVX2-enabled-CPU/g16/l101.exe)
 ----------------------------------
 opt-freq conformers_unique/conf_ac
 ----------------------------------
 Symbolic Z-matrix:
 Charge =  0 Multiplicity = 1
 O                     0.84614   2.26023   0.32332 
 C                     1.28578   1.1525    0.16505 
 C                     2.69417   0.69177   0.09893 
 C                     3.87389   1.39938   0.19904 
 C                     5.06449   0.68634   0.09682 
 C                     5.06433  -0.68629  -0.09861 
 C                     3.87358  -1.39924  -0.19949 
 C                     2.69402  -0.69153  -0.09813 
 C                     1.28554  -1.15206  -0.16351 
 O                     0.8457   -2.25981  -0.32112 
 N                     0.51855   0.00031   0.00069 
 C                    -0.90363   0.00029   0.00044 
 C                    -1.59278  -0.16761   1.19284 
 C                    -2.97513  -0.1682    1.19466 
 C                    -3.65752  -0.00024  -0.0005 
 Cl                   -5.38288  -0.00073  -0.00113 
 C                    -2.97439   0.16808  -1.19522 
 C                    -1.59206   0.16801  -1.19243 
 H                     3.86552   2.46732   0.35108 
 H                     6.0049    1.21157   0.17096 
 H                     6.00463  -1.21154  -0.17403 
 H                     3.86493  -2.46716  -0.35161 
 H                    -1.04684  -0.29719   2.11485 
 H                    -3.52119  -0.29793   2.11557 
 H                    -3.51992   0.29758  -2.11648 
 H                    -1.04553   0.2978   -2.11406 
 
 ITRead=  0  0  0  0  0  0  0  0  0  0  0  0  0  0  0  0  0  0  0  0
 ITRead=  0  0  0  0  0  0
 MicOpt= -1 -1 -1 -1 -1 -1 -1 -1 -1 -1 -1 -1 -1 -1 -1 -1 -1 -1 -1 -1
 MicOpt= -1 -1 -1 -1 -1 -1
 NAtoms=     26 NQM=       26 NQMF=       0 NMMI=      0 NMMIF=      0
                NMic=       0 NMicF=      0.
                    Isotopes and Nuclear Properties:
 (Nuclear quadrupole moments (NQMom) in fm**2, nuclear magnetic moments (NMagM)
  in nuclear magnetons)

  Atom         1           2           3           4           5           6           7           8           9          10
 IAtWgt=          16          12          12          12          12          12          12          12          12          16
 AtmWgt=  15.9949146  12.0000000  12.0000000  12.0000000  12.0000000  12.0000000  12.0000000  12.0000000  12.0000000  15.9949146
 NucSpn=           0           0           0           0           0           0           0           0           0           0
 AtZEff=  -0.0000000  -0.0000000  -0.0000000  -0.0000000  -0.0000000  -0.0000000  -0.0000000  -0.0000000  -0.0000000  -0.0000000
 NQMom=    0.0000000   0.0000000   0.0000000   0.0000000   0.0000000   0.0000000   0.0000000   0.0000000   0.0000000   0.0000000
 NMagM=    0.0000000   0.0000000   0.0000000   0.0000000   0.0000000   0.0000000   0.0000000   0.0000000   0.0000000   0.0000000
 AtZNuc=   8.0000000   6.0000000   6.0000000   6.0000000   6.0000000   6.0000000   6.0000000   6.0000000   6.0000000   8.0000000

  Atom        11          12          13          14          15          16          17          18          19          20
 IAtWgt=          14          12          12          12          12          35          12          12           1           1
 AtmWgt=  14.0030740  12.0000000  12.0000000  12.0000000  12.0000000  34.9688527  12.0000000  12.0000000   1.0078250   1.0078250
 NucSpn=           2           0           0           0           0           3           0           0           1           1
 AtZEff=  -0.0000000  -0.0000000  -0.0000000  -0.0000000  -0.0000000  -0.0000000  -0.0000000  -0.0000000  -0.0000000  -0.0000000
 NQMom=    2.0440000   0.0000000   0.0000000   0.0000000   0.0000000  -8.1650000   0.0000000   0.0000000   0.0000000   0.0000000
 NMagM=    0.4037610   0.0000000   0.0000000   0.0000000   0.0000000   0.8218740   0.0000000   0.0000000   2.7928460   2.7928460
 AtZNuc=   7.0000000   6.0000000   6.0000000   6.0000000   6.0000000  17.0000000   6.0000000   6.0000000   1.0000000   1.0000000

  Atom        21          22          23          24          25          26
 IAtWgt=           1           1           1           1           1           1
 AtmWgt=   1.0078250   1.0078250   1.0078250   1.0078250   1.0078250   1.0078250
 NucSpn=           1           1           1           1           1           1
 AtZEff=  -0.0000000  -0.0000000  -0.0000000  -0.0000000  -0.0000000  -0.0000000
 NQMom=    0.0000000   0.0000000   0.0000000   0.0000000   0.0000000   0.0000000
 NMagM=    2.7928460   2.7928460   2.7928460   2.7928460   2.7928460   2.7928460
 AtZNuc=   1.0000000   1.0000000   1.0000000   1.0000000   1.0000000   1.0000000
 Leave Link  101 at Tue Sep 17 09:50:13 2024, MaxMem=  1342177280 cpu:               0.2 elap:               0.2
 (Enter /groups/ReismanLab/Software/Gaussian16_RevC/Linux_Binary_AVX2-enabled-CPU/g16/l103.exe)

 GradGradGradGradGradGradGradGradGradGradGradGradGradGradGradGradGradGrad
 Berny optimization.
 Initialization pass.
                           ----------------------------
                           !    Initial Parameters    !
                           ! (Angstroms and Degrees)  !
 --------------------------                            --------------------------
 ! Name  Definition              Value          Derivative Info.                !
 --------------------------------------------------------------------------------
 ! R1    R(1,2)                  1.2023         estimate D2E/DX2                !
 ! R2    R(2,3)                  1.4833         estimate D2E/DX2                !
 ! R3    R(2,11)                 1.394          estimate D2E/DX2                !
 ! R4    R(3,4)                  1.3793         estimate D2E/DX2                !
 ! R5    R(3,8)                  1.3973         estimate D2E/DX2                !
 ! R6    R(4,5)                  1.3915         estimate D2E/DX2                !
 ! R7    R(4,19)                 1.0787         estimate D2E/DX2                !
 ! R8    R(5,6)                  1.3865         estimate D2E/DX2                !
 ! R9    R(5,20)                 1.0797         estimate D2E/DX2                !
 ! R10   R(6,7)                  1.3915         estimate D2E/DX2                !
 ! R11   R(6,21)                 1.0797         estimate D2E/DX2                !
 ! R12   R(7,8)                  1.3793         estimate D2E/DX2                !
 ! R13   R(7,22)                 1.0787         estimate D2E/DX2                !
 ! R14   R(8,9)                  1.4833         estimate D2E/DX2                !
 ! R15   R(9,10)                 1.2023         estimate D2E/DX2                !
 ! R16   R(9,11)                 1.394          estimate D2E/DX2                !
 ! R17   R(11,12)                1.4222         estimate D2E/DX2                !
 ! R18   R(12,13)                1.3874         estimate D2E/DX2                !
 ! R19   R(12,18)                1.3874         estimate D2E/DX2                !
 ! R20   R(13,14)                1.3824         estimate D2E/DX2                !
 ! R21   R(13,23)                1.0793         estimate D2E/DX2                !
 ! R22   R(14,15)                1.3865         estimate D2E/DX2                !
 ! R23   R(14,24)                1.0785         estimate D2E/DX2                !
 ! R24   R(15,16)                1.7254         estimate D2E/DX2                !
 ! R25   R(15,17)                1.3865         estimate D2E/DX2                !
 ! R26   R(17,18)                1.3823         estimate D2E/DX2                !
 ! R27   R(17,25)                1.0785         estimate D2E/DX2                !
 ! R28   R(18,26)                1.0793         estimate D2E/DX2                !
 ! A1    A(1,2,3)              129.7372         estimate D2E/DX2                !
 ! A2    A(1,2,11)             125.1567         estimate D2E/DX2                !
 ! A3    A(3,2,11)             105.1061         estimate D2E/DX2                !
 ! A4    A(2,3,4)              130.5057         estimate D2E/DX2                !
 ! A5    A(2,3,8)              108.2816         estimate D2E/DX2                !
 ! A6    A(4,3,8)              121.2126         estimate D2E/DX2                !
 ! A7    A(3,4,5)              117.6187         estimate D2E/DX2                !
 ! A8    A(3,4,19)             120.7619         estimate D2E/DX2                !
 ! A9    A(5,4,19)             121.6195         estimate D2E/DX2                !
 ! A10   A(4,5,6)              121.1684         estimate D2E/DX2                !
 ! A11   A(4,5,20)             119.3999         estimate D2E/DX2                !
 ! A12   A(6,5,20)             119.4317         estimate D2E/DX2                !
 ! A13   A(5,6,7)              121.1675         estimate D2E/DX2                !
 ! A14   A(5,6,21)             119.4308         estimate D2E/DX2                !
 ! A15   A(7,6,21)             119.4017         estimate D2E/DX2                !
 ! A16   A(6,7,8)              117.6187         estimate D2E/DX2                !
 ! A17   A(6,7,22)             121.6205         estimate D2E/DX2                !
 ! A18   A(8,7,22)             120.7608         estimate D2E/DX2                !
 ! A19   A(3,8,7)              121.2142         estimate D2E/DX2                !
 ! A20   A(3,8,9)              108.2816         estimate D2E/DX2                !
 ! A21   A(7,8,9)              130.5043         estimate D2E/DX2                !
 ! A22   A(8,9,10)             129.7354         estimate D2E/DX2                !
 ! A23   A(8,9,11)             105.1065         estimate D2E/DX2                !
 ! A24   A(10,9,11)            125.1581         estimate D2E/DX2                !
 ! A25   A(2,11,9)             113.2242         estimate D2E/DX2                !
 ! A26   A(2,11,12)            123.3958         estimate D2E/DX2                !
 ! A27   A(9,11,12)            123.3799         estimate D2E/DX2                !
 ! A28   A(11,12,13)           119.7724         estimate D2E/DX2                !
 ! A29   A(11,12,18)           119.7584         estimate D2E/DX2                !
 ! A30   A(13,12,18)           120.4692         estimate D2E/DX2                !
 ! A31   A(12,13,14)           119.8609         estimate D2E/DX2                !
 ! A32   A(12,13,23)           119.8316         estimate D2E/DX2                !
 ! A33   A(14,13,23)           120.3075         estimate D2E/DX2                !
 ! A34   A(13,14,15)           119.4055         estimate D2E/DX2                !
 ! A35   A(13,14,24)           120.4981         estimate D2E/DX2                !
 ! A36   A(15,14,24)           120.0964         estimate D2E/DX2                !
 ! A37   A(14,15,16)           119.502          estimate D2E/DX2                !
 ! A38   A(14,15,17)           120.9977         estimate D2E/DX2                !
 ! A39   A(16,15,17)           119.5003         estimate D2E/DX2                !
 ! A40   A(15,17,18)           119.4038         estimate D2E/DX2                !
 ! A41   A(15,17,25)           120.0946         estimate D2E/DX2                !
 ! A42   A(18,17,25)           120.5015         estimate D2E/DX2                !
 ! A43   A(12,18,17)           119.8628         estimate D2E/DX2                !
 ! A44   A(12,18,26)           119.8298         estimate D2E/DX2                !
 ! A45   A(17,18,26)           120.3074         estimate D2E/DX2                !
 ! D1    D(1,2,3,4)             -0.0343         estimate D2E/DX2                !
 ! D2    D(1,2,3,8)            179.9807         estimate D2E/DX2                !
 ! D3    D(11,2,3,4)           179.9644         estimate D2E/DX2                !
 ! D4    D(11,2,3,8)            -0.0206         estimate D2E/DX2                !
 ! D5    D(1,2,11,9)          -179.9777         estimate D2E/DX2                !
 ! D6    D(1,2,11,12)            0.0269         estimate D2E/DX2                !
 ! D7    D(3,2,11,9)             0.0236         estimate D2E/DX2                !
 ! D8    D(3,2,11,12)         -179.9719         estimate D2E/DX2                !
 ! D9    D(2,3,4,5)           -179.9856         estimate D2E/DX2                !
 ! D10   D(2,3,4,19)             0.0104         estimate D2E/DX2                !
 ! D11   D(8,3,4,5)             -0.0022         estimate D2E/DX2                !
 ! D12   D(8,3,4,19)           179.9937         estimate D2E/DX2                !
 ! D13   D(2,3,8,7)            179.9937         estimate D2E/DX2                !
 ! D14   D(2,3,8,9)              0.0109         estimate D2E/DX2                !
 ! D15   D(4,3,8,7)              0.007          estimate D2E/DX2                !
 ! D16   D(4,3,8,9)           -179.9758         estimate D2E/DX2                !
 ! D17   D(3,4,5,6)             -0.0028         estimate D2E/DX2                !
 ! D18   D(3,4,5,20)           179.9916         estimate D2E/DX2                !
 ! D19   D(19,4,5,6)          -179.9987         estimate D2E/DX2                !
 ! D20   D(19,4,5,20)           -0.0042         estimate D2E/DX2                !
 ! D21   D(4,5,6,7)              0.0032         estimate D2E/DX2                !
 ! D22   D(4,5,6,21)           179.9948         estimate D2E/DX2                !
 ! D23   D(20,5,6,7)          -179.9912         estimate D2E/DX2                !
 ! D24   D(20,5,6,21)            0.0003         estimate D2E/DX2                !
 ! D25   D(5,6,7,8)              0.0014         estimate D2E/DX2                !
 ! D26   D(5,6,7,22)           179.995          estimate D2E/DX2                !
 ! D27   D(21,6,7,8)          -179.9901         estimate D2E/DX2                !
 ! D28   D(21,6,7,22)            0.0034         estimate D2E/DX2                !
 ! D29   D(6,7,8,3)             -0.0064         estimate D2E/DX2                !
 ! D30   D(6,7,8,9)            179.9721         estimate D2E/DX2                !
 ! D31   D(22,7,8,3)           179.9999         estimate D2E/DX2                !
 ! D32   D(22,7,8,9)            -0.0215         estimate D2E/DX2                !
 ! D33   D(3,8,9,10)          -179.9921         estimate D2E/DX2                !
 ! D34   D(3,8,9,11)             0.003          estimate D2E/DX2                !
 ! D35   D(7,8,9,10)             0.0272         estimate D2E/DX2                !
 ! D36   D(7,8,9,11)          -179.9776         estimate D2E/DX2                !
 ! D37   D(8,9,11,2)            -0.0172         estimate D2E/DX2                !
 ! D38   D(8,9,11,12)          179.9783         estimate D2E/DX2                !
 ! D39   D(10,9,11,2)          179.9783         estimate D2E/DX2                !
 ! D40   D(10,9,11,12)          -0.0263         estimate D2E/DX2                !
 ! D41   D(2,11,12,13)         -89.9025         estimate D2E/DX2                !
 ! D42   D(2,11,12,18)          90.1068         estimate D2E/DX2                !
 ! D43   D(9,11,12,13)          90.1025         estimate D2E/DX2                !
 ! D44   D(9,11,12,18)         -89.8882         estimate D2E/DX2                !
 ! D45   D(11,12,13,14)       -179.9867         estimate D2E/DX2                !
 ! D46   D(11,12,13,23)          0.0132         estimate D2E/DX2                !
 ! D47   D(18,12,13,14)          0.0039         estimate D2E/DX2                !
 ! D48   D(18,12,13,23)       -179.9962         estimate D2E/DX2                !
 ! D49   D(11,12,18,17)        179.987          estimate D2E/DX2                !
 ! D50   D(11,12,18,26)         -0.0096         estimate D2E/DX2                !
 ! D51   D(13,12,18,17)         -0.0036         estimate D2E/DX2                !
 ! D52   D(13,12,18,26)        179.9998         estimate D2E/DX2                !
 ! D53   D(12,13,14,15)          0.0            estimate D2E/DX2                !
 ! D54   D(12,13,14,24)        179.9968         estimate D2E/DX2                !
 ! D55   D(23,13,14,15)       -179.9999         estimate D2E/DX2                !
 ! D56   D(23,13,14,24)         -0.0031         estimate D2E/DX2                !
 ! D57   D(13,14,15,16)        179.9938         estimate D2E/DX2                !
 ! D58   D(13,14,15,17)         -0.0043         estimate D2E/DX2                !
 ! D59   D(24,14,15,16)         -0.003          estimate D2E/DX2                !
 ! D60   D(24,14,15,17)        179.9989         estimate D2E/DX2                !
 ! D61   D(14,15,17,18)          0.0046         estimate D2E/DX2                !
 ! D62   D(14,15,17,25)       -179.9978         estimate D2E/DX2                !
 ! D63   D(16,15,17,18)       -179.9934         estimate D2E/DX2                !
 ! D64   D(16,15,17,25)          0.0041         estimate D2E/DX2                !
 ! D65   D(15,17,18,12)         -0.0007         estimate D2E/DX2                !
 ! D66   D(15,17,18,26)        179.996          estimate D2E/DX2                !
 ! D67   D(25,17,18,12)       -179.9982         estimate D2E/DX2                !
 ! D68   D(25,17,18,26)         -0.0016         estimate D2E/DX2                !
 --------------------------------------------------------------------------------
 Trust Radius=3.00D-01 FncErr=1.00D-07 GrdErr=1.00D-06 EigMax=2.50D+02 EigMin=1.00D-04
 Number of steps in this run=    151 maximum allowed number of steps=    156.
 GradGradGradGradGradGradGradGradGradGradGradGradGradGradGradGradGradGrad

 Leave Link  103 at Tue Sep 17 09:50:13 2024, MaxMem=  1342177280 cpu:               0.0 elap:               0.0
 (Enter /groups/ReismanLab/Software/Gaussian16_RevC/Linux_Binary_AVX2-enabled-CPU/g16/l202.exe)
                          Input orientation:                          
 ---------------------------------------------------------------------
 Center     Atomic      Atomic             Coordinates (Angstroms)
 Number     Number       Type             X           Y           Z
 ---------------------------------------------------------------------
      1          8           0        0.846140    2.260231    0.323319
      2          6           0        1.285783    1.152495    0.165050
      3          6           0        2.694171    0.691774    0.098929
      4          6           0        3.873893    1.399379    0.199043
      5          6           0        5.064487    0.686338    0.096822
      6          6           0        5.064334   -0.686291   -0.098610
      7          6           0        3.873575   -1.399238   -0.199486
      8          6           0        2.694025   -0.691530   -0.098128
      9          6           0        1.285544   -1.152056   -0.163513
     10          8           0        0.845701   -2.259807   -0.321120
     11          7           0        0.518548    0.000308    0.000694
     12          6           0       -0.903628    0.000291    0.000435
     13          6           0       -1.592777   -0.167614    1.192839
     14          6           0       -2.975130   -0.168203    1.194663
     15          6           0       -3.657517   -0.000239   -0.000503
     16         17           0       -5.382877   -0.000732   -0.001126
     17          6           0       -2.974391    0.168079   -1.195215
     18          6           0       -1.592060    0.168013   -1.192430
     19          1           0        3.865519    2.467319    0.351077
     20          1           0        6.004896    1.211574    0.170958
     21          1           0        6.004634   -1.211540   -0.174034
     22          1           0        3.864927   -2.467164   -0.351611
     23          1           0       -1.046835   -0.297185    2.114846
     24          1           0       -3.521193   -0.297934    2.115575
     25          1           0       -3.519918    0.297579   -2.116476
     26          1           0       -1.045526    0.297796   -2.114060
 ---------------------------------------------------------------------
                    Distance matrix (angstroms):
                    1          2          3          4          5
     1  O    0.000000
     2  C    1.202253   0.000000
     3  C    2.434262   1.483305   0.000000
     4  C    3.150206   2.600080   1.379301   0.000000
     5  C    4.508092   3.807960   2.370323   1.391543   0.000000
     6  C    5.162672   4.210475   2.748774   2.419870   1.386472
     7  C    4.778117   3.652519   2.419168   2.826850   2.419854
     8  C    3.507875   2.335131   1.397269   2.419152   2.748748
     9  C    3.474735   2.327855   2.335126   3.652508   4.210448
    10  O    4.565747   3.474744   3.507865   4.778092   5.162616
    11  N    2.306221   1.393987   2.284975   3.640752   4.598417
    12  C    2.876329   2.479555   3.664970   4.982127   6.008190
    13  C    3.549480   3.329437   4.507007   5.773004   6.800710
    14  C    4.610708   4.578180   5.837908   7.096315   8.159101
    15  C    5.049505   5.078624   6.390048   7.662955   8.749526
    16  Cl   6.634596   6.769681   8.107298   9.364196  10.470390
    17  C    4.612970   4.579135   5.837950   7.096410   8.158523
    18  C    3.552420   3.330757   4.507074   5.773136   6.800033
    19  H    3.026600   2.901448   2.142007   1.078741   2.161959
    20  H    5.266466   4.719486   3.352056   2.139447   1.079694
    21  H    6.237838   5.288780   3.828352   3.390596   2.135223
    22  H    5.649502   4.474468   3.398904   3.905568   3.403617
    23  H    3.651479   3.368143   4.363151   5.546368   6.510607
    24  H    5.369356   5.386586   6.608868   7.825679   8.874573
    25  H    5.372807   5.388043   6.608957   7.825856   8.873659
    26  H    3.656551   3.370439   4.363241   5.546585   6.509318
                    6          7          8          9         10
     6  C    0.000000
     7  C    1.391537   0.000000
     8  C    2.370315   1.379298   0.000000
     9  C    3.807940   2.600057   1.483300   0.000000
    10  O    4.508030   3.150143   2.434240   1.202254   0.000000
    11  N    4.598418   3.640743   2.284974   1.393983   2.306234
    12  C    6.008143   4.982000   3.664892   2.479366   2.876038
    13  C    6.801030   5.773775   4.507523   3.330699   3.551834
    14  C    8.159287   7.096750   5.838193   4.578859   4.612066
    15  C    8.749342   7.662515   6.389796   5.078101   5.048506
    16  Cl  10.470134   9.363604   8.106969   6.769029   6.633325
    17  C    8.158038   7.095252   5.837248   4.577577   4.609964
    18  C    6.799549   5.771948   4.506311   3.328943   3.549109
    19  H    3.403621   3.905566   3.398898   4.474477   5.649502
    20  H    2.135233   3.390589   3.828326   5.288752   6.237783
    21  H    1.079694   2.139460   3.352060   4.719477   5.266412
    22  H    2.161966   1.078742   2.141995   2.901397   3.026492
    23  H    6.511312   5.548071   4.364264   3.370714   3.656160
    24  H    8.874949   7.826556   6.609412   5.387809   5.371795
    25  H    8.872946   7.824179   6.607961   5.385905   5.368627
    26  H    6.508522   5.544644   4.361993   3.367580   3.651398
                   11         12         13         14         15
    11  N    0.000000
    12  C    1.422176   0.000000
    13  C    2.430453   1.387424   0.000000
    14  C    3.695909   2.397017   1.382354   0.000000
    15  C    4.176065   2.753889   2.390654   1.386465   0.000000
    16  Cl   5.901425   4.479249   3.977217   2.693548   1.725360
    17  C    3.695804   2.397038   2.779271   2.413421   1.386481
    18  C    2.430296   1.387443   2.408766   2.779233   2.390629
    19  H    4.172664   5.380886   6.119186   7.379166   7.925182
    20  H    5.621047   7.015981   7.789162   9.142900   9.739616
    21  H    5.621054   7.015915   7.789659   9.143197   9.739329
    22  H    4.172624   5.380650   6.120441   7.379876   7.924403
    23  H    2.647369   2.140031   1.079323   2.140489   3.373208
    24  H    4.569592   3.378521   2.141777   1.078468   2.141260
    25  H    4.569462   3.378560   3.857699   3.387829   2.141254
    26  H    2.647076   2.140032   3.384032   3.858520   3.373195
                   16         17         18         19         20
    16  Cl   0.000000
    17  C    2.693539   0.000000
    18  C    3.977181   1.382333   0.000000
    19  H    9.578525   7.379829   6.120000   0.000000
    20  H   11.453413   9.142368   7.788556   2.487222   0.000000
    21  H   11.453007   9.141611   7.787815   4.287839   2.447550
    22  H    9.577474   7.377834   6.117994   4.984265   4.287851
    23  H    4.833888   3.858554   3.384044   5.906318   7.468733
    24  H    2.834540   3.387845   3.857662   8.082301   9.839031
    25  H    2.834486   1.078467   2.141794   8.083394   9.838182
    26  H    4.833862   2.140473   1.079327   5.907799   7.467580
                   21         22         23         24         25
    21  H    0.000000
    22  H    2.487263   0.000000
    23  H    7.469822   5.909114   0.000000
    24  H    9.839632   8.083770   2.474358   0.000000
    25  H    9.837053   8.080500   4.936999   4.273744   0.000000
    26  H    7.466361   5.904555   4.270556   4.936966   2.474393
                   26
    26  H    0.000000
 Stoichiometry    C14H8ClNO2
 Framework group  C1[X(C14H8ClNO2)]
 Deg. of freedom    72
 Full point group                 C1      NOp   1
 Largest Abelian subgroup         C1      NOp   1
 Largest concise Abelian subgroup C1      NOp   1
                         Standard orientation:                         
 ---------------------------------------------------------------------
 Center     Atomic      Atomic             Coordinates (Angstroms)
 Number     Number       Type             X           Y           Z
 ---------------------------------------------------------------------
      1          8           0        0.777366    2.283167   -0.001036
      2          6           0        1.216914    1.164145   -0.000365
      3          6           0        2.625261    0.698581   -0.000420
      4          6           0        3.805044    1.413131   -0.001875
      5          6           0        4.995577    0.692697   -0.001815
      6          6           0        4.995305   -0.693774   -0.000288
      7          6           0        3.804484   -1.413717    0.001172
      8          6           0        2.624995   -0.698687    0.001015
      9          6           0        1.216474   -1.163710    0.001758
     10          8           0        0.776534   -2.282578    0.003117
     11          7           0        0.449578    0.000360    0.000637
     12          6           0       -0.972598    0.000429    0.000431
     13          6           0       -1.661706    0.003663    1.204618
     14          6           0       -3.044058    0.003458    1.206555
     15          6           0       -3.726487    0.000008   -0.000328
     16         17           0       -5.451847   -0.000420   -0.000815
     17          6           0       -3.043402   -0.003144   -1.206858
     18          6           0       -1.661072   -0.002933   -1.204139
     19          1           0        3.796763    2.491839   -0.003079
     20          1           0        5.936031    1.223058   -0.003071
     21          1           0        5.935559   -1.224490   -0.000369
     22          1           0        3.795743   -2.492423    0.002285
     23          1           0       -1.115731    0.006326    2.135662
     24          1           0       -3.590089    0.005901    2.136575
     25          1           0       -3.588961   -0.005772   -2.137153
     26          1           0       -1.114569   -0.005428   -2.134878
 ---------------------------------------------------------------------
 Rotational constants (GHZ):           1.3508639           0.1748030           0.1636091
 Leave Link  202 at Tue Sep 17 09:50:13 2024, MaxMem=  1342177280 cpu:               0.0 elap:               0.0
 (Enter /groups/ReismanLab/Software/Gaussian16_RevC/Linux_Binary_AVX2-enabled-CPU/g16/l301.exe)
 Standard basis: 6-31G(d,p) (6D, 7F)
 Ernie: Thresh=  0.10000D-02 Tol=  0.10000D-05 Strict=F.
 There are   314 symmetry adapted cartesian basis functions of A   symmetry.
 There are   314 symmetry adapted basis functions of A   symmetry.
   314 basis functions,   584 primitive gaussians,   314 cartesian basis functions
    66 alpha electrons       66 beta electrons
       nuclear repulsion energy      1284.9294127935 Hartrees.
 IExCor=  402 DFT=T Ex+Corr=B3LYP ExCW=0 ScaHFX=  0.200000
 ScaDFX=  0.800000  0.720000  1.000000  0.810000 ScalE2=  1.000000  1.000000
 IRadAn=      5 IRanWt=     -1 IRanGd=            0 ICorTp=0 IEmpDi=141
 NAtoms=   26 NActive=   26 NUniq=   26 SFac= 1.00D+00 NAtFMM=   60 NAOKFM=F Big=F
 Integral buffers will be    131072 words long.
 Raffenetti 2 integral format.
 Two-electron integral symmetry is turned on.
 R6Disp:  Grimme-D3(BJ) Dispersion energy=       -0.0628307101 Hartrees.
 Nuclear repulsion after empirical dispersion term =     1284.8665820834 Hartrees.
 Leave Link  301 at Tue Sep 17 09:50:13 2024, MaxMem=  1342177280 cpu:               0.1 elap:               0.0
 (Enter /groups/ReismanLab/Software/Gaussian16_RevC/Linux_Binary_AVX2-enabled-CPU/g16/l302.exe)
 NPDir=0 NMtPBC=     1 NCelOv=     1 NCel=       1 NClECP=     1 NCelD=      1
         NCelK=      1 NCelE2=     1 NClLst=     1 CellRange=     0.0.
 One-electron integrals computed using PRISM.
 One-electron integral symmetry used in STVInt
 NBasis=   314 RedAO= T EigKep=  3.58D-04  NBF=   314
 NBsUse=   314 1.00D-06 EigRej= -1.00D+00 NBFU=   314
 Precomputing XC quadrature grid using
 IXCGrd= 4 IRadAn=           5 IRanWt=          -1 IRanGd=           0 AccXCQ= 0.00D+00.
 Generated NRdTot=       0 NPtTot=           0 NUsed=           0 NTot=          32
 NSgBfM=   309   309   309   309   309 MxSgAt=    26 MxSgA2=    26.
 Leave Link  302 at Tue Sep 17 09:50:13 2024, MaxMem=  1342177280 cpu:               1.5 elap:               0.2
 (Enter /groups/ReismanLab/Software/Gaussian16_RevC/Linux_Binary_AVX2-enabled-CPU/g16/l303.exe)
 DipDrv:  MaxL=1.
 Leave Link  303 at Tue Sep 17 09:50:13 2024, MaxMem=  1342177280 cpu:               0.1 elap:               0.0
 (Enter /groups/ReismanLab/Software/Gaussian16_RevC/Linux_Binary_AVX2-enabled-CPU/g16/l401.exe)
 ExpMin= 1.43D-01 ExpMax= 2.52D+04 ExpMxC= 3.78D+03 IAcc=3 IRadAn=         5 AccDes= 0.00D+00
 Harris functional with IExCor=  402 and IRadAn=       5 diagonalized for initial guess.
 HarFok:  IExCor=  402 AccDes= 0.00D+00 IRadAn=         5 IDoV= 1 UseB2=F ITyADJ=14
 ICtDFT=  3500011 ScaDFX=  1.000000  1.000000  1.000000  1.000000
 FoFCou: FMM=F IPFlag=           0 FMFlag=      100000 FMFlg1=           0
         NFxFlg=           0 DoJE=T BraDBF=F KetDBF=T FulRan=T
         wScrn=  0.000000 ICntrl=       500 IOpCl=  0 I1Cent=   200000004 NGrid=           0
         NMat0=    1 NMatS0=      1 NMatT0=    0 NMatD0=    1 NMtDS0=    0 NMtDT0=    0
 Petite list used in FoFCou.
 Harris En= -1203.74088673279    
 JPrj=0 DoOrth=F DoCkMO=F.
 Leave Link  401 at Tue Sep 17 09:50:14 2024, MaxMem=  1342177280 cpu:               8.7 elap:               1.2
 (Enter /groups/ReismanLab/Software/Gaussian16_RevC/Linux_Binary_AVX2-enabled-CPU/g16/l502.exe)
 Integral symmetry usage will be decided dynamically.
 Closed shell SCF:
 Using DIIS extrapolation, IDIIS=  1040.
 NGot=  1342177280 LenX=  1341973763 LenY=  1341874726
 Requested convergence on RMS density matrix=1.00D-08 within  32 cycles.
 Requested convergence on MAX density matrix=1.00D-06.
 Requested convergence on             energy=1.00D-06.
 No special actions if energy rises.
 Fock matrices will be formed incrementally for  20 cycles.
 Integral accuracy reduced to 1.0D-05 until final iterations.

 Cycle   1  Pass 0  IDiag  1:
 FoFJK:  IHMeth= 1 ICntrl=       0 DoSepK=F KAlg= 0 I1Cent=           0 FoldK=F
 IRaf= 780000000 NMat=       1 IRICut=       1 DoRegI=T DoRafI=F ISym2E= 0 IDoP0=0 IntGTp=1.
 FoFCou: FMM=F IPFlag=           0 FMFlag=      100000 FMFlg1=           0
         NFxFlg=           0 DoJE=F BraDBF=F KetDBF=F FulRan=T
         wScrn=  0.000000 ICntrl=         0 IOpCl=  0 I1Cent=           0 NGrid=           0
         NMat0=    1 NMatS0=      1 NMatT0=    0 NMatD0=    1 NMtDS0=    0 NMtDT0=    0
 Symmetry not used in FoFCou.
 E= -1203.39055388556    
 DIIS: error= 4.83D-02 at cycle   1 NSaved=   1.
 NSaved= 1 IEnMin= 1 EnMin= -1203.39055388556     IErMin= 1 ErrMin= 4.83D-02
 ErrMax= 4.83D-02  0.00D+00 EMaxC= 1.00D-01 BMatC= 4.56D-01 BMatP= 4.56D-01
 IDIUse=3 WtCom= 5.17D-01 WtEn= 4.83D-01
 Coeff-Com:  0.100D+01
 Coeff-En:   0.100D+01
 Coeff:      0.100D+01
 Gap=     0.264 Goal=   None    Shift=    0.000
 GapD=    0.264 DampG=1.000 DampE=0.500 DampFc=0.5000 IDamp=-1.
 Damping current iteration by 5.00D-01
 RMSDP=6.31D-03 MaxDP=3.22D-01              OVMax= 3.56D-01

 Cycle   2  Pass 0  IDiag  1:
 RMSU=  3.13D-03    CP:  9.82D-01
 E= -1203.48208601146     Delta-E=       -0.091532125896 Rises=F Damp=T
 DIIS: error= 2.19D-02 at cycle   2 NSaved=   2.
 NSaved= 2 IEnMin= 2 EnMin= -1203.48208601146     IErMin= 2 ErrMin= 2.19D-02
 ErrMax= 2.19D-02  0.00D+00 EMaxC= 1.00D-01 BMatC= 1.04D-01 BMatP= 4.56D-01
 IDIUse=3 WtCom= 7.81D-01 WtEn= 2.19D-01
 Coeff-Com:  0.260D+00 0.740D+00
 Coeff-En:   0.384D+00 0.616D+00
 Coeff:      0.287D+00 0.713D+00
 Gap=     0.186 Goal=   None    Shift=    0.000
 RMSDP=2.10D-03 MaxDP=1.51D-01 DE=-9.15D-02 OVMax= 3.09D-01

 Cycle   3  Pass 0  IDiag  1:
 RMSU=  1.87D-03    CP:  9.66D-01  7.10D-01
 E= -1203.73954426823     Delta-E=       -0.257458256770 Rises=F Damp=F
 DIIS: error= 2.13D-02 at cycle   3 NSaved=   3.
 NSaved= 3 IEnMin= 3 EnMin= -1203.73954426823     IErMin= 3 ErrMin= 2.13D-02
 ErrMax= 2.13D-02  0.00D+00 EMaxC= 1.00D-01 BMatC= 7.29D-02 BMatP= 1.04D-01
 IDIUse=3 WtCom= 7.87D-01 WtEn= 2.13D-01
 Coeff-Com:  0.775D-01 0.443D+00 0.480D+00
 Coeff-En:   0.000D+00 0.000D+00 0.100D+01
 Coeff:      0.609D-01 0.348D+00 0.591D+00
 Gap=     0.206 Goal=   None    Shift=    0.000
 RMSDP=1.52D-03 MaxDP=7.81D-02 DE=-2.57D-01 OVMax= 1.07D-01

 Cycle   4  Pass 0  IDiag  1:
 RMSU=  1.07D-03    CP:  9.70D-01  8.66D-01  4.85D-01
 E= -1203.77777944715     Delta-E=       -0.038235178921 Rises=F Damp=F
 DIIS: error= 1.31D-02 at cycle   4 NSaved=   4.
 NSaved= 4 IEnMin= 4 EnMin= -1203.77777944715     IErMin= 4 ErrMin= 1.31D-02
 ErrMax= 1.31D-02  0.00D+00 EMaxC= 1.00D-01 BMatC= 3.41D-02 BMatP= 7.29D-02
 IDIUse=3 WtCom= 8.69D-01 WtEn= 1.31D-01
 Coeff-Com:  0.284D-01 0.533D-01 0.392D+00 0.526D+00
 Coeff-En:   0.000D+00 0.000D+00 0.347D+00 0.653D+00
 Coeff:      0.247D-01 0.463D-01 0.386D+00 0.543D+00
 Gap=     0.170 Goal=   None    Shift=    0.000
 RMSDP=6.94D-04 MaxDP=3.95D-02 DE=-3.82D-02 OVMax= 4.58D-02

 Cycle   5  Pass 0  IDiag  1:
 RMSU=  2.23D-04    CP:  9.69D-01  7.83D-01  6.90D-01  5.64D-01
 E= -1203.80723679402     Delta-E=       -0.029457346870 Rises=F Damp=F
 DIIS: error= 2.41D-03 at cycle   5 NSaved=   5.
 NSaved= 5 IEnMin= 5 EnMin= -1203.80723679402     IErMin= 5 ErrMin= 2.41D-03
 ErrMax= 2.41D-03  0.00D+00 EMaxC= 1.00D-01 BMatC= 8.19D-04 BMatP= 3.41D-02
 IDIUse=3 WtCom= 9.76D-01 WtEn= 2.41D-02
 Coeff-Com:  0.840D-02-0.380D-02 0.169D+00 0.289D+00 0.537D+00
 Coeff-En:   0.000D+00 0.000D+00 0.000D+00 0.000D+00 0.100D+01
 Coeff:      0.820D-02-0.371D-02 0.165D+00 0.282D+00 0.548D+00
 Gap=     0.169 Goal=   None    Shift=    0.000
 RMSDP=1.39D-04 MaxDP=6.90D-03 DE=-2.95D-02 OVMax= 1.43D-02

 Cycle   6  Pass 0  IDiag  1:
 RMSU=  8.58D-05    CP:  9.69D-01  7.87D-01  6.81D-01  5.97D-01  5.50D-01
 E= -1203.80792480265     Delta-E=       -0.000688008628 Rises=F Damp=F
 DIIS: error= 1.33D-03 at cycle   6 NSaved=   6.
 NSaved= 6 IEnMin= 6 EnMin= -1203.80792480265     IErMin= 6 ErrMin= 1.33D-03
 ErrMax= 1.33D-03  0.00D+00 EMaxC= 1.00D-01 BMatC= 1.75D-04 BMatP= 8.19D-04
 IDIUse=3 WtCom= 9.87D-01 WtEn= 1.33D-02
 Coeff-Com:  0.263D-02-0.822D-02 0.636D-01 0.120D+00 0.354D+00 0.468D+00
 Coeff-En:   0.000D+00 0.000D+00 0.000D+00 0.000D+00 0.191D+00 0.809D+00
 Coeff:      0.260D-02-0.811D-02 0.628D-01 0.118D+00 0.352D+00 0.472D+00
 Gap=     0.170 Goal=   None    Shift=    0.000
 RMSDP=5.57D-05 MaxDP=2.50D-03 DE=-6.88D-04 OVMax= 5.33D-03

 Cycle   7  Pass 0  IDiag  1:
 RMSU=  2.50D-05    CP:  9.69D-01  7.85D-01  6.87D-01  5.99D-01  6.26D-01
                    CP:  4.78D-01
 E= -1203.80810914452     Delta-E=       -0.000184341879 Rises=F Damp=F
 DIIS: error= 1.90D-04 at cycle   7 NSaved=   7.
 NSaved= 7 IEnMin= 7 EnMin= -1203.80810914452     IErMin= 7 ErrMin= 1.90D-04
 ErrMax= 1.90D-04  0.00D+00 EMaxC= 1.00D-01 BMatC= 6.14D-06 BMatP= 1.75D-04
 IDIUse=3 WtCom= 9.98D-01 WtEn= 1.90D-03
 Coeff-Com:  0.554D-03-0.322D-02 0.126D-01 0.255D-01 0.108D+00 0.224D+00
 Coeff-Com:  0.633D+00
 Coeff-En:   0.000D+00 0.000D+00 0.000D+00 0.000D+00 0.000D+00 0.000D+00
 Coeff-En:   0.100D+01
 Coeff:      0.553D-03-0.322D-02 0.126D-01 0.255D-01 0.107D+00 0.224D+00
 Coeff:      0.634D+00
 Gap=     0.169 Goal=   None    Shift=    0.000
 RMSDP=1.11D-05 MaxDP=4.06D-04 DE=-1.84D-04 OVMax= 9.05D-04

 Cycle   8  Pass 0  IDiag  1:
 RMSU=  4.71D-06    CP:  9.69D-01  7.85D-01  6.87D-01  6.00D-01  6.30D-01
                    CP:  5.36D-01  6.58D-01
 E= -1203.80811517708     Delta-E=       -0.000006032552 Rises=F Damp=F
 DIIS: error= 2.82D-05 at cycle   8 NSaved=   8.
 NSaved= 8 IEnMin= 8 EnMin= -1203.80811517708     IErMin= 8 ErrMin= 2.82D-05
 ErrMax= 2.82D-05  0.00D+00 EMaxC= 1.00D-01 BMatC= 3.43D-07 BMatP= 6.14D-06
 IDIUse=1 WtCom= 1.00D+00 WtEn= 0.00D+00
 Coeff-Com:  0.134D-03-0.926D-03 0.153D-02 0.320D-02 0.240D-01 0.656D-01
 Coeff-Com:  0.272D+00 0.635D+00
 Coeff:      0.134D-03-0.926D-03 0.153D-02 0.320D-02 0.240D-01 0.656D-01
 Coeff:      0.272D+00 0.635D+00
 Gap=     0.169 Goal=   None    Shift=    0.000
 RMSDP=2.79D-06 MaxDP=1.07D-04 DE=-6.03D-06 OVMax= 2.46D-04

 Initial convergence to 1.0D-05 achieved.  Increase integral accuracy.
 Cycle   9  Pass 1  IDiag  1:
 E= -1203.80809945599     Delta-E=        0.000015721091 Rises=F Damp=F
 DIIS: error= 6.07D-05 at cycle   1 NSaved=   1.
 NSaved= 1 IEnMin= 1 EnMin= -1203.80809945599     IErMin= 1 ErrMin= 6.07D-05
 ErrMax= 6.07D-05  0.00D+00 EMaxC= 1.00D-01 BMatC= 4.22D-07 BMatP= 4.22D-07
 IDIUse=1 WtCom= 1.00D+00 WtEn= 0.00D+00
 Coeff-Com:  0.100D+01
 Coeff:      0.100D+01
 Gap=     0.169 Goal=   None    Shift=    0.000
 RMSDP=2.79D-06 MaxDP=1.07D-04 DE= 1.57D-05 OVMax= 4.20D-04

 Cycle  10  Pass 1  IDiag  1:
 RMSU=  2.52D-05    CP:  1.00D+00
 E= -1203.80809942754     Delta-E=        0.000000028446 Rises=F Damp=F
 DIIS: error= 3.85D-05 at cycle   2 NSaved=   2.
 NSaved= 2 IEnMin= 1 EnMin= -1203.80809945599     IErMin= 2 ErrMin= 3.85D-05
 ErrMax= 3.85D-05  0.00D+00 EMaxC= 1.00D-01 BMatC= 3.44D-07 BMatP= 4.22D-07
 IDIUse=1 WtCom= 1.00D+00 WtEn= 0.00D+00
 Coeff-Com:  0.465D+00 0.535D+00
 Coeff:      0.465D+00 0.535D+00
 Gap=     0.169 Goal=   None    Shift=    0.000
 RMSDP=3.33D-06 MaxDP=1.35D-04 DE= 2.84D-08 OVMax= 4.14D-04

 Cycle  11  Pass 1  IDiag  1:
 RMSU=  3.32D-06    CP:  1.00D+00  9.90D-01
 E= -1203.80809966983     Delta-E=       -0.000000242286 Rises=F Damp=F
 DIIS: error= 2.79D-05 at cycle   3 NSaved=   3.
 NSaved= 3 IEnMin= 3 EnMin= -1203.80809966983     IErMin= 3 ErrMin= 2.79D-05
 ErrMax= 2.79D-05  0.00D+00 EMaxC= 1.00D-01 BMatC= 1.33D-07 BMatP= 3.44D-07
 IDIUse=1 WtCom= 1.00D+00 WtEn= 0.00D+00
 Coeff-Com:  0.226D-01 0.380D+00 0.598D+00
 Coeff:      0.226D-01 0.380D+00 0.598D+00
 Gap=     0.169 Goal=   None    Shift=    0.000
 RMSDP=1.40D-06 MaxDP=5.17D-05 DE=-2.42D-07 OVMax= 1.56D-04

 Cycle  12  Pass 1  IDiag  1:
 RMSU=  5.71D-07    CP:  1.00D+00  1.00D+00  6.25D-01
 E= -1203.80809980442     Delta-E=       -0.000000134597 Rises=F Damp=F
 DIIS: error= 7.58D-06 at cycle   4 NSaved=   4.
 NSaved= 4 IEnMin= 4 EnMin= -1203.80809980442     IErMin= 4 ErrMin= 7.58D-06
 ErrMax= 7.58D-06  0.00D+00 EMaxC= 1.00D-01 BMatC= 1.37D-08 BMatP= 1.33D-07
 IDIUse=1 WtCom= 1.00D+00 WtEn= 0.00D+00
 Coeff-Com: -0.156D-02 0.244D+00 0.409D+00 0.349D+00
 Coeff:     -0.156D-02 0.244D+00 0.409D+00 0.349D+00
 Gap=     0.169 Goal=   None    Shift=    0.000
 RMSDP=3.95D-07 MaxDP=2.67D-05 DE=-1.35D-07 OVMax= 3.00D-05

 Cycle  13  Pass 1  IDiag  1:
 RMSU=  1.22D-07    CP:  1.00D+00  1.00D+00  6.34D-01  3.46D-01
 E= -1203.80809981507     Delta-E=       -0.000000010648 Rises=F Damp=F
 DIIS: error= 1.54D-06 at cycle   5 NSaved=   5.
 NSaved= 5 IEnMin= 5 EnMin= -1203.80809981507     IErMin= 5 ErrMin= 1.54D-06
 ErrMax= 1.54D-06  0.00D+00 EMaxC= 1.00D-01 BMatC= 3.25D-10 BMatP= 1.37D-08
 IDIUse=1 WtCom= 1.00D+00 WtEn= 0.00D+00
 Coeff-Com: -0.199D-02 0.126D+00 0.213D+00 0.210D+00 0.453D+00
 Coeff:     -0.199D-02 0.126D+00 0.213D+00 0.210D+00 0.453D+00
 Gap=     0.169 Goal=   None    Shift=    0.000
 RMSDP=6.23D-08 MaxDP=3.24D-06 DE=-1.06D-08 OVMax= 4.39D-06

 Cycle  14  Pass 1  IDiag  1:
 RMSU=  3.40D-08    CP:  1.00D+00  1.00D+00  6.34D-01  3.76D-01  5.98D-01
 E= -1203.80809981537     Delta-E=       -0.000000000300 Rises=F Damp=F
 DIIS: error= 1.61D-07 at cycle   6 NSaved=   6.
 NSaved= 6 IEnMin= 6 EnMin= -1203.80809981537     IErMin= 6 ErrMin= 1.61D-07
 ErrMax= 1.61D-07  0.00D+00 EMaxC= 1.00D-01 BMatC= 8.18D-12 BMatP= 3.25D-10
 IDIUse=1 WtCom= 1.00D+00 WtEn= 0.00D+00
 Coeff-Com: -0.930D-03 0.511D-01 0.870D-01 0.887D-01 0.225D+00 0.549D+00
 Coeff:     -0.930D-03 0.511D-01 0.870D-01 0.887D-01 0.225D+00 0.549D+00
 Gap=     0.169 Goal=   None    Shift=    0.000
 RMSDP=1.31D-08 MaxDP=6.27D-07 DE=-3.00D-10 OVMax= 1.18D-06

 Cycle  15  Pass 1  IDiag  1:
 RMSU=  1.07D-08    CP:  1.00D+00  1.00D+00  6.33D-01  3.77D-01  6.24D-01
                    CP:  8.01D-01
 E= -1203.80809981539     Delta-E=       -0.000000000022 Rises=F Damp=F
 DIIS: error= 7.66D-08 at cycle   7 NSaved=   7.
 NSaved= 7 IEnMin= 7 EnMin= -1203.80809981539     IErMin= 7 ErrMin= 7.66D-08
 ErrMax= 7.66D-08  0.00D+00 EMaxC= 1.00D-01 BMatC= 1.05D-12 BMatP= 8.18D-12
 IDIUse=1 WtCom= 1.00D+00 WtEn= 0.00D+00
 Coeff-Com: -0.228D-03 0.107D-01 0.185D-01 0.200D-01 0.616D-01 0.286D+00
 Coeff-Com:  0.604D+00
 Coeff:     -0.228D-03 0.107D-01 0.185D-01 0.200D-01 0.616D-01 0.286D+00
 Coeff:      0.604D+00
 Gap=     0.169 Goal=   None    Shift=    0.000
 RMSDP=5.18D-09 MaxDP=2.89D-07 DE=-2.18D-11 OVMax= 5.80D-07

 SCF Done:  E(RB3LYP) =  -1203.80809982     A.U. after   15 cycles
            NFock= 15  Conv=0.52D-08     -V/T= 2.0065
 KE= 1.195997642050D+03 PE=-5.392456721516D+03 EE= 1.707784397567D+03
 Leave Link  502 at Tue Sep 17 09:50:36 2024, MaxMem=  1342177280 cpu:             165.7 elap:              21.8
 (Enter /groups/ReismanLab/Software/Gaussian16_RevC/Linux_Binary_AVX2-enabled-CPU/g16/l508.exe)
 QCSCF skips out because SCF is already converged.
 Leave Link  508 at Tue Sep 17 09:50:36 2024, MaxMem=  1342177280 cpu:               0.0 elap:               0.0
 (Enter /groups/ReismanLab/Software/Gaussian16_RevC/Linux_Binary_AVX2-enabled-CPU/g16/l601.exe)
 Copying SCF densities to generalized density rwf, IOpCl= 0 IROHF=0.

 **********************************************************************

            Population analysis using the SCF Density.

 **********************************************************************

 Orbital symmetries:
       Occupied  (A) (A) (A) (A) (A) (A) (A) (A) (A) (A) (A) (A)
                 (A) (A) (A) (A) (A) (A) (A) (A) (A) (A) (A) (A)
                 (A) (A) (A) (A) (A) (A) (A) (A) (A) (A) (A) (A)
                 (A) (A) (A) (A) (A) (A) (A) (A) (A) (A) (A) (A)
                 (A) (A) (A) (A) (A) (A) (A) (A) (A) (A) (A) (A)
                 (A) (A) (A) (A) (A) (A)
       Virtual   (A) (A) (A) (A) (A) (A) (A) (A) (A) (A) (A) (A)
                 (A) (A) (A) (A) (A) (A) (A) (A) (A) (A) (A) (A)
                 (A) (A) (A) (A) (A) (A) (A) (A) (A) (A) (A) (A)
                 (A) (A) (A) (A) (A) (A) (A) (A) (A) (A) (A) (A)
                 (A) (A) (A) (A) (A) (A) (A) (A) (A) (A) (A) (A)
                 (A) (A) (A) (A) (A) (A) (A) (A) (A) (A) (A) (A)
                 (A) (A) (A) (A) (A) (A) (A) (A) (A) (A) (A) (A)
                 (A) (A) (A) (A) (A) (A) (A) (A) (A) (A) (A) (A)
                 (A) (A) (A) (A) (A) (A) (A) (A) (A) (A) (A) (A)
                 (A) (A) (A) (A) (A) (A) (A) (A) (A) (A) (A) (A)
                 (A) (A) (A) (A) (A) (A) (A) (A) (A) (A) (A) (A)
                 (A) (A) (A) (A) (A) (A) (A) (A) (A) (A) (A) (A)
                 (A) (A) (A) (A) (A) (A) (A) (A) (A) (A) (A) (A)
                 (A) (A) (A) (A) (A) (A) (A) (A) (A) (A) (A) (A)
                 (A) (A) (A) (A) (A) (A) (A) (A) (A) (A) (A) (A)
                 (A) (A) (A) (A) (A) (A) (A) (A) (A) (A) (A) (A)
                 (A) (A) (A) (A) (A) (A) (A) (A) (A) (A) (A) (A)
                 (A) (A) (A) (A) (A) (A) (A) (A) (A) (A) (A) (A)
                 (A) (A) (A) (A) (A) (A) (A) (A) (A) (A) (A) (A)
                 (A) (A) (A) (A) (A) (A) (A) (A) (A) (A) (A) (A)
                 (A) (A) (A) (A) (A) (A) (A) (A)
 The electronic state is 1-A.
 Alpha  occ. eigenvalues -- -101.55317 -19.14831 -19.14831 -14.38968 -10.31258
 Alpha  occ. eigenvalues --  -10.31256 -10.25786 -10.24203 -10.21989 -10.21980
 Alpha  occ. eigenvalues --  -10.21919 -10.21872 -10.21834 -10.21778 -10.20958
 Alpha  occ. eigenvalues --  -10.20957 -10.20862 -10.20862  -9.47001  -7.23390
 Alpha  occ. eigenvalues --   -7.22429  -7.22389  -1.08120  -1.06023  -0.97517
 Alpha  occ. eigenvalues --   -0.90602  -0.89052  -0.85019  -0.80038  -0.78141
 Alpha  occ. eigenvalues --   -0.77237  -0.73970  -0.67894  -0.66789  -0.63725
 Alpha  occ. eigenvalues --   -0.62009  -0.61181  -0.58002  -0.54038  -0.52335
 Alpha  occ. eigenvalues --   -0.50335  -0.49663  -0.48765  -0.46897  -0.46224
 Alpha  occ. eigenvalues --   -0.46173  -0.45218  -0.44410  -0.44041  -0.43936
 Alpha  occ. eigenvalues --   -0.40535  -0.40314  -0.39176  -0.39154  -0.38820
 Alpha  occ. eigenvalues --   -0.37786  -0.37391  -0.34122  -0.31710  -0.29269
 Alpha  occ. eigenvalues --   -0.29142  -0.28190  -0.27481  -0.27256  -0.27047
 Alpha  occ. eigenvalues --   -0.25201
 Alpha virt. eigenvalues --   -0.08255  -0.04173  -0.02266  -0.01880   0.02998
 Alpha virt. eigenvalues --    0.03401   0.07845   0.08570   0.11038   0.12739
 Alpha virt. eigenvalues --    0.13189   0.13751   0.15359   0.16184   0.16517
 Alpha virt. eigenvalues --    0.16647   0.18367   0.19966   0.22151   0.23287
 Alpha virt. eigenvalues --    0.24458   0.24961   0.27203   0.27639   0.27796
 Alpha virt. eigenvalues --    0.30655   0.31329   0.32382   0.33041   0.35657
 Alpha virt. eigenvalues --    0.39378   0.40376   0.41083   0.41569   0.41964
 Alpha virt. eigenvalues --    0.43988   0.45280   0.47638   0.49296   0.50803
 Alpha virt. eigenvalues --    0.51379   0.51738   0.52843   0.53111   0.53443
 Alpha virt. eigenvalues --    0.54992   0.55541   0.55840   0.56453   0.56983
 Alpha virt. eigenvalues --    0.57711   0.57850   0.58442   0.58985   0.59174
 Alpha virt. eigenvalues --    0.60071   0.60457   0.61937   0.64169   0.64175
 Alpha virt. eigenvalues --    0.64772   0.67784   0.68711   0.71044   0.72006
 Alpha virt. eigenvalues --    0.72162   0.72654   0.73694   0.74323   0.78856
 Alpha virt. eigenvalues --    0.79027   0.79657   0.79689   0.80140   0.80719
 Alpha virt. eigenvalues --    0.80988   0.82869   0.83272   0.85639   0.86660
 Alpha virt. eigenvalues --    0.86837   0.86854   0.87015   0.87461   0.91068
 Alpha virt. eigenvalues --    0.91662   0.93149   0.93761   0.95234   0.97368
 Alpha virt. eigenvalues --    0.97815   0.99804   1.02330   1.02662   1.03647
 Alpha virt. eigenvalues --    1.04870   1.07180   1.08750   1.10437   1.10639
 Alpha virt. eigenvalues --    1.13179   1.13509   1.15706   1.16221   1.17801
 Alpha virt. eigenvalues --    1.19541   1.20649   1.22856   1.23254   1.27764
 Alpha virt. eigenvalues --    1.28123   1.30788   1.31936   1.34626   1.34646
 Alpha virt. eigenvalues --    1.36581   1.37296   1.38242   1.38592   1.38923
 Alpha virt. eigenvalues --    1.39949   1.40383   1.40414   1.40765   1.43094
 Alpha virt. eigenvalues --    1.47493   1.52567   1.54198   1.54555   1.64697
 Alpha virt. eigenvalues --    1.65849   1.71894   1.72967   1.73742   1.75346
 Alpha virt. eigenvalues --    1.75433   1.76528   1.78544   1.78999   1.81492
 Alpha virt. eigenvalues --    1.81725   1.82437   1.84606   1.85135   1.85759
 Alpha virt. eigenvalues --    1.86662   1.90124   1.90510   1.91783   1.92744
 Alpha virt. eigenvalues --    1.95438   1.95520   1.95947   1.97028   1.97629
 Alpha virt. eigenvalues --    1.97832   1.98961   2.04058   2.04339   2.05921
 Alpha virt. eigenvalues --    2.06678   2.08346   2.10510   2.11141   2.11395
 Alpha virt. eigenvalues --    2.12858   2.13313   2.22082   2.24832   2.25256
 Alpha virt. eigenvalues --    2.27418   2.27733   2.30689   2.31448   2.34890
 Alpha virt. eigenvalues --    2.36509   2.39177   2.39189   2.39823   2.40680
 Alpha virt. eigenvalues --    2.41283   2.42793   2.42898   2.44223   2.45010
 Alpha virt. eigenvalues --    2.46506   2.46702   2.49961   2.51635   2.52139
 Alpha virt. eigenvalues --    2.52240   2.55318   2.55953   2.56248   2.59438
 Alpha virt. eigenvalues --    2.60121   2.64710   2.64979   2.65785   2.69339
 Alpha virt. eigenvalues --    2.69398   2.69451   2.70021   2.74923   2.75830
 Alpha virt. eigenvalues --    2.76845   2.78420   2.84102   2.85932   2.93267
 Alpha virt. eigenvalues --    2.94668   2.97040   2.98731   3.06464   3.06660
 Alpha virt. eigenvalues --    3.07568   3.17747   3.20079   3.22574   3.23795
 Alpha virt. eigenvalues --    3.24163   3.24291   3.30543   3.34219   3.35925
 Alpha virt. eigenvalues --    3.39854   3.48490   3.51582   3.80912   3.86596
 Alpha virt. eigenvalues --    4.01105   4.07839   4.08864   4.11545   4.13967
 Alpha virt. eigenvalues --    4.14014   4.17047   4.21193   4.29038   4.31997
 Alpha virt. eigenvalues --    4.41389   4.42080   4.45366   4.46318   4.74274
 Alpha virt. eigenvalues --    4.75367   4.83534   4.94567
          Condensed to atoms (all electrons):
               1          2          3          4          5          6
     1  O    7.987627   0.633109  -0.083164   0.003665   0.000207  -0.000001
     2  C    0.633109   4.520768   0.248790  -0.072563   0.007469  -0.000313
     3  C   -0.083164   0.248790   5.083597   0.501234  -0.014471  -0.040210
     4  C    0.003665  -0.072563   0.501234   4.988780   0.482764  -0.026772
     5  C    0.000207   0.007469  -0.014471   0.482764   4.839534   0.536928
     6  C   -0.000001  -0.000313  -0.040210  -0.026772   0.536928   4.839540
     7  C   -0.000083   0.011534  -0.055832  -0.058373  -0.026776   0.482758
     8  C    0.003143  -0.012932   0.471129  -0.055828  -0.040209  -0.014469
     9  C    0.000055  -0.082466  -0.012929   0.011534  -0.000313   0.007469
    10  O   -0.000022   0.000055   0.003143  -0.000083  -0.000001   0.000207
    11  N   -0.102377   0.189838  -0.108341   0.008407  -0.000151  -0.000151
    12  C    0.013281  -0.004638   0.007151  -0.000147   0.000003   0.000003
    13  C   -0.000184  -0.000297  -0.000083   0.000003  -0.000000  -0.000000
    14  C   -0.000065  -0.000085   0.000002  -0.000000   0.000000   0.000000
    15  C    0.000011   0.000025   0.000000  -0.000000   0.000000   0.000000
    16  Cl   0.000000   0.000000   0.000000  -0.000000   0.000000   0.000000
    17  C   -0.000065  -0.000085   0.000002  -0.000000   0.000000   0.000000
    18  C   -0.000200  -0.000297  -0.000087   0.000003  -0.000000  -0.000000
    19  H    0.004310  -0.004741  -0.034374   0.366963  -0.041802   0.004033
    20  H    0.000001  -0.000151   0.002603  -0.037577   0.372449  -0.038288
    21  H   -0.000000   0.000012   0.001166   0.004298  -0.038288   0.372448
    22  H    0.000001  -0.000195   0.005157   0.000556   0.004033  -0.041802
    23  H    0.000004   0.000820  -0.000097  -0.000000  -0.000000  -0.000000
    24  H    0.000000  -0.000003  -0.000000   0.000000  -0.000000  -0.000000
    25  H    0.000000  -0.000003  -0.000000   0.000000  -0.000000  -0.000000
    26  H    0.000003   0.000815  -0.000096  -0.000000  -0.000000  -0.000000
               7          8          9         10         11         12
     1  O   -0.000083   0.003143   0.000055  -0.000022  -0.102377   0.013281
     2  C    0.011534  -0.012932  -0.082466   0.000055   0.189838  -0.004638
     3  C   -0.055832   0.471129  -0.012929   0.003143  -0.108341   0.007151
     4  C   -0.058373  -0.055828   0.011534  -0.000083   0.008407  -0.000147
     5  C   -0.026776  -0.040209  -0.000313  -0.000001  -0.000151   0.000003
     6  C    0.482758  -0.014469   0.007469   0.000207  -0.000151   0.000003
     7  C    4.988780   0.501238  -0.072563   0.003666   0.008408  -0.000147
     8  C    0.501238   5.083535   0.248834  -0.083164  -0.108335   0.007153
     9  C   -0.072563   0.248834   4.520745   0.633088   0.189850  -0.004650
    10  O    0.003666  -0.083164   0.633088   7.987652  -0.102370   0.013274
    11  N    0.008408  -0.108335   0.189850  -0.102370   7.659008   0.112272
    12  C   -0.000147   0.007153  -0.004650   0.013274   0.112272   4.644492
    13  C    0.000003  -0.000087  -0.000298  -0.000197  -0.050760   0.555945
    14  C   -0.000000   0.000002  -0.000086  -0.000065   0.006288  -0.019569
    15  C   -0.000000   0.000000   0.000025   0.000011   0.000339  -0.034102
    16  Cl  -0.000000   0.000000   0.000000   0.000000   0.000004   0.000838
    17  C   -0.000000   0.000002  -0.000086  -0.000065   0.006289  -0.019584
    18  C    0.000003  -0.000082  -0.000299  -0.000185  -0.050776   0.555913
    19  H    0.000556   0.005157  -0.000195   0.000001   0.000285  -0.000003
    20  H    0.004298   0.001166   0.000012  -0.000000   0.000001  -0.000000
    21  H   -0.037576   0.002602  -0.000151   0.000001   0.000001  -0.000000
    22  H    0.366963  -0.034376  -0.004742   0.004312   0.000285  -0.000003
    23  H   -0.000000  -0.000096   0.000814   0.000003  -0.005622  -0.040828
    24  H    0.000000  -0.000000  -0.000003   0.000000  -0.000147   0.003670
    25  H    0.000000  -0.000000  -0.000003   0.000000  -0.000147   0.003671
    26  H   -0.000000  -0.000097   0.000821   0.000003  -0.005622  -0.040838
              13         14         15         16         17         18
     1  O   -0.000184  -0.000065   0.000011   0.000000  -0.000065  -0.000200
     2  C   -0.000297  -0.000085   0.000025   0.000000  -0.000085  -0.000297
     3  C   -0.000083   0.000002   0.000000   0.000000   0.000002  -0.000087
     4  C    0.000003  -0.000000  -0.000000  -0.000000  -0.000000   0.000003
     5  C   -0.000000   0.000000   0.000000   0.000000   0.000000  -0.000000
     6  C   -0.000000   0.000000   0.000000   0.000000   0.000000  -0.000000
     7  C    0.000003  -0.000000  -0.000000  -0.000000  -0.000000   0.000003
     8  C   -0.000087   0.000002   0.000000   0.000000   0.000002  -0.000082
     9  C   -0.000298  -0.000086   0.000025   0.000000  -0.000086  -0.000299
    10  O   -0.000197  -0.000065   0.000011   0.000000  -0.000065  -0.000185
    11  N   -0.050760   0.006288   0.000339   0.000004   0.006289  -0.050776
    12  C    0.555945  -0.019569  -0.034102   0.000838  -0.019584   0.555913
    13  C    4.814330   0.510917  -0.039455   0.004490  -0.043949  -0.049017
    14  C    0.510917   4.868859   0.530688  -0.071091  -0.030528  -0.043952
    15  C   -0.039455   0.530688   4.970000   0.240447   0.530678  -0.039457
    16  Cl   0.004490  -0.071091   0.240447  16.899779  -0.071092   0.004490
    17  C   -0.043949  -0.030528   0.530678  -0.071092   4.868829   0.510953
    18  C   -0.049017  -0.043952  -0.039457   0.004490   0.510953   4.814349
    19  H   -0.000000   0.000000  -0.000000   0.000000  -0.000000  -0.000000
    20  H    0.000000   0.000000  -0.000000  -0.000000   0.000000   0.000000
    21  H    0.000000   0.000000  -0.000000  -0.000000   0.000000   0.000000
    22  H   -0.000000  -0.000000  -0.000000   0.000000   0.000000  -0.000000
    23  H    0.368145  -0.038856   0.005122  -0.000174   0.000402   0.005531
    24  H   -0.028926   0.369275  -0.043600  -0.001218   0.004047   0.000976
    25  H    0.000976   0.004047  -0.043601  -0.001218   0.369273  -0.028927
    26  H    0.005532   0.000402   0.005122  -0.000174  -0.038852   0.368141
              19         20         21         22         23         24
     1  O    0.004310   0.000001  -0.000000   0.000001   0.000004   0.000000
     2  C   -0.004741  -0.000151   0.000012  -0.000195   0.000820  -0.000003
     3  C   -0.034374   0.002603   0.001166   0.005157  -0.000097  -0.000000
     4  C    0.366963  -0.037577   0.004298   0.000556  -0.000000   0.000000
     5  C   -0.041802   0.372449  -0.038288   0.004033  -0.000000  -0.000000
     6  C    0.004033  -0.038288   0.372448  -0.041802  -0.000000  -0.000000
     7  C    0.000556   0.004298  -0.037576   0.366963  -0.000000   0.000000
     8  C    0.005157   0.001166   0.002602  -0.034376  -0.000096  -0.000000
     9  C   -0.000195   0.000012  -0.000151  -0.004742   0.000814  -0.000003
    10  O    0.000001  -0.000000   0.000001   0.004312   0.000003   0.000000
    11  N    0.000285   0.000001   0.000001   0.000285  -0.005622  -0.000147
    12  C   -0.000003  -0.000000  -0.000000  -0.000003  -0.040828   0.003670
    13  C   -0.000000   0.000000   0.000000  -0.000000   0.368145  -0.028926
    14  C    0.000000   0.000000   0.000000  -0.000000  -0.038856   0.369275
    15  C   -0.000000  -0.000000  -0.000000  -0.000000   0.005122  -0.043600
    16  Cl   0.000000  -0.000000  -0.000000   0.000000  -0.000174  -0.001218
    17  C   -0.000000   0.000000   0.000000   0.000000   0.000402   0.004047
    18  C   -0.000000   0.000000   0.000000  -0.000000   0.005531   0.000976
    19  H    0.584300  -0.004686  -0.000166   0.000020   0.000000   0.000000
    20  H   -0.004686   0.603073  -0.006150  -0.000166   0.000000   0.000000
    21  H   -0.000166  -0.006150   0.603071  -0.004686   0.000000   0.000000
    22  H    0.000020  -0.000166  -0.004686   0.584299   0.000000   0.000000
    23  H    0.000000   0.000000   0.000000   0.000000   0.606801  -0.006405
    24  H    0.000000   0.000000   0.000000   0.000000  -0.006405   0.587881
    25  H    0.000000   0.000000   0.000000   0.000000   0.000018  -0.000198
    26  H    0.000000   0.000000   0.000000   0.000000  -0.000188   0.000018
              25         26
     1  O    0.000000   0.000003
     2  C   -0.000003   0.000815
     3  C   -0.000000  -0.000096
     4  C    0.000000  -0.000000
     5  C   -0.000000  -0.000000
     6  C   -0.000000  -0.000000
     7  C    0.000000  -0.000000
     8  C   -0.000000  -0.000097
     9  C   -0.000003   0.000821
    10  O    0.000000   0.000003
    11  N   -0.000147  -0.005622
    12  C    0.003671  -0.040838
    13  C    0.000976   0.005532
    14  C    0.004047   0.000402
    15  C   -0.043601   0.005122
    16  Cl  -0.001218  -0.000174
    17  C    0.369273  -0.038852
    18  C   -0.028927   0.368141
    19  H    0.000000   0.000000
    20  H    0.000000   0.000000
    21  H    0.000000   0.000000
    22  H    0.000000   0.000000
    23  H    0.000018  -0.000188
    24  H   -0.000198   0.000018
    25  H    0.587885  -0.006405
    26  H   -0.006405   0.606823
 Mulliken charges:
               1
     1  O   -0.459255
     2  C    0.565535
     3  C    0.025710
     4  C   -0.116864
     5  C   -0.081377
     6  C   -0.081379
     7  C   -0.116859
     8  C    0.025714
     9  C    0.565539
    10  O   -0.459264
    11  N   -0.646478
    12  C    0.246845
    13  C   -0.047087
    14  C   -0.086184
    15  C   -0.082251
    16  Cl  -0.005082
    17  C   -0.086169
    18  C   -0.047080
    19  H    0.120344
    20  H    0.103417
    21  H    0.103418
    22  H    0.120345
    23  H    0.104606
    24  H    0.114634
    25  H    0.114633
    26  H    0.104592
 Sum of Mulliken charges =  -0.00000
 Mulliken charges with hydrogens summed into heavy atoms:
               1
     1  O   -0.459255
     2  C    0.565535
     3  C    0.025710
     4  C    0.003479
     5  C    0.022040
     6  C    0.022039
     7  C    0.003486
     8  C    0.025714
     9  C    0.565539
    10  O   -0.459264
    11  N   -0.646478
    12  C    0.246845
    13  C    0.057519
    14  C    0.028450
    15  C   -0.082251
    16  Cl  -0.005082
    17  C    0.028463
    18  C    0.057511
 Electronic spatial extent (au):  <R**2>=           6138.7488
 Charge=             -0.0000 electrons
 Dipole moment (field-independent basis, Debye):
    X=              3.8410    Y=             -0.0005    Z=             -0.0023  Tot=              3.8410
 Quadrupole moment (field-independent basis, Debye-Ang):
   XX=            -90.9386   YY=           -117.9618   ZZ=           -100.5017
   XY=             -0.0048   XZ=             -0.0113   YZ=              0.0307
 Traceless Quadrupole moment (field-independent basis, Debye-Ang):
   XX=             12.1955   YY=            -14.8278   ZZ=              2.6323
   XY=             -0.0048   XZ=             -0.0113   YZ=              0.0307
 Octapole moment (field-independent basis, Debye-Ang**2):
  XXX=            139.8697  YYY=             -0.0217  ZZZ=              0.0134  XYY=             13.6384
  XXY=             -0.0068  XXZ=             -0.0305  XZZ=            -28.7143  YZZ=              0.0030
  YYZ=             -0.0207  XYZ=             -0.0833
 Hexadecapole moment (field-independent basis, Debye-Ang**3):
 XXXX=          -6548.9994 YYYY=           -833.5410 ZZZZ=           -321.0619 XXXY=             -0.0032
 XXXZ=             -0.3371 YYYX=             -0.0271 YYYZ=             -0.0071 ZZZX=              0.0363
 ZZZY=              0.1159 XXYY=          -1229.9147 XXZZ=          -1233.4096 YYZZ=           -192.4425
 XXYZ=              0.0196 YYXZ=             -0.0276 ZZXY=              0.0089
 N-N= 1.284866582083D+03 E-N=-5.392456721562D+03  KE= 1.195997642050D+03
 No NMR shielding tensors so no spin-rotation constants.
 Leave Link  601 at Tue Sep 17 09:50:36 2024, MaxMem=  1342177280 cpu:               0.7 elap:               0.1
 (Enter /groups/ReismanLab/Software/Gaussian16_RevC/Linux_Binary_AVX2-enabled-CPU/g16/l701.exe)
 ... and contract with generalized density number  0.
 Compute integral first derivatives.
 R6Disp: Adding Grimme-D3(BJ) dispersion energy 1st derivatives to the gradient.
 Leave Link  701 at Tue Sep 17 09:50:36 2024, MaxMem=  1342177280 cpu:               0.7 elap:               0.1
 (Enter /groups/ReismanLab/Software/Gaussian16_RevC/Linux_Binary_AVX2-enabled-CPU/g16/l702.exe)
 L702 exits ... SP integral derivatives will be done elsewhere.
 Leave Link  702 at Tue Sep 17 09:50:36 2024, MaxMem=  1342177280 cpu:               0.0 elap:               0.0
 (Enter /groups/ReismanLab/Software/Gaussian16_RevC/Linux_Binary_AVX2-enabled-CPU/g16/l703.exe)
 Integral derivatives from FoFJK, PRISM(SPDF).
 Compute integral first derivatives, UseDBF=F ICtDFT=           0.
 Calling FoFJK, ICntrl=      2127 FMM=F ISym2X=0 I1Cent= 0 IOpClX= 0 NMat=1 NMatS=1 NMatT=0.
 FoFJK:  IHMeth= 1 ICntrl=    2127 DoSepK=F KAlg= 0 I1Cent=           0 FoldK=F
 IRaf=         0 NMat=       1 IRICut=       1 DoRegI=T DoRafI=F ISym2E= 0 IDoP0=0 IntGTp=1.
 FoFCou: FMM=F IPFlag=           0 FMFlag=      100000 FMFlg1=         800
         NFxFlg=           0 DoJE=F BraDBF=F KetDBF=F FulRan=T
         wScrn=  0.000000 ICntrl=      2127 IOpCl=  0 I1Cent=           0 NGrid=           0
         NMat0=    1 NMatS0=      1 NMatT0=    0 NMatD0=    1 NMtDS0=    0 NMtDT0=    0
 Symmetry not used in FoFCou.
 Leave Link  703 at Tue Sep 17 09:50:43 2024, MaxMem=  1342177280 cpu:              53.7 elap:               6.8
 (Enter /groups/ReismanLab/Software/Gaussian16_RevC/Linux_Binary_AVX2-enabled-CPU/g16/l716.exe)
 Dipole        = 1.51114741D+00-2.10639324D-04-9.13108795D-04
 ***** Axes restored to original set *****
 -------------------------------------------------------------------
 Center     Atomic                   Forces (Hartrees/Bohr)
 Number     Number              X              Y              Z
 -------------------------------------------------------------------
      1        8          -0.004671214    0.017728186    0.002528533
      2        6           0.007745142   -0.003364806   -0.000487902
      3        6           0.001479300   -0.004334816   -0.000619241
      4        6          -0.002502565    0.004790678    0.000690876
      5        6           0.004251967    0.005683388    0.000804552
      6        6           0.004254091   -0.005676874   -0.000812914
      7        6          -0.002505259   -0.004794813   -0.000682764
      8        6           0.001476921    0.004335819    0.000609757
      9        6           0.007765904    0.003361479    0.000494149
     10        8          -0.004678916   -0.017723331   -0.002535802
     11        7          -0.014749374   -0.000011882    0.000012594
     12        6           0.003660350    0.000011081   -0.000010347
     13        6           0.003651596   -0.000240496    0.001758864
     14        6          -0.003241850   -0.000721841    0.005143715
     15        6           0.004906539    0.000002837   -0.000004717
     16       17          -0.014225676   -0.000001900   -0.000003220
     17        6          -0.003253731    0.000717857   -0.005132119
     18        6           0.003655773    0.000243606   -0.001755737
     19        1          -0.000179149    0.004320022    0.000616177
     20        1           0.003647210    0.001913163    0.000273724
     21        1           0.003645835   -0.001916463   -0.000270703
     22        1          -0.000179084   -0.004318854   -0.000616283
     23        1           0.002240791   -0.000392146    0.002770876
     24        1          -0.002220487   -0.000426374    0.003033400
     25        1          -0.002215304    0.000426233   -0.003037435
     26        1           0.002241190    0.000390246   -0.002768034
 -------------------------------------------------------------------
 Cartesian Forces:  Max     0.017728186 RMS     0.004701791
 Leave Link  716 at Tue Sep 17 09:50:43 2024, MaxMem=  1342177280 cpu:               0.1 elap:               0.0
 (Enter /groups/ReismanLab/Software/Gaussian16_RevC/Linux_Binary_AVX2-enabled-CPU/g16/l103.exe)

 GradGradGradGradGradGradGradGradGradGradGradGradGradGradGradGradGradGrad
 Berny optimization.
 FormGI is forming the generalized inverse of G from B-inverse, IUseBI=4.
 Internal  Forces:  Max     0.018375491 RMS     0.004245340
 Search for a local minimum.
 Step number   1 out of a maximum of  151
 All quantities printed in internal units (Hartrees-Bohrs-Radians)
 RMS Force = .42453D-02 SwitMx=.10000D-02 MixMth= 1
 Mixed Optimization -- RFO/linear search
 Second derivative matrix not updated -- first step.
 ITU=  0
     Eigenvalues ---    0.01286   0.01341   0.01398   0.01468   0.01688
     Eigenvalues ---    0.01757   0.01857   0.01932   0.01997   0.02222
     Eigenvalues ---    0.02239   0.02241   0.02258   0.02268   0.02280
     Eigenvalues ---    0.02281   0.02281   0.02292   0.02293   0.02293
     Eigenvalues ---    0.02302   0.02302   0.02305   0.16000   0.16000
     Eigenvalues ---    0.16000   0.16000   0.16000   0.16000   0.16000
     Eigenvalues ---    0.16000   0.22000   0.22000   0.22610   0.22987
     Eigenvalues ---    0.24000   0.24523   0.25000   0.25000   0.25000
     Eigenvalues ---    0.25000   0.25000   0.25000   0.25000   0.32554
     Eigenvalues ---    0.33003   0.33870   0.36031   0.36031   0.36076
     Eigenvalues ---    0.36076   0.36147   0.36147   0.36180   0.36180
     Eigenvalues ---    0.39377   0.42134   0.43493   0.43526   0.43702
     Eigenvalues ---    0.44643   0.45602   0.46643   0.47465   0.47840
     Eigenvalues ---    0.47854   0.48165   0.48354   0.48676   0.48969
     Eigenvalues ---    1.03698   1.03699
 RFO step:  Lambda=-5.02384977D-03 EMin= 1.28585759D-02
 Linear search not attempted -- first point.
 Iteration  1 RMS(Cart)=  0.02316315 RMS(Int)=  0.00003788
 Iteration  2 RMS(Cart)=  0.00005984 RMS(Int)=  0.00001266
 Iteration  3 RMS(Cart)=  0.00000000 RMS(Int)=  0.00001266
 ITry= 1 IFail=0 DXMaxC= 1.11D-01 DCOld= 1.00D+10 DXMaxT= 3.00D-01 DXLimC= 3.00D+00 Rises=F
 Variable       Old X    -DE/DX   Delta X   Delta X   Delta X     New X
                                 (Linear)    (Quad)   (Total)
    R1        2.27193   0.01838   0.00000   0.01763   0.01763   2.28956
    R2        2.80304   0.00729   0.00000   0.02011   0.02010   2.82314
    R3        2.63425   0.01501   0.00000   0.03358   0.03362   2.66787
    R4        2.60650   0.00709   0.00000   0.01372   0.01371   2.62021
    R5        2.64046   0.00366   0.00000   0.00465   0.00459   2.64505
    R6        2.62963   0.00890   0.00000   0.01927   0.01927   2.64891
    R7        2.03852   0.00437   0.00000   0.01191   0.01191   2.05043
    R8        2.62005   0.01181   0.00000   0.02543   0.02544   2.64550
    R9        2.04033   0.00413   0.00000   0.01129   0.01129   2.05162
   R10        2.62962   0.00890   0.00000   0.01928   0.01928   2.64891
   R11        2.04033   0.00413   0.00000   0.01129   0.01129   2.05162
   R12        2.60650   0.00709   0.00000   0.01372   0.01371   2.62021
   R13        2.03853   0.00436   0.00000   0.01191   0.01191   2.05043
   R14        2.80303   0.00729   0.00000   0.02012   0.02011   2.82314
   R15        2.27193   0.01837   0.00000   0.01763   0.01763   2.28957
   R16        2.63425   0.01501   0.00000   0.03360   0.03363   2.66788
   R17        2.68752   0.00480   0.00000   0.01126   0.01126   2.69878
   R18        2.62185   0.00668   0.00000   0.01358   0.01358   2.63543
   R19        2.62189   0.00668   0.00000   0.01358   0.01357   2.63546
   R20        2.61227   0.01012   0.00000   0.02058   0.02058   2.63285
   R21        2.03962   0.00355   0.00000   0.00970   0.00970   2.04932
   R22        2.62004   0.00887   0.00000   0.01856   0.01857   2.63861
   R23        2.03801   0.00377   0.00000   0.01027   0.01027   2.04828
   R24        3.26046   0.01423   0.00000   0.04246   0.04246   3.30292
   R25        2.62007   0.00886   0.00000   0.01856   0.01856   2.63863
   R26        2.61223   0.01013   0.00000   0.02060   0.02060   2.63283
   R27        2.03801   0.00377   0.00000   0.01027   0.01027   2.04828
   R28        2.03963   0.00355   0.00000   0.00969   0.00969   2.04932
    A1        2.26434  -0.00267   0.00000  -0.01108  -0.01109   2.25326
    A2        2.18440   0.00233   0.00000   0.00853   0.00852   2.19292
    A3        1.83445   0.00033   0.00000   0.00255   0.00257   1.83701
    A4        2.27775  -0.00310   0.00000  -0.00745  -0.00740   2.27035
    A5        1.88987   0.00193   0.00000   0.00382   0.00378   1.89365
    A6        2.11556   0.00117   0.00000   0.00363   0.00362   2.11918
    A7        2.05283  -0.00009   0.00000  -0.00131  -0.00132   2.05151
    A8        2.10769  -0.00010   0.00000  -0.00024  -0.00024   2.10746
    A9        2.12266   0.00019   0.00000   0.00155   0.00156   2.12422
   A10        2.11479  -0.00107   0.00000  -0.00231  -0.00230   2.11249
   A11        2.08392   0.00065   0.00000   0.00183   0.00182   2.08574
   A12        2.08448   0.00043   0.00000   0.00048   0.00048   2.08495
   A13        2.11477  -0.00107   0.00000  -0.00230  -0.00229   2.11248
   A14        2.08446   0.00043   0.00000   0.00049   0.00049   2.08495
   A15        2.08395   0.00064   0.00000   0.00181   0.00180   2.08575
   A16        2.05283  -0.00009   0.00000  -0.00131  -0.00132   2.05151
   A17        2.12268   0.00019   0.00000   0.00155   0.00155   2.12423
   A18        2.10767  -0.00010   0.00000  -0.00023  -0.00023   2.10745
   A19        2.11559   0.00116   0.00000   0.00361   0.00361   2.11919
   A20        1.88987   0.00193   0.00000   0.00382   0.00378   1.89365
   A21        2.27773  -0.00309   0.00000  -0.00743  -0.00738   2.27034
   A22        2.26431  -0.00266   0.00000  -0.01105  -0.01106   2.25325
   A23        1.83445   0.00033   0.00000   0.00254   0.00256   1.83701
   A24        2.18442   0.00233   0.00000   0.00851   0.00850   2.19292
   A25        1.97614  -0.00452   0.00000  -0.01274  -0.01268   1.96345
   A26        2.15366   0.00224   0.00000   0.00629   0.00626   2.15992
   A27        2.15339   0.00228   0.00000   0.00645   0.00642   2.15981
   A28        2.09042   0.00025   0.00000   0.00151   0.00151   2.09193
   A29        2.09018   0.00029   0.00000   0.00167   0.00167   2.09185
   A30        2.10258  -0.00053   0.00000  -0.00317  -0.00318   2.09941
   A31        2.09197   0.00096   0.00000   0.00360   0.00359   2.09556
   A32        2.09146  -0.00101   0.00000  -0.00500  -0.00499   2.08646
   A33        2.09976   0.00005   0.00000   0.00140   0.00140   2.10116
   A34        2.08402  -0.00035   0.00000  -0.00109  -0.00109   2.08293
   A35        2.10309   0.00054   0.00000   0.00279   0.00279   2.10588
   A36        2.09608  -0.00020   0.00000  -0.00170  -0.00170   2.09438
   A37        2.08570   0.00034   0.00000   0.00090   0.00090   2.08660
   A38        2.11181  -0.00069   0.00000  -0.00182  -0.00182   2.10999
   A39        2.08567   0.00035   0.00000   0.00092   0.00092   2.08659
   A40        2.08399  -0.00034   0.00000  -0.00108  -0.00108   2.08291
   A41        2.09605  -0.00019   0.00000  -0.00168  -0.00168   2.09436
   A42        2.10315   0.00054   0.00000   0.00276   0.00276   2.10591
   A43        2.09200   0.00095   0.00000   0.00357   0.00357   2.09557
   A44        2.09142  -0.00100   0.00000  -0.00498  -0.00498   2.08644
   A45        2.09976   0.00005   0.00000   0.00141   0.00141   2.10117
    D1       -0.00060   0.00000   0.00000   0.00013   0.00013  -0.00046
    D2        3.14126   0.00000   0.00000   0.00006   0.00007   3.14132
    D3        3.14097   0.00001   0.00000   0.00041   0.00041   3.14138
    D4       -0.00036   0.00001   0.00000   0.00034   0.00034  -0.00002
    D5       -3.14120  -0.00000   0.00000  -0.00010  -0.00009  -3.14130
    D6        0.00047  -0.00000   0.00000  -0.00008  -0.00008   0.00039
    D7        0.00041  -0.00001   0.00000  -0.00036  -0.00036   0.00005
    D8       -3.14110  -0.00001   0.00000  -0.00034  -0.00034  -3.14144
    D9       -3.14134  -0.00000   0.00000  -0.00004  -0.00004  -3.14138
   D10        0.00018   0.00000   0.00000   0.00002   0.00002   0.00020
   D11       -0.00004   0.00000   0.00000   0.00004   0.00004  -0.00000
   D12        3.14148   0.00000   0.00000   0.00009   0.00009   3.14157
   D13        3.14148  -0.00000   0.00000  -0.00007  -0.00007   3.14141
   D14        0.00019  -0.00000   0.00000  -0.00021  -0.00021  -0.00002
   D15        0.00012  -0.00000   0.00000  -0.00013  -0.00013  -0.00001
   D16       -3.14117  -0.00001   0.00000  -0.00027  -0.00027  -3.14144
   D17       -0.00005   0.00000   0.00000   0.00005   0.00005  -0.00000
   D18        3.14145   0.00000   0.00000   0.00011   0.00011   3.14155
   D19       -3.14157  -0.00000   0.00000  -0.00001  -0.00001  -3.14158
   D20       -0.00007   0.00000   0.00000   0.00005   0.00005  -0.00002
   D21        0.00006  -0.00000   0.00000  -0.00004  -0.00004   0.00001
   D22        3.14150   0.00000   0.00000   0.00008   0.00008   3.14158
   D23       -3.14144  -0.00000   0.00000  -0.00011  -0.00011  -3.14154
   D24        0.00001   0.00000   0.00000   0.00002   0.00002   0.00003
   D25        0.00002  -0.00000   0.00000  -0.00004  -0.00004  -0.00002
[...]
 AtZNuc=   1.0000000   1.0000000   1.0000000   1.0000000   1.0000000   1.0000000
 Leave Link  101 at Tue Sep 17 11:47:49 2024, MaxMem=  1342177280 cpu:               0.2 elap:               0.2
 (Enter /groups/ReismanLab/Software/Gaussian16_RevC/Linux_Binary_AVX2-enabled-CPU/g16/l202.exe)
                          Input orientation:                          
 ---------------------------------------------------------------------
 Center     Atomic      Atomic             Coordinates (Angstroms)
 Number     Number       Type             X           Y           Z
 ---------------------------------------------------------------------
      1          8           0        0.897246    2.004476    1.155086
      2          6           0        1.304918    1.016145    0.583430
      3          6           0        2.714738    0.605115    0.345965
      4          6           0        3.895125    1.236687    0.705982
      5          6           0        5.094181    0.608811    0.346890
      6          6           0        5.094302   -0.607663   -0.347273
      7          6           0        3.895372   -1.235750   -0.706416
      8          6           0        2.714859   -0.604384   -0.346451
      9          6           0        1.305120   -1.015716   -0.583882
     10          8           0        0.897654   -2.004169   -1.155475
     11          7           0        0.503306    0.000147   -0.000245
     12          6           0       -0.918509   -0.000095   -0.000081
     13          6           0       -1.617228    0.469249    1.117239
     14          6           0       -3.009030    0.476311    1.114761
     15          6           0       -3.694942   -0.000595    0.000222
     16         17           0       -5.451334   -0.000912    0.000420
     17          6           0       -3.009106   -0.477246   -1.114472
     18          6           0       -1.617307   -0.469675   -1.117255
     19          1           0        3.880046    2.178120    1.244095
     20          1           0        6.040414    1.070310    0.610377
     21          1           0        6.040628   -1.069001   -0.610711
     22          1           0        3.880479   -2.177184   -1.244531
     23          1           0       -1.076668    0.842177    1.976228
     24          1           0       -3.556505    0.843782    1.974555
     25          1           0       -3.556636   -0.844908   -1.974149
     26          1           0       -1.076797   -0.842386   -1.976368
 ---------------------------------------------------------------------
                    Distance matrix (angstroms):
                    1          2          3          4          5
     1  O    0.000000
     2  C    1.212347   0.000000
     3  C    2.432316   1.487590   0.000000
     4  C    3.127056   2.602466   1.386294   0.000000
     5  C    4.496145   3.818426   2.379446   1.400324   0.000000
     6  C    5.166782   4.226392   2.759300   2.439057   1.400597
     7  C    4.790930   3.666767   2.426971   2.847422   2.439057
     8  C    3.516316   2.340668   1.393675   2.426971   2.759300
     9  C    3.508836   2.343305   2.340669   3.666769   4.226393
    10  O    4.626870   3.508839   3.516316   4.790929   5.166778
    11  N    2.346767   1.419687   2.318681   3.678618   4.644040
    12  C    2.941034   2.513336   3.699529   5.019884   6.053395
    13  C    2.946342   3.020429   4.402187   5.580693   6.756917
    14  C    4.194748   4.379941   5.776604   6.957919   8.140590
    15  C    5.142199   5.135416   6.447513   7.722570   8.817042
    16  Cl   6.757166   6.857204   8.195815   9.454405  10.568807
    17  C    5.154553   4.870718   6.005561   7.343026   8.305321
    18  C    4.196180   3.693155   4.697105   6.051675   6.953482
    19  H    2.989175   2.901369   2.153816   1.084476   2.177574
    20  H    5.255621   4.735882   3.368448   2.153853   1.085249
    21  H    6.246493   5.310438   3.844404   3.413657   2.151235
    22  H    5.669579   4.491359   3.410252   3.931823   3.430373
    23  H    2.433423   2.764435   4.133849   5.146638   6.386593
    24  H    4.674894   5.059484   6.483653   7.569046   8.805616
    25  H    6.143953   5.799952   6.842194   8.188094   9.073982
    26  H    4.669847   3.959706   4.675920   6.019764   6.751627
                    6          7          8          9         10
     6  C    0.000000
     7  C    1.400325   0.000000
     8  C    2.379445   1.386293   0.000000
     9  C    3.818428   2.602467   1.487592   0.000000
    10  O    4.496140   3.127049   2.432314   1.212348   0.000000
    11  N    4.644040   3.678618   2.318682   1.419689   2.346774
    12  C    6.053394   5.019881   3.699528   2.513332   2.941037
    13  C    6.953357   6.051570   4.697027   3.693109   4.196148
    14  C    8.305211   7.342929   6.005493   4.870670   5.154506
    15  C    8.817034   7.722552   6.447503   5.135394   5.142167
    16  Cl  10.568797   9.454383   8.195804   6.857179   6.757128
    17  C    8.140689   6.957992   5.776659   4.379957   4.194752
    18  C    6.757041   5.580796   4.402266   3.020468   2.946381
    19  H    3.430373   3.931823   3.410253   4.491361   5.669579
    20  H    2.151235   3.413658   3.844403   5.310439   6.246489
    21  H    1.085249   2.153854   3.368448   4.735883   5.255615
    22  H    2.177575   1.084476   2.153815   2.901368   2.989166
    23  H    6.751412   6.019596   4.675794   3.959652   4.669817
    24  H    9.073811   8.187950   6.842095   5.799891   6.143895
    25  H    8.805779   7.569170   6.483741   5.059515   4.674913
    26  H    6.386823   5.146842   4.133997   2.764524   2.433529
                   11         12         13         14         15
    11  N    0.000000
    12  C    1.421815   0.000000
    13  C    2.442436   1.398891   0.000000
    14  C    3.715706   2.416632   1.391822   0.000000
    15  C    4.198248   2.776433   2.405281   1.392879   0.000000
    16  Cl   5.954640   4.532824   4.021032   2.726599   1.756392
    17  C    3.715702   2.416637   2.795302   2.424613   1.392878
    18  C    2.442425   1.398893   2.423745   2.795295   2.405277
    19  H    4.206462   5.414676   5.758155   7.097341   7.979628
    20  H    5.672537   7.067181   7.697900   9.082933   9.813067
    21  H    5.672537   7.067179   7.999674   9.341389   9.813055
    22  H    4.206461   5.414671   6.542657   7.750654   7.979596
    23  H    2.666791   2.154119   1.081269   2.147093   3.386772
    24  H    4.592779   3.401519   2.153151   1.083517   2.151773
    25  H    4.592771   3.401524   3.878788   3.403947   2.151774
    26  H    2.666767   2.154117   3.403360   3.876540   3.386769
                   16         17         18         19         20
    16  Cl   0.000000
    17  C    2.726601   0.000000
    18  C    4.021032   1.391822   0.000000
    19  H    9.662792   7.750756   6.542757   0.000000
    20  H   11.557674   9.341512   7.999810   2.509190   0.000000
    21  H   11.557659   9.083041   7.698035   4.318821   2.463271
    22  H    9.662753   7.097400   5.758250   5.016167   4.318821
    23  H    4.873635   3.876547   3.403363   5.185534   7.250548
    24  H    2.863755   3.403946   3.878781   7.590541   9.696038
    25  H    2.863762   1.083517   2.153152   8.648701  10.121818
    26  H    4.873637   2.147093   1.081268   6.638157   7.810528
                   21         22         23         24         25
    21  H    0.000000
    22  H    2.509191   0.000000
    23  H    7.810297   6.638007   0.000000
    24  H   10.121625   8.648554   2.479839   0.000000
    25  H    9.696218   7.590651   4.960038   4.294640   0.000000
    26  H    7.250801   5.185736   4.296599   4.960031   2.479841
                   26
    26  H    0.000000
 Stoichiometry    C14H8ClNO2
 Framework group  C1[X(C14H8ClNO2)]
 Deg. of freedom    72
 Full point group                 C1      NOp   1
 RotChk:  IX=1 Diff= 1.50D-15
 Largest Abelian subgroup         C1      NOp   1
 Largest concise Abelian subgroup C1      NOp   1
                         Standard orientation:                         
 ---------------------------------------------------------------------
 Center     Atomic      Atomic             Coordinates (Angstroms)
 Number     Number       Type             X           Y           Z
 ---------------------------------------------------------------------
      1          8           0        0.831558    2.288315   -0.340042
      2          6           0        1.239123    1.158677   -0.173927
      3          6           0        2.648898    0.688958   -0.104458
      4          6           0        3.829355    1.407436   -0.214558
      5          6           0        5.028341    0.692250   -0.105706
      6          6           0        5.028330   -0.692240    0.106093
      7          6           0        3.829331   -1.407442    0.214710
      8          6           0        2.648887   -0.688981    0.104377
      9          6           0        1.239104   -1.158702    0.173679
     10          8           0        0.831530   -2.288336    0.339809
     11          7           0        0.437400   -0.000017   -0.000205
     12          6           0       -0.984415    0.000002   -0.000119
     13          6           0       -1.683133    1.061982    0.583737
     14          6           0       -3.074934    1.066081    0.577219
     15          6           0       -3.760848    0.000007    0.000053
     16         17           0       -5.517240    0.000015    0.000166
     17          6           0       -3.075014   -1.066065   -0.577208
     18          6           0       -1.683214   -1.061966   -0.583904
     19          1           0        3.814378    2.479456   -0.377768
     20          1           0        5.974625    1.217505   -0.185820
     21          1           0        5.974605   -1.217481    0.186402
     22          1           0        3.814335   -2.479463    0.377916
     23          1           0       -1.142570    1.887825    1.025231
     24          1           0       -3.622408    1.888230    1.022587
     25          1           0       -3.622546   -1.888209   -1.022515
     26          1           0       -1.142706   -1.887798   -1.025484
 ---------------------------------------------------------------------
 Rotational constants (GHZ):           1.3261764           0.1751317           0.1572760
 Leave Link  202 at Tue Sep 17 11:47:49 2024, MaxMem=  1342177280 cpu:               0.0 elap:               0.0
 (Enter /groups/ReismanLab/Software/Gaussian16_RevC/Linux_Binary_AVX2-enabled-CPU/g16/l301.exe)
 Standard basis: def2TZVP (5D, 7F)
 Ernie: Thresh=  0.10000D-02 Tol=  0.10000D-05 Strict=F.
 There are   702 symmetry adapted cartesian basis functions of A   symmetry.
 There are   612 symmetry adapted basis functions of A   symmetry.
   612 basis functions,  1000 primitive gaussians,   702 cartesian basis functions
    66 alpha electrons       66 beta electrons
       nuclear repulsion energy      1277.1932206582 Hartrees.
 IExCor= 4336 DFT=T Ex+Corr=M062X ExCW=0 ScaHFX=  0.540000
 ScaDFX=  1.000000  1.000000  1.000000  1.000000 ScalE2=  1.000000  1.000000
 IRadAn=      5 IRanWt=     -1 IRanGd=            0 ICorTp=0 IEmpDi=  4
 NAtoms=   26 NActive=   26 NUniq=   26 SFac= 1.00D+00 NAtFMM=   60 NAOKFM=F Big=F
 Integral buffers will be    131072 words long.
 Raffenetti 2 integral format.
 Two-electron integral symmetry is turned on.
 ------------------------------------------------------------------------------
 Polarizable Continuum Model (PCM)
 =================================
 Model                : PCM.
 Atomic radii         : SMD-Coulomb.
 Polarization charges : Total charges.
 Charge compensation  : None.
 Solution method      : On-the-fly selection.
 Cavity type          : VdW (van der Waals Surface) (Alpha=1.000).
 Cavity algorithm     : GePol (No added spheres)
                        Default sphere list used, NSphG=   26.
                        Lebedev-Laikov grids with approx.  5.0 points / Ang**2.
                        Smoothing algorithm: York/Karplus (Gamma=1.0000).
                        Polarization charges: spherical gaussians, with
                                              point-specific exponents (IZeta= 3).
                        Self-potential: point-specific (ISelfS= 7).
                        Self-field    : sphere-specific E.n sum rule (ISelfD= 2).
 Solvent              : 1,4-Dioxane, Eps=   2.209900 Eps(inf)=   2.023222
 ------------------------------------------------------------------------------
 GePol: Number of generator spheres                  =      26
 GePol: Total number of spheres                      =      26
 GePol: Number of exposed spheres                    =      26 (100.00%)
 GePol: Number of points                             =    2413
 GePol: Average weight of points                     =       0.12
 GePol: Minimum weight of points                     =   0.18D-11
 GePol: Maximum weight of points                     =    0.18138
 GePol: Number of points with low weight             =      98
 GePol: Fraction of low-weight points (<1% of avg)   =       4.06%
 GePol: Cavity surface area                          =    288.787 Ang**2
 GePol: Cavity volume                                =    294.301 Ang**3
 ------------------------------------------------------------------------------
 Atomic radii for non-electrostatic terms: SMD-CDS.
 ------------------------------------------------------------------------------
 PCM non-electrostatic energy =        -0.0080378535 Hartrees.
 Nuclear repulsion after PCM non-electrostatic terms =     1277.1851828047 Hartrees.
 Leave Link  301 at Tue Sep 17 11:47:49 2024, MaxMem=  1342177280 cpu:               0.1 elap:               0.1
 (Enter /groups/ReismanLab/Software/Gaussian16_RevC/Linux_Binary_AVX2-enabled-CPU/g16/l302.exe)
 NPDir=0 NMtPBC=     1 NCelOv=     1 NCel=       1 NClECP=     1 NCelD=      1
         NCelK=      1 NCelE2=     1 NClLst=     1 CellRange=     0.0.
 One-electron integrals computed using PRISM.
 One-electron integral symmetry used in STVInt
   1 Symmetry operations used in ECPInt.
 ECPInt:  NShTT=   27028 NPrTT=   86754 LenC2=   23695 LenP2D=   54394.
 LDataN:  DoStor=T MaxTD1= 6 Len=  172
 NBasis=   612 RedAO= T EigKep=  7.49D-06  NBF=   612
 NBsUse=   612 1.00D-06 EigRej= -1.00D+00 NBFU=   612
 Precomputing XC quadrature grid using
 IXCGrd= 4 IRadAn=           5 IRanWt=          -1 IRanGd=           0 AccXCQ= 0.00D+00.
 Generated NRdTot=       0 NPtTot=           0 NUsed=           0 NTot=          32
 NSgBfM=   688   688   688   688   688 MxSgAt=    26 MxSgA2=    26.
 Leave Link  302 at Tue Sep 17 11:47:51 2024, MaxMem=  1342177280 cpu:               1.1 elap:               1.1
 (Enter /groups/ReismanLab/Software/Gaussian16_RevC/Linux_Binary_AVX2-enabled-CPU/g16/l303.exe)
 DipDrv:  MaxL=1.
 Leave Link  303 at Tue Sep 17 11:47:51 2024, MaxMem=  1342177280 cpu:               0.1 elap:               0.1
 (Enter /groups/ReismanLab/Software/Gaussian16_RevC/Linux_Binary_AVX2-enabled-CPU/g16/l308.exe)
 Leave Link  308 at Tue Sep 17 11:47:51 2024, MaxMem=  1342177280 cpu:               0.1 elap:               0.2
 (Enter /groups/ReismanLab/Software/Gaussian16_RevC/Linux_Binary_AVX2-enabled-CPU/g16/l401.exe)
 Initial guess from the checkpoint file:  "smiles_00037_conf_2.chk"
 B after Tr=    -0.000000   -0.000000   -0.000000
         Rot=    1.000000   -0.000000   -0.000000   -0.000000 Ang=   0.00 deg.
 Guess basis will be translated and rotated to current coordinates.
 JPrj=2 DoOrth=T DoCkMO=T.
 Leave Link  401 at Tue Sep 17 11:47:52 2024, MaxMem=  1342177280 cpu:               0.5 elap:               0.6
 (Enter /groups/ReismanLab/Software/Gaussian16_RevC/Linux_Binary_AVX2-enabled-CPU/g16/l502.exe)
 Integral symmetry usage will be decided dynamically.
 Closed shell SCF:
 Using DIIS extrapolation, IDIIS=  1040.
 NGot=  1342177280 LenX=  1341180886 LenY=  1340687380
 Requested convergence on RMS density matrix=1.00D-08 within  32 cycles.
 Requested convergence on MAX density matrix=1.00D-06.
 Requested convergence on             energy=1.00D-06.
 No special actions if energy rises.
 Fock matrices will be formed incrementally for  20 cycles.

 Cycle   1  Pass 1  IDiag  1:
 FoFJK:  IHMeth= 1 ICntrl=       0 DoSepK=F KAlg= 0 I1Cent=           0 FoldK=F
 IRaf= 810000000 NMat=       1 IRICut=       1 DoRegI=T DoRafI=F ISym2E= 0 IDoP0=0 IntGTp=1.
 FoFCou: FMM=F IPFlag=           0 FMFlag=      100000 FMFlg1=           0
         NFxFlg=           0 DoJE=F BraDBF=F KetDBF=F FulRan=T
         wScrn=  0.000000 ICntrl=         0 IOpCl=  0 I1Cent=           0 NGrid=           0
         NMat0=    1 NMatS0=      1 NMatT0=    0 NMatD0=    1 NMtDS0=    0 NMtDT0=    0
 Symmetry not used in FoFCou.
 Inv3:  Mode=1 IEnd=    17467707.
 Iteration    1 A*A^-1 deviation from unit magnitude is 2.89D-15 for   1446.
 Iteration    1 A*A^-1 deviation from orthogonality  is 1.81D-15 for   1077    241.
 Iteration    1 A^-1*A deviation from unit magnitude is 2.89D-15 for   1446.
 Iteration    1 A^-1*A deviation from orthogonality  is 2.61D-15 for   1523   1131.
 E= -1203.74205924936    
 DIIS: error= 3.05D-08 at cycle   1 NSaved=   1.
 NSaved= 1 IEnMin= 1 EnMin= -1203.74205924936     IErMin= 1 ErrMin= 3.05D-08
 ErrMax= 3.05D-08  0.00D+00 EMaxC= 1.00D-01 BMatC= 3.64D-13 BMatP= 3.64D-13
 IDIUse=1 WtCom= 1.00D+00 WtEn= 0.00D+00
 Coeff-Com:  0.100D+01
 Coeff:      0.100D+01
 Gap=     0.230 Goal=   None    Shift=    0.000
 RMSDP=2.61D-09 MaxDP=9.77D-08              OVMax= 7.32D-07

 Error on total polarization charges =  0.02286
 SCF Done:  E(RM062X) =  -1203.74205925     A.U. after    1 cycles
            NFock=  1  Conv=0.26D-08     -V/T= 2.0036
 KE= 1.199436659385D+03 PE=-5.379968458523D+03 EE= 1.699604557084D+03
 SMD-CDS (non-electrostatic) energy       (kcal/mol) =      -5.04
 (included in total energy above)
 Leave Link  502 at Tue Sep 17 11:50:50 2024, MaxMem=  1342177280 cpu:             178.3 elap:             178.8
 (Enter /groups/ReismanLab/Software/Gaussian16_RevC/Linux_Binary_AVX2-enabled-CPU/g16/l508.exe)
 QCSCF skips out because SCF is already converged.
 Leave Link  508 at Tue Sep 17 11:50:51 2024, MaxMem=  1342177280 cpu:               0.0 elap:               0.1
 (Enter /groups/ReismanLab/Software/Gaussian16_RevC/Linux_Binary_AVX2-enabled-CPU/g16/l801.exe)
 DoSCS=F DFT=T ScalE2(SS,OS)=  1.000000  1.000000
 Range of M.O.s used for correlation:     1   612
 NBasis=   612 NAE=    66 NBE=    66 NFC=     0 NFV=     0
 NROrb=    612 NOA=    66 NOB=    66 NVA=   546 NVB=   546

 **** Warning!!: The largest alpha MO coefficient is  0.68871775D+02

 Leave Link  801 at Tue Sep 17 11:50:51 2024, MaxMem=  1342177280 cpu:               0.0 elap:               0.0
 (Enter /groups/ReismanLab/Software/Gaussian16_RevC/Linux_Binary_AVX2-enabled-CPU/g16/l1002.exe)
 Minotr:  Closed shell wavefunction.
 NEqPCM:  Using equilibrium solvation (IEInf=0, Eps=   2.2099, EpsInf=   2.0232)
          Direct CPHF calculation.
          Differentiating once with respect to magnetic field using GIAOs.
          Electric field/nuclear overlap derivatives assumed to be zero.
          Requested convergence is 1.0D-08 RMS, and 1.0D-07 maximum.
          Secondary convergence is 1.0D-12 RMS, and 1.0D-12 maximum.
          NewPWx=T KeepS1=F KeepF1=F KeepIn=T MapXYZ=F SortEE=F KeepMc=T.
         7854 words used for storage of precomputed grid.
 Two-electron integral symmetry used by symmetrizing perturbed Fock matrices.
          MDV=    1342177280 using IRadAn=       1.
          Solving linear equations simultaneously, MaxMat=     384.
   1 Symmetry operations used in ECPInt.
 ECPInt:  NShTT=   27028 NPrTT=   86754 LenC2=   27029 LenP2D=   86754.
 LDataN:  DoStor=T MaxTD1= 7 Len=  274
 FoFJK:  IHMeth= 1 ICntrl=    6127 DoSepK=F KAlg= 0 I1Cent=           0 FoldK=F
 IRaf=         1 NMat=       1 IRICut=       1 DoRegI=T DoRafI=F ISym2E= 0 IDoP0=0 IntGTp=1.
