 Entering Gaussian System, Link 0=g16
 Input=smiles_00012_conf_0.gjf
 Output=smiles_00012_conf_0.log
 Initial command:
 /groups/ReismanLab/Software/Gaussian16_RevC/Linux_Binary_AVX2-enabled-CPU/g16/l1.exe "/central/groups/ReismanLab/DM/dft_final/smiles_00012/Gau-973367.inp" -scrdir="/central/groups/ReismanLab/DM/dft_final/smiles_00012/"
 Entering Link 1 = /groups/ReismanLab/Software/Gaussian16_RevC/Linux_Binary_AVX2-enabled-CPU/g16/l1.exe PID=    973368.
  
 Copyright (c) 1988-2021, Gaussian, Inc.  All Rights Reserved.
  
 This is part of the Gaussian(R) 16 program.  It is based on
 the Gaussian(R) 09 system (copyright 2009, Gaussian, Inc.),
 the Gaussian(R) 03 system (copyright 2003, Gaussian, Inc.),
 the Gaussian(R) 98 system (copyright 1998, Gaussian, Inc.),
 the Gaussian(R) 94 system (copyright 1995, Gaussian, Inc.),
 the Gaussian 92(TM) system (copyright 1992, Gaussian, Inc.),
 the Gaussian 90(TM) system (copyright 1990, Gaussian, Inc.),
 the Gaussian 88(TM) system (copyright 1988, Gaussian, Inc.),
 the Gaussian 86(TM) system (copyright 1986, Carnegie Mellon
 University), and the Gaussian 82(TM) system (copyright 1983,
 Carnegie Mellon University). Gaussian is a federally registered
 trademark of Gaussian, Inc.
  
 This software contains proprietary and confidential information,
 including trade secrets, belonging to Gaussian, Inc.
  
 This software is provided under written license and may be
 used, copied, transmitted, or stored only in accord with that
 written license.
  
 The following legend is applicable only to US Government
 contracts under FAR:
  
                    RESTRICTED RIGHTS LEGEND
  
 Use, reproduction and disclosure by the US Government is
 subject to restrictions as set forth in subparagraphs (a)
 and (c) of the Commercial Computer Software - Restricted
 Rights clause in FAR 52.227-19.
  
 Gaussian, Inc.
 340 Quinnipiac St., Bldg. 40, Wallingford CT 06492
  
  
 ---------------------------------------------------------------
 Warning -- This program may not be used in any manner that
 competes with the business of Gaussian, Inc. or will provide
 assistance to any competitor of Gaussian, Inc.  The licensee
 of this program is prohibited from giving any competitor of
 Gaussian, Inc. access to this program.  By using this program,
 the user acknowledges that Gaussian, Inc. is engaged in the
 business of creating and licensing software in the field of
 computational chemistry and represents and warrants to the
 licensee that it is not a competitor of Gaussian, Inc. and that
 it will not use this program in any manner prohibited above.
 ---------------------------------------------------------------
  

 Cite this work as:
 Gaussian 16, Revision C.02,
 M. J. Frisch, G. W. Trucks, H. B. Schlegel, G. E. Scuseria, 
 M. A. Robb, J. R. Cheeseman, G. Scalmani, V. Barone, 
 G. A. Petersson, H. Nakatsuji, X. Li, M. Caricato, A. V. Marenich, 
 J. Bloino, B. G. Janesko, R. Gomperts, B. Mennucci, H. P. Hratchian, 
 J. V. Ortiz, A. F. Izmaylov, J. L. Sonnenberg, D. Williams-Young, 
 F. Ding, F. Lipparini, F. Egidi, J. Goings, B. Peng, A. Petrone, 
 T. Henderson, D. Ranasinghe, V. G. Zakrzewski, J. Gao, N. Rega, 
 G. Zheng, W. Liang, M. Hada, M. Ehara, K. Toyota, R. Fukuda, 
 J. Hasegawa, M. Ishida, T. Nakajima, Y. Honda, O. Kitao, H. Nakai, 
 T. Vreven, K. Throssell, J. A. Montgomery, Jr., J. E. Peralta, 
 F. Ogliaro, M. J. Bearpark, J. J. Heyd, E. N. Brothers, K. N. Kudin, 
 V. N. Staroverov, T. A. Keith, R. Kobayashi, J. Normand, 
 K. Raghavachari, A. P. Rendell, J. C. Burant, S. S. Iyengar, 
 J. Tomasi, M. Cossi, J. M. Millam, M. Klene, C. Adamo, R. Cammi, 
 J. W. Ochterski, R. L. Martin, K. Morokuma, O. Farkas, 
 J. B. Foresman, and D. J. Fox, Gaussian, Inc., Wallingford CT, 2019.
 
 ******************************************
 Gaussian 16:  ES64L-G16RevC.02  7-Dec-2021
                17-Sep-2024 
 ******************************************
 %nprocshared=8
 Will use up to    8 processors via shared memory.
 %Mem=10GB
 %Chk=smiles_00012_conf_0.chk
 ----------------------------------------------------------------------
 #p B3LYP/6-31G(d,p) EmpiricalDispersion=GD3BJ opt freq scf(xqc,tight) 
 integral(grid=ultrafine)
 ----------------------------------------------------------------------
 1/18=20,19=15,26=4,38=1/1,3;
 2/9=110,12=2,17=6,18=5,40=1/2;
 3/5=1,6=6,7=101,11=2,25=1,30=1,71=1,74=-5,75=-5,124=41/1,2,3;
 4//1;
 5/5=2,8=3,13=1,32=2,38=5/2,8;
 6/7=2,8=2,9=2,10=2,28=1/1;
 7//1,2,3,16;
 1/18=20,19=15,26=4/3(2);
 2/9=110/2;
 99//99;
 2/9=110/2;
 3/5=1,6=6,7=101,11=2,25=1,30=1,71=1,74=-5,75=-5,124=41/1,2,3;
 4/5=5,16=3,69=1/1;
 5/5=2,8=3,13=1,32=2,38=5/2,8;
 7//1,2,3,16;
 1/18=20,19=15,26=4/3(-5);
 2/9=110/2;
 6/7=2,8=2,9=2,10=2,19=2,28=1/1;
 99/9=1/99;
 Leave Link    1 at Tue Sep 17 09:51:44 2024, MaxMem=  1342177280 cpu:               0.1 elap:               0.6
 (Enter /groups/ReismanLab/Software/Gaussian16_RevC/Linux_Binary_AVX2-enabled-CPU/g16/l101.exe)
 ----------------------------------
 opt-freq conformers_unique/conf_aa
 ----------------------------------
 Symbolic Z-matrix:
 Charge =  0 Multiplicity = 1
 C                     0.2937   -2.33741   0.00009 
 C                     0.98338  -1.01573   0.00009 
 C                     2.36785  -0.8926   -0.00008 
 C                     2.96058   0.36152  -0.00016 
 C                     2.13974   1.4767    0.00006 
 N                     0.82159   1.38153   0.00015 
 C                     0.28047   0.18933   0.00009 
 Br                   -1.62526   0.1776   -0.00004 
 H                    -0.34407  -2.4313   -0.87868 
 H                     1.01634  -3.14924   0.00193 
 H                    -0.34702  -2.42989   0.8769 
 H                     2.97838  -1.78441  -0.00017 
 H                     4.03367   0.4667   -0.00042 
 H                     2.53388   2.48306   0.00015 
 
 ITRead=  0  0  0  0  0  0  0  0  0  0  0  0  0  0
 MicOpt= -1 -1 -1 -1 -1 -1 -1 -1 -1 -1 -1 -1 -1 -1
 NAtoms=     14 NQM=       14 NQMF=       0 NMMI=      0 NMMIF=      0
                NMic=       0 NMicF=      0.
                    Isotopes and Nuclear Properties:
 (Nuclear quadrupole moments (NQMom) in fm**2, nuclear magnetic moments (NMagM)
  in nuclear magnetons)

  Atom         1           2           3           4           5           6           7           8           9          10
 IAtWgt=          12          12          12          12          12          14          12          79           1           1
 AtmWgt=  12.0000000  12.0000000  12.0000000  12.0000000  12.0000000  14.0030740  12.0000000  78.9183361   1.0078250   1.0078250
 NucSpn=           0           0           0           0           0           2           0           3           1           1
 AtZEff=  -0.0000000  -0.0000000  -0.0000000  -0.0000000  -0.0000000  -0.0000000  -0.0000000  -0.0000000  -0.0000000  -0.0000000
 NQMom=    0.0000000   0.0000000   0.0000000   0.0000000   0.0000000   2.0440000   0.0000000  31.3000000   0.0000000   0.0000000
 NMagM=    0.0000000   0.0000000   0.0000000   0.0000000   0.0000000   0.4037610   0.0000000   2.1063990   2.7928460   2.7928460
 AtZNuc=   6.0000000   6.0000000   6.0000000   6.0000000   6.0000000   7.0000000   6.0000000  35.0000000   1.0000000   1.0000000

  Atom        11          12          13          14
 IAtWgt=           1           1           1           1
 AtmWgt=   1.0078250   1.0078250   1.0078250   1.0078250
 NucSpn=           1           1           1           1
 AtZEff=  -0.0000000  -0.0000000  -0.0000000  -0.0000000
 NQMom=    0.0000000   0.0000000   0.0000000   0.0000000
 NMagM=    2.7928460   2.7928460   2.7928460   2.7928460
 AtZNuc=   1.0000000   1.0000000   1.0000000   1.0000000
 Leave Link  101 at Tue Sep 17 09:51:44 2024, MaxMem=  1342177280 cpu:               0.2 elap:               0.2
 (Enter /groups/ReismanLab/Software/Gaussian16_RevC/Linux_Binary_AVX2-enabled-CPU/g16/l103.exe)

 GradGradGradGradGradGradGradGradGradGradGradGradGradGradGradGradGradGrad
 Berny optimization.
 Initialization pass.
                           ----------------------------
                           !    Initial Parameters    !
                           ! (Angstroms and Degrees)  !
 --------------------------                            --------------------------
 ! Name  Definition              Value          Derivative Info.                !
 --------------------------------------------------------------------------------
 ! R1    R(1,2)                  1.4908         estimate D2E/DX2                !
 ! R2    R(1,9)                  1.0899         estimate D2E/DX2                !
 ! R3    R(1,10)                 1.0869         estimate D2E/DX2                !
 ! R4    R(1,11)                 1.0899         estimate D2E/DX2                !
 ! R5    R(2,3)                  1.3899         estimate D2E/DX2                !
 ! R6    R(2,7)                  1.3951         estimate D2E/DX2                !
 ! R7    R(3,4)                  1.3871         estimate D2E/DX2                !
 ! R8    R(3,12)                 1.0808         estimate D2E/DX2                !
 ! R9    R(4,5)                  1.3847         estimate D2E/DX2                !
 ! R10   R(4,13)                 1.0782         estimate D2E/DX2                !
 ! R11   R(5,6)                  1.3216         estimate D2E/DX2                !
 ! R12   R(5,14)                 1.0808         estimate D2E/DX2                !
 ! R13   R(6,7)                  1.3093         estimate D2E/DX2                !
 ! R14   R(7,8)                  1.9058         estimate D2E/DX2                !
 ! A1    A(2,1,9)              110.3095         estimate D2E/DX2                !
 ! A2    A(2,1,10)             110.7704         estimate D2E/DX2                !
 ! A3    A(2,1,11)             110.3154         estimate D2E/DX2                !
 ! A4    A(9,1,10)             109.0316         estimate D2E/DX2                !
 ! A5    A(9,1,11)             107.2984         estimate D2E/DX2                !
 ! A6    A(10,1,11)            109.0341         estimate D2E/DX2                !
 ! A7    A(1,2,3)              122.6388         estimate D2E/DX2                !
 ! A8    A(1,2,7)              122.1888         estimate D2E/DX2                !
 ! A9    A(3,2,7)              115.1724         estimate D2E/DX2                !
 ! A10   A(2,3,4)              120.3789         estimate D2E/DX2                !
 ! A11   A(2,3,12)             119.3133         estimate D2E/DX2                !
 ! A12   A(4,3,12)             120.3077         estimate D2E/DX2                !
 ! A13   A(3,4,5)              118.3482         estimate D2E/DX2                !
 ! A14   A(3,4,13)             120.8942         estimate D2E/DX2                !
 ! A15   A(5,4,13)             120.7577         estimate D2E/DX2                !
 ! A16   A(4,5,6)              122.2257         estimate D2E/DX2                !
 ! A17   A(4,5,14)             122.257          estimate D2E/DX2                !
 ! A18   A(6,5,14)             115.5173         estimate D2E/DX2                !
 ! A19   A(5,6,7)              118.5424         estimate D2E/DX2                !
 ! A20   A(2,7,6)              125.3324         estimate D2E/DX2                !
 ! A21   A(2,7,8)              119.9021         estimate D2E/DX2                !
 ! A22   A(6,7,8)              114.7655         estimate D2E/DX2                !
 ! D1    D(9,1,2,3)           -120.7016         estimate D2E/DX2                !
 ! D2    D(9,1,2,7)             59.2896         estimate D2E/DX2                !
 ! D3    D(10,1,2,3)             0.1118         estimate D2E/DX2                !
 ! D4    D(10,1,2,7)          -179.897          estimate D2E/DX2                !
 ! D5    D(11,1,2,3)           120.9322         estimate D2E/DX2                !
 ! D6    D(11,1,2,7)           -59.0766         estimate D2E/DX2                !
 ! D7    D(1,2,3,4)            179.9958         estimate D2E/DX2                !
 ! D8    D(1,2,3,12)            -0.0029         estimate D2E/DX2                !
 ! D9    D(7,2,3,4)              0.004          estimate D2E/DX2                !
 ! D10   D(7,2,3,12)          -179.9947         estimate D2E/DX2                !
 ! D11   D(1,2,7,6)            179.9966         estimate D2E/DX2                !
 ! D12   D(1,2,7,8)             -0.004          estimate D2E/DX2                !
 ! D13   D(3,2,7,6)             -0.0116         estimate D2E/DX2                !
 ! D14   D(3,2,7,8)            179.9878         estimate D2E/DX2                !
 ! D15   D(2,3,4,5)              0.0056         estimate D2E/DX2                !
 ! D16   D(2,3,4,13)          -179.992          estimate D2E/DX2                !
 ! D17   D(12,3,4,5)          -179.9957         estimate D2E/DX2                !
 ! D18   D(12,3,4,13)            0.0067         estimate D2E/DX2                !
 ! D19   D(3,4,5,6)             -0.0094         estimate D2E/DX2                !
 ! D20   D(3,4,5,14)           179.9916         estimate D2E/DX2                !
 ! D21   D(13,4,5,6)           179.9882         estimate D2E/DX2                !
 ! D22   D(13,4,5,14)           -0.0109         estimate D2E/DX2                !
 ! D23   D(4,5,6,7)              0.0026         estimate D2E/DX2                !
 ! D24   D(14,5,6,7)          -179.9982         estimate D2E/DX2                !
 ! D25   D(5,6,7,2)              0.0084         estimate D2E/DX2                !
 ! D26   D(5,6,7,8)           -179.991          estimate D2E/DX2                !
 --------------------------------------------------------------------------------
 Trust Radius=3.00D-01 FncErr=1.00D-07 GrdErr=1.00D-06 EigMax=2.50D+02 EigMin=1.00D-04
 Number of steps in this run=     72 maximum allowed number of steps=    100.
 GradGradGradGradGradGradGradGradGradGradGradGradGradGradGradGradGradGrad

 Leave Link  103 at Tue Sep 17 09:51:44 2024, MaxMem=  1342177280 cpu:               0.0 elap:               0.0
 (Enter /groups/ReismanLab/Software/Gaussian16_RevC/Linux_Binary_AVX2-enabled-CPU/g16/l202.exe)
                          Input orientation:                          
 ---------------------------------------------------------------------
 Center     Atomic      Atomic             Coordinates (Angstroms)
 Number     Number       Type             X           Y           Z
 ---------------------------------------------------------------------
      1          6           0        0.293703   -2.337410    0.000094
      2          6           0        0.983378   -1.015734    0.000094
      3          6           0        2.367848   -0.892602   -0.000080
      4          6           0        2.960578    0.361525   -0.000159
      5          6           0        2.139743    1.476699    0.000058
      6          7           0        0.821594    1.381529    0.000152
      7          6           0        0.280468    0.189333    0.000088
      8         35           0       -1.625262    0.177603   -0.000037
      9          1           0       -0.344071   -2.431297   -0.878683
     10          1           0        1.016338   -3.149241    0.001926
     11          1           0       -0.347015   -2.429887    0.876901
     12          1           0        2.978381   -1.784405   -0.000173
     13          1           0        4.033673    0.466698   -0.000423
     14          1           0        2.533882    2.483061    0.000146
 ---------------------------------------------------------------------
                    Distance matrix (angstroms):
                    1          2          3          4          5
     1  C    0.000000
     2  C    1.490797   0.000000
     3  C    2.527755   1.389935   0.000000
     4  C    3.794267   2.409598   1.387142   0.000000
     5  C    4.237368   2.747618   2.380256   1.384697   0.000000
     6  N    3.756218   2.402716   2.750013   2.369738   1.321580
     7  C    2.526777   1.395087   2.351114   2.685635   2.261462
     8  Br   3.163497   2.868633   4.134037   4.589526   3.982827
     9  H    1.089871   2.130302   3.239449   4.415015   4.713167
    10  H    1.086865   2.133762   2.630400   4.013172   4.760395
    11  H    1.089891   2.130391   3.240806   4.416037   4.713198
    12  H    2.741042   2.137965   1.080770   2.146003   3.367212
    13  H    4.674440   3.391446   2.150039   1.078237   2.146410
    14  H    5.315575   3.826961   3.379743   2.164021   1.080791
                    6          7          8          9         10
     6  N    0.000000
     7  C    1.309255   0.000000
     8  Br   2.727003   1.905766   0.000000
     9  H    4.082740   2.833723   3.036416   0.000000
    10  H    4.534954   3.418711   4.248052   1.772464   0.000000
    11  H    4.081817   2.832464   3.033470   1.755587   1.772507
    12  H    3.830779   3.342809   5.004298   3.496989   2.390062
    13  H    3.339815   3.763439   5.666314   5.323002   4.709494
    14  H    2.036001   3.215441   4.755377   5.762453   5.833161
                   11         12         13         14
    11  H    0.000000
    12  H    3.499166   0.000000
    13  H    5.324503   2.486183   0.000000
    14  H    5.762406   4.290553   2.512985   0.000000
 Stoichiometry    C6H6BrN
 Framework group  C1[X(C6H6BrN)]
 Deg. of freedom    36
 Full point group                 C1      NOp   1
 Largest Abelian subgroup         C1      NOp   1
 Largest concise Abelian subgroup C1      NOp   1
                         Standard orientation:                         
 ---------------------------------------------------------------------
 Center     Atomic      Atomic             Coordinates (Angstroms)
 Number     Number       Type             X           Y           Z
 ---------------------------------------------------------------------
      1          6           0        0.097021    2.288847   -0.000093
      2          6           0        0.811528    0.980429   -0.000094
      3          6           0        2.198077    0.883460    0.000080
      4          6           0        2.814381   -0.359251    0.000159
      5          6           0        2.014748   -1.489726   -0.000057
      6          7           0        0.695038   -1.419461   -0.000151
      7          6           0        0.131498   -0.237695   -0.000088
      8         35           0       -1.774114   -0.261950    0.000037
      9          1           0       -0.542412    2.370675    0.878683
     10          1           0        0.804199    3.114178   -0.001926
     11          1           0       -0.545329    2.369211   -0.876900
     12          1           0        2.791662    1.786632    0.000173
     13          1           0        3.889270   -0.444144    0.000423
     14          1           0        2.427819   -2.488466   -0.000146
 ---------------------------------------------------------------------
 Rotational constants (GHZ):           2.8394665           1.0240086           0.7560940
 Leave Link  202 at Tue Sep 17 09:51:44 2024, MaxMem=  1342177280 cpu:               0.0 elap:               0.0
 (Enter /groups/ReismanLab/Software/Gaussian16_RevC/Linux_Binary_AVX2-enabled-CPU/g16/l301.exe)
 Standard basis: 6-31G(d,p) (6D, 7F)
 Ernie: Thresh=  0.10000D-02 Tol=  0.10000D-05 Strict=F.
 There are   165 symmetry adapted cartesian basis functions of A   symmetry.
 There are   165 symmetry adapted basis functions of A   symmetry.
   165 basis functions,   321 primitive gaussians,   165 cartesian basis functions
    42 alpha electrons       42 beta electrons
       nuclear repulsion energy       549.2045725507 Hartrees.
 IExCor=  402 DFT=T Ex+Corr=B3LYP ExCW=0 ScaHFX=  0.200000
 ScaDFX=  0.800000  0.720000  1.000000  0.810000 ScalE2=  1.000000  1.000000
 IRadAn=      5 IRanWt=     -1 IRanGd=            0 ICorTp=0 IEmpDi=141
 NAtoms=   14 NActive=   14 NUniq=   14 SFac= 1.00D+00 NAtFMM=   60 NAOKFM=F Big=F
 Integral buffers will be    131072 words long.
 Raffenetti 2 integral format.
 Two-electron integral symmetry is turned on.
 R6Disp:  Grimme-D3(BJ) Dispersion energy=       -0.0279884232 Hartrees.
 Nuclear repulsion after empirical dispersion term =      549.1765841275 Hartrees.
 Leave Link  301 at Tue Sep 17 09:51:44 2024, MaxMem=  1342177280 cpu:               0.1 elap:               0.0
 (Enter /groups/ReismanLab/Software/Gaussian16_RevC/Linux_Binary_AVX2-enabled-CPU/g16/l302.exe)
 NPDir=0 NMtPBC=     1 NCelOv=     1 NCel=       1 NClECP=     1 NCelD=      1
         NCelK=      1 NCelE2=     1 NClLst=     1 CellRange=     0.0.
 One-electron integrals computed using PRISM.
 One-electron integral symmetry used in STVInt
 NBasis=   165 RedAO= T EigKep=  6.94D-04  NBF=   165
 NBsUse=   165 1.00D-06 EigRej= -1.00D+00 NBFU=   165
 Precomputing XC quadrature grid using
 IXCGrd= 4 IRadAn=           5 IRanWt=          -1 IRanGd=           0 AccXCQ= 0.00D+00.
 Generated NRdTot=       0 NPtTot=           0 NUsed=           0 NTot=          32
 NSgBfM=   165   165   165   165   165 MxSgAt=    14 MxSgA2=    14.
 Leave Link  302 at Tue Sep 17 09:51:44 2024, MaxMem=  1342177280 cpu:               0.8 elap:               0.1
 (Enter /groups/ReismanLab/Software/Gaussian16_RevC/Linux_Binary_AVX2-enabled-CPU/g16/l303.exe)
 DipDrv:  MaxL=1.
 Leave Link  303 at Tue Sep 17 09:51:45 2024, MaxMem=  1342177280 cpu:               0.1 elap:               0.0
 (Enter /groups/ReismanLab/Software/Gaussian16_RevC/Linux_Binary_AVX2-enabled-CPU/g16/l401.exe)
 ExpMin= 1.43D-01 ExpMax= 5.74D+05 ExpMxC= 5.74D+03 IAcc=3 IRadAn=         5 AccDes= 0.00D+00
 Harris functional with IExCor=  402 and IRadAn=       5 diagonalized for initial guess.
 HarFok:  IExCor=  402 AccDes= 0.00D+00 IRadAn=         5 IDoV= 1 UseB2=F ITyADJ=14
 ICtDFT=  3500011 ScaDFX=  1.000000  1.000000  1.000000  1.000000
 FoFCou: FMM=F IPFlag=           0 FMFlag=      100000 FMFlg1=           0
         NFxFlg=           0 DoJE=T BraDBF=F KetDBF=T FulRan=T
         wScrn=  0.000000 ICntrl=       500 IOpCl=  0 I1Cent=   200000004 NGrid=           0
         NMat0=    1 NMatS0=      1 NMatT0=    0 NMatD0=    1 NMtDS0=    0 NMtDT0=    0
 Petite list used in FoFCou.
 Harris En= -2858.85631267692    
 JPrj=0 DoOrth=F DoCkMO=F.
 Leave Link  401 at Tue Sep 17 09:51:45 2024, MaxMem=  1342177280 cpu:               3.2 elap:               0.4
 (Enter /groups/ReismanLab/Software/Gaussian16_RevC/Linux_Binary_AVX2-enabled-CPU/g16/l502.exe)
 Integral symmetry usage will be decided dynamically.
 Closed shell SCF:
 Using DIIS extrapolation, IDIIS=  1040.
 NGot=  1342177280 LenX=  1342119375 LenY=  1342091709
 Requested convergence on RMS density matrix=1.00D-08 within  32 cycles.
 Requested convergence on MAX density matrix=1.00D-06.
 Requested convergence on             energy=1.00D-06.
 No special actions if energy rises.
 Fock matrices will be formed incrementally for  20 cycles.
 Integral accuracy reduced to 1.0D-05 until final iterations.

 Cycle   1  Pass 0  IDiag  1:
 FoFJK:  IHMeth= 1 ICntrl=       0 DoSepK=F KAlg= 0 I1Cent=           0 FoldK=F
 IRaf= 930000000 NMat=       1 IRICut=       1 DoRegI=T DoRafI=F ISym2E= 0 IDoP0=0 IntGTp=1.
 FoFCou: FMM=F IPFlag=           0 FMFlag=      100000 FMFlg1=           0
         NFxFlg=           0 DoJE=F BraDBF=F KetDBF=F FulRan=T
         wScrn=  0.000000 ICntrl=         0 IOpCl=  0 I1Cent=           0 NGrid=           0
         NMat0=    1 NMatS0=      1 NMatT0=    0 NMatD0=    1 NMtDS0=    0 NMtDT0=    0
 Symmetry not used in FoFCou.
 E= -2858.58254026537    
 DIIS: error= 1.85D-01 at cycle   1 NSaved=   1.
 NSaved= 1 IEnMin= 1 EnMin= -2858.58254026537     IErMin= 1 ErrMin= 1.85D-01
 ErrMax= 1.85D-01  0.00D+00 EMaxC= 1.00D-01 BMatC= 5.05D-01 BMatP= 5.05D-01
 IDIUse=3 WtCom= 0.00D+00 WtEn= 1.00D+00
 Coeff-Com:  0.100D+01
 Coeff-En:   0.100D+01
 Coeff:      0.100D+01
 Gap=     0.265 Goal=   None    Shift=    0.000
 GapD=    0.265 DampG=1.000 DampE=0.250 DampFc=0.2500 IDamp=-1.
 Damping current iteration by 2.50D-01
 RMSDP=5.91D-03 MaxDP=1.42D-01              OVMax= 1.58D-01

 Cycle   2  Pass 0  IDiag  1:
 RMSU=  1.41D-03    CP:  9.92D-01
 E= -2858.64047262414     Delta-E=       -0.057932358764 Rises=F Damp=T
 DIIS: error= 1.37D-01 at cycle   2 NSaved=   2.
 NSaved= 2 IEnMin= 2 EnMin= -2858.64047262414     IErMin= 2 ErrMin= 1.37D-01
 ErrMax= 1.37D-01  0.00D+00 EMaxC= 1.00D-01 BMatC= 2.34D-01 BMatP= 5.05D-01
 IDIUse=3 WtCom= 0.00D+00 WtEn= 1.00D+00
 Coeff-Com: -0.168D+01 0.268D+01
 Coeff-En:   0.000D+00 0.100D+01
 Coeff:      0.000D+00 0.100D+01
 Gap=     0.259 Goal=   None    Shift=    0.000
 RMSDP=3.25D-03 MaxDP=1.11D-01 DE=-5.79D-02 OVMax= 6.83D-02

 Cycle   3  Pass 0  IDiag  1:
 RMSU=  1.14D-03    CP:  9.68D-01  2.95D+00
 E= -2858.71211476579     Delta-E=       -0.071642141655 Rises=F Damp=F
 DIIS: error= 1.24D-02 at cycle   3 NSaved=   3.
 NSaved= 3 IEnMin= 3 EnMin= -2858.71211476579     IErMin= 3 ErrMin= 1.24D-02
 ErrMax= 1.24D-02  0.00D+00 EMaxC= 1.00D-01 BMatC= 3.29D-02 BMatP= 2.34D-01
 IDIUse=3 WtCom= 8.76D-01 WtEn= 1.24D-01
 Coeff-Com:  0.205D+01-0.268D+01 0.164D+01
 Coeff-En:   0.918D-01 0.000D+00 0.908D+00
 Coeff:      0.181D+01-0.235D+01 0.155D+01
 Gap=     0.224 Goal=   None    Shift=    0.000
 RMSDP=1.47D-03 MaxDP=3.64D-02 DE=-7.16D-02 OVMax= 4.34D-02

 Cycle   4  Pass 0  IDiag  1:
 RMSU=  5.08D-04    CP:  9.69D-01  2.04D+00  1.43D+00
 E= -2858.74380356879     Delta-E=       -0.031688802995 Rises=F Damp=F
 DIIS: error= 2.91D-03 at cycle   4 NSaved=   4.
 NSaved= 4 IEnMin= 4 EnMin= -2858.74380356879     IErMin= 4 ErrMin= 2.91D-03
 ErrMax= 2.91D-03  0.00D+00 EMaxC= 1.00D-01 BMatC= 2.37D-03 BMatP= 3.29D-02
 IDIUse=3 WtCom= 9.71D-01 WtEn= 2.91D-02
 Coeff-Com:  0.100D+01-0.132D+01 0.828D+00 0.490D+00
 Coeff-En:   0.000D+00 0.000D+00 0.000D+00 0.100D+01
 Coeff:      0.975D+00-0.128D+01 0.804D+00 0.505D+00
 Gap=     0.221 Goal=   None    Shift=    0.000
 RMSDP=3.88D-04 MaxDP=1.30D-02 DE=-3.17D-02 OVMax= 1.68D-02

 Cycle   5  Pass 0  IDiag  1:
 RMSU=  1.75D-04    CP:  9.69D-01  2.15D+00  1.42D+00  3.90D-01
 E= -2858.74594869937     Delta-E=       -0.002145130584 Rises=F Damp=F
 DIIS: error= 1.47D-03 at cycle   5 NSaved=   5.
 NSaved= 5 IEnMin= 5 EnMin= -2858.74594869937     IErMin= 5 ErrMin= 1.47D-03
 ErrMax= 1.47D-03  0.00D+00 EMaxC= 1.00D-01 BMatC= 2.81D-04 BMatP= 2.37D-03
 IDIUse=3 WtCom= 9.85D-01 WtEn= 1.47D-02
 Coeff-Com:  0.272D+00-0.358D+00 0.236D+00 0.284D+00 0.567D+00
 Coeff-En:   0.000D+00 0.000D+00 0.000D+00 0.779D-01 0.922D+00
 Coeff:      0.268D+00-0.353D+00 0.232D+00 0.281D+00 0.572D+00
 Gap=     0.220 Goal=   None    Shift=    0.000
 RMSDP=1.46D-04 MaxDP=3.86D-03 DE=-2.15D-03 OVMax= 7.26D-03

 Cycle   6  Pass 0  IDiag  1:
 RMSU=  7.46D-05    CP:  9.69D-01  2.13D+00  1.45D+00  5.29D-01  4.51D-01
 E= -2858.74620805668     Delta-E=       -0.000259357312 Rises=F Damp=F
 DIIS: error= 5.22D-04 at cycle   6 NSaved=   6.
 NSaved= 6 IEnMin= 6 EnMin= -2858.74620805668     IErMin= 6 ErrMin= 5.22D-04
 ErrMax= 5.22D-04  0.00D+00 EMaxC= 1.00D-01 BMatC= 4.86D-05 BMatP= 2.81D-04
 IDIUse=3 WtCom= 9.95D-01 WtEn= 5.22D-03
 Coeff-Com:  0.698D-01-0.922D-01 0.651D-01 0.128D+00 0.362D+00 0.467D+00
 Coeff-En:   0.000D+00 0.000D+00 0.000D+00 0.000D+00 0.121D+00 0.879D+00
 Coeff:      0.694D-01-0.917D-01 0.648D-01 0.128D+00 0.361D+00 0.469D+00
 Gap=     0.220 Goal=   None    Shift=    0.000
 RMSDP=4.74D-05 MaxDP=1.36D-03 DE=-2.59D-04 OVMax= 2.78D-03

 Cycle   7  Pass 0  IDiag  1:
 RMSU=  1.97D-05    CP:  9.69D-01  2.13D+00  1.44D+00  5.07D-01  5.74D-01
                    CP:  5.58D-01
 E= -2858.74625472193     Delta-E=       -0.000046665252 Rises=F Damp=F
 DIIS: error= 7.60D-05 at cycle   7 NSaved=   7.
 NSaved= 7 IEnMin= 7 EnMin= -2858.74625472193     IErMin= 7 ErrMin= 7.60D-05
 ErrMax= 7.60D-05  0.00D+00 EMaxC= 1.00D-01 BMatC= 1.33D-06 BMatP= 4.86D-05
 IDIUse=1 WtCom= 1.00D+00 WtEn= 0.00D+00
 Coeff-Com:  0.221D-01-0.293D-01 0.217D-01 0.496D-01 0.149D+00 0.233D+00
 Coeff-Com:  0.554D+00
 Coeff:      0.221D-01-0.293D-01 0.217D-01 0.496D-01 0.149D+00 0.233D+00
 Coeff:      0.554D+00
 Gap=     0.220 Goal=   None    Shift=    0.000
 RMSDP=1.09D-05 MaxDP=2.91D-04 DE=-4.67D-05 OVMax= 4.91D-04

 Cycle   8  Pass 0  IDiag  1:
 RMSU=  5.95D-06    CP:  9.69D-01  2.14D+00  1.44D+00  5.13D-01  5.76D-01
                    CP:  5.79D-01  6.23D-01
 E= -2858.74625587424     Delta-E=       -0.000001152304 Rises=F Damp=F
 DIIS: error= 1.84D-05 at cycle   8 NSaved=   8.
 NSaved= 8 IEnMin= 8 EnMin= -2858.74625587424     IErMin= 8 ErrMin= 1.84D-05
 ErrMax= 1.84D-05  0.00D+00 EMaxC= 1.00D-01 BMatC= 1.04D-07 BMatP= 1.33D-06
 IDIUse=1 WtCom= 1.00D+00 WtEn= 0.00D+00
 Coeff-Com:  0.304D-02-0.400D-02 0.346D-02 0.114D-01 0.369D-01 0.658D-01
 Coeff-Com:  0.261D+00 0.622D+00
 Coeff:      0.304D-02-0.400D-02 0.346D-02 0.114D-01 0.369D-01 0.658D-01
 Coeff:      0.261D+00 0.622D+00
 Gap=     0.220 Goal=   None    Shift=    0.000
 RMSDP=2.38D-06 MaxDP=6.25D-05 DE=-1.15D-06 OVMax= 9.36D-05

 Initial convergence to 1.0D-05 achieved.  Increase integral accuracy.
 Cycle   9  Pass 1  IDiag  1:
 E= -2858.74627040916     Delta-E=       -0.000014534922 Rises=F Damp=F
 DIIS: error= 3.36D-05 at cycle   1 NSaved=   1.
 NSaved= 1 IEnMin= 1 EnMin= -2858.74627040916     IErMin= 1 ErrMin= 3.36D-05
 ErrMax= 3.36D-05  0.00D+00 EMaxC= 1.00D-01 BMatC= 6.14D-08 BMatP= 6.14D-08
 IDIUse=1 WtCom= 1.00D+00 WtEn= 0.00D+00
 Coeff-Com:  0.100D+01
 Coeff:      0.100D+01
 Gap=     0.220 Goal=   None    Shift=    0.000
 RMSDP=2.38D-06 MaxDP=6.25D-05 DE=-1.45D-05 OVMax= 4.90D-05

 Cycle  10  Pass 1  IDiag  1:
 RMSU=  5.67D-06    CP:  1.00D+00
 E= -2858.74627042470     Delta-E=       -0.000000015541 Rises=F Damp=F
 DIIS: error= 8.42D-06 at cycle   2 NSaved=   2.
 NSaved= 2 IEnMin= 2 EnMin= -2858.74627042470     IErMin= 2 ErrMin= 8.42D-06
 ErrMax= 8.42D-06  0.00D+00 EMaxC= 1.00D-01 BMatC= 1.78D-08 BMatP= 6.14D-08
 IDIUse=1 WtCom= 1.00D+00 WtEn= 0.00D+00
 Coeff-Com:  0.285D+00 0.715D+00
 Coeff:      0.285D+00 0.715D+00
 Gap=     0.220 Goal=   None    Shift=    0.000
 RMSDP=1.49D-06 MaxDP=3.85D-05 DE=-1.55D-08 OVMax= 6.65D-05

 Cycle  11  Pass 1  IDiag  1:
 RMSU=  1.48D-06    CP:  1.00D+00  9.60D-01
 E= -2858.74627042622     Delta-E=       -0.000000001521 Rises=F Damp=F
 DIIS: error= 8.77D-06 at cycle   3 NSaved=   3.
 NSaved= 3 IEnMin= 3 EnMin= -2858.74627042622     IErMin= 2 ErrMin= 8.42D-06
 ErrMax= 8.77D-06  0.00D+00 EMaxC= 1.00D-01 BMatC= 1.59D-08 BMatP= 1.78D-08
 IDIUse=1 WtCom= 1.00D+00 WtEn= 0.00D+00
 Coeff-Com:  0.155D-01 0.483D+00 0.502D+00
 Coeff:      0.155D-01 0.483D+00 0.502D+00
 Gap=     0.220 Goal=   None    Shift=    0.000
 RMSDP=8.64D-07 MaxDP=2.60D-05 DE=-1.52D-09 OVMax= 4.40D-05

 Cycle  12  Pass 1  IDiag  1:
 RMSU=  3.52D-07    CP:  1.00D+00  9.88D-01  4.76D-01
 E= -2858.74627044043     Delta-E=       -0.000000014205 Rises=F Damp=F
 DIIS: error= 2.87D-06 at cycle   4 NSaved=   4.
 NSaved= 4 IEnMin= 4 EnMin= -2858.74627044043     IErMin= 4 ErrMin= 2.87D-06
 ErrMax= 2.87D-06  0.00D+00 EMaxC= 1.00D-01 BMatC= 8.99D-10 BMatP= 1.59D-08
 IDIUse=1 WtCom= 1.00D+00 WtEn= 0.00D+00
 Coeff-Com: -0.248D-02 0.271D+00 0.317D+00 0.415D+00
 Coeff:     -0.248D-02 0.271D+00 0.317D+00 0.415D+00
 Gap=     0.220 Goal=   None    Shift=    0.000
 RMSDP=2.11D-07 MaxDP=4.70D-06 DE=-1.42D-08 OVMax= 1.04D-05

 Cycle  13  Pass 1  IDiag  1:
 RMSU=  6.16D-08    CP:  1.00D+00  9.91D-01  5.24D-01  4.65D-01
 E= -2858.74627044139     Delta-E=       -0.000000000960 Rises=F Damp=F
 DIIS: error= 1.71D-07 at cycle   5 NSaved=   5.
 NSaved= 5 IEnMin= 5 EnMin= -2858.74627044139     IErMin= 5 ErrMin= 1.71D-07
 ErrMax= 1.71D-07  0.00D+00 EMaxC= 1.00D-01 BMatC= 8.93D-12 BMatP= 8.99D-10
 IDIUse=1 WtCom= 1.00D+00 WtEn= 0.00D+00
 Coeff-Com: -0.164D-02 0.120D+00 0.143D+00 0.198D+00 0.541D+00
 Coeff:     -0.164D-02 0.120D+00 0.143D+00 0.198D+00 0.541D+00
 Gap=     0.220 Goal=   None    Shift=    0.000
 RMSDP=2.54D-08 MaxDP=6.93D-07 DE=-9.60D-10 OVMax= 1.11D-06

 Cycle  14  Pass 1  IDiag  1:
 RMSU=  1.78D-08    CP:  1.00D+00  9.91D-01  5.22D-01  4.74D-01  7.12D-01
 E= -2858.74627044139     Delta-E=       -0.000000000005 Rises=F Damp=F
 DIIS: error= 6.99D-08 at cycle   6 NSaved=   6.
 NSaved= 6 IEnMin= 6 EnMin= -2858.74627044139     IErMin= 6 ErrMin= 6.99D-08
 ErrMax= 6.99D-08  0.00D+00 EMaxC= 1.00D-01 BMatC= 8.94D-13 BMatP= 8.93D-12
 IDIUse=1 WtCom= 1.00D+00 WtEn= 0.00D+00
 Coeff-Com: -0.490D-03 0.295D-01 0.356D-01 0.486D-01 0.267D+00 0.620D+00
 Coeff:     -0.490D-03 0.295D-01 0.356D-01 0.486D-01 0.267D+00 0.620D+00
 Gap=     0.220 Goal=   None    Shift=    0.000
 RMSDP=7.42D-09 MaxDP=2.42D-07 DE=-5.46D-12 OVMax= 4.51D-07

 SCF Done:  E(RB3LYP) =  -2858.74627044     A.U. after   14 cycles
            NFock= 14  Conv=0.74D-08     -V/T= 2.0064
 KE= 2.840504403476D+03 PE=-7.897469645146D+03 EE= 1.649042387101D+03
 Leave Link  502 at Tue Sep 17 09:51:51 2024, MaxMem=  1342177280 cpu:              46.6 elap:               6.3
 (Enter /groups/ReismanLab/Software/Gaussian16_RevC/Linux_Binary_AVX2-enabled-CPU/g16/l508.exe)
 QCSCF skips out because SCF is already converged.
 Leave Link  508 at Tue Sep 17 09:51:51 2024, MaxMem=  1342177280 cpu:               0.0 elap:               0.0
 (Enter /groups/ReismanLab/Software/Gaussian16_RevC/Linux_Binary_AVX2-enabled-CPU/g16/l601.exe)
 Copying SCF densities to generalized density rwf, IOpCl= 0 IROHF=0.

 **********************************************************************

            Population analysis using the SCF Density.

 **********************************************************************

 Orbital symmetries:
       Occupied  (A) (A) (A) (A) (A) (A) (A) (A) (A) (A) (A) (A)
                 (A) (A) (A) (A) (A) (A) (A) (A) (A) (A) (A) (A)
                 (A) (A) (A) (A) (A) (A) (A) (A) (A) (A) (A) (A)
                 (A) (A) (A) (A) (A) (A)
       Virtual   (A) (A) (A) (A) (A) (A) (A) (A) (A) (A) (A) (A)
                 (A) (A) (A) (A) (A) (A) (A) (A) (A) (A) (A) (A)
                 (A) (A) (A) (A) (A) (A) (A) (A) (A) (A) (A) (A)
                 (A) (A) (A) (A) (A) (A) (A) (A) (A) (A) (A) (A)
                 (A) (A) (A) (A) (A) (A) (A) (A) (A) (A) (A) (A)
                 (A) (A) (A) (A) (A) (A) (A) (A) (A) (A) (A) (A)
                 (A) (A) (A) (A) (A) (A) (A) (A) (A) (A) (A) (A)
                 (A) (A) (A) (A) (A) (A) (A) (A) (A) (A) (A) (A)
                 (A) (A) (A) (A) (A) (A) (A) (A) (A) (A) (A) (A)
                 (A) (A) (A) (A) (A) (A) (A) (A) (A) (A) (A) (A)
                 (A) (A) (A)
 The electronic state is 1-A.
 Alpha  occ. eigenvalues -- -482.90451 -61.86656 -56.38743 -56.38358 -56.38350
 Alpha  occ. eigenvalues --  -14.33948 -10.27215 -10.22997 -10.21964 -10.21491
 Alpha  occ. eigenvalues --  -10.20490 -10.19292  -8.57808  -6.53166  -6.51971
 Alpha  occ. eigenvalues --   -6.51880  -2.64749  -2.64421  -2.64350  -2.63396
 Alpha  occ. eigenvalues --   -2.63394  -0.96915  -0.83218  -0.81302  -0.75096
 Alpha  occ. eigenvalues --   -0.70795  -0.63117  -0.61921  -0.51970  -0.50703
 Alpha  occ. eigenvalues --   -0.45547  -0.44420  -0.42366  -0.41023  -0.40583
 Alpha  occ. eigenvalues --   -0.40187  -0.36553  -0.31742  -0.28722  -0.28336
 Alpha  occ. eigenvalues --   -0.26371  -0.24889
 Alpha virt. eigenvalues --   -0.02903  -0.01930   0.02024   0.09713   0.11757
 Alpha virt. eigenvalues --    0.12851   0.14566   0.15770   0.17736   0.18313
 Alpha virt. eigenvalues --    0.22828   0.25000   0.28018   0.29891   0.31778
 Alpha virt. eigenvalues --    0.34572   0.40199   0.42258   0.45933   0.46257
 Alpha virt. eigenvalues --    0.47239   0.47593   0.49590   0.50220   0.52409
 Alpha virt. eigenvalues --    0.53020   0.54392   0.56306   0.57140   0.58877
 Alpha virt. eigenvalues --    0.62006   0.62966   0.64168   0.65202   0.69224
 Alpha virt. eigenvalues --    0.69552   0.72580   0.76411   0.76482   0.80093
 Alpha virt. eigenvalues --    0.80760   0.83334   0.86103   0.86510   0.87569
 Alpha virt. eigenvalues --    0.89976   0.90549   0.91274   0.95489   0.97225
 Alpha virt. eigenvalues --    1.02243   1.06614   1.09450   1.15304   1.20346
 Alpha virt. eigenvalues --    1.23460   1.24343   1.27376   1.34174   1.39726
 Alpha virt. eigenvalues --    1.40498   1.44352   1.47253   1.52698   1.55912
 Alpha virt. eigenvalues --    1.59197   1.70054   1.71625   1.76384   1.78172
 Alpha virt. eigenvalues --    1.82614   1.82741   1.86682   1.89425   1.97150
 Alpha virt. eigenvalues --    1.99231   2.01524   2.02303   2.03677   2.07782
 Alpha virt. eigenvalues --    2.10813   2.15255   2.18530   2.19583   2.25356
 Alpha virt. eigenvalues --    2.31006   2.32370   2.32684   2.37752   2.38466
 Alpha virt. eigenvalues --    2.42626   2.47245   2.47537   2.51229   2.53348
 Alpha virt. eigenvalues --    2.56980   2.63788   2.67505   2.69456   2.70480
 Alpha virt. eigenvalues --    2.75233   2.82511   2.86275   2.87204   3.01746
 Alpha virt. eigenvalues --    3.05188   3.19549   3.22061   3.25777   3.29139
 Alpha virt. eigenvalues --    3.39548   3.42820   3.46227   3.78910   4.09093
 Alpha virt. eigenvalues --    4.11435   4.22318   4.28570   4.36975   4.51041
 Alpha virt. eigenvalues --    4.73179   8.62849  73.12343
          Condensed to atoms (all electrons):
               1          2          3          4          5          6
     1  C    5.031488   0.362108  -0.066280   0.008396   0.000126   0.006734
     2  C    0.362108   4.802718   0.541462  -0.023147  -0.037460  -0.027657
     3  C   -0.066280   0.541462   4.873637   0.513003  -0.034333  -0.058899
     4  C    0.008396  -0.023147   0.513003   4.918744   0.503668  -0.027597
     5  C    0.000126  -0.037460  -0.034333   0.503668   4.705349   0.474926
     6  N    0.006734  -0.027657  -0.058899  -0.027597   0.474926   6.782565
     7  C   -0.064553   0.463881  -0.026009  -0.046912  -0.065623   0.420076
     8  Br  -0.008978  -0.090263   0.004542   0.000291   0.004945  -0.082659
     9  H    0.376151  -0.024752   0.001451  -0.000219   0.000030  -0.000061
    10  H    0.365300  -0.027328  -0.005650   0.000030  -0.000009  -0.000123
    11  H    0.376158  -0.024739   0.001472  -0.000219   0.000030  -0.000060
    12  H   -0.011209  -0.042507   0.372694  -0.045964   0.005056  -0.000206
    13  H   -0.000123   0.004988  -0.037529   0.359921  -0.034897   0.005130
    14  H    0.000023   0.001177   0.002855  -0.063071   0.387162  -0.052548
               7          8          9         10         11         12
     1  C   -0.064553  -0.008978   0.376151   0.365300   0.376158  -0.011209
     2  C    0.463881  -0.090263  -0.024752  -0.027328  -0.024739  -0.042507
     3  C   -0.026009   0.004542   0.001451  -0.005650   0.001472   0.372694
     4  C   -0.046912   0.000291  -0.000219   0.000030  -0.000219  -0.045964
     5  C   -0.065623   0.004945   0.000030  -0.000009   0.000030   0.005056
     6  N    0.420076  -0.082659  -0.000061  -0.000123  -0.000060  -0.000206
     7  C    4.819212   0.297254  -0.006996   0.005436  -0.007019   0.006421
     8  Br   0.297254  34.975969   0.005358   0.000799   0.005397  -0.000158
     9  H   -0.006996   0.005358   0.565460  -0.027239  -0.031027   0.000166
    10  H    0.005436   0.000799  -0.027239   0.601819  -0.027226   0.006013
    11  H   -0.007019   0.005397  -0.031027  -0.027226   0.565388   0.000165
    12  H    0.006421  -0.000158   0.000166   0.006013   0.000165   0.616273
    13  H    0.000646   0.000018   0.000003  -0.000016   0.000003  -0.006232
    14  H    0.004450  -0.000215  -0.000000  -0.000000  -0.000000  -0.000193
              13         14
     1  C   -0.000123   0.000023
     2  C    0.004988   0.001177
     3  C   -0.037529   0.002855
     4  C    0.359921  -0.063071
     5  C   -0.034897   0.387162
     6  N    0.005130  -0.052548
     7  C    0.000646   0.004450
     8  Br   0.000018  -0.000215
     9  H    0.000003  -0.000000
    10  H   -0.000016  -0.000000
    11  H    0.000003  -0.000000
    12  H   -0.006232  -0.000193
    13  H    0.613485  -0.001854
    14  H   -0.001854   0.615589
 Mulliken charges:
               1
     1  C   -0.375340
     2  C    0.121521
     3  C   -0.082415
     4  C   -0.096925
     5  C    0.091031
     6  N   -0.439620
     7  C    0.199736
     8  Br  -0.112299
     9  H    0.141677
    10  H    0.108194
    11  H    0.141678
    12  H    0.099681
    13  H    0.096457
    14  H    0.106627
 Sum of Mulliken charges =  -0.00000
 Mulliken charges with hydrogens summed into heavy atoms:
               1
     1  C    0.016209
     2  C    0.121521
     3  C    0.017265
     4  C   -0.000468
     5  C    0.197657
     6  N   -0.439620
     7  C    0.199736
     8  Br  -0.112299
 Electronic spatial extent (au):  <R**2>=           1387.5203
 Charge=             -0.0000 electrons
 Dipole moment (field-independent basis, Debye):
    X=              2.5388    Y=              2.0481    Z=              0.0005  Tot=              3.2619
 Quadrupole moment (field-independent basis, Debye-Ang):
   XX=            -51.6906   YY=            -56.7797   ZZ=            -60.1052
   XY=             -0.9759   XZ=              0.0009   YZ=              0.0002
 Traceless Quadrupole moment (field-independent basis, Debye-Ang):
   XX=              4.5012   YY=             -0.5879   ZZ=             -3.9133
   XY=             -0.9759   XZ=              0.0009   YZ=              0.0002
 Octapole moment (field-independent basis, Debye-Ang**2):
  XXX=            -36.7053  YYY=             -1.4325  ZZZ=              0.0044  XYY=             -9.2521
  XXY=             -6.2304  XXZ=              0.0024  XZZ=            -22.2730  YZZ=             -2.2796
  YYZ=              0.0009  XYZ=             -0.0001
 Hexadecapole moment (field-independent basis, Debye-Ang**3):
 XXXX=           -960.5249 YYYY=           -538.4608 ZZZZ=            -68.6654 XXXY=              8.8033
 XXXZ=              0.0105 YYYX=              7.3368 YYYZ=             -0.0032 ZZZX=             -0.0061
 ZZZY=              0.0090 XXYY=           -247.3274 XXZZ=           -201.9731 YYZZ=           -104.9450
 XXYZ=             -0.0052 YYXZ=             -0.0077 ZZXY=              3.1594
 N-N= 5.491765841275D+02 E-N=-7.897469640223D+03  KE= 2.840504403476D+03
 No NMR shielding tensors so no spin-rotation constants.
 Leave Link  601 at Tue Sep 17 09:51:51 2024, MaxMem=  1342177280 cpu:               0.6 elap:               0.1
 (Enter /groups/ReismanLab/Software/Gaussian16_RevC/Linux_Binary_AVX2-enabled-CPU/g16/l701.exe)
 ... and contract with generalized density number  0.
 Compute integral first derivatives.
 R6Disp: Adding Grimme-D3(BJ) dispersion energy 1st derivatives to the gradient.
 Leave Link  701 at Tue Sep 17 09:51:52 2024, MaxMem=  1342177280 cpu:               0.5 elap:               0.1
 (Enter /groups/ReismanLab/Software/Gaussian16_RevC/Linux_Binary_AVX2-enabled-CPU/g16/l702.exe)
 L702 exits ... SP integral derivatives will be done elsewhere.
 Leave Link  702 at Tue Sep 17 09:51:52 2024, MaxMem=  1342177280 cpu:               0.0 elap:               0.0
 (Enter /groups/ReismanLab/Software/Gaussian16_RevC/Linux_Binary_AVX2-enabled-CPU/g16/l703.exe)
 Integral derivatives from FoFJK, PRISM(SPDF).
 Compute integral first derivatives, UseDBF=F ICtDFT=           0.
 Calling FoFJK, ICntrl=      2127 FMM=F ISym2X=0 I1Cent= 0 IOpClX= 0 NMat=1 NMatS=1 NMatT=0.
 FoFJK:  IHMeth= 1 ICntrl=    2127 DoSepK=F KAlg= 0 I1Cent=           0 FoldK=F
 IRaf=         0 NMat=       1 IRICut=       1 DoRegI=T DoRafI=F ISym2E= 0 IDoP0=0 IntGTp=1.
 FoFCou: FMM=F IPFlag=           0 FMFlag=      100000 FMFlg1=         800
         NFxFlg=           0 DoJE=F BraDBF=F KetDBF=F FulRan=T
         wScrn=  0.000000 ICntrl=      2127 IOpCl=  0 I1Cent=           0 NGrid=           0
         NMat0=    1 NMatS0=      1 NMatT0=    0 NMatD0=    1 NMtDS0=    0 NMtDT0=    0
 Symmetry not used in FoFCou.
 Leave Link  703 at Tue Sep 17 09:51:53 2024, MaxMem=  1342177280 cpu:              13.8 elap:               1.8
 (Enter /groups/ReismanLab/Software/Gaussian16_RevC/Linux_Binary_AVX2-enabled-CPU/g16/l716.exe)
 Dipole        = 9.98845140D-01 8.05770713D-01 1.84449992D-04
 ***** Axes restored to original set *****
 -------------------------------------------------------------------
 Center     Atomic                   Forces (Hartrees/Bohr)
 Number     Number              X              Y              Z
 -------------------------------------------------------------------
      1        6           0.000010946   -0.001034564    0.000019084
      2        6          -0.002230994   -0.003258447    0.000002992
      3        6           0.002178142   -0.000979392    0.000000022
      4        6           0.005442134   -0.000234607   -0.000002788
      5        6           0.009285453    0.002904784   -0.000003220
      6        7          -0.013413875    0.008825020    0.000001369
      7        6          -0.000859394    0.002496305    0.000003254
      8       35          -0.007801256   -0.002839180   -0.000000477
      9        1          -0.002538048   -0.001597480   -0.001787480
     10        1           0.001846826   -0.003399033    0.000000360
     11        1          -0.002521257   -0.001587548    0.001762749
     12        1           0.001936565   -0.003400011    0.000000686
     13        1           0.004584116    0.000680346    0.000005174
     14        1           0.004080641    0.003423807   -0.000001723
 -------------------------------------------------------------------
 Cartesian Forces:  Max     0.013413875 RMS     0.003731146
 Leave Link  716 at Tue Sep 17 09:51:53 2024, MaxMem=  1342177280 cpu:               0.0 elap:               0.1
 (Enter /groups/ReismanLab/Software/Gaussian16_RevC/Linux_Binary_AVX2-enabled-CPU/g16/l103.exe)

 GradGradGradGradGradGradGradGradGradGradGradGradGradGradGradGradGradGrad
 Berny optimization.
 FormGI is forming the generalized inverse of G from B-inverse, IUseBI=4.
 Internal  Forces:  Max     0.018988734 RMS     0.004183930
 Search for a local minimum.
 Step number   1 out of a maximum of   72
 All quantities printed in internal units (Hartrees-Bohrs-Radians)
 RMS Force = .41839D-02 SwitMx=.10000D-02 MixMth= 1
 Mixed Optimization -- RFO/linear search
 Second derivative matrix not updated -- first step.
 ITU=  0
     Eigenvalues ---    0.00888   0.01635   0.02210   0.02240   0.02275
     Eigenvalues ---    0.02305   0.02376   0.02435   0.02685   0.07337
     Eigenvalues ---    0.07482   0.16000   0.16000   0.16000   0.16000
     Eigenvalues ---    0.16000   0.16000   0.17972   0.22084   0.23322
     Eigenvalues ---    0.24919   0.25000   0.25000   0.33362   0.34825
     Eigenvalues ---    0.34828   0.35177   0.35899   0.35901   0.36208
     Eigenvalues ---    0.43283   0.45189   0.47155   0.47891   0.59552
     Eigenvalues ---    0.62923
 RFO step:  Lambda=-2.58934583D-03 EMin= 8.87680571D-03
 Linear search not attempted -- first point.
 Iteration  1 RMS(Cart)=  0.01978483 RMS(Int)=  0.00010840
 Iteration  2 RMS(Cart)=  0.00014331 RMS(Int)=  0.00001185
 Iteration  3 RMS(Cart)=  0.00000003 RMS(Int)=  0.00001185
 ITry= 1 IFail=0 DXMaxC= 6.62D-02 DCOld= 1.00D+10 DXMaxT= 3.00D-01 DXLimC= 3.00D+00 Rises=F
 Variable       Old X    -DE/DX   Delta X   Delta X   Delta X     New X
                                 (Linear)    (Quad)   (Total)
    R1        2.81720   0.00824   0.00000   0.02449   0.02449   2.84169
    R2        2.05956   0.00306   0.00000   0.00873   0.00873   2.06829
    R3        2.05388   0.00377   0.00000   0.01063   0.01063   2.06451
    R4        2.05960   0.00304   0.00000   0.00865   0.00865   2.06825
    R5        2.62660   0.00863   0.00000   0.01703   0.01702   2.64362
    R6        2.63633   0.00978   0.00000   0.02091   0.02092   2.65725
    R7        2.62132   0.00709   0.00000   0.01377   0.01376   2.63508
    R8        2.04236   0.00390   0.00000   0.01078   0.01078   2.05314
    R9        2.61670   0.00758   0.00000   0.01580   0.01579   2.63249
   R10        2.03757   0.00463   0.00000   0.01269   0.01269   2.05026
   R11        2.49742   0.01899   0.00000   0.03158   0.03158   2.52900
   R12        2.04240   0.00468   0.00000   0.01293   0.01293   2.05533
   R13        2.47413   0.01127   0.00000   0.01806   0.01807   2.49220
   R14        3.60138   0.00782   0.00000   0.04289   0.04289   3.64426
    A1        1.92526   0.00178   0.00000   0.01077   0.01073   1.93599
    A2        1.93331   0.00057   0.00000   0.00385   0.00383   1.93713
    A3        1.92537   0.00176   0.00000   0.01069   0.01066   1.93602
    A4        1.90296  -0.00118   0.00000  -0.00696  -0.00698   1.89598
    A5        1.87271  -0.00190   0.00000  -0.01229  -0.01234   1.86037
    A6        1.90300  -0.00118   0.00000  -0.00693  -0.00695   1.89605
    A7        2.14045  -0.00180   0.00000  -0.00576  -0.00576   2.13469
    A8        2.13260   0.00127   0.00000   0.00643   0.00643   2.13903
    A9        2.01014   0.00053   0.00000  -0.00067  -0.00067   2.00947
   A10        2.10101   0.00239   0.00000   0.00579   0.00578   2.10679
   A11        2.08241  -0.00152   0.00000  -0.00493  -0.00492   2.07749
   A12        2.09977  -0.00087   0.00000  -0.00087  -0.00086   2.09890
   A13        2.06557  -0.00038   0.00000  -0.00399  -0.00400   2.06156
   A14        2.11000   0.00043   0.00000   0.00344   0.00344   2.11344
   A15        2.10762  -0.00004   0.00000   0.00056   0.00056   2.10818
   A16        2.13324   0.00042   0.00000   0.00409   0.00409   2.13734
   A17        2.13379  -0.00282   0.00000  -0.01807  -0.01807   2.11572
   A18        2.01616   0.00239   0.00000   0.01398   0.01398   2.03013
   A19        2.06896  -0.00282   0.00000  -0.00589  -0.00587   2.06308
   A20        2.18746  -0.00014   0.00000   0.00067   0.00068   2.18814
   A21        2.09269  -0.00495   0.00000  -0.02023  -0.02023   2.07245
   A22        2.00304   0.00510   0.00000   0.01956   0.01956   2.02259
    D1       -2.10664  -0.00008   0.00000  -0.00123  -0.00122  -2.10786
    D2        1.03480  -0.00007   0.00000  -0.00119  -0.00118   1.03362
    D3        0.00195  -0.00000   0.00000  -0.00030  -0.00030   0.00165
    D4       -3.13979  -0.00000   0.00000  -0.00026  -0.00026  -3.14005
    D5        2.11066   0.00007   0.00000   0.00062   0.00061   2.11127
    D6       -1.03108   0.00007   0.00000   0.00066   0.00065  -1.03043
    D7        3.14152   0.00000   0.00000   0.00001   0.00001   3.14153
    D8       -0.00005  -0.00000   0.00000  -0.00005  -0.00005  -0.00011
    D9        0.00007  -0.00000   0.00000  -0.00002  -0.00002   0.00005
   D10       -3.14150  -0.00000   0.00000  -0.00009  -0.00009   3.14159
   D11        3.14153   0.00000   0.00000   0.00008   0.00008  -3.14157
   D12       -0.00007  -0.00000   0.00000  -0.00001  -0.00001  -0.00008
   D13       -0.00020   0.00000   0.00000   0.00012   0.00012  -0.00008
   D14        3.14138   0.00000   0.00000   0.00003   0.00003   3.14141
   D15        0.00010  -0.00000   0.00000  -0.00009  -0.00009   0.00001
   D16       -3.14145  -0.00000   0.00000  -0.00012  -0.00012  -3.14158
   D17       -3.14152  -0.00000   0.00000  -0.00002  -0.00002  -3.14154
   D18        0.00012  -0.00000   0.00000  -0.00006  -0.00005   0.00006
   D19       -0.00016   0.00000   0.00000   0.00013   0.00013  -0.00004
   D20        3.14145   0.00000   0.00000   0.00006   0.00006   3.14150
   D21        3.14139   0.00000   0.00000   0.00016   0.00016   3.14155
   D22       -0.00019   0.00000   0.00000   0.00009   0.00009  -0.00010
   D23        0.00005  -0.00000   0.00000  -0.00004  -0.00004   0.00001
   D24       -3.14156   0.00000   0.00000   0.00002   0.00003  -3.14154
   D25        0.00015  -0.00000   0.00000  -0.00009  -0.00009   0.00006
   D26       -3.14144   0.00000   0.00000   0.00000   0.00000  -3.14143
         Item               Value     Threshold  Converged?
 Maximum Force            0.018989     0.000450     NO 
 RMS     Force            0.004184     0.000300     NO 
 Maximum Displacement     0.066223     0.001800     NO 
 RMS     Displacement     0.019824     0.001200     NO 
 Predicted change in Energy=-1.304504D-03
 Lowest energy point so far.  Saving SCF results.
 GradGradGradGradGradGradGradGradGradGradGradGradGradGradGradGradGradGrad

 Leave Link  103 at Tue Sep 17 09:51:54 2024, MaxMem=  1342177280 cpu:               0.1 elap:               0.0
 (Enter /groups/ReismanLab/Software/Gaussian16_RevC/Linux_Binary_AVX2-enabled-CPU/g16/l202.exe)
                          Input orientation:                          
 ---------------------------------------------------------------------
 Center     Atomic      Atomic             Coordinates (Angstroms)
 Number     Number       Type             X           Y           Z
 ---------------------------------------------------------------------
      1          6           0        0.287966   -2.347132    0.000070
      2          6           0        0.976931   -1.010487    0.000080
      3          6           0        2.370464   -0.887581   -0.000053
      4          6           0        2.974505    0.369222   -0.000109
      5          6           0        2.151533    1.493196   -0.000016
      6          7           0        0.816109    1.405640    0.000080
      7          6           0        0.270155    0.205137    0.000092
      8         35           0       -1.657704    0.156964   -0.000044
      9          1           0       -0.356117   -2.454886   -0.878258
     10          1           0        1.015319   -3.162294    0.001630
     11          1           0       -0.358595   -2.453647    0.876697
     12          1           0        2.979143   -1.787547   -0.000069
     13          1           0        4.054605    0.471732   -0.000226
     14          1           0        2.568926    2.497553    0.000032
 ---------------------------------------------------------------------
                    Distance matrix (angstroms):
                    1          2          3          4          5
     1  C    0.000000
     2  C    1.503759   0.000000
     3  C    2.543046   1.398942   0.000000
     4  C    3.820480   2.427735   1.394424   0.000000
     5  C    4.268606   2.765523   2.390821   1.393054   0.000000
     6  N    3.789753   2.421473   2.770357   2.394334   1.338292
     7  C    2.552331   1.406156   2.367558   2.709324   2.280062
     8  Br   3.171140   2.881709   4.161395   4.637070   4.036807
     9  H    1.094493   2.152855   3.265261   4.454186   4.758883
    10  H    1.092490   2.152150   2.647781   4.038566   4.792137
    11  H    1.094469   2.152858   3.266346   4.454989   4.758880
    12  H    2.748739   2.147714   1.086476   2.156774   3.383521
    13  H    4.704632   3.415999   2.164270   1.084953   2.159877
    14  H    5.354787   3.852374   3.390946   2.166630   1.087635
                    6          7          8          9         10
     6  N    0.000000
     7  C    1.318815   0.000000
     8  Br   2.771091   1.928460   0.000000
     9  H    4.129074   2.870442   3.047483   0.000000
    10  H    4.572276   3.448893   4.261752   1.776363   0.000000
    11  H    4.128253   2.869302   3.044938   1.754957   1.776390
    12  H    3.856833   3.362946   5.028069   3.512907   2.397194
    13  H    3.370466   3.793829   5.720975   5.365678   4.737448
    14  H    2.065101   3.246463   4.831434   5.818412   5.869205
                   11         12         13         14
    11  H    0.000000
    12  H    3.514669   0.000000
    13  H    5.366858   2.502191   0.000000
    14  H    5.818358   4.304691   2.512208   0.000000
 Stoichiometry    C6H6BrN
 Framework group  C1[X(C6H6BrN)]
 Deg. of freedom    36
 Full point group                 C1      NOp   1
 RotChk:  IX=0 Diff= 1.79D-02
 Largest Abelian subgroup         C1      NOp   1
 Largest concise Abelian subgroup C1      NOp   1
                         Standard orientation:                         
 ---------------------------------------------------------------------
 Center     Atomic      Atomic             Coordinates (Angstroms)
 Number     Number       Type             X           Y           Z
 ---------------------------------------------------------------------
      1          6           0        0.075241    2.295630   -0.000079
      2          6           0        0.806051    0.981396   -0.000090
      3          6           0        2.202768    0.902535    0.000044
      4          6           0        2.846177   -0.334576    0.000099
      5          6           0        2.059091   -1.483965    0.000006
      6          7           0        0.721569   -1.438602   -0.000089
      7          6           0        0.137995   -0.255930   -0.000101
      8         35           0       -1.790424   -0.268629    0.000035
      9          1           0       -0.571922    2.383001    0.878249
     10          1           0        0.776502    3.133343   -0.001640
     11          1           0       -0.574360    2.381684   -0.876706
     12          1           0        2.782739    1.821265    0.000060
     13          1           0        3.928974   -0.402944    0.000217
     14          1           0        2.507976   -2.474648   -0.000042
 ---------------------------------------------------------------------
 Rotational constants (GHZ):           2.8113516           1.0032745           0.7427792
 Leave Link  202 at Tue Sep 17 09:51:54 2024, MaxMem=  1342177280 cpu:               0.0 elap:               0.0
 (Enter /groups/ReismanLab/Software/Gaussian16_RevC/Linux_Binary_AVX2-enabled-CPU/g16/l301.exe)
 Standard basis: 6-31G(d,p) (6D, 7F)
 Ernie: Thresh=  0.10000D-02 Tol=  0.10000D-05 Strict=F.
 There are   165 symmetry adapted cartesian basis functions of A   symmetry.
 There are   165 symmetry adapted basis functions of A   symmetry.
   165 basis functions,   321 primitive gaussians,   165 cartesian basis functions
    42 alpha electrons       42 beta electrons
       nuclear repulsion energy       544.5488475669 Hartrees.
 IExCor=  402 DFT=T Ex+Corr=B3LYP ExCW=0 ScaHFX=  0.200000
 ScaDFX=  0.800000  0.720000  1.000000  0.810000 ScalE2=  1.000000  1.000000
 IRadAn=      5 IRanWt=     -1 IRanGd=            0 ICorTp=0 IEmpDi=141
 NAtoms=   14 NActive=   14 NUniq=   14 SFac= 1.00D+00 NAtFMM=   60 NAOKFM=F Big=F
 Integral buffers will be    131072 words long.
 Raffenetti 2 integral format.
 Two-electron integral symmetry is turned on.
 R6Disp:  Grimme-D3(BJ) Dispersion energy=       -0.0278340145 Hartrees.
 Nuclear repulsion after empirical dispersion term =      544.5210135524 Hartrees.
 Leave Link  301 at Tue Sep 17 09:51:54 2024, MaxMem=  1342177280 cpu:               0.1 elap:               0.0
 (Enter /groups/ReismanLab/Software/Gaussian16_RevC/Linux_Binary_AVX2-enabled-CPU/g16/l302.exe)
 NPDir=0 NMtPBC=     1 NCelOv=     1 NCel=       1 NClECP=     1 NCelD=      1
         NCelK=      1 NCelE2=     1 NClLst=     1 CellRange=     0.0.
 One-electron integrals computed using PRISM.
 One-electron integral symmetry used in STVInt
 NBasis=   165 RedAO= T EigKep=  7.35D-04  NBF=   165
 NBsUse=   165 1.00D-06 EigRej= -1.00D+00 NBFU=   165
 Precomputing XC quadrature grid using
 IXCGrd= 4 IRadAn=           5 IRanWt=          -1 IRanGd=           0 AccXCQ= 0.00D+00.
 Generated NRdTot=       0 NPtTot=           0 NUsed=           0 NTot=          32
 NSgBfM=   165   165   165   165   165 MxSgAt=    14 MxSgA2=    14.
 Leave Link  302 at Tue Sep 17 09:51:54 2024, MaxMem=  1342177280 cpu:               0.8 elap:               0.1
 (Enter /groups/ReismanLab/Software/Gaussian16_RevC/Linux_Binary_AVX2-enabled-CPU/g16/l303.exe)
 DipDrv:  MaxL=1.
 Leave Link  303 at Tue Sep 17 09:51:54 2024, MaxMem=  1342177280 cpu:               0.1 elap:               0.0
 (Enter /groups/ReismanLab/Software/Gaussian16_RevC/Linux_Binary_AVX2-enabled-CPU/g16/l401.exe)
 Initial guess from the checkpoint file:  "smiles_00012_conf_0.chk"
 B after Tr=     0.000000   -0.000000    0.000000
         Rot=    0.999993    0.000005   -0.000001   -0.003801 Ang=   0.44 deg.
 Guess basis will be translated and rotated to current coordinates.
 JPrj=2 DoOrth=T DoCkMO=T.
 Generating alternative initial guess.
 ExpMin= 1.43D-01 ExpMax= 5.74D+05 ExpMxC= 5.74D+03 IAcc=3 IRadAn=         5 AccDes= 0.00D+00
 Harris functional with IExCor=  402 and IRadAn=       5 diagonalized for initial guess.
 HarFok:  IExCor=  402 AccDes= 0.00D+00 IRadAn=         5 IDoV= 1 UseB2=F ITyADJ=14
 ICtDFT=  3500011 ScaDFX=  1.000000  1.000000  1.000000  1.000000
 FoFCou: FMM=F IPFlag=           0 FMFlag=      100000 FMFlg1=           0
         NFxFlg=           0 DoJE=T BraDBF=F KetDBF=T FulRan=T
         wScrn=  0.000000 ICntrl=       500 IOpCl=  0 I1Cent=   200000004 NGrid=           0
         NMat0=    1 NMatS0=      1 NMatT0=    0 NMatD0=    1 NMtDS0=    0 NMtDT0=    0
 Petite list used in FoFCou.
 Harris En= -2858.85214602844    
 Leave Link  401 at Tue Sep 17 09:51:54 2024, MaxMem=  1342177280 cpu:               3.1 elap:               0.4
 (Enter /groups/ReismanLab/Software/Gaussian16_RevC/Linux_Binary_AVX2-enabled-CPU/g16/l502.exe)
 Integral symmetry usage will be decided dynamically.
 Closed shell SCF:
 Using DIIS extrapolation, IDIIS=  1040.
 NGot=  1342177280 LenX=  1342119375 LenY=  1342091709
 Requested convergence on RMS density matrix=1.00D-08 within  32 cycles.
 Requested convergence on MAX density matrix=1.00D-06.
 Requested convergence on             energy=1.00D-06.
 No special actions if energy rises.
 Fock matrices will be formed incrementally for  20 cycles.
 Integral accuracy reduced to 1.0D-05 until final iterations.

 Cycle   1  Pass 0  IDiag  1:
 FoFJK:  IHMeth= 1 ICntrl=       0 DoSepK=F KAlg= 0 I1Cent=           0 FoldK=F
 IRaf= 930000000 NMat=       1 IRICut=       1 DoRegI=T DoRafI=F ISym2E= 0 IDoP0=0 IntGTp=1.
 FoFCou: FMM=F IPFlag=           0 FMFlag=      100000 FMFlg1=           0
         NFxFlg=           0 DoJE=F BraDBF=F KetDBF=F FulRan=T
         wScrn=  0.000000 ICntrl=         0 IOpCl=  0 I1Cent=           0 NGrid=           0
         NMat0=    1 NMatS0=      1 NMatT0=    0 NMatD0=    1 NMtDS0=    0 NMtDT0=    0
 Symmetry not used in FoFCou.
 E= -2858.74685058077    
 DIIS: error= 3.61D-03 at cycle   1 NSaved=   1.
 NSaved= 1 IEnMin= 1 EnMin= -2858.74685058077     IErMin= 1 ErrMin= 3.61D-03
 ErrMax= 3.61D-03  0.00D+00 EMaxC= 1.00D-01 BMatC= 2.03D-03 BMatP= 2.03D-03
 IDIUse=3 WtCom= 9.64D-01 WtEn= 3.61D-02
 Coeff-Com:  0.100D+01
 Coeff-En:   0.100D+01
 Coeff:      0.100D+01
 Gap=     1.703 Goal=   None    Shift=    0.000
 GapD=    1.703 DampG=2.000 DampE=1.000 DampFc=2.0000 IDamp=-1.
 RMSDP=3.07D-04 MaxDP=6.15D-03              OVMax= 8.08D-03

 Cycle   2  Pass 0  IDiag  1:
 RMSU=  3.06D-04    CP:  1.00D+00
 E= -2858.74736030112     Delta-E=       -0.000509720353 Rises=F Damp=F
 DIIS: error= 5.46D-04 at cycle   2 NSaved=   2.
 NSaved= 2 IEnMin= 2 EnMin= -2858.74736030112     IErMin= 2 ErrMin= 5.46D-04
 ErrMax= 5.46D-04  0.00D+00 EMaxC= 1.00D-01 BMatC= 6.96D-05 BMatP= 2.03D-03
 IDIUse=3 WtCom= 9.95D-01 WtEn= 5.46D-03
 Coeff-Com:  0.529D-01 0.947D+00
 Coeff-En:   0.000D+00 0.100D+01
 Coeff:      0.526D-01 0.947D+00
 Gap=     0.217 Goal=   None    Shift=    0.000
 RMSDP=1.48D-04 MaxDP=3.57D-03 DE=-5.10D-04 OVMax= 4.62D-03

 Cycle   3  Pass 0  IDiag  1:
 RMSU=  1.47D-04    CP:  1.00D+00  1.04D+00
 E= -2858.74728937299     Delta-E=        0.000070928127 Rises=F Damp=F
 DIIS: error= 6.72D-04 at cycle   3 NSaved=   3.
 NSaved= 3 IEnMin= 2 EnMin= -2858.74736030112     IErMin= 2 ErrMin= 5.46D-04
 ErrMax= 6.72D-04  0.00D+00 EMaxC= 1.00D-01 BMatC= 1.33D-04 BMatP= 6.96D-05
 IDIUse=3 WtCom= 2.78D-01 WtEn= 7.22D-01
 Coeff-Com:  0.654D-03 0.583D+00 0.416D+00
 Coeff-En:   0.000D+00 0.639D+00 0.361D+00
 Coeff:      0.182D-03 0.623D+00 0.377D+00
 Gap=     0.218 Goal=   None    Shift=    0.000
 RMSDP=8.21D-05 MaxDP=2.11D-03 DE= 7.09D-05 OVMax= 3.15D-03

 Cycle   4  Pass 0  IDiag  1:
 RMSU=  2.91D-05    CP:  1.00D+00  1.04D+00  4.79D-01
 E= -2858.74743321951     Delta-E=       -0.000143846513 Rises=F Damp=F
 DIIS: error= 1.41D-04 at cycle   4 NSaved=   4.
 NSaved= 4 IEnMin= 4 EnMin= -2858.74743321951     IErMin= 4 ErrMin= 1.41D-04
 ErrMax= 1.41D-04  0.00D+00 EMaxC= 1.00D-01 BMatC= 3.97D-06 BMatP= 6.96D-05
 IDIUse=3 WtCom= 9.99D-01 WtEn= 1.41D-03
 Coeff-Com: -0.216D-02 0.310D+00 0.211D+00 0.482D+00
 Coeff-En:   0.000D+00 0.000D+00 0.000D+00 0.100D+01
 Coeff:     -0.216D-02 0.309D+00 0.210D+00 0.482D+00
 Gap=     0.218 Goal=   None    Shift=    0.000
 RMSDP=1.65D-05 MaxDP=3.73D-04 DE=-1.44D-04 OVMax= 8.92D-04

 Cycle   5  Pass 0  IDiag  1:
 RMSU=  1.03D-05    CP:  1.00D+00  1.04D+00  4.32D-01  6.26D-01
 E= -2858.74743733052     Delta-E=       -0.000004111016 Rises=F Damp=F
 DIIS: error= 2.90D-05 at cycle   5 NSaved=   5.
 NSaved= 5 IEnMin= 5 EnMin= -2858.74743733052     IErMin= 5 ErrMin= 2.90D-05
 ErrMax= 2.90D-05  0.00D+00 EMaxC= 1.00D-01 BMatC= 2.07D-07 BMatP= 3.97D-06
 IDIUse=1 WtCom= 1.00D+00 WtEn= 0.00D+00
 Coeff-Com: -0.953D-03 0.725D-01 0.523D-01 0.213D+00 0.664D+00
 Coeff:     -0.953D-03 0.725D-01 0.523D-01 0.213D+00 0.664D+00
 Gap=     0.218 Goal=   None    Shift=    0.000
 RMSDP=4.71D-06 MaxDP=1.32D-04 DE=-4.11D-06 OVMax= 2.57D-04

 Initial convergence to 1.0D-05 achieved.  Increase integral accuracy.
 Cycle   6  Pass 1  IDiag  1:
 E= -2858.74745367472     Delta-E=       -0.000016344195 Rises=F Damp=F
 DIIS: error= 2.75D-05 at cycle   1 NSaved=   1.
 NSaved= 1 IEnMin= 1 EnMin= -2858.74745367472     IErMin= 1 ErrMin= 2.75D-05
 ErrMax= 2.75D-05  0.00D+00 EMaxC= 1.00D-01 BMatC= 1.06D-07 BMatP= 1.06D-07
 IDIUse=1 WtCom= 1.00D+00 WtEn= 0.00D+00
 Coeff-Com:  0.100D+01
 Coeff:      0.100D+01
 Gap=     0.218 Goal=   None    Shift=    0.000
 RMSDP=4.71D-06 MaxDP=1.32D-04 DE=-1.63D-05 OVMax= 1.38D-04

 Cycle   7  Pass 1  IDiag  1:
 RMSU=  7.57D-06    CP:  1.00D+00
 E= -2858.74745369126     Delta-E=       -0.000000016539 Rises=F Damp=F
 DIIS: error= 1.94D-05 at cycle   2 NSaved=   2.
 NSaved= 2 IEnMin= 2 EnMin= -2858.74745369126     IErMin= 2 ErrMin= 1.94D-05
 ErrMax= 1.94D-05  0.00D+00 EMaxC= 1.00D-01 BMatC= 5.01D-08 BMatP= 1.06D-07
 IDIUse=1 WtCom= 1.00D+00 WtEn= 0.00D+00
 Coeff-Com:  0.370D+00 0.630D+00
 Coeff:      0.370D+00 0.630D+00
 Gap=     0.218 Goal=   None    Shift=    0.000
 RMSDP=2.56D-06 MaxDP=7.42D-05 DE=-1.65D-08 OVMax= 1.56D-04

 Cycle   8  Pass 1  IDiag  1:
 RMSU=  2.48D-06    CP:  1.00D+00  9.19D-01
 E= -2858.74745370980     Delta-E=       -0.000000018547 Rises=F Damp=F
 DIIS: error= 1.77D-05 at cycle   3 NSaved=   3.
 NSaved= 3 IEnMin= 3 EnMin= -2858.74745370980     IErMin= 3 ErrMin= 1.77D-05
 ErrMax= 1.77D-05  0.00D+00 EMaxC= 1.00D-01 BMatC= 3.21D-08 BMatP= 5.01D-08
 IDIUse=1 WtCom= 1.00D+00 WtEn= 0.00D+00
 Coeff-Com:  0.307D-01 0.439D+00 0.530D+00
 Coeff:      0.307D-01 0.439D+00 0.530D+00
 Gap=     0.218 Goal=   None    Shift=    0.000
 RMSDP=1.25D-06 MaxDP=3.81D-05 DE=-1.85D-08 OVMax= 8.37D-05

 Cycle   9  Pass 1  IDiag  1:
 RMSU=  5.76D-07    CP:  1.00D+00  9.55D-01  5.66D-01
 E= -2858.74745374072     Delta-E=       -0.000000030918 Rises=F Damp=F
 DIIS: error= 3.26D-06 at cycle   4 NSaved=   4.
 NSaved= 4 IEnMin= 4 EnMin= -2858.74745374072     IErMin= 4 ErrMin= 3.26D-06
 ErrMax= 3.26D-06  0.00D+00 EMaxC= 1.00D-01 BMatC= 1.99D-09 BMatP= 3.21D-08
 IDIUse=1 WtCom= 1.00D+00 WtEn= 0.00D+00
 Coeff-Com: -0.456D-03 0.235D+00 0.323D+00 0.442D+00
 Coeff:     -0.456D-03 0.235D+00 0.323D+00 0.442D+00
 Gap=     0.218 Goal=   None    Shift=    0.000
 RMSDP=3.30D-07 MaxDP=1.06D-05 DE=-3.09D-08 OVMax= 1.43D-05

 Cycle  10  Pass 1  IDiag  1:
 RMSU=  1.17D-07    CP:  1.00D+00  9.61D-01  5.93D-01  4.86D-01
 E= -2858.74745374275     Delta-E=       -0.000000002025 Rises=F Damp=F
 DIIS: error= 5.16D-07 at cycle   5 NSaved=   5.
 NSaved= 5 IEnMin= 5 EnMin= -2858.74745374275     IErMin= 5 ErrMin= 5.16D-07
 ErrMax= 5.16D-07  0.00D+00 EMaxC= 1.00D-01 BMatC= 6.92D-11 BMatP= 1.99D-09
 IDIUse=1 WtCom= 1.00D+00 WtEn= 0.00D+00
 Coeff-Com: -0.165D-02 0.115D+00 0.161D+00 0.254D+00 0.472D+00
 Coeff:     -0.165D-02 0.115D+00 0.161D+00 0.254D+00 0.472D+00
 Gap=     0.218 Goal=   None    Shift=    0.000
 RMSDP=5.93D-08 MaxDP=2.00D-06 DE=-2.03D-09 OVMax= 3.24D-06

 Cycle  11  Pass 1  IDiag  1:
 RMSU=  3.07D-08    CP:  1.00D+00  9.62D-01  5.87D-01  4.96D-01  5.99D-01
 E= -2858.74745374282     Delta-E=       -0.000000000076 Rises=F Damp=F
 DIIS: error= 7.16D-08 at cycle   6 NSaved=   6.
 NSaved= 6 IEnMin= 6 EnMin= -2858.74745374282     IErMin= 6 ErrMin= 7.16D-08
 ErrMax= 7.16D-08  0.00D+00 EMaxC= 1.00D-01 BMatC= 1.27D-12 BMatP= 6.92D-11
 IDIUse=1 WtCom= 1.00D+00 WtEn= 0.00D+00
 Coeff-Com: -0.680D-03 0.392D-01 0.554D-01 0.898D-01 0.198D+00 0.619D+00
 Coeff:     -0.680D-03 0.392D-01 0.554D-01 0.898D-01 0.198D+00 0.619D+00
 Gap=     0.218 Goal=   None    Shift=    0.000
 RMSDP=1.04D-08 MaxDP=2.62D-07 DE=-7.64D-11 OVMax= 5.85D-07

 Cycle  12  Pass 1  IDiag  1:
 RMSU=  1.00D-08    CP:  1.00D+00  9.62D-01  5.88D-01  4.97D-01  6.03D-01
                    CP:  9.27D-01
 E= -2858.74745374281     Delta-E=        0.000000000009 Rises=F Damp=F
 DIIS: error= 3.05D-08 at cycle   7 NSaved=   7.
 NSaved= 7 IEnMin= 6 EnMin= -2858.74745374282     IErMin= 7 ErrMin= 3.05D-08
 ErrMax= 3.05D-08  0.00D+00 EMaxC= 1.00D-01 BMatC= 2.12D-13 BMatP= 1.27D-12
 IDIUse=1 WtCom= 1.00D+00 WtEn= 0.00D+00
 Coeff-Com: -0.158D-04-0.267D-02-0.358D-02-0.409D-02 0.421D-02 0.291D+00
 Coeff-Com:  0.715D+00
 Coeff:     -0.158D-04-0.267D-02-0.358D-02-0.409D-02 0.421D-02 0.291D+00
 Coeff:      0.715D+00
 Gap=     0.218 Goal=   None    Shift=    0.000
 RMSDP=4.42D-09 MaxDP=7.93D-08 DE= 9.09D-12 OVMax= 2.50D-07

 SCF Done:  E(RB3LYP) =  -2858.74745374     A.U. after   12 cycles
            NFock= 12  Conv=0.44D-08     -V/T= 2.0065
 KE= 2.840233549003D+03 PE=-7.887934792447D+03 EE= 1.644432776149D+03
 Leave Link  502 at Tue Sep 17 09:52:00 2024, MaxMem=  1342177280 cpu:              43.0 elap:               5.9
 (Enter /groups/ReismanLab/Software/Gaussian16_RevC/Linux_Binary_AVX2-enabled-CPU/g16/l508.exe)
 QCSCF skips out because SCF is already converged.
 Leave Link  508 at Tue Sep 17 09:52:00 2024, MaxMem=  1342177280 cpu:               0.0 elap:               0.0
 (Enter /groups/ReismanLab/Software/Gaussian16_RevC/Linux_Binary_AVX2-enabled-CPU/g16/l701.exe)
 ... and contract with generalized density number  0.
 Compute integral first derivatives.
 R6Disp: Adding Grimme-D3(BJ) dispersion energy 1st derivatives to the gradient.
 Leave Link  701 at Tue Sep 17 09:52:00 2024, MaxMem=  1342177280 cpu:               0.6 elap:               0.1
 (Enter /groups/ReismanLab/Software/Gaussian16_RevC/Linux_Binary_AVX2-enabled-CPU/g16/l702.exe)
 L702 exits ... SP integral derivatives will be done elsewhere.
 Leave Link  702 at Tue Sep 17 09:52:00 2024, MaxMem=  1342177280 cpu:               0.0 elap:               0.0
 (Enter /groups/ReismanLab/Software/Gaussian16_RevC/Linux_Binary_AVX2-enabled-CPU/g16/l703.exe)
 Integral derivatives from FoFJK, PRISM(SPDF).
 Compute integral first derivatives, UseDBF=F ICtDFT=           0.
 Calling FoFJK, ICntrl=      2127 FMM=F ISym2X=0 I1Cent= 0 IOpClX= 0 NMat=1 NMatS=1 NMatT=0.
 FoFJK:  IHMeth= 1 ICntrl=    2127 DoSepK=F KAlg= 0 I1Cent=           0 FoldK=F
 IRaf=         0 NMat=       1 IRICut=       1 DoRegI=T DoRafI=F ISym2E= 0 IDoP0=0 IntGTp=1.
 FoFCou: FMM=F IPFlag=           0 FMFlag=      100000 FMFlg1=         800
         NFxFlg=           0 DoJE=F BraDBF=F KetDBF=F FulRan=T
         wScrn=  0.000000 ICntrl=      2127 IOpCl=  0 I1Cent=           0 NGrid=           0
         NMat0=    1 NMatS0=      1 NMatT0=    0 NMatD0=    1 NMtDS0=    0 NMtDT0=    0
 Symmetry not used in FoFCou.
 Leave Link  703 at Tue Sep 17 09:52:02 2024, MaxMem=  1342177280 cpu:              13.8 elap:               1.8
 (Enter /groups/ReismanLab/Software/Gaussian16_RevC/Linux_Binary_AVX2-enabled-CPU/g16/l716.exe)
 Dipole        = 1.01483545D+00 8.29993739D-01 1.08534241D-04
 ***** Axes restored to original set *****
 -------------------------------------------------------------------
 Center     Atomic                   Forces (Hartrees/Bohr)
 Number     Number              X              Y              Z
 -------------------------------------------------------------------
      1        6           0.000626124    0.000607896   -0.000001495
      2        6          -0.001082027   -0.000697676   -0.000001102
      3        6          -0.000871974   -0.000194888    0.000006258
      4        6          -0.001175443    0.000522255   -0.000002426
      5        6           0.002015389   -0.002026574    0.000004843
      6        7          -0.004066981   -0.000552035   -0.000000310
      7        6           0.004198009    0.002381377   -0.000007133
      8       35           0.001156909   -0.000195065    0.000001960
      9        1           0.000003757    0.000117544   -0.000022439
     10        1           0.000269375    0.000177530   -0.000002673
     11        1           0.000006876    0.000115586    0.000026547
     12        1          -0.000221826   -0.000051998   -0.000000970
     13        1          -0.000340401    0.000142814    0.000001379
     14        1          -0.000517788   -0.000346766   -0.000002438
 -------------------------------------------------------------------
 Cartesian Forces:  Max     0.004198009 RMS     0.001147104
 Leave Link  716 at Tue Sep 17 09:52:02 2024, MaxMem=  1342177280 cpu:               0.0 elap:               0.0
 (Enter /groups/ReismanLab/Software/Gaussian16_RevC/Linux_Binary_AVX2-enabled-CPU/g16/l103.exe)

 GradGradGradGradGradGradGradGradGradGradGradGradGradGradGradGradGradGrad
 Berny optimization.
 Using GEDIIS/GDIIS optimizer.
 FormGI is forming the generalized inverse of G from B-inverse, IUseBI=4.
 Internal  Forces:  Max     0.003124189 RMS     0.000775929
 Search for a local minimum.
 Step number   2 out of a maximum of   72
 All quantities printed in internal units (Hartrees-Bohrs-Radians)
 RMS Force = .77593D-03 SwitMx=.10000D-02 MixMth= 2
 Mixed Optimization -- En-DIIS/RFO-DIIS
 Update second derivatives using D2CorX and points    1    2
 DE= -1.18D-03 DEPred=-1.30D-03 R= 9.07D-01
 TightC=F SS=  1.41D+00  RLast= 8.75D-02 DXNew= 5.0454D-01 2.6259D-01
 Trust test= 9.07D-01 RLast= 8.75D-02 DXMaxT set to 3.00D-01
 ITU=  1  0
 Use linear search instead of GDIIS.
     Eigenvalues ---    0.00888   0.01634   0.02210   0.02240   0.02275
     Eigenvalues ---    0.02305   0.02382   0.02439   0.02683   0.07257
     Eigenvalues ---    0.07375   0.15907   0.16000   0.16000   0.16000
     Eigenvalues ---    0.16000   0.16134   0.18287   0.22052   0.23021
     Eigenvalues ---    0.23898   0.24996   0.25517   0.33916   0.34822
     Eigenvalues ---    0.34827   0.35158   0.35884   0.36032   0.36372
     Eigenvalues ---    0.43461   0.45581   0.47194   0.49089   0.58248
     Eigenvalues ---    0.66542
 RFO step:  Lambda=-8.71094140D-05 EMin= 8.87678272D-03
 Quartic linear search produced a step of -0.06972.
 Iteration  1 RMS(Cart)=  0.00335707 RMS(Int)=  0.00000598
 Iteration  2 RMS(Cart)=  0.00000848 RMS(Int)=  0.00000187
 Iteration  3 RMS(Cart)=  0.00000000 RMS(Int)=  0.00000187
 ITry= 1 IFail=0 DXMaxC= 1.27D-02 DCOld= 1.00D+10 DXMaxT= 3.00D-01 DXLimC= 3.00D+00 Rises=F
 Variable       Old X    -DE/DX   Delta X   Delta X   Delta X     New X
                                 (Linear)    (Quad)   (Total)
    R1        2.84169  -0.00132  -0.00171  -0.00120  -0.00291   2.83879
    R2        2.06829   0.00000  -0.00061   0.00090   0.00029   2.06858
    R3        2.06451   0.00005  -0.00074   0.00120   0.00046   2.06497
    R4        2.06825   0.00001  -0.00060   0.00089   0.00029   2.06854
    R5        2.64362  -0.00194  -0.00119  -0.00209  -0.00327   2.64034
    R6        2.65725  -0.00083  -0.00146   0.00033  -0.00112   2.65613
    R7        2.63508  -0.00064  -0.00096   0.00028  -0.00068   2.63440
    R8        2.05314  -0.00008  -0.00075   0.00088   0.00013   2.05327
    R9        2.63249  -0.00121  -0.00110  -0.00061  -0.00171   2.63078
   R10        2.05026  -0.00033  -0.00088   0.00045  -0.00043   2.04983
   R11        2.52900   0.00069  -0.00220   0.00429   0.00209   2.53109
   R12        2.05533  -0.00052  -0.00090  -0.00003  -0.00093   2.05440
   R13        2.49220  -0.00312  -0.00126  -0.00273  -0.00399   2.48821
   R14        3.64426  -0.00115  -0.00299  -0.00170  -0.00469   3.63957
    A1        1.93599  -0.00006  -0.00075   0.00075   0.00000   1.93600
    A2        1.93713  -0.00041  -0.00027  -0.00211  -0.00238   1.93476
    A3        1.93602  -0.00006  -0.00074   0.00074  -0.00000   1.93602
    A4        1.89598   0.00023   0.00049   0.00056   0.00105   1.89703
    A5        1.86037   0.00010   0.00086  -0.00043   0.00044   1.86081
    A6        1.89605   0.00023   0.00048   0.00057   0.00105   1.89710
    A7        2.13469  -0.00051   0.00040  -0.00234  -0.00194   2.13275
    A8        2.13903   0.00082  -0.00045   0.00385   0.00340   2.14243
    A9        2.00947  -0.00031   0.00005  -0.00151  -0.00146   2.00800
   A10        2.10679  -0.00071  -0.00040  -0.00222  -0.00263   2.10416
   A11        2.07749   0.00014   0.00034  -0.00036  -0.00002   2.07748
   A12        2.09890   0.00058   0.00006   0.00258   0.00264   2.10155
   A13        2.06156   0.00029   0.00028   0.00134   0.00161   2.06317
   A14        2.11344   0.00003  -0.00024   0.00051   0.00027   2.11372
   A15        2.10818  -0.00032  -0.00004  -0.00185  -0.00188   2.10630
   A16        2.13734   0.00066  -0.00029   0.00345   0.00316   2.14050
   A17        2.11572   0.00002   0.00126  -0.00125   0.00001   2.11573
   A18        2.03013  -0.00068  -0.00097  -0.00220  -0.00317   2.02696
   A19        2.06308  -0.00229   0.00041  -0.00946  -0.00905   2.05403
   A20        2.18814   0.00237  -0.00005   0.00841   0.00837   2.19651
   A21        2.07245  -0.00159   0.00141  -0.00772  -0.00631   2.06614
   A22        2.02259  -0.00078  -0.00136  -0.00069  -0.00206   2.02054
    D1       -2.10786   0.00002   0.00009  -0.00009  -0.00000  -2.10787
    D2        1.03362   0.00002   0.00008  -0.00006   0.00002   1.03364
    D3        0.00165  -0.00000   0.00002  -0.00030  -0.00028   0.00137
    D4       -3.14005  -0.00000   0.00002  -0.00027  -0.00025  -3.14031
    D5        2.11127  -0.00003  -0.00004  -0.00051  -0.00055   2.11073
    D6       -1.03043  -0.00003  -0.00005  -0.00048  -0.00052  -1.03095
    D7        3.14153   0.00000  -0.00000   0.00002   0.00002   3.14155
    D8       -0.00011   0.00000   0.00000   0.00003   0.00004  -0.00007
    D9        0.00005  -0.00000   0.00000  -0.00001  -0.00001   0.00004
   D10        3.14159   0.00000   0.00001   0.00000   0.00001  -3.14158
   D11       -3.14157  -0.00000  -0.00001  -0.00002  -0.00003   3.14159
   D12       -0.00008   0.00000   0.00000   0.00006   0.00006  -0.00002
   D13       -0.00008  -0.00000  -0.00001   0.00001  -0.00000  -0.00009
   D14        3.14141   0.00000  -0.00000   0.00009   0.00009   3.14149
   D15        0.00001   0.00000   0.00001   0.00001   0.00002   0.00002
   D16       -3.14158  -0.00000   0.00001  -0.00001  -0.00000  -3.14158
   D17       -3.14154  -0.00000   0.00000  -0.00000  -0.00000  -3.14154
   D18        0.00006  -0.00000   0.00000  -0.00003  -0.00002   0.00004
   D19       -0.00004  -0.00000  -0.00001  -0.00001  -0.00002  -0.00005
   D20        3.14150   0.00000  -0.00000   0.00005   0.00005   3.14155
   D21        3.14155  -0.00000  -0.00001   0.00001   0.00000   3.14155
   D22       -0.00010   0.00000  -0.00001   0.00007   0.00007  -0.00003
   D23        0.00001   0.00000   0.00000   0.00001   0.00001   0.00001
   D24       -3.14154  -0.00000  -0.00000  -0.00005  -0.00005  -3.14159
   D25        0.00006   0.00000   0.00001  -0.00000   0.00000   0.00006
   D26       -3.14143  -0.00000  -0.00000  -0.00008  -0.00009  -3.14152
         Item               Value     Threshold  Converged?
 Maximum Force            0.003124     0.000450     NO 
 RMS     Force            0.000776     0.000300     NO 
 Maximum Displacement     0.012696     0.001800     NO 
 RMS     Displacement     0.003360     0.001200     NO 
 Predicted change in Energy=-5.003908D-05
 Lowest energy point so far.  Saving SCF results.
 GradGradGradGradGradGradGradGradGradGradGradGradGradGradGradGradGradGrad

[...]
          Electric field/nuclear overlap derivatives assumed to be zero.
          Requested convergence is 1.0D-08 RMS, and 1.0D-07 maximum.
          Secondary convergence is 1.0D-12 RMS, and 1.0D-12 maximum.
          NewPWx=T KeepS1=F KeepF1=F KeepIn=T MapXYZ=F SortEE=F KeepMc=T.
         4187 words used for storage of precomputed grid.
 Keep R3 ints in memory in canonical form, NReq=1053281088.
 FoFCou: FMM=F IPFlag=           0 FMFlag=           0 FMFlg1=           0
         NFxFlg=           0 DoJE=F BraDBF=F KetDBF=F FulRan=T
         wScrn=  0.000000 ICntrl=       600 IOpCl=  0 I1Cent=           0 NGrid=           0
         NMat0=    1 NMatS0=  45451 NMatT0=    0 NMatD0=    1 NMtDS0=    0 NMtDT0=    0
 Symmetry not used in FoFCou.
 Two-electron integral symmetry not used.
          MDV=    1342177280 using IRadAn=       1.
          Solving linear equations simultaneously, MaxMat=       0.
   1 Symmetry operations used in ECPInt.
 ECPInt:  NShTT=    6903 NPrTT=   23458 LenC2=    6904 LenP2D=   23458.
 LDataN:  DoStor=T MaxTD1= 7 Len=  274
 FoFJK:  IHMeth= 1 ICntrl=    6127 DoSepK=F KAlg= 0 I1Cent=           0 FoldK=F
 IRaf=         1 NMat=       1 IRICut=       1 DoRegI=T DoRafI=F ISym2E= 0 IDoP0=0 IntGTp=1.
          There are     3 degrees of freedom in the 1st order CPHF.  IDoFFX=0 NUNeed=     3.
      3 vectors produced by pass  0 Test12= 3.63D-13 3.33D-08 XBig12= 8.34D+00 8.97D-01.
 AX will form     3 AO Fock derivatives at one time.
      3 vectors produced by pass  1 Test12= 3.63D-13 3.33D-08 XBig12= 7.10D-02 1.27D-01.
      3 vectors produced by pass  2 Test12= 3.63D-13 3.33D-08 XBig12= 1.08D-03 1.47D-02.
      3 vectors produced by pass  3 Test12= 3.63D-13 3.33D-08 XBig12= 1.41D-05 1.03D-03.
      3 vectors produced by pass  4 Test12= 3.63D-13 3.33D-08 XBig12= 1.89D-07 1.30D-04.
      3 vectors produced by pass  5 Test12= 3.63D-13 3.33D-08 XBig12= 2.15D-09 2.09D-05.
      3 vectors produced by pass  6 Test12= 3.63D-13 3.33D-08 XBig12= 1.95D-11 1.66D-06.
      3 vectors produced by pass  7 Test12= 3.63D-13 3.33D-08 XBig12= 2.69D-13 2.19D-07.
 InvSVY:  IOpt=1 It=  1 EMax= 8.88D-16
 Solved reduced A of dimension    24 with     3 vectors.
 Calculating GIAO nuclear magnetic shielding tensors.
 SCF GIAO Magnetic shielding tensor (ppm):
      1  C    Isotropic =   162.0748   Anisotropy =    29.8523
   XX=   163.0364   YX=    -3.3222   ZX=     0.0076
   XY=    -5.5527   YY=   180.9367   ZY=    -0.0159
   XZ=    -0.0054   YZ=    -0.0005   ZZ=   142.2513
   Eigenvalues:   142.2513   161.9967   181.9763
      2  C    Isotropic =    24.8394   Anisotropy =   205.3759
   XX=    -3.9254   YX=    21.4047   ZX=     0.0011
   XY=    37.9169   YY=   -83.3131   ZY=     0.0120
   XZ=     0.0091   YZ=     0.0027   ZZ=   161.7566
   Eigenvalues:   -93.1709     5.9324   161.7566
      3  C    Isotropic =    22.2674   Anisotropy =   212.5016
   XX=   -22.6817   YX=   -49.9092   ZX=     0.0015
   XY=   -48.4066   YY=   -74.4512   ZY=     0.0080
   XZ=     0.0220   YZ=    -0.0124   ZZ=   163.9352
   Eigenvalues:  -104.1229     6.9900   163.9352
      4  C    Isotropic =    41.5098   Anisotropy =   203.9753
   XX=   -89.7041   YX=    10.0199   ZX=    -0.0028
   XY=    -7.8362   YY=    36.7403   ZY=     0.0039
   XZ=     0.0017   YZ=     0.0049   ZZ=   177.4933
   Eigenvalues:   -89.7136    36.7497   177.4933
      5  C    Isotropic =    14.1841   Anisotropy =   193.9276
   XX=   -37.0087   YX=    68.3237   ZX=    -0.0024
   XY=    46.7368   YY=   -63.9082   ZY=     0.0045
   XZ=    -0.0071   YZ=     0.0137   ZZ=   143.4692
   Eigenvalues:  -109.5400     8.6230   143.4692
      6  N    Isotropic =  -138.2230   Anisotropy =   567.9488
   XX=  -370.1354   YX=   105.2343   ZX=     0.0037
   XY=   101.0955   YY=  -284.9431   ZY=     0.0155
   XZ=     0.0035   YZ=     0.0328   ZZ=   240.4096
   Eigenvalues:  -439.1521  -215.9264   240.4096
      7  C    Isotropic =     1.0012   Anisotropy =    98.7381
   XX=  -103.3219   YX=   -22.4129   ZX=     0.0133
   XY=    28.2283   YY=    39.4989   ZY=    -0.0055
   XZ=     0.0136   YZ=    -0.0230   ZZ=    66.8266
   Eigenvalues:  -103.3811    39.5581    66.8266
      8  Br   Isotropic =  1984.9665   Anisotropy =  1260.3324
   XX=  2815.9179   YX=   123.1219   ZX=    -0.1766
   XY=    97.0657   YY=  1517.7030   ZY=    -0.0104
   XZ=     0.1085   YZ=     0.0888   ZZ=  1621.2786
   Eigenvalues:  1508.4328  1621.2786  2825.1881
      9  H    Isotropic =    29.3049   Anisotropy =     6.3908
   XX=    29.2808   YX=     1.1447   ZX=    -3.0219
   XY=    -0.3368   YY=    30.2097   ZY=     2.3750
   XZ=    -4.2683   YZ=     3.5157   ZZ=    28.4240
   Eigenvalues:    24.1236    30.2256    33.5654
     10  H    Isotropic =    29.6010   Anisotropy =     9.1588
   XX=    30.9666   YX=     2.3959   ZX=    -0.0041
   XY=     4.0212   YY=    33.5351   ZY=    -0.0065
   XZ=    -0.0042   YZ=    -0.0088   ZZ=    24.3013
   Eigenvalues:    24.3013    28.7949    35.7069
     11  H    Isotropic =    29.3041   Anisotropy =     6.3800
   XX=    29.2905   YX=     1.1538   ZX=     3.0253
   XY=    -0.3334   YY=    30.2123   ZY=    -2.3714
   XZ=     4.2715   YZ=    -3.5091   ZZ=    28.4095
   Eigenvalues:    24.1167    30.2382    33.5574
     12  H    Isotropic =    23.4318   Anisotropy =     8.3772
   XX=    27.2369   YX=    -2.8980   ZX=    -0.0001
   XY=    -3.8358   YY=    22.6469   ZY=    -0.0002
   XZ=    -0.0011   YZ=    -0.0009   ZZ=    20.4117
   Eigenvalues:    20.4117    20.8672    29.0166
     13  H    Isotropic =    23.9209   Anisotropy =     5.9381
   XX=    22.1379   YX=    -0.1772   ZX=    -0.0000
   XY=    -0.9721   YY=    27.8222   ZY=    -0.0003
   XZ=     0.0005   YZ=    -0.0005   ZZ=    21.8027
   Eigenvalues:    21.8027    22.0804    27.8797
     14  H    Isotropic =    22.6999   Anisotropy =     6.5403
   XX=    25.2389   YX=     2.3517   ZX=    -0.0000
   XY=     2.6738   YY=    23.5931   ZY=    -0.0003
   XZ=    -0.0005   YZ=     0.0005   ZZ=    19.2676
   Eigenvalues:    19.2676    21.7719    27.0601
 End of Minotr F.D. properties file   721 does not exist.
 End of Minotr F.D. properties file   722 does not exist.
 End of Minotr F.D. properties file   788 does not exist.
 Leave Link 1002 at Tue Sep 17 10:03:31 2024, MaxMem=  1342177280 cpu:             171.7 elap:             172.0
 (Enter /groups/ReismanLab/Software/Gaussian16_RevC/Linux_Binary_AVX2-enabled-CPU/g16/l601.exe)
 Copying SCF densities to generalized density rwf, IOpCl= 0 IROHF=0.

 **********************************************************************

            Population analysis using the SCF Density.

 **********************************************************************

 Orbital symmetries:
       Occupied  (A) (A) (A) (A) (A) (A) (A) (A) (A) (A) (A) (A)
                 (A) (A) (A) (A) (A) (A) (A) (A) (A) (A) (A) (A)
                 (A) (A) (A) (A) (A) (A) (A) (A) (A) (A) (A) (A)
                 (A) (A) (A) (A) (A) (A)
       Virtual   (A) (A) (A) (A) (A) (A) (A) (A) (A) (A) (A) (A)
                 (A) (A) (A) (A) (A) (A) (A) (A) (A) (A) (A) (A)
                 (A) (A) (A) (A) (A) (A) (A) (A) (A) (A) (A) (A)
                 (A) (A) (A) (A) (A) (A) (A) (A) (A) (A) (A) (A)
                 (A) (A) (A) (A) (A) (A) (A) (A) (A) (A) (A) (A)
                 (A) (A) (A) (A) (A) (A) (A) (A) (A) (A) (A) (A)
                 (A) (A) (A) (A) (A) (A) (A) (A) (A) (A) (A) (A)
                 (A) (A) (A) (A) (A) (A) (A) (A) (A) (A) (A) (A)
                 (A) (A) (A) (A) (A) (A) (A) (A) (A) (A) (A) (A)
                 (A) (A) (A) (A) (A) (A) (A) (A) (A) (A) (A) (A)
                 (A) (A) (A) (A) (A) (A) (A) (A) (A) (A) (A) (A)
                 (A) (A) (A) (A) (A) (A) (A) (A) (A) (A) (A) (A)
                 (A) (A) (A) (A) (A) (A) (A) (A) (A) (A) (A) (A)
                 (A) (A) (A) (A) (A) (A) (A) (A) (A) (A) (A) (A)
                 (A) (A) (A) (A) (A) (A) (A) (A) (A) (A) (A) (A)
                 (A) (A) (A) (A) (A) (A) (A) (A) (A) (A) (A) (A)
                 (A) (A) (A) (A) (A) (A) (A) (A) (A) (A) (A) (A)
                 (A) (A) (A) (A) (A) (A) (A) (A) (A) (A) (A) (A)
                 (A) (A) (A) (A) (A) (A) (A) (A) (A) (A) (A) (A)
                 (A) (A) (A) (A) (A) (A) (A) (A) (A) (A) (A) (A)
                 (A) (A) (A) (A) (A) (A) (A) (A) (A) (A) (A) (A)
                 (A) (A) (A) (A) (A) (A) (A)
 The electronic state is 1-A.
 Alpha  occ. eigenvalues -- -485.37140 -63.35636 -57.17573 -57.17352 -57.17333
 Alpha  occ. eigenvalues --  -14.76469 -10.63438 -10.58579 -10.57493 -10.56738
 Alpha  occ. eigenvalues --  -10.55697 -10.54062  -9.02283  -6.84666  -6.83847
 Alpha  occ. eigenvalues --   -6.83785  -2.88043  -2.87758  -2.87693  -2.86932
 Alpha  occ. eigenvalues --   -2.86930  -1.07585  -0.92897  -0.90840  -0.84304
 Alpha  occ. eigenvalues --   -0.79523  -0.71310  -0.69854  -0.59147  -0.57533
 Alpha  occ. eigenvalues --   -0.52135  -0.51382  -0.48450  -0.47477  -0.46807
 Alpha  occ. eigenvalues --   -0.46534  -0.42085  -0.38188  -0.35044  -0.34566
 Alpha  occ. eigenvalues --   -0.33902  -0.30486
 Alpha virt. eigenvalues --   -0.00579   0.00530   0.04150   0.07943   0.09674
 Alpha virt. eigenvalues --    0.11548   0.13463   0.14056   0.14347   0.17082
 Alpha virt. eigenvalues --    0.17489   0.17641   0.18736   0.21993   0.22092
 Alpha virt. eigenvalues --    0.24242   0.24768   0.25161   0.26110   0.28754
 Alpha virt. eigenvalues --    0.28830   0.29304   0.30030   0.31342   0.31779
 Alpha virt. eigenvalues --    0.32243   0.33888   0.35155   0.35333   0.35689
 Alpha virt. eigenvalues --    0.37986   0.38495   0.41309   0.41691   0.42137
 Alpha virt. eigenvalues --    0.43675   0.46026   0.46420   0.47221   0.49151
 Alpha virt. eigenvalues --    0.49709   0.49888   0.51489   0.51835   0.53441
 Alpha virt. eigenvalues --    0.55349   0.56141   0.57259   0.59524   0.60026
 Alpha virt. eigenvalues --    0.62304   0.64656   0.66191   0.68493   0.68951
 Alpha virt. eigenvalues --    0.69725   0.71194   0.73675   0.75783   0.76607
 Alpha virt. eigenvalues --    0.78853   0.81294   0.84755   0.86601   0.88134
 Alpha virt. eigenvalues --    0.89021   0.90946   0.95647   0.98414   0.99755
 Alpha virt. eigenvalues --    1.00531   1.04359   1.04752   1.07634   1.09193
 Alpha virt. eigenvalues --    1.13575   1.14813   1.16156   1.18830   1.20727
 Alpha virt. eigenvalues --    1.24040   1.24804   1.27468   1.27850   1.29904
 Alpha virt. eigenvalues --    1.33499   1.34394   1.35515   1.36448   1.40549
 Alpha virt. eigenvalues --    1.42608   1.45059   1.45736   1.47892   1.50767
 Alpha virt. eigenvalues --    1.52268   1.52698   1.54942   1.55568   1.55687
 Alpha virt. eigenvalues --    1.56635   1.57775   1.58743   1.58827   1.60366
 Alpha virt. eigenvalues --    1.61114   1.62821   1.65032   1.65587   1.67595
 Alpha virt. eigenvalues --    1.67803   1.69093   1.70412   1.72550   1.73846
 Alpha virt. eigenvalues --    1.75992   1.78049   1.78264   1.81040   1.84606
 Alpha virt. eigenvalues --    1.87339   1.91467   1.91911   1.94892   1.97337
 Alpha virt. eigenvalues --    1.99157   2.00582   2.01855   2.05499   2.09394
 Alpha virt. eigenvalues --    2.10830   2.15375   2.15915   2.17083   2.21364
 Alpha virt. eigenvalues --    2.25001   2.27278   2.28978   2.31522   2.33582
 Alpha virt. eigenvalues --    2.36591   2.40265   2.45188   2.46543   2.47873
 Alpha virt. eigenvalues --    2.52241   2.53635   2.55917   2.56747   2.57785
 Alpha virt. eigenvalues --    2.61342   2.64516   2.64792   2.69309   2.70557
 Alpha virt. eigenvalues --    2.72998   2.73853   2.74751   2.77972   2.79892
 Alpha virt. eigenvalues --    2.80944   2.81775   2.87728   2.89756   2.90320
 Alpha virt. eigenvalues --    2.93671   2.94512   2.97096   3.00005   3.01410
 Alpha virt. eigenvalues --    3.02847   3.06578   3.06933   3.09836   3.09941
 Alpha virt. eigenvalues --    3.11176   3.11708   3.12779   3.14089   3.18933
 Alpha virt. eigenvalues --    3.19282   3.21135   3.24920   3.25298   3.28506
 Alpha virt. eigenvalues --    3.30223   3.31390   3.32775   3.35753   3.36068
 Alpha virt. eigenvalues --    3.36559   3.38077   3.40188   3.43516   3.44113
 Alpha virt. eigenvalues --    3.49024   3.52452   3.56938   3.59017   3.62642
 Alpha virt. eigenvalues --    3.66491   3.68412   3.69523   3.72837   3.75922
 Alpha virt. eigenvalues --    3.79199   3.82458   3.84004   3.90384   3.92973
 Alpha virt. eigenvalues --    4.00815   4.03692   4.05979   4.06204   4.09621
 Alpha virt. eigenvalues --    4.11169   4.12986   4.13561   4.16824   4.22334
 Alpha virt. eigenvalues --    4.22780   4.27479   4.30102   4.30913   4.34537
 Alpha virt. eigenvalues --    4.36002   4.38922   4.41587   4.47173   4.49936
 Alpha virt. eigenvalues --    4.54842   4.54916   4.61480   4.72771   4.75629
 Alpha virt. eigenvalues --    4.84112   4.84133   4.90044   4.90776   4.98224
 Alpha virt. eigenvalues --    5.06443   5.06819   5.16992   5.19723   5.26156
 Alpha virt. eigenvalues --    5.32731   5.37297   5.48024   5.61577   5.75252
 Alpha virt. eigenvalues --    5.94946   7.82929  22.40263  22.51821  22.72797
 Alpha virt. eigenvalues --   22.84618  22.96069  23.22651  32.54181
          Condensed to atoms (all electrons):
               1          2          3          4          5          6
     1  C    5.109304   0.264210  -0.066306   0.005472  -0.000682   0.005905
     2  C    0.264210   5.186143   0.480582  -0.062274  -0.031834  -0.067058
     3  C   -0.066306   0.480582   4.983778   0.478879  -0.035927  -0.032852
     4  C    0.005472  -0.062274   0.478879   5.001967   0.511185  -0.065214
     5  C   -0.000682  -0.031834  -0.035927   0.511185   4.804189   0.497189
     6  N    0.005905  -0.067058  -0.032852  -0.065214   0.497189   6.462651
     7  C   -0.074488   0.478359  -0.075671  -0.018784  -0.094381   0.534421
     8  Br  -0.008787  -0.118391   0.013964   0.002735  -0.001076  -0.080724
     9  H    0.419894  -0.037131   0.002026  -0.000492   0.000201  -0.000089
    10  H    0.412352  -0.052772  -0.008576   0.000727   0.000193  -0.000392
    11  H    0.419978  -0.037195   0.002074  -0.000495   0.000202  -0.000088
    12  H   -0.005338  -0.034088   0.413709  -0.031438   0.003497  -0.001290
    13  H   -0.000102   0.006478  -0.044015   0.412304  -0.028379   0.006263
    14  H    0.000135  -0.000678   0.003806  -0.059753   0.428643  -0.031388
               7          8          9         10         11         12
     1  C   -0.074488  -0.008787   0.419894   0.412352   0.419978  -0.005338
     2  C    0.478359  -0.118391  -0.037131  -0.052772  -0.037195  -0.034088
     3  C   -0.075671   0.013964   0.002026  -0.008576   0.002074   0.413709
     4  C   -0.018784   0.002735  -0.000492   0.000727  -0.000495  -0.031438
     5  C   -0.094381  -0.001076   0.000201   0.000193   0.000202   0.003497
     6  N    0.534421  -0.080724  -0.000089  -0.000392  -0.000088  -0.001290
     7  C    4.764580   0.356305  -0.013172   0.013538  -0.013206   0.006656
     8  Br   0.356305  34.946511   0.000321   0.001768   0.000324  -0.000345
     9  H   -0.013172   0.000321   0.506423  -0.020955  -0.035165   0.000046
    10  H    0.013538   0.001768  -0.020955   0.524414  -0.020966   0.002137
    11  H   -0.013206   0.000324  -0.035165  -0.020966   0.506445   0.000047
    12  H    0.006656  -0.000345   0.000046   0.002137   0.000047   0.481207
    13  H   -0.000273   0.000127   0.000007  -0.000093   0.000007  -0.003922
    14  H    0.005609  -0.000597  -0.000001  -0.000002  -0.000001  -0.000178
              13         14
     1  C   -0.000102   0.000135
     2  C    0.006478  -0.000678
     3  C   -0.044015   0.003806
     4  C    0.412304  -0.059753
     5  C   -0.028379   0.428643
     6  N    0.006263  -0.031388
     7  C   -0.000273   0.005609
     8  Br   0.000127  -0.000597
     9  H    0.000007  -0.000001
    10  H   -0.000093  -0.000002
    11  H    0.000007  -0.000001
    12  H   -0.003922  -0.000178
    13  H    0.485949  -0.000860
    14  H   -0.000860   0.487649
 Mulliken charges:
               1
     1  C   -0.481547
     2  C    0.025648
     3  C   -0.115471
     4  C   -0.174820
     5  C   -0.053020
     6  N   -0.227333
     7  C    0.130505
     8  Br  -0.112134
     9  H    0.178086
    10  H    0.148627
    11  H    0.178038
    12  H    0.169300
    13  H    0.166507
    14  H    0.167615
 Sum of Mulliken charges =   0.00000
 Mulliken charges with hydrogens summed into heavy atoms:
               1
     1  C    0.023203
     2  C    0.025648
     3  C    0.053828
     4  C   -0.008313
     5  C    0.114595
     6  N   -0.227333
     7  C    0.130505
     8  Br  -0.112134
 Electronic spatial extent (au):  <R**2>=           1406.6917
 Charge=              0.0000 electrons
 Dipole moment (field-independent basis, Debye):
    X=              3.2438    Y=              2.5820    Z=             -0.0000  Tot=              4.1460
 Quadrupole moment (field-independent basis, Debye-Ang):
   XX=            -51.0922   YY=            -57.0264   ZZ=            -61.9244
   XY=             -1.0815   XZ=             -0.0001   YZ=             -0.0001
 Traceless Quadrupole moment (field-independent basis, Debye-Ang):
   XX=              5.5888   YY=             -0.3454   ZZ=             -5.2434
   XY=             -1.0815   XZ=             -0.0001   YZ=             -0.0001
 Octapole moment (field-independent basis, Debye-Ang**2):
  XXX=            -26.7688  YYY=              2.5370  ZZZ=              0.0060  XYY=             -6.4265
  XXY=             -6.1842  XXZ=             -0.0005  XZZ=            -23.6668  YZZ=             -1.8822
  YYZ=              0.0004  XYZ=             -0.0012
 Hexadecapole moment (field-independent basis, Debye-Ang**3):
 XXXX=           -968.6730 YYYY=           -545.7031 ZZZZ=            -77.4011 XXXY=              6.0956
 XXXZ=              0.0161 YYYX=              7.5363 YYYZ=              0.0056 ZZZX=              0.0202
 ZZZY=              0.0167 XXYY=           -248.5939 XXZZ=           -213.5834 YYZZ=           -110.2461
 XXYZ=             -0.0027 YYXZ=              0.0006 ZZXY=              3.2918
 N-N= 5.452316152315D+02 E-N=-7.909659468305D+03  KE= 2.856282792909D+03
 Calculating spin-rotation constants.
 Leave Link  601 at Tue Sep 17 10:03:33 2024, MaxMem=  1342177280 cpu:               1.6 elap:               1.6
 (Enter /groups/ReismanLab/Software/Gaussian16_RevC/Linux_Binary_AVX2-enabled-CPU/g16/l9999.exe)
 Unable to Open any file for archive entry.
 1\1\GINC-HPC-34-05\SP\RM062X\def2TZVP\C6H6Br1N1\MANTIND\17-Sep-2024\0\
 \#p M062X/def2tzvp geom=check guess=read scf(xqc,tight) integral(grid=
 ultrafine) scrf(SMD, solvent=1,4-Dioxane) nmr=giao\\spe\\0,1\C,0,0.289
 0757438,-2.3449730602,0.0000574955\C,0,0.9761546479,-1.0098638148,0.00
 00530031\C,0,2.3680197033,-0.8899475289,0.0000328472\C,0,2.9710093638,
 0.3672328595,-0.0000227321\C,0,2.150838439,1.490608928,-0.0000504158\N
 ,0,0.8128382665,1.409223828,-0.000046822\C,0,0.2747233286,0.2081871169
 ,-0.0000094132\Br,0,-1.6517213376,0.1536773111,-0.0001694459\H,0,-0.35
 51194384,-2.4534424432,-0.8781302662\H,0,1.0199653191,-3.1570748837,0.
 0011141196\H,0,-0.3568013668,-2.4525886984,0.8770916481\H,0,2.97503504
 59,-1.7908951339,0.0000817886\H,0,4.0504436479,0.4718298514,-0.0000325
 06\H,0,2.5687785245,2.4938960997,-0.0000648087\\Version=ES64L-G16RevC.
 02\State=1-A\HF=-2861.1834681\RMSD=1.497e-09\Dipole=1.30852,-0.9738632
 ,0.0000173\Quadrupole=4.0982573,-0.1999372,-3.8983201,0.9455436,0.0001
 041,-0.0000466\PG=C01 [X(C6H6Br1N1)]\\@
 The archive entry for this job was punched.


 LIFE CAN ONLY BE UNDERSTOOD BACKWARD, BUT MUST
 BE LIVED FORWARD. -- KIRKEGAARD
 Job cpu time:       0 days  0 hours  3 minutes 36.5 seconds.
 Elapsed time:       0 days  0 hours  3 minutes 38.2 seconds.
 File lengths (MBytes):  RWF=    184 Int=      0 D2E=      0 Chk=     24 Scr=     16
 Normal termination of Gaussian 16 at Tue Sep 17 10:03:33 2024.
