 Entering Gaussian System, Link 0=g16
 Input=smiles_00091_conf_0.gjf
 Output=smiles_00091_conf_0.log
 Initial command:
 /groups/ReismanLab/Software/Gaussian16_RevC/Linux_Binary_AVX2-enabled-CPU/g16/l1.exe "/central/groups/ReismanLab/DM/dft_final/smiles_00091/Gau-797191.inp" -scrdir="/central/groups/ReismanLab/DM/dft_final/smiles_00091/"
 Entering Link 1 = /groups/ReismanLab/Software/Gaussian16_RevC/Linux_Binary_AVX2-enabled-CPU/g16/l1.exe PID=    797192.
  
 Copyright (c) 1988-2021, Gaussian, Inc.  All Rights Reserved.
  
 This is part of the Gaussian(R) 16 program.  It is based on
 the Gaussian(R) 09 system (copyright 2009, Gaussian, Inc.),
 the Gaussian(R) 03 system (copyright 2003, Gaussian, Inc.),
 the Gaussian(R) 98 system (copyright 1998, Gaussian, Inc.),
 the Gaussian(R) 94 system (copyright 1995, Gaussian, Inc.),
 the Gaussian 92(TM) system (copyright 1992, Gaussian, Inc.),
 the Gaussian 90(TM) system (copyright 1990, Gaussian, Inc.),
 the Gaussian 88(TM) system (copyright 1988, Gaussian, Inc.),
 the Gaussian 86(TM) system (copyright 1986, Carnegie Mellon
 University), and the Gaussian 82(TM) system (copyright 1983,
 Carnegie Mellon University). Gaussian is a federally registered
 trademark of Gaussian, Inc.
  
 This software contains proprietary and confidential information,
 including trade secrets, belonging to Gaussian, Inc.
  
 This software is provided under written license and may be
 used, copied, transmitted, or stored only in accord with that
 written license.
  
 The following legend is applicable only to US Government
 contracts under FAR:
  
                    RESTRICTED RIGHTS LEGEND
  
 Use, reproduction and disclosure by the US Government is
 subject to restrictions as set forth in subparagraphs (a)
 and (c) of the Commercial Computer Software - Restricted
 Rights clause in FAR 52.227-19.
  
 Gaussian, Inc.
 340 Quinnipiac St., Bldg. 40, Wallingford CT 06492
  
  
 ---------------------------------------------------------------
 Warning -- This program may not be used in any manner that
 competes with the business of Gaussian, Inc. or will provide
 assistance to any competitor of Gaussian, Inc.  The licensee
 of this program is prohibited from giving any competitor of
 Gaussian, Inc. access to this program.  By using this program,
 the user acknowledges that Gaussian, Inc. is engaged in the
 business of creating and licensing software in the field of
 computational chemistry and represents and warrants to the
 licensee that it is not a competitor of Gaussian, Inc. and that
 it will not use this program in any manner prohibited above.
 ---------------------------------------------------------------
  

 Cite this work as:
 Gaussian 16, Revision C.02,
 M. J. Frisch, G. W. Trucks, H. B. Schlegel, G. E. Scuseria, 
 M. A. Robb, J. R. Cheeseman, G. Scalmani, V. Barone, 
 G. A. Petersson, H. Nakatsuji, X. Li, M. Caricato, A. V. Marenich, 
 J. Bloino, B. G. Janesko, R. Gomperts, B. Mennucci, H. P. Hratchian, 
 J. V. Ortiz, A. F. Izmaylov, J. L. Sonnenberg, D. Williams-Young, 
 F. Ding, F. Lipparini, F. Egidi, J. Goings, B. Peng, A. Petrone, 
 T. Henderson, D. Ranasinghe, V. G. Zakrzewski, J. Gao, N. Rega, 
 G. Zheng, W. Liang, M. Hada, M. Ehara, K. Toyota, R. Fukuda, 
 J. Hasegawa, M. Ishida, T. Nakajima, Y. Honda, O. Kitao, H. Nakai, 
 T. Vreven, K. Throssell, J. A. Montgomery, Jr., J. E. Peralta, 
 F. Ogliaro, M. J. Bearpark, J. J. Heyd, E. N. Brothers, K. N. Kudin, 
 V. N. Staroverov, T. A. Keith, R. Kobayashi, J. Normand, 
 K. Raghavachari, A. P. Rendell, J. C. Burant, S. S. Iyengar, 
 J. Tomasi, M. Cossi, J. M. Millam, M. Klene, C. Adamo, R. Cammi, 
 J. W. Ochterski, R. L. Martin, K. Morokuma, O. Farkas, 
 J. B. Foresman, and D. J. Fox, Gaussian, Inc., Wallingford CT, 2019.
 
 ******************************************
 Gaussian 16:  ES64L-G16RevC.02  7-Dec-2021
                17-Sep-2024 
 ******************************************
 %nprocshared=8
 Will use up to    8 processors via shared memory.
 %Mem=10GB
 %Chk=smiles_00091_conf_0.chk
 ----------------------------------------------------------------------
 #p B3LYP/6-31G(d,p) EmpiricalDispersion=GD3BJ opt freq scf(xqc,tight) 
 integral(grid=ultrafine)
 ----------------------------------------------------------------------
 1/18=20,19=15,26=4,38=1/1,3;
 2/9=110,12=2,17=6,18=5,40=1/2;
 3/5=1,6=6,7=101,11=2,25=1,30=1,71=1,74=-5,75=-5,124=41/1,2,3;
 4//1;
 5/5=2,8=3,13=1,32=2,38=5/2,8;
 6/7=2,8=2,9=2,10=2,28=1/1;
 7//1,2,3,16;
 1/18=20,19=15,26=4/3(2);
 2/9=110/2;
 99//99;
 2/9=110/2;
 3/5=1,6=6,7=101,11=2,25=1,30=1,71=1,74=-5,75=-5,124=41/1,2,3;
 4/5=5,16=3,69=1/1;
 5/5=2,8=3,13=1,32=2,38=5/2,8;
 7//1,2,3,16;
 1/18=20,19=15,26=4/3(-5);
 2/9=110/2;
 6/7=2,8=2,9=2,10=2,19=2,28=1/1;
 99/9=1/99;
 Leave Link    1 at Tue Sep 17 09:56:38 2024, MaxMem=  1342177280 cpu:               0.1 elap:               1.0
 (Enter /groups/ReismanLab/Software/Gaussian16_RevC/Linux_Binary_AVX2-enabled-CPU/g16/l101.exe)
 ----------------------------------
 opt-freq conformers_unique/conf_aa
 ----------------------------------
 Symbolic Z-matrix:
 Charge =  0 Multiplicity = 1
 O                    -4.2009   -1.50479   0.0001 
 C                    -3.2808   -0.73677  -0.00005 
 O                    -3.55048   0.60382  -0.00056 
 C                    -2.62537   1.60977  -0.00004 
 O                    -3.01201   2.74446   0.00061 
 C                    -1.20647   1.21717  -0.00008 
 C                    -0.22215   2.18466  -0.00029 
 C                     1.12273   1.81694  -0.00011 
 C                     1.47606   0.4885    0.00024 
 Br                    3.32324   0.05342  -0.00002 
 C                     0.50773  -0.54368   0.00018 
 C                     0.81126  -1.91936   0.00015 
 C                    -0.1855   -2.86216   0.00003 
 C                    -1.52827  -2.4783   -0.00001 
 C                    -1.86383  -1.13975   0.00002 
 C                    -0.85768  -0.15022   0.00005 
 H                    -0.50804   3.2251   -0.00076 
 H                     1.88766   2.57808  -0.00052 
 H                     1.84603  -2.22812   0.00023 
 H                     0.06725  -3.911    -0.00015 
 H                    -2.31869  -3.21308  -0.00024 
 
 ITRead=  0  0  0  0  0  0  0  0  0  0  0  0  0  0  0  0  0  0  0  0
 ITRead=  0
 MicOpt= -1 -1 -1 -1 -1 -1 -1 -1 -1 -1 -1 -1 -1 -1 -1 -1 -1 -1 -1 -1
 MicOpt= -1
 NAtoms=     21 NQM=       21 NQMF=       0 NMMI=      0 NMMIF=      0
                NMic=       0 NMicF=      0.
                    Isotopes and Nuclear Properties:
 (Nuclear quadrupole moments (NQMom) in fm**2, nuclear magnetic moments (NMagM)
  in nuclear magnetons)

  Atom         1           2           3           4           5           6           7           8           9          10
 IAtWgt=          16          12          16          12          16          12          12          12          12          79
 AtmWgt=  15.9949146  12.0000000  15.9949146  12.0000000  15.9949146  12.0000000  12.0000000  12.0000000  12.0000000  78.9183361
 NucSpn=           0           0           0           0           0           0           0           0           0           3
 AtZEff=  -0.0000000  -0.0000000  -0.0000000  -0.0000000  -0.0000000  -0.0000000  -0.0000000  -0.0000000  -0.0000000  -0.0000000
 NQMom=    0.0000000   0.0000000   0.0000000   0.0000000   0.0000000   0.0000000   0.0000000   0.0000000   0.0000000  31.3000000
 NMagM=    0.0000000   0.0000000   0.0000000   0.0000000   0.0000000   0.0000000   0.0000000   0.0000000   0.0000000   2.1063990
 AtZNuc=   8.0000000   6.0000000   8.0000000   6.0000000   8.0000000   6.0000000   6.0000000   6.0000000   6.0000000  35.0000000

  Atom        11          12          13          14          15          16          17          18          19          20
 IAtWgt=          12          12          12          12          12          12           1           1           1           1
 AtmWgt=  12.0000000  12.0000000  12.0000000  12.0000000  12.0000000  12.0000000   1.0078250   1.0078250   1.0078250   1.0078250
 NucSpn=           0           0           0           0           0           0           1           1           1           1
 AtZEff=  -0.0000000  -0.0000000  -0.0000000  -0.0000000  -0.0000000  -0.0000000  -0.0000000  -0.0000000  -0.0000000  -0.0000000
 NQMom=    0.0000000   0.0000000   0.0000000   0.0000000   0.0000000   0.0000000   0.0000000   0.0000000   0.0000000   0.0000000
 NMagM=    0.0000000   0.0000000   0.0000000   0.0000000   0.0000000   0.0000000   2.7928460   2.7928460   2.7928460   2.7928460
 AtZNuc=   6.0000000   6.0000000   6.0000000   6.0000000   6.0000000   6.0000000   1.0000000   1.0000000   1.0000000   1.0000000

  Atom        21
 IAtWgt=           1
 AtmWgt=   1.0078250
 NucSpn=           1
 AtZEff=  -0.0000000
 NQMom=    0.0000000
 NMagM=    2.7928460
 AtZNuc=   1.0000000
 Leave Link  101 at Tue Sep 17 09:56:39 2024, MaxMem=  1342177280 cpu:               0.4 elap:               0.4
 (Enter /groups/ReismanLab/Software/Gaussian16_RevC/Linux_Binary_AVX2-enabled-CPU/g16/l103.exe)

 GradGradGradGradGradGradGradGradGradGradGradGradGradGradGradGradGradGrad
 Berny optimization.
 Initialization pass.
                           ----------------------------
                           !    Initial Parameters    !
                           ! (Angstroms and Degrees)  !
 --------------------------                            --------------------------
 ! Name  Definition              Value          Derivative Info.                !
 --------------------------------------------------------------------------------
 ! R1    R(1,2)                  1.1985         estimate D2E/DX2                !
 ! R2    R(2,3)                  1.3675         estimate D2E/DX2                !
 ! R3    R(2,15)                 1.4732         estimate D2E/DX2                !
 ! R4    R(3,4)                  1.3667         estimate D2E/DX2                !
 ! R5    R(4,5)                  1.1988         estimate D2E/DX2                !
 ! R6    R(4,6)                  1.4722         estimate D2E/DX2                !
 ! R7    R(6,7)                  1.3802         estimate D2E/DX2                !
 ! R8    R(6,16)                 1.4112         estimate D2E/DX2                !
 ! R9    R(7,8)                  1.3942         estimate D2E/DX2                !
 ! R10   R(7,17)                 1.079          estimate D2E/DX2                !
 ! R11   R(8,9)                  1.3746         estimate D2E/DX2                !
 ! R12   R(8,18)                 1.0791         estimate D2E/DX2                !
 ! R13   R(9,10)                 1.8977         estimate D2E/DX2                !
 ! R14   R(9,11)                 1.4153         estimate D2E/DX2                !
 ! R15   R(11,12)                1.4088         estimate D2E/DX2                !
 ! R16   R(11,16)                1.421          estimate D2E/DX2                !
 ! R17   R(12,13)                1.372          estimate D2E/DX2                !
 ! R18   R(12,19)                1.0799         estimate D2E/DX2                !
 ! R19   R(13,14)                1.3966         estimate D2E/DX2                !
 ! R20   R(13,20)                1.0789         estimate D2E/DX2                !
 ! R21   R(14,15)                1.38           estimate D2E/DX2                !
 ! R22   R(14,21)                1.0792         estimate D2E/DX2                !
 ! R23   R(15,16)                1.4112         estimate D2E/DX2                !
 ! A1    A(1,2,3)              118.4781         estimate D2E/DX2                !
 ! A2    A(1,2,15)             124.2725         estimate D2E/DX2                !
 ! A3    A(3,2,15)             117.2494         estimate D2E/DX2                !
 ! A4    A(2,3,4)              126.0228         estimate D2E/DX2                !
 ! A5    A(3,4,5)              118.5804         estimate D2E/DX2                !
 ! A6    A(3,4,6)              117.137          estimate D2E/DX2                !
 ! A7    A(5,4,6)              124.2826         estimate D2E/DX2                !
 ! A8    A(4,6,7)              120.0278         estimate D2E/DX2                !
 ! A9    A(4,6,16)             119.7757         estimate D2E/DX2                !
 ! A10   A(7,6,16)             120.1965         estimate D2E/DX2                !
 ! A11   A(6,7,8)              120.2015         estimate D2E/DX2                !
 ! A12   A(6,7,17)             119.1416         estimate D2E/DX2                !
 ! A13   A(8,7,17)             120.6569         estimate D2E/DX2                !
 ! A14   A(7,8,9)              120.1867         estimate D2E/DX2                !
 ! A15   A(7,8,18)             119.8498         estimate D2E/DX2                !
 ! A16   A(9,8,18)             119.9634         estimate D2E/DX2                !
 ! A17   A(8,9,10)             118.1479         estimate D2E/DX2                !
 ! A18   A(8,9,11)             121.9337         estimate D2E/DX2                !
 ! A19   A(10,9,11)            119.9184         estimate D2E/DX2                !
 ! A20   A(9,11,12)            124.3854         estimate D2E/DX2                !
 ! A21   A(9,11,16)            117.0971         estimate D2E/DX2                !
 ! A22   A(12,11,16)           118.5175         estimate D2E/DX2                !
 ! A23   A(11,12,13)           120.9639         estimate D2E/DX2                !
 ! A24   A(11,12,19)           119.0569         estimate D2E/DX2                !
 ! A25   A(13,12,19)           119.9791         estimate D2E/DX2                !
 ! A26   A(12,13,14)           120.6396         estimate D2E/DX2                !
 ! A27   A(12,13,20)           119.8582         estimate D2E/DX2                !
 ! A28   A(14,13,20)           119.5022         estimate D2E/DX2                !
 ! A29   A(13,14,15)           120.0271         estimate D2E/DX2                !
 ! A30   A(13,14,21)           121.1349         estimate D2E/DX2                !
 ! A31   A(15,14,21)           118.838          estimate D2E/DX2                !
 ! A32   A(2,15,14)            119.9486         estimate D2E/DX2                !
 ! A33   A(2,15,16)            119.6018         estimate D2E/DX2                !
 ! A34   A(14,15,16)           120.4496         estimate D2E/DX2                !
 ! A35   A(6,16,11)            120.3844         estimate D2E/DX2                !
 ! A36   A(6,16,15)            120.2134         estimate D2E/DX2                !
 ! A37   A(11,16,15)           119.4022         estimate D2E/DX2                !
 ! D1    D(1,2,3,4)            179.9608         estimate D2E/DX2                !
 ! D2    D(15,2,3,4)            -0.0501         estimate D2E/DX2                !
 ! D3    D(1,2,15,14)            0.0138         estimate D2E/DX2                !
 ! D4    D(1,2,15,16)         -179.9895         estimate D2E/DX2                !
 ! D5    D(3,2,15,14)         -179.9746         estimate D2E/DX2                !
 ! D6    D(3,2,15,16)            0.0222         estimate D2E/DX2                !
 ! D7    D(2,3,4,5)           -179.9348         estimate D2E/DX2                !
 ! D8    D(2,3,4,6)              0.0553         estimate D2E/DX2                !
 ! D9    D(3,4,6,7)            179.9657         estimate D2E/DX2                !
 ! D10   D(3,4,6,16)            -0.0328         estimate D2E/DX2                !
 ! D11   D(5,4,6,7)             -0.0448         estimate D2E/DX2                !
 ! D12   D(5,4,6,16)           179.9567         estimate D2E/DX2                !
 ! D13   D(4,6,7,8)            179.9895         estimate D2E/DX2                !
 ! D14   D(4,6,7,17)            -0.0208         estimate D2E/DX2                !
 ! D15   D(16,6,7,8)            -0.012          estimate D2E/DX2                !
 ! D16   D(16,6,7,17)          179.9777         estimate D2E/DX2                !
 ! D17   D(4,6,16,11)         -179.9918         estimate D2E/DX2                !
 ! D18   D(4,6,16,15)            0.0098         estimate D2E/DX2                !
 ! D19   D(7,6,16,11)            0.0097         estimate D2E/DX2                !
 ! D20   D(7,6,16,15)         -179.9887         estimate D2E/DX2                !
 ! D21   D(6,7,8,9)              0.0011         estimate D2E/DX2                !
 ! D22   D(6,7,8,18)           179.985          estimate D2E/DX2                !
 ! D23   D(17,7,8,9)          -179.9883         estimate D2E/DX2                !
 ! D24   D(17,7,8,18)           -0.0045         estimate D2E/DX2                !
 ! D25   D(7,8,9,10)           179.9833         estimate D2E/DX2                !
 ! D26   D(7,8,9,11)             0.0122         estimate D2E/DX2                !
 ! D27   D(18,8,9,10)           -0.0005         estimate D2E/DX2                !
 ! D28   D(18,8,9,11)         -179.9716         estimate D2E/DX2                !
 ! D29   D(8,9,11,12)          179.9811         estimate D2E/DX2                !
 ! D30   D(8,9,11,16)           -0.014          estimate D2E/DX2                !
 ! D31   D(10,9,11,12)           0.0105         estimate D2E/DX2                !
 ! D32   D(10,9,11,16)        -179.9846         estimate D2E/DX2                !
 ! D33   D(9,11,12,13)        -179.9968         estimate D2E/DX2                !
 ! D34   D(9,11,12,19)           0.0037         estimate D2E/DX2                !
 ! D35   D(16,11,12,13)         -0.0017         estimate D2E/DX2                !
 ! D36   D(16,11,12,19)        179.9988         estimate D2E/DX2                !
 ! D37   D(9,11,16,6)            0.003          estimate D2E/DX2                !
 ! D38   D(9,11,16,15)        -179.9985         estimate D2E/DX2                !
 ! D39   D(12,11,16,6)        -179.9924         estimate D2E/DX2                !
 ! D40   D(12,11,16,15)          0.006          estimate D2E/DX2                !
 ! D41   D(11,12,13,14)         -0.0026         estimate D2E/DX2                !
 ! D42   D(11,12,13,20)        179.9905         estimate D2E/DX2                !
 ! D43   D(19,12,13,14)        179.9969         estimate D2E/DX2                !
 ! D44   D(19,12,13,20)         -0.01           estimate D2E/DX2                !
 ! D45   D(12,13,14,15)          0.0025         estimate D2E/DX2                !
 ! D46   D(12,13,14,21)        179.992          estimate D2E/DX2                !
 ! D47   D(20,13,14,15)       -179.9906         estimate D2E/DX2                !
 ! D48   D(20,13,14,21)         -0.0011         estimate D2E/DX2                !
 ! D49   D(13,14,15,2)         179.9986         estimate D2E/DX2                !
 ! D50   D(13,14,15,16)          0.0019         estimate D2E/DX2                !
 ! D51   D(21,14,15,2)           0.0089         estimate D2E/DX2                !
 ! D52   D(21,14,15,16)       -179.9878         estimate D2E/DX2                !
 ! D53   D(2,15,16,6)           -0.0044         estimate D2E/DX2                !
 ! D54   D(2,15,16,11)         179.9971         estimate D2E/DX2                !
 ! D55   D(14,15,16,6)         179.9923         estimate D2E/DX2                !
 ! D56   D(14,15,16,11)         -0.0062         estimate D2E/DX2                !
 --------------------------------------------------------------------------------
 Trust Radius=3.00D-01 FncErr=1.00D-07 GrdErr=1.00D-06 EigMax=2.50D+02 EigMin=1.00D-04
 Number of steps in this run=    126 maximum allowed number of steps=    126.
 GradGradGradGradGradGradGradGradGradGradGradGradGradGradGradGradGradGrad

 Leave Link  103 at Tue Sep 17 09:56:39 2024, MaxMem=  1342177280 cpu:               0.1 elap:               0.1
 (Enter /groups/ReismanLab/Software/Gaussian16_RevC/Linux_Binary_AVX2-enabled-CPU/g16/l202.exe)
                          Input orientation:                          
 ---------------------------------------------------------------------
 Center     Atomic      Atomic             Coordinates (Angstroms)
 Number     Number       Type             X           Y           Z
 ---------------------------------------------------------------------
      1          8           0       -4.200904   -1.504794    0.000098
      2          6           0       -3.280803   -0.736774   -0.000054
      3          8           0       -3.550483    0.603822   -0.000559
      4          6           0       -2.625369    1.609765   -0.000038
      5          8           0       -3.012014    2.744459    0.000607
      6          6           0       -1.206471    1.217173   -0.000084
      7          6           0       -0.222152    2.184665   -0.000289
      8          6           0        1.122729    1.816938   -0.000114
      9          6           0        1.476057    0.488498    0.000240
     10         35           0        3.323239    0.053420   -0.000023
     11          6           0        0.507725   -0.543680    0.000183
     12          6           0        0.811260   -1.919361    0.000150
     13          6           0       -0.185495   -2.862161    0.000029
     14          6           0       -1.528273   -2.478296   -0.000011
     15          6           0       -1.863829   -1.139749    0.000019
     16          6           0       -0.857685   -0.150222    0.000050
     17          1           0       -0.508040    3.225099   -0.000756
     18          1           0        1.887656    2.578076   -0.000520
     19          1           0        1.846032   -2.228122    0.000231
     20          1           0        0.067245   -3.911002   -0.000148
     21          1           0       -2.318686   -3.213083   -0.000235
 ---------------------------------------------------------------------
                    Distance matrix (angstroms):
                    1          2          3          4          5
     1  O    0.000000
     2  C    1.198516   0.000000
     3  O    2.206651   1.367452   0.000000
     4  C    3.490385   2.436358   1.366660   0.000000
     5  O    4.412437   3.491593   2.207323   1.198759   0.000000
     6  C    4.046694   2.849694   2.422930   1.472209   2.364865
     7  C    5.426102   4.229675   3.684679   2.471025   2.845471
     8  C    6.274948   5.090436   4.828102   3.753820   4.237499
     9  C    6.016736   4.912129   5.027863   4.251934   5.023161
    10  Br   7.683799   6.651149   6.895724   6.148834   6.883105
    11  C    4.805719   3.793446   4.217323   3.801790   4.816681
    12  C    5.029280   4.259518   5.038974   4.925968   6.030642
    13  C    4.238627   3.754757   4.830753   5.094223   6.278805
    14  C    2.844409   2.470680   3.686297   4.232714   5.429425
    15  C    2.365413   1.473161   2.425869   2.853029   4.050358
    16  C    3.607213   2.493099   2.796381   2.494447   3.608367
    17  H    6.000761   4.835767   4.015913   2.663153   2.549687
    18  H    7.330784   6.140130   5.785416   4.615737   4.902495
    19  H    6.090044   5.339340   6.094447   5.892606   6.951775
    20  H    4.899688   4.613584   5.785464   6.142398   7.333280
    21  H    2.541849   2.656648   4.010746   4.832589   5.997750
                    6          7          8          9         10
     6  C    0.000000
     7  C    1.380191   0.000000
     8  C    2.405180   1.394248   0.000000
     9  C    2.779735   2.400186   1.374625   0.000000
    10  Br   4.676815   4.136666   2.819972   1.897729   0.000000
    11  C    2.457452   2.824285   2.439415   1.415294   2.878133
    12  C    3.729489   4.232135   3.749259   2.497948   3.194042
    13  C    4.205158   5.046959   4.858541   3.740010   4.561998
    14  C    3.709454   4.842433   5.047459   4.222306   5.472363
    15  C    2.446876   3.707672   4.202562   3.715647   5.322530
    16  C    1.411178   2.419835   2.791372   2.419569   4.185880
    17  H    2.125929   1.078997   2.154605   3.380181   4.973756
    18  H    3.380190   2.146174   1.079094   2.129729   2.904270
    19  H    4.603025   4.873405   4.109219   2.741698   2.718010
    20  H    5.283989   6.102533   5.824375   4.619562   5.130121
    21  H    4.567733   5.790608   6.094624   5.301111   6.519307
                   11         12         13         14         15
    11  C    0.000000
    12  C    1.408770   0.000000
    13  C    2.419899   1.372003   0.000000
    14  C    2.808563   2.405374   1.396569   0.000000
    15  C    2.445315   2.786377   2.404892   1.379966   0.000000
    16  C    1.420969   2.432124   2.794002   2.422729   1.411201
    17  H    3.903264   5.310934   6.095799   5.793927   4.570564
    18  H    3.413146   4.624453   5.821866   6.102087   5.281653
    19  H    2.151374   1.079854   2.128170   3.383566   3.866215
    20  H    3.396010   2.126074   1.078863   2.144371   3.377705
    21  H    3.887713   3.386780   2.161862   1.079196   2.122642
                   16         17         18         19         20
    16  C    0.000000
    17  H    3.393382   0.000000
    18  H    3.870466   2.481532   0.000000
    19  H    3.409948   5.939636   4.806378   0.000000
    20  H    3.872849   7.159252   6.739587   2.448707   0.000000
    21  H    3.393470   6.687946   7.157571   4.279605   2.485912
                   21
    21  H    0.000000
 Stoichiometry    C12H5BrO3
 Framework group  C1[X(C12H5BrO3)]
 Deg. of freedom    57
 Full point group                 C1      NOp   1
 Largest Abelian subgroup         C1      NOp   1
 Largest concise Abelian subgroup C1      NOp   1
                         Standard orientation:                         
 ---------------------------------------------------------------------
 Center     Atomic      Atomic             Coordinates (Angstroms)
 Number     Number       Type             X           Y           Z
 ---------------------------------------------------------------------
      1          8           0       -4.088940    1.475698   -0.000102
      2          6           0       -3.166154    0.710905    0.000050
      3          8           0       -3.431138   -0.630627    0.000555
      4          6           0       -2.502506   -1.633324    0.000033
      5          8           0       -2.885175   -2.769364   -0.000611
      6          6           0       -1.084992   -1.235765    0.000080
      7          6           0       -0.097290   -2.199803    0.000285
      8          6           0        1.246295   -1.827369    0.000110
      9          6           0        1.594968   -0.497700   -0.000245
     10         35           0        3.440615   -0.056155    0.000019
     11          6           0        0.623027    0.531081   -0.000187
     12          6           0        0.921742    1.907817   -0.000155
     13          6           0       -0.078309    2.847120   -0.000034
     14          6           0       -1.419734    2.458554    0.000007
     15          6           0       -1.750600    1.118840   -0.000023
     16          6           0       -0.740996    0.132844   -0.000054
     17          1           0       -0.379533   -3.241232    0.000752
     18          1           0        2.013883   -2.585823    0.000516
     19          1           0        1.955426    2.220200   -0.000235
     20          1           0        0.170756    3.896840    0.000144
     21          1           0       -2.212716    3.190569    0.000231
 ---------------------------------------------------------------------
 Rotational constants (GHZ):           0.8401756           0.2696213           0.2041177
 Leave Link  202 at Tue Sep 17 09:56:39 2024, MaxMem=  1342177280 cpu:               0.0 elap:               0.0
 (Enter /groups/ReismanLab/Software/Gaussian16_RevC/Linux_Binary_AVX2-enabled-CPU/g16/l301.exe)
 Standard basis: 6-31G(d,p) (6D, 7F)
 Ernie: Thresh=  0.10000D-02 Tol=  0.10000D-05 Strict=F.
 There are   280 symmetry adapted cartesian basis functions of A   symmetry.
 There are   280 symmetry adapted basis functions of A   symmetry.
   280 basis functions,   538 primitive gaussians,   280 cartesian basis functions
    68 alpha electrons       68 beta electrons
       nuclear repulsion energy      1335.3362236374 Hartrees.
 IExCor=  402 DFT=T Ex+Corr=B3LYP ExCW=0 ScaHFX=  0.200000
 ScaDFX=  0.800000  0.720000  1.000000  0.810000 ScalE2=  1.000000  1.000000
 IRadAn=      5 IRanWt=     -1 IRanGd=            0 ICorTp=0 IEmpDi=141
 NAtoms=   21 NActive=   21 NUniq=   21 SFac= 1.00D+00 NAtFMM=   60 NAOKFM=F Big=F
 Integral buffers will be    131072 words long.
 Raffenetti 2 integral format.
 Two-electron integral symmetry is turned on.
 R6Disp:  Grimme-D3(BJ) Dispersion energy=       -0.0559084530 Hartrees.
 Nuclear repulsion after empirical dispersion term =     1335.2803151844 Hartrees.
 Leave Link  301 at Tue Sep 17 09:56:39 2024, MaxMem=  1342177280 cpu:               0.1 elap:               0.1
 (Enter /groups/ReismanLab/Software/Gaussian16_RevC/Linux_Binary_AVX2-enabled-CPU/g16/l302.exe)
 NPDir=0 NMtPBC=     1 NCelOv=     1 NCel=       1 NClECP=     1 NCelD=      1
         NCelK=      1 NCelE2=     1 NClLst=     1 CellRange=     0.0.
 One-electron integrals computed using PRISM.
 One-electron integral symmetry used in STVInt
 NBasis=   280 RedAO= T EigKep=  2.10D-04  NBF=   280
 NBsUse=   280 1.00D-06 EigRej= -1.00D+00 NBFU=   280
 Precomputing XC quadrature grid using
 IXCGrd= 4 IRadAn=           5 IRanWt=          -1 IRanGd=           0 AccXCQ= 0.00D+00.
 Generated NRdTot=       0 NPtTot=           0 NUsed=           0 NTot=          32
 NSgBfM=   277   277   277   277   277 MxSgAt=    21 MxSgA2=    21.
 Leave Link  302 at Tue Sep 17 09:56:39 2024, MaxMem=  1342177280 cpu:               1.3 elap:               0.3
 (Enter /groups/ReismanLab/Software/Gaussian16_RevC/Linux_Binary_AVX2-enabled-CPU/g16/l303.exe)
 DipDrv:  MaxL=1.
 Leave Link  303 at Tue Sep 17 09:56:39 2024, MaxMem=  1342177280 cpu:               0.1 elap:               0.1
 (Enter /groups/ReismanLab/Software/Gaussian16_RevC/Linux_Binary_AVX2-enabled-CPU/g16/l401.exe)
 ExpMin= 1.43D-01 ExpMax= 5.74D+05 ExpMxC= 5.74D+03 IAcc=3 IRadAn=         5 AccDes= 0.00D+00
 Harris functional with IExCor=  402 and IRadAn=       5 diagonalized for initial guess.
 HarFok:  IExCor=  402 AccDes= 0.00D+00 IRadAn=         5 IDoV= 1 UseB2=F ITyADJ=14
 ICtDFT=  3500011 ScaDFX=  1.000000  1.000000  1.000000  1.000000
 FoFCou: FMM=F IPFlag=           0 FMFlag=      100000 FMFlg1=           0
         NFxFlg=           0 DoJE=T BraDBF=F KetDBF=T FulRan=T
         wScrn=  0.000000 ICntrl=       500 IOpCl=  0 I1Cent=   200000004 NGrid=           0
         NMat0=    1 NMatS0=      1 NMatT0=    0 NMatD0=    1 NMtDS0=    0 NMtDT0=    0
 Petite list used in FoFCou.
 Harris En= -3257.86964650978    
 JPrj=0 DoOrth=F DoCkMO=F.
 Leave Link  401 at Tue Sep 17 09:56:40 2024, MaxMem=  1342177280 cpu:               6.7 elap:               0.9
 (Enter /groups/ReismanLab/Software/Gaussian16_RevC/Linux_Binary_AVX2-enabled-CPU/g16/l502.exe)
 Integral symmetry usage will be decided dynamically.
 Closed shell SCF:
 Using DIIS extrapolation, IDIIS=  1040.
 NGot=  1342177280 LenX=  1342014935 LenY=  1341936094
 Requested convergence on RMS density matrix=1.00D-08 within  32 cycles.
 Requested convergence on MAX density matrix=1.00D-06.
 Requested convergence on             energy=1.00D-06.
 No special actions if energy rises.
 Fock matrices will be formed incrementally for  20 cycles.
 Integral accuracy reduced to 1.0D-05 until final iterations.

 Cycle   1  Pass 0  IDiag  1:
 FoFJK:  IHMeth= 1 ICntrl=       0 DoSepK=F KAlg= 0 I1Cent=           0 FoldK=F
 IRaf= 840000000 NMat=       1 IRICut=       1 DoRegI=T DoRafI=F ISym2E= 0 IDoP0=0 IntGTp=1.
 FoFCou: FMM=F IPFlag=           0 FMFlag=      100000 FMFlg1=           0
         NFxFlg=           0 DoJE=F BraDBF=F KetDBF=F FulRan=T
         wScrn=  0.000000 ICntrl=         0 IOpCl=  0 I1Cent=           0 NGrid=           0
         NMat0=    1 NMatS0=      1 NMatT0=    0 NMatD0=    1 NMtDS0=    0 NMtDT0=    0
 Symmetry not used in FoFCou.
 E= -3257.44063663814    
 DIIS: error= 1.97D-01 at cycle   1 NSaved=   1.
 NSaved= 1 IEnMin= 1 EnMin= -3257.44063663814     IErMin= 1 ErrMin= 1.97D-01
 ErrMax= 1.97D-01  0.00D+00 EMaxC= 1.00D-01 BMatC= 7.32D-01 BMatP= 7.32D-01
 IDIUse=3 WtCom= 0.00D+00 WtEn= 1.00D+00
 Coeff-Com:  0.100D+01
 Coeff-En:   0.100D+01
 Coeff:      0.100D+01
 Gap=     0.162 Goal=   None    Shift=    0.000
 GapD=    0.162 DampG=1.000 DampE=0.250 DampFc=0.2500 IDamp=-1.
 Damping current iteration by 2.50D-01
 RMSDP=6.83D-03 MaxDP=2.26D-01              OVMax= 3.19D-01

 Cycle   2  Pass 0  IDiag  1:
 RMSU=  1.66D-03    CP:  9.89D-01
 E= -3257.54898019328     Delta-E=       -0.108343555144 Rises=F Damp=T
 DIIS: error= 1.45D-01 at cycle   2 NSaved=   2.
 NSaved= 2 IEnMin= 2 EnMin= -3257.54898019328     IErMin= 2 ErrMin= 1.45D-01
 ErrMax= 1.45D-01  0.00D+00 EMaxC= 1.00D-01 BMatC= 2.66D-01 BMatP= 7.32D-01
 IDIUse=3 WtCom= 0.00D+00 WtEn= 1.00D+00
 Coeff-Com: -0.742D+00 0.174D+01
 Coeff-En:   0.000D+00 0.100D+01
 Coeff:      0.000D+00 0.100D+01
 Gap=     0.168 Goal=   None    Shift=    0.000
 RMSDP=3.11D-03 MaxDP=1.09D-01 DE=-1.08D-01 OVMax= 2.05D-01

 Cycle   3  Pass 0  IDiag  1:
 RMSU=  1.90D-03    CP:  9.58D-01  2.32D+00
 E= -3257.71662907687     Delta-E=       -0.167648883588 Rises=F Damp=F
 DIIS: error= 1.36D-02 at cycle   3 NSaved=   3.
 NSaved= 3 IEnMin= 3 EnMin= -3257.71662907687     IErMin= 3 ErrMin= 1.36D-02
 ErrMax= 1.36D-02  0.00D+00 EMaxC= 1.00D-01 BMatC= 5.65D-02 BMatP= 2.66D-01
 IDIUse=3 WtCom= 8.64D-01 WtEn= 1.36D-01
 Coeff-Com:  0.280D+00-0.156D+00 0.876D+00
 Coeff-En:   0.556D-01 0.000D+00 0.944D+00
 Coeff:      0.250D+00-0.135D+00 0.886D+00
 Gap=     0.151 Goal=   None    Shift=    0.000
 RMSDP=1.46D-03 MaxDP=4.86D-02 DE=-1.68D-01 OVMax= 7.83D-02

 Cycle   4  Pass 0  IDiag  1:
 RMSU=  1.21D-03    CP:  9.60D-01  1.88D+00  8.17D-01
 E= -3257.74089583897     Delta-E=       -0.024266762102 Rises=F Damp=F
 DIIS: error= 1.45D-02 at cycle   4 NSaved=   4.
 NSaved= 4 IEnMin= 4 EnMin= -3257.74089583897     IErMin= 3 ErrMin= 1.36D-02
 ErrMax= 1.45D-02  0.00D+00 EMaxC= 1.00D-01 BMatC= 2.79D-02 BMatP= 5.65D-02
 IDIUse=3 WtCom= 8.55D-01 WtEn= 1.45D-01
 Coeff-Com:  0.240D+00-0.290D+00 0.541D+00 0.509D+00
 Coeff-En:   0.000D+00 0.000D+00 0.331D+00 0.669D+00
 Coeff:      0.205D+00-0.248D+00 0.510D+00 0.532D+00
 Gap=     0.152 Goal=   None    Shift=    0.000
 RMSDP=7.57D-04 MaxDP=3.20D-02 DE=-2.43D-02 OVMax= 4.34D-02

 Cycle   5  Pass 0  IDiag  1:
 RMSU=  2.25D-04    CP:  9.60D-01  1.88D+00  9.40D-01  4.35D-01
 E= -3257.76623313414     Delta-E=       -0.025337295168 Rises=F Damp=F
 DIIS: error= 3.67D-03 at cycle   5 NSaved=   5.
 NSaved= 5 IEnMin= 5 EnMin= -3257.76623313414     IErMin= 5 ErrMin= 3.67D-03
 ErrMax= 3.67D-03  0.00D+00 EMaxC= 1.00D-01 BMatC= 1.29D-03 BMatP= 2.79D-02
 IDIUse=3 WtCom= 9.63D-01 WtEn= 3.67D-02
 Coeff-Com:  0.831D-01-0.103D+00 0.222D+00 0.279D+00 0.518D+00
 Coeff-En:   0.000D+00 0.000D+00 0.000D+00 0.000D+00 0.100D+01
 Coeff:      0.800D-01-0.988D-01 0.214D+00 0.269D+00 0.536D+00
 Gap=     0.145 Goal=   None    Shift=    0.000
 RMSDP=1.49D-04 MaxDP=6.78D-03 DE=-2.53D-02 OVMax= 9.72D-03

 Cycle   6  Pass 0  IDiag  1:
 RMSU=  7.25D-05    CP:  9.60D-01  1.92D+00  9.29D-01  4.84D-01  5.69D-01
 E= -3257.76719899625     Delta-E=       -0.000965862107 Rises=F Damp=F
 DIIS: error= 8.42D-04 at cycle   6 NSaved=   6.
 NSaved= 6 IEnMin= 6 EnMin= -3257.76719899625     IErMin= 6 ErrMin= 8.42D-04
 ErrMax= 8.42D-04  0.00D+00 EMaxC= 1.00D-01 BMatC= 9.01D-05 BMatP= 1.29D-03
 IDIUse=3 WtCom= 9.92D-01 WtEn= 8.42D-03
 Coeff-Com:  0.298D-01-0.375D-01 0.764D-01 0.102D+00 0.292D+00 0.537D+00
 Coeff-En:   0.000D+00 0.000D+00 0.000D+00 0.000D+00 0.312D-02 0.997D+00
 Coeff:      0.295D-01-0.372D-01 0.758D-01 0.102D+00 0.290D+00 0.540D+00
 Gap=     0.145 Goal=   None    Shift=    0.000
 RMSDP=4.25D-05 MaxDP=1.59D-03 DE=-9.66D-04 OVMax= 3.12D-03

 Cycle   7  Pass 0  IDiag  1:
 RMSU=  2.27D-05    CP:  9.60D-01  1.91D+00  9.34D-01  4.92D-01  6.05D-01
                    CP:  5.66D-01
 E= -3257.76727447280     Delta-E=       -0.000075476553 Rises=F Damp=F
 DIIS: error= 1.79D-04 at cycle   7 NSaved=   7.
 NSaved= 7 IEnMin= 7 EnMin= -3257.76727447280     IErMin= 7 ErrMin= 1.79D-04
 ErrMax= 1.79D-04  0.00D+00 EMaxC= 1.00D-01 BMatC= 5.90D-06 BMatP= 9.01D-05
 IDIUse=3 WtCom= 9.98D-01 WtEn= 1.79D-03
 Coeff-Com:  0.111D-01-0.143D-01 0.250D-01 0.336D-01 0.114D+00 0.284D+00
 Coeff-Com:  0.546D+00
 Coeff-En:   0.000D+00 0.000D+00 0.000D+00 0.000D+00 0.000D+00 0.000D+00
 Coeff-En:   0.100D+01
 Coeff:      0.111D-01-0.143D-01 0.249D-01 0.336D-01 0.114D+00 0.283D+00
 Coeff:      0.547D+00
 Gap=     0.145 Goal=   None    Shift=    0.000
 RMSDP=1.36D-05 MaxDP=4.31D-04 DE=-7.55D-05 OVMax= 1.38D-03

 Cycle   8  Pass 0  IDiag  1:
 RMSU=  8.15D-06    CP:  9.60D-01  1.91D+00  9.34D-01  4.90D-01  6.10D-01
                    CP:  6.28D-01  5.84D-01
 E= -3257.76727954582     Delta-E=       -0.000005073019 Rises=F Damp=F
 DIIS: error= 9.03D-05 at cycle   8 NSaved=   8.
 NSaved= 8 IEnMin= 8 EnMin= -3257.76727954582     IErMin= 8 ErrMin= 9.03D-05
 ErrMax= 9.03D-05  0.00D+00 EMaxC= 1.00D-01 BMatC= 1.36D-06 BMatP= 5.90D-06
 IDIUse=1 WtCom= 1.00D+00 WtEn= 0.00D+00
 Coeff-Com:  0.379D-02-0.506D-02 0.685D-02 0.886D-02 0.376D-01 0.114D+00
 Coeff-Com:  0.359D+00 0.475D+00
 Coeff:      0.379D-02-0.506D-02 0.685D-02 0.886D-02 0.376D-01 0.114D+00
 Coeff:      0.359D+00 0.475D+00
 Gap=     0.145 Goal=   None    Shift=    0.000
 RMSDP=5.28D-06 MaxDP=1.88D-04 DE=-5.07D-06 OVMax= 5.53D-04

 Initial convergence to 1.0D-05 achieved.  Increase integral accuracy.
 Cycle   9  Pass 1  IDiag  1:
 E= -3257.76725302967     Delta-E=        0.000026516152 Rises=F Damp=F
 DIIS: error= 4.61D-05 at cycle   1 NSaved=   1.
 NSaved= 1 IEnMin= 1 EnMin= -3257.76725302967     IErMin= 1 ErrMin= 4.61D-05
 ErrMax= 4.61D-05  0.00D+00 EMaxC= 1.00D-01 BMatC= 5.36D-07 BMatP= 5.36D-07
 IDIUse=1 WtCom= 1.00D+00 WtEn= 0.00D+00
 Coeff-Com:  0.100D+01
 Coeff:      0.100D+01
 Gap=     0.145 Goal=   None    Shift=    0.000
 RMSDP=5.28D-06 MaxDP=1.88D-04 DE= 2.65D-05 OVMax= 4.73D-04

 Cycle  10  Pass 1  IDiag  1:
 RMSU=  3.55D-05    CP:  1.00D+00
 E= -3257.76725295722     Delta-E=        0.000000072443 Rises=F Damp=F
 DIIS: error= 5.45D-05 at cycle   2 NSaved=   2.
 NSaved= 2 IEnMin= 1 EnMin= -3257.76725302967     IErMin= 1 ErrMin= 4.61D-05
 ErrMax= 5.45D-05  0.00D+00 EMaxC= 1.00D-01 BMatC= 4.11D-07 BMatP= 5.36D-07
 IDIUse=1 WtCom= 1.00D+00 WtEn= 0.00D+00
 Coeff-Com:  0.452D+00 0.548D+00
 Coeff:      0.452D+00 0.548D+00
 Gap=     0.145 Goal=   None    Shift=    0.000
 RMSDP=4.71D-06 MaxDP=2.12D-04 DE= 7.24D-08 OVMax= 5.72D-04

 Cycle  11  Pass 1  IDiag  1:
 RMSU=  4.70D-06    CP:  1.00D+00  9.95D-01
 E= -3257.76725310348     Delta-E=       -0.000000146254 Rises=F Damp=F
 DIIS: error= 4.83D-05 at cycle   3 NSaved=   3.
 NSaved= 3 IEnMin= 3 EnMin= -3257.76725310348     IErMin= 1 ErrMin= 4.61D-05
 ErrMax= 4.83D-05  0.00D+00 EMaxC= 1.00D-01 BMatC= 2.82D-07 BMatP= 4.11D-07
 IDIUse=1 WtCom= 1.00D+00 WtEn= 0.00D+00
 Coeff-Com:  0.172D-01 0.449D+00 0.534D+00
 Coeff:      0.172D-01 0.449D+00 0.534D+00
 Gap=     0.145 Goal=   None    Shift=    0.000
 RMSDP=2.20D-06 MaxDP=9.45D-05 DE=-1.46D-07 OVMax= 2.59D-04

 Cycle  12  Pass 1  IDiag  1:
 RMSU=  6.61D-07    CP:  1.00D+00  1.00D+00  5.60D-01
 E= -3257.76725340359     Delta-E=       -0.000000300112 Rises=F Damp=F
 DIIS: error= 5.74D-06 at cycle   4 NSaved=   4.
 NSaved= 4 IEnMin= 4 EnMin= -3257.76725340359     IErMin= 4 ErrMin= 5.74D-06
 ErrMax= 5.74D-06  0.00D+00 EMaxC= 1.00D-01 BMatC= 8.47D-09 BMatP= 2.82D-07
 IDIUse=1 WtCom= 1.00D+00 WtEn= 0.00D+00
 Coeff-Com: -0.146D-02 0.264D+00 0.329D+00 0.408D+00
 Coeff:     -0.146D-02 0.264D+00 0.329D+00 0.408D+00
 Gap=     0.145 Goal=   None    Shift=    0.000
 RMSDP=3.94D-07 MaxDP=1.61D-05 DE=-3.00D-07 OVMax= 2.24D-05

 Cycle  13  Pass 1  IDiag  1:
 RMSU=  1.60D-07    CP:  1.00D+00  1.00D+00  5.60D-01  4.56D-01
 E= -3257.76725341058     Delta-E=       -0.000000006993 Rises=F Damp=F
 DIIS: error= 1.34D-06 at cycle   5 NSaved=   5.
 NSaved= 5 IEnMin= 5 EnMin= -3257.76725341058     IErMin= 5 ErrMin= 1.34D-06
 ErrMax= 1.34D-06  0.00D+00 EMaxC= 1.00D-01 BMatC= 2.85D-10 BMatP= 8.47D-09
 IDIUse=1 WtCom= 1.00D+00 WtEn= 0.00D+00
 Coeff-Com: -0.152D-02 0.135D+00 0.169D+00 0.243D+00 0.455D+00
 Coeff:     -0.152D-02 0.135D+00 0.169D+00 0.243D+00 0.455D+00
 Gap=     0.145 Goal=   None    Shift=    0.000
 RMSDP=7.32D-08 MaxDP=2.71D-06 DE=-6.99D-09 OVMax= 4.82D-06

 Cycle  14  Pass 1  IDiag  1:
 RMSU=  5.05D-08    CP:  1.00D+00  1.01D+00  5.61D-01  4.68D-01  6.73D-01
 E= -3257.76725341083     Delta-E=       -0.000000000246 Rises=F Damp=F
 DIIS: error= 4.99D-07 at cycle   6 NSaved=   6.
 NSaved= 6 IEnMin= 6 EnMin= -3257.76725341083     IErMin= 6 ErrMin= 4.99D-07
 ErrMax= 4.99D-07  0.00D+00 EMaxC= 1.00D-01 BMatC= 2.98D-11 BMatP= 2.85D-10
 IDIUse=1 WtCom= 1.00D+00 WtEn= 0.00D+00
 Coeff-Com: -0.867D-03 0.655D-01 0.825D-01 0.124D+00 0.287D+00 0.441D+00
 Coeff:     -0.867D-03 0.655D-01 0.825D-01 0.124D+00 0.287D+00 0.441D+00
 Gap=     0.145 Goal=   None    Shift=    0.000
 RMSDP=2.17D-08 MaxDP=9.51D-07 DE=-2.46D-10 OVMax= 1.58D-06

 Cycle  15  Pass 1  IDiag  1:
 RMSU=  1.57D-08    CP:  1.00D+00  1.01D+00  5.60D-01  4.70D-01  6.92D-01
                    CP:  7.19D-01
 E= -3257.76725341088     Delta-E=       -0.000000000052 Rises=F Damp=F
 DIIS: error= 1.42D-07 at cycle   7 NSaved=   7.
 NSaved= 7 IEnMin= 7 EnMin= -3257.76725341088     IErMin= 7 ErrMin= 1.42D-07
 ErrMax= 1.42D-07  0.00D+00 EMaxC= 1.00D-01 BMatC= 2.29D-12 BMatP= 2.98D-11
 IDIUse=1 WtCom= 1.00D+00 WtEn= 0.00D+00
 Coeff-Com: -0.257D-03 0.166D-01 0.212D-01 0.342D-01 0.925D-01 0.251D+00
 Coeff-Com:  0.585D+00
 Coeff:     -0.257D-03 0.166D-01 0.212D-01 0.342D-01 0.925D-01 0.251D+00
 Coeff:      0.585D+00
 Gap=     0.145 Goal=   None    Shift=    0.000
 RMSDP=6.68D-09 MaxDP=2.60D-07 DE=-5.18D-11 OVMax= 4.78D-07

 SCF Done:  E(RB3LYP) =  -3257.76725341     A.U. after   15 cycles
            NFock= 15  Conv=0.67D-08     -V/T= 2.0067
 KE= 3.236133391233D+03 PE=-1.040086746430D+04 EE= 2.571686504467D+03
 Leave Link  502 at Tue Sep 17 09:56:59 2024, MaxMem=  1342177280 cpu:             139.0 elap:              18.5
 (Enter /groups/ReismanLab/Software/Gaussian16_RevC/Linux_Binary_AVX2-enabled-CPU/g16/l508.exe)
 QCSCF skips out because SCF is already converged.
 Leave Link  508 at Tue Sep 17 09:56:59 2024, MaxMem=  1342177280 cpu:               0.0 elap:               0.0
 (Enter /groups/ReismanLab/Software/Gaussian16_RevC/Linux_Binary_AVX2-enabled-CPU/g16/l601.exe)
 Copying SCF densities to generalized density rwf, IOpCl= 0 IROHF=0.

 **********************************************************************

            Population analysis using the SCF Density.

 **********************************************************************

 Orbital symmetries:
       Occupied  (A) (A) (A) (A) (A) (A) (A) (A) (A) (A) (A) (A)
                 (A) (A) (A) (A) (A) (A) (A) (A) (A) (A) (A) (A)
                 (A) (A) (A) (A) (A) (A) (A) (A) (A) (A) (A) (A)
                 (A) (A) (A) (A) (A) (A) (A) (A) (A) (A) (A) (A)
                 (A) (A) (A) (A) (A) (A) (A) (A) (A) (A) (A) (A)
                 (A) (A) (A) (A) (A) (A) (A) (A)
       Virtual   (A) (A) (A) (A) (A) (A) (A) (A) (A) (A) (A) (A)
                 (A) (A) (A) (A) (A) (A) (A) (A) (A) (A) (A) (A)
                 (A) (A) (A) (A) (A) (A) (A) (A) (A) (A) (A) (A)
                 (A) (A) (A) (A) (A) (A) (A) (A) (A) (A) (A) (A)
                 (A) (A) (A) (A) (A) (A) (A) (A) (A) (A) (A) (A)
                 (A) (A) (A) (A) (A) (A) (A) (A) (A) (A) (A) (A)
                 (A) (A) (A) (A) (A) (A) (A) (A) (A) (A) (A) (A)
                 (A) (A) (A) (A) (A) (A) (A) (A) (A) (A) (A) (A)
                 (A) (A) (A) (A) (A) (A) (A) (A) (A) (A) (A) (A)
                 (A) (A) (A) (A) (A) (A) (A) (A) (A) (A) (A) (A)
                 (A) (A) (A) (A) (A) (A) (A) (A) (A) (A) (A) (A)
                 (A) (A) (A) (A) (A) (A) (A) (A) (A) (A) (A) (A)
                 (A) (A) (A) (A) (A) (A) (A) (A) (A) (A) (A) (A)
                 (A) (A) (A) (A) (A) (A) (A) (A) (A) (A) (A) (A)
                 (A) (A) (A) (A) (A) (A) (A) (A) (A) (A) (A) (A)
                 (A) (A) (A) (A) (A) (A) (A) (A) (A) (A) (A) (A)
                 (A) (A) (A) (A) (A) (A) (A) (A) (A) (A) (A) (A)
                 (A) (A) (A) (A) (A) (A) (A) (A)
 The electronic state is 1-A.
 Alpha  occ. eigenvalues -- -482.93989 -61.90114 -56.42241 -56.41821 -56.41808
 Alpha  occ. eigenvalues --  -19.22081 -19.15439 -19.15425 -10.34009 -10.34007
 Alpha  occ. eigenvalues --  -10.28185 -10.24339 -10.24242 -10.23384 -10.23322
 Alpha  occ. eigenvalues --  -10.23307 -10.23093 -10.22975 -10.22963 -10.22445
 Alpha  occ. eigenvalues --   -8.61204  -6.56594  -6.55325  -6.55274  -2.68166
 Alpha  occ. eigenvalues --   -2.67808  -2.67769  -2.66756  -2.66756  -1.14596
 Alpha  occ. eigenvalues --   -1.07461  -1.03175  -0.92863  -0.87386  -0.84804
 Alpha  occ. eigenvalues --   -0.79836  -0.78743  -0.76180  -0.70760  -0.66795
 Alpha  occ. eigenvalues --   -0.65892  -0.65766  -0.58618  -0.55064  -0.54317
 Alpha  occ. eigenvalues --   -0.52510  -0.50117  -0.48969  -0.48620  -0.46978
 Alpha  occ. eigenvalues --   -0.46520  -0.44330  -0.43634  -0.43581  -0.42295
 Alpha  occ. eigenvalues --   -0.41512  -0.40559  -0.37892  -0.37225  -0.36918
 Alpha  occ. eigenvalues --   -0.34792  -0.32662  -0.31231  -0.30738  -0.30052
 Alpha  occ. eigenvalues --   -0.28713  -0.28548  -0.25194
 Alpha virt. eigenvalues --   -0.10690  -0.04781  -0.04594  -0.01352  -0.00282
 Alpha virt. eigenvalues --    0.06859   0.08235   0.08576   0.10985   0.13399
 Alpha virt. eigenvalues --    0.15940   0.16476   0.17239   0.19522   0.20748
 Alpha virt. eigenvalues --    0.21299   0.22918   0.23714   0.24548   0.27185
 Alpha virt. eigenvalues --    0.27484   0.28792   0.31562   0.33485   0.34443
 Alpha virt. eigenvalues --    0.38531   0.39864   0.41843   0.43332   0.43756
 Alpha virt. eigenvalues --    0.43909   0.44994   0.45338   0.46583   0.46862
 Alpha virt. eigenvalues --    0.49156   0.49951   0.50794   0.51469   0.51811
 Alpha virt. eigenvalues --    0.52391   0.52756   0.54262   0.55710   0.56270
 Alpha virt. eigenvalues --    0.57193   0.58037   0.58452   0.58701   0.59829
 Alpha virt. eigenvalues --    0.62283   0.62871   0.64382   0.66152   0.67153
 Alpha virt. eigenvalues --    0.67789   0.69286   0.72322   0.72757   0.73444
 Alpha virt. eigenvalues --    0.75817   0.77756   0.78168   0.78638   0.79291
 Alpha virt. eigenvalues --    0.80299   0.82617   0.84564   0.85914   0.86978
 Alpha virt. eigenvalues --    0.87340   0.90266   0.91348   0.93792   0.95830
 Alpha virt. eigenvalues --    0.96308   0.98619   0.99272   1.00422   1.02843
 Alpha virt. eigenvalues --    1.04304   1.07695   1.08585   1.08984   1.12850
 Alpha virt. eigenvalues --    1.14618   1.15147   1.16677   1.17741   1.19216
 Alpha virt. eigenvalues --    1.20214   1.23428   1.25307   1.28776   1.31743
 Alpha virt. eigenvalues --    1.32009   1.32963   1.34213   1.34901   1.35506
 Alpha virt. eigenvalues --    1.37768   1.40053   1.41162   1.42568   1.46350
 Alpha virt. eigenvalues --    1.46569   1.49218   1.49651   1.51066   1.55594
 Alpha virt. eigenvalues --    1.57321   1.60775   1.65703   1.69116   1.70989
 Alpha virt. eigenvalues --    1.72426   1.73021   1.77150   1.78107   1.78313
 Alpha virt. eigenvalues --    1.79578   1.82377   1.83907   1.83916   1.84476
 Alpha virt. eigenvalues --    1.84735   1.85692   1.86211   1.88117   1.90275
 Alpha virt. eigenvalues --    1.92017   1.93752   1.94646   1.96647   1.99221
 Alpha virt. eigenvalues --    1.99584   2.00972   2.02469   2.02767   2.04705
 Alpha virt. eigenvalues --    2.07152   2.09518   2.11970   2.21392   2.21841
 Alpha virt. eigenvalues --    2.22414   2.24621   2.25529   2.25975   2.26372
 Alpha virt. eigenvalues --    2.26999   2.29573   2.35489   2.37351   2.38670
 Alpha virt. eigenvalues --    2.41246   2.42385   2.45445   2.47450   2.47959
 Alpha virt. eigenvalues --    2.49354   2.52191   2.52353   2.54338   2.57199
 Alpha virt. eigenvalues --    2.59420   2.59936   2.63051   2.63711   2.66423
 Alpha virt. eigenvalues --    2.67632   2.68844   2.71815   2.73820   2.74111
 Alpha virt. eigenvalues --    2.76598   2.80587   2.81813   2.84495   2.93545
 Alpha virt. eigenvalues --    2.96712   2.99588   3.04273   3.06390   3.15428
 Alpha virt. eigenvalues --    3.16960   3.17864   3.20837   3.24284   3.29264
 Alpha virt. eigenvalues --    3.35039   3.40175   3.46345   3.69970   3.81357
 Alpha virt. eigenvalues --    4.01421   4.01637   4.05687   4.08517   4.11005
 Alpha virt. eigenvalues --    4.11829   4.18398   4.29975   4.33502   4.36886
 Alpha virt. eigenvalues --    4.51077   4.58231   4.61615   4.73852   4.90540
 Alpha virt. eigenvalues --    8.60011  73.17347
          Condensed to atoms (all electrons):
               1          2          3          4          5          6
     1  O    7.979116   0.612184  -0.082873  -0.000607  -0.000038   0.000240
     2  C    0.612184   4.439210   0.206447  -0.002504  -0.000596  -0.026069
     3  O   -0.082873   0.206447   8.366302   0.207075  -0.082658  -0.069703
     4  C   -0.000607  -0.002504   0.207075   4.432794   0.613584   0.262991
     5  O   -0.000038  -0.000596  -0.082658   0.613584   7.978867  -0.097965
     6  C    0.000240  -0.026069  -0.069703   0.262991  -0.097965   5.315968
     7  C    0.000005   0.000654   0.005261  -0.052290   0.004311   0.469135
     8  C   -0.000000  -0.000043  -0.000046   0.007036   0.000858  -0.008075
     9  C    0.000000  -0.000118  -0.000002  -0.000231  -0.000010  -0.066871
    10  Br  -0.000000   0.000000  -0.000000   0.000004   0.000000   0.000033
    11  C   -0.000068   0.007250  -0.000352   0.007010  -0.000063  -0.045314
    12  C   -0.000011  -0.000282   0.000000  -0.000088   0.000000   0.018259
    13  C    0.000825   0.006997  -0.000049  -0.000045  -0.000000  -0.001774
    14  C    0.003549  -0.052598   0.005240   0.000684   0.000005   0.012941
    15  C   -0.096770   0.260991  -0.069417  -0.024840   0.000234  -0.068513
    16  C    0.002803  -0.031215  -0.017046  -0.030881   0.002636   0.353068
    17  H    0.000000   0.000008   0.000245  -0.005403   0.012433  -0.030377
    18  H    0.000000   0.000000   0.000000  -0.000146   0.000001   0.002820
    19  H   -0.000000   0.000009  -0.000000   0.000001  -0.000000  -0.000187
    20  H    0.000001  -0.000167   0.000000   0.000000   0.000000   0.000024
    21  H    0.012566  -0.006240   0.000252   0.000005   0.000000  -0.000248
               7          8          9         10         11         12
     1  O    0.000005  -0.000000   0.000000  -0.000000  -0.000068  -0.000011
     2  C    0.000654  -0.000043  -0.000118   0.000000   0.007250  -0.000282
     3  O    0.005261  -0.000046  -0.000002  -0.000000  -0.000352   0.000000
     4  C   -0.052290   0.007036  -0.000231   0.000004   0.007010  -0.000088
     5  O    0.004311   0.000858  -0.000010   0.000000  -0.000063   0.000000
     6  C    0.469135  -0.008075  -0.066871   0.000033  -0.045314   0.018259
     7  C    5.019197   0.400263  -0.002958   0.005807  -0.059665  -0.001561
     8  C    0.400263   5.005208   0.463287  -0.074581   0.009608   0.011335
     9  C   -0.002958   0.463287   5.084902   0.284766   0.369238  -0.114481
    10  Br   0.005807  -0.074581   0.284766  34.940222  -0.066039  -0.016399
    11  C   -0.059665   0.009608   0.369238  -0.066039   4.913351   0.445267
    12  C   -0.001561   0.011335  -0.114481  -0.016399   0.445267   5.066209
    13  C    0.000100  -0.000368   0.009207   0.000917   0.003481   0.491395
    14  C   -0.000414   0.000078  -0.000570  -0.000013  -0.052434  -0.016311
    15  C    0.013059  -0.001721   0.017415  -0.000141  -0.041125  -0.071210
    16  C   -0.016390  -0.059897  -0.004306   0.006133   0.421657  -0.035246
    17  H    0.363791  -0.033499   0.003035  -0.000136   0.001331   0.000018
    18  H   -0.033040   0.372834  -0.035540  -0.003256   0.003503  -0.000169
    19  H   -0.000006   0.000287  -0.012100   0.015253  -0.035012   0.369479
    20  H   -0.000001   0.000003  -0.000239   0.000001   0.002040  -0.031656
    21  H    0.000002  -0.000000   0.000016   0.000000   0.001089   0.003689
              13         14         15         16         17         18
     1  O    0.000825   0.003549  -0.096770   0.002803   0.000000   0.000000
     2  C    0.006997  -0.052598   0.260991  -0.031215   0.000008   0.000000
     3  O   -0.000049   0.005240  -0.069417  -0.017046   0.000245   0.000000
     4  C   -0.000045   0.000684  -0.024840  -0.030881  -0.005403  -0.000146
     5  O   -0.000000   0.000005   0.000234   0.002636   0.012433   0.000001
     6  C   -0.001774   0.012941  -0.068513   0.353068  -0.030377   0.002820
     7  C    0.000100  -0.000414   0.013059  -0.016390   0.363791  -0.033040
     8  C   -0.000368   0.000078  -0.001721  -0.059897  -0.033499   0.372834
     9  C    0.009207  -0.000570   0.017415  -0.004306   0.003035  -0.035540
    10  Br   0.000917  -0.000013  -0.000141   0.006133  -0.000136  -0.003256
    11  C    0.003481  -0.052434  -0.041125   0.421657   0.001331   0.003503
    12  C    0.491395  -0.016311  -0.071210  -0.035246   0.000018  -0.000169
    13  C    4.894532   0.439048  -0.009207  -0.045392  -0.000000   0.000002
    14  C    0.439048   4.987620   0.482810  -0.035246   0.000002  -0.000000
    15  C   -0.009207   0.482810   5.299550   0.372177  -0.000285   0.000015
    16  C   -0.045392  -0.035246   0.372177   5.028275   0.003494   0.001170
    17  H   -0.000000   0.000002  -0.000285   0.003494   0.550032  -0.004424
    18  H    0.000002  -0.000000   0.000015   0.001170  -0.004424   0.572239
    19  H   -0.037743   0.004026   0.000770   0.004197   0.000000  -0.000005
    20  H    0.370059  -0.034254   0.002423   0.001831  -0.000000  -0.000000
    21  H   -0.036390   0.365453  -0.033010   0.004135  -0.000000  -0.000000
              19         20         21
     1  O   -0.000000   0.000001   0.012566
     2  C    0.000009  -0.000167  -0.006240
     3  O   -0.000000   0.000000   0.000252
     4  C    0.000001   0.000000   0.000005
     5  O   -0.000000   0.000000   0.000000
     6  C   -0.000187   0.000024  -0.000248
     7  C   -0.000006  -0.000001   0.000002
     8  C    0.000287   0.000003  -0.000000
     9  C   -0.012100  -0.000239   0.000016
    10  Br   0.015253   0.000001   0.000000
    11  C   -0.035012   0.002040   0.001089
    12  C    0.369479  -0.031656   0.003689
    13  C   -0.037743   0.370059  -0.036390
    14  C    0.004026  -0.034254   0.365453
    15  C    0.000770   0.002423  -0.033010
    16  C    0.004197   0.001831   0.004135
    17  H    0.000000  -0.000000  -0.000000
    18  H   -0.000005  -0.000000  -0.000000
    19  H    0.573343  -0.005133  -0.000166
    20  H   -0.005133   0.589223  -0.004332
    21  H   -0.000166  -0.004332   0.558227
 Mulliken charges:
               1
     1  O   -0.430924
     2  C    0.586083
     3  O   -0.468677
     4  C    0.585852
     5  O   -0.431601
     6  C   -0.020382
     7  C   -0.115260
     8  C   -0.092564
     9  C    0.005561
    10  Br  -0.092572
    11  C    0.115246
    12  C   -0.118237
    13  C   -0.085592
    14  C   -0.109617
    15  C   -0.033205
    16  C    0.074043
    17  H    0.139735
    18  H    0.123995
    19  H    0.122986
    20  H    0.110177
    21  H    0.134951
 Sum of Mulliken charges =  -0.00000
 Mulliken charges with hydrogens summed into heavy atoms:
               1
     1  O   -0.430924
     2  C    0.586083
     3  O   -0.468677
     4  C    0.585852
     5  O   -0.431601
     6  C   -0.020382
     7  C    0.024475
     8  C    0.031431
     9  C    0.005561
    10  Br  -0.092572
    11  C    0.115246
    12  C    0.004749
    13  C    0.024585
    14  C    0.025335
    15  C   -0.033205
    16  C    0.074043
 Electronic spatial extent (au):  <R**2>=           4582.9797
 Charge=              0.0000 electrons
 Dipole moment (field-independent basis, Debye):
    X=              5.2950    Y=              1.8123    Z=              0.0015  Tot=              5.5966
 Quadrupole moment (field-independent basis, Debye-Ang):
   XX=           -123.1833   YY=            -95.7294   ZZ=           -100.6554
   XY=             -4.3446   XZ=             -0.0019   YZ=             -0.0040
 Traceless Quadrupole moment (field-independent basis, Debye-Ang):
   XX=            -16.6606   YY=             10.7933   ZZ=              5.8673
   XY=             -4.3446   XZ=             -0.0019   YZ=             -0.0040
 Octapole moment (field-independent basis, Debye-Ang**2):
  XXX=            201.5871  YYY=             28.5116  ZZZ=              0.0009  XYY=             65.0924
  XXY=              4.6690  XXZ=              0.0101  XZZ=             18.4552  YZZ=             -5.3245
  YYZ=              0.0222  XYZ=              0.0035
 Hexadecapole moment (field-independent basis, Debye-Ang**3):
 XXXX=          -3909.6484 YYYY=          -1512.4956 ZZZZ=            -98.5487 XXXY=             44.2611
 XXXZ=              0.0041 YYYX=            -89.5489 YYYZ=             -0.0325 ZZZX=              0.0051
 ZZZY=              0.0096 XXYY=           -954.9350 XXZZ=           -589.2291 YYZZ=           -296.0116
 XXYZ=             -0.0132 YYXZ=             -0.0318 ZZXY=              6.7229
 N-N= 1.335280315184D+03 E-N=-1.040086745600D+04  KE= 3.236133391233D+03
 No NMR shielding tensors so no spin-rotation constants.
 Leave Link  601 at Tue Sep 17 09:56:59 2024, MaxMem=  1342177280 cpu:               0.7 elap:               0.1
 (Enter /groups/ReismanLab/Software/Gaussian16_RevC/Linux_Binary_AVX2-enabled-CPU/g16/l701.exe)
 ... and contract with generalized density number  0.
 Compute integral first derivatives.
 R6Disp: Adding Grimme-D3(BJ) dispersion energy 1st derivatives to the gradient.
 Leave Link  701 at Tue Sep 17 09:56:59 2024, MaxMem=  1342177280 cpu:               0.7 elap:               0.1
 (Enter /groups/ReismanLab/Software/Gaussian16_RevC/Linux_Binary_AVX2-enabled-CPU/g16/l702.exe)
 L702 exits ... SP integral derivatives will be done elsewhere.
 Leave Link  702 at Tue Sep 17 09:56:59 2024, MaxMem=  1342177280 cpu:               0.0 elap:               0.0
 (Enter /groups/ReismanLab/Software/Gaussian16_RevC/Linux_Binary_AVX2-enabled-CPU/g16/l703.exe)
 Integral derivatives from FoFJK, PRISM(SPDF).
 Compute integral first derivatives, UseDBF=F ICtDFT=           0.
 Calling FoFJK, ICntrl=      2127 FMM=F ISym2X=0 I1Cent= 0 IOpClX= 0 NMat=1 NMatS=1 NMatT=0.
 FoFJK:  IHMeth= 1 ICntrl=    2127 DoSepK=F KAlg= 0 I1Cent=           0 FoldK=F
 IRaf=         0 NMat=       1 IRICut=       1 DoRegI=T DoRafI=F ISym2E= 0 IDoP0=0 IntGTp=1.
 FoFCou: FMM=F IPFlag=           0 FMFlag=      100000 FMFlg1=         800
         NFxFlg=           0 DoJE=F BraDBF=F KetDBF=F FulRan=T
         wScrn=  0.000000 ICntrl=      2127 IOpCl=  0 I1Cent=           0 NGrid=           0
         NMat0=    1 NMatS0=      1 NMatT0=    0 NMatD0=    1 NMtDS0=    0 NMtDT0=    0
 Symmetry not used in FoFCou.
 Leave Link  703 at Tue Sep 17 09:57:05 2024, MaxMem=  1342177280 cpu:              43.4 elap:               5.5
 (Enter /groups/ReismanLab/Software/Gaussian16_RevC/Linux_Binary_AVX2-enabled-CPU/g16/l716.exe)
 Dipole        = 2.08323260D+00 7.13018163D-01 6.05609858D-04
 ***** Axes restored to original set *****
 -------------------------------------------------------------------
 Center     Atomic                   Forces (Hartrees/Bohr)
 Number     Number              X              Y              Z
 -------------------------------------------------------------------
      1        8          -0.011146027   -0.007694440    0.000004751
      2        6           0.009118664   -0.006068747   -0.000022390
      3        8          -0.012675487    0.003310788    0.000003151
      4        6           0.011629282    0.000378331    0.000024288
      5        8          -0.005567376    0.012431989   -0.000013852
      6        6          -0.000571891   -0.000049090   -0.000009198
      7        6          -0.007109426    0.000409953   -0.000001072
      8        6           0.006206413    0.001955706   -0.000008343
      9        6           0.003841996    0.000588310   -0.000034275
     10       35           0.003128964   -0.000429271    0.000009928
     11        6           0.002271481    0.000114695    0.000009873
     12        6           0.004940752   -0.002856562    0.000008129
     13        6           0.002181317   -0.003827742   -0.000006959
     14        6          -0.006885209    0.001622384   -0.000009269
     15        6          -0.000187212   -0.000059558    0.000006447
     16        6          -0.001242804    0.001142978    0.000008305
     17        1          -0.001383005    0.003340904    0.000010526
     18        1           0.002570333    0.001599511    0.000009898
     19        1           0.002651753    0.000059566   -0.000002041
     20        1           0.001226857   -0.003970611    0.000004982
     21        1          -0.002999372   -0.001999095    0.000007120
 -------------------------------------------------------------------
 Cartesian Forces:  Max     0.012675487 RMS     0.004148190
 Leave Link  716 at Tue Sep 17 09:57:05 2024, MaxMem=  1342177280 cpu:               0.0 elap:               0.0
 (Enter /groups/ReismanLab/Software/Gaussian16_RevC/Linux_Binary_AVX2-enabled-CPU/g16/l103.exe)

 GradGradGradGradGradGradGradGradGradGradGradGradGradGradGradGradGradGrad
 Berny optimization.
 FormGI is forming the generalized inverse of G from B-inverse, IUseBI=4.
 Internal  Forces:  Max     0.013563372 RMS     0.003561949
 Search for a local minimum.
 Step number   1 out of a maximum of  126
 All quantities printed in internal units (Hartrees-Bohrs-Radians)
 RMS Force = .35619D-02 SwitMx=.10000D-02 MixMth= 1
 Mixed Optimization -- RFO/linear search
 Second derivative matrix not updated -- first step.
 ITU=  0
     Eigenvalues ---    0.01362   0.01391   0.01573   0.01722   0.01836
     Eigenvalues ---    0.01837   0.01919   0.02007   0.02028   0.02133
     Eigenvalues ---    0.02139   0.02187   0.02243   0.02252   0.02264
     Eigenvalues ---    0.02278   0.02325   0.02339   0.16000   0.16000
     Eigenvalues ---    0.16000   0.16000   0.16000   0.18362   0.22130
     Eigenvalues ---    0.22554   0.23545   0.24511   0.24922   0.25000
     Eigenvalues ---    0.25000   0.25000   0.25000   0.25000   0.25000
     Eigenvalues ---    0.33959   0.35422   0.35550   0.36012   0.36092
     Eigenvalues ---    0.36104   0.36116   0.36132   0.39558   0.41014
     Eigenvalues ---    0.42532   0.43127   0.45242   0.45591   0.47741
     Eigenvalues ---    0.47968   0.49287   0.49643   0.49713   0.50986
     Eigenvalues ---    1.05449   1.05572
 RFO step:  Lambda=-2.82665826D-03 EMin= 1.36187081D-02
 Linear search not attempted -- first point.
 Iteration  1 RMS(Cart)=  0.01371214 RMS(Int)=  0.00001450
 Iteration  2 RMS(Cart)=  0.00001931 RMS(Int)=  0.00000472
 Iteration  3 RMS(Cart)=  0.00000000 RMS(Int)=  0.00000472
 ITry= 1 IFail=0 DXMaxC= 5.27D-02 DCOld= 1.00D+10 DXMaxT= 3.00D-01 DXLimC= 3.00D+00 Rises=F
 Variable       Old X    -DE/DX   Delta X   Delta X   Delta X     New X
                                 (Linear)    (Quad)   (Total)
    R1        2.26487   0.01349   0.00000   0.01274   0.01274   2.27761
    R2        2.58411   0.01290   0.00000   0.02591   0.02592   2.61003
    R3        2.78387   0.00468   0.00000   0.01318   0.01318   2.79705
    R4        2.58261   0.01319   0.00000   0.02638   0.02638   2.60900
    R5        2.26533   0.01356   0.00000   0.01283   0.01283   2.27815
    R6        2.78207   0.00426   0.00000   0.01187   0.01187   2.79394
    R7        2.60818   0.00265   0.00000   0.00507   0.00507   2.61325
    R8        2.66674   0.00593   0.00000   0.01158   0.01157   2.67831
    R9        2.63475   0.01035   0.00000   0.02246   0.02246   2.65721
   R10        2.03901   0.00359   0.00000   0.00986   0.00986   2.04887
   R11        2.59766   0.00552   0.00000   0.01159   0.01159   2.60926
   R12        2.03919   0.00295   0.00000   0.00811   0.00811   2.04730
   R13        3.58619   0.00314   0.00000   0.01686   0.01686   3.60305
   R14        2.67452   0.00775   0.00000   0.01820   0.01821   2.69273
   R15        2.66219   0.00788   0.00000   0.01809   0.01810   2.68029
   R16        2.68524   0.00928   0.00000   0.02092   0.02091   2.70616
   R17        2.59271   0.00803   0.00000   0.01649   0.01649   2.60920
   R18        2.04063   0.00252   0.00000   0.00695   0.00695   2.04758
   R19        2.63913   0.01014   0.00000   0.02223   0.02223   2.66137
   R20        2.03876   0.00415   0.00000   0.01139   0.01139   2.05015
   R21        2.60776   0.00305   0.00000   0.00586   0.00585   2.61361
   R22        2.03939   0.00356   0.00000   0.00978   0.00978   2.04917
   R23        2.66678   0.00711   0.00000   0.01421   0.01420   2.68098
    A1        2.06783  -0.00090   0.00000  -0.00403  -0.00404   2.06380
    A2        2.16896   0.00190   0.00000   0.00704   0.00704   2.17600
    A3        2.04639  -0.00100   0.00000  -0.00300  -0.00300   2.04339
    A4        2.19951  -0.00181   0.00000  -0.00325  -0.00323   2.19628
    A5        2.06962  -0.00099   0.00000  -0.00431  -0.00431   2.06531
    A6        2.04443  -0.00087   0.00000  -0.00266  -0.00266   2.04176
    A7        2.16914   0.00186   0.00000   0.00698   0.00697   2.17611
    A8        2.09488  -0.00231   0.00000  -0.00592  -0.00590   2.08898
    A9        2.09048   0.00211   0.00000   0.00643   0.00643   2.09691
   A10        2.09782   0.00020   0.00000  -0.00051  -0.00052   2.09730
   A11        2.09791   0.00105   0.00000   0.00351   0.00351   2.10142
   A12        2.07941  -0.00098   0.00000  -0.00456  -0.00456   2.07485
   A13        2.10586  -0.00007   0.00000   0.00105   0.00105   2.10691
   A14        2.09765  -0.00056   0.00000  -0.00157  -0.00156   2.09609
   A15        2.09177   0.00097   0.00000   0.00504   0.00504   2.09681
   A16        2.09376  -0.00041   0.00000  -0.00347  -0.00347   2.09028
   A17        2.06207  -0.00026   0.00000  -0.00139  -0.00139   2.06068
   A18        2.12814  -0.00056   0.00000  -0.00147  -0.00146   2.12668
   A19        2.09297   0.00082   0.00000   0.00286   0.00285   2.09582
   A20        2.17093   0.00064   0.00000   0.00374   0.00373   2.17467
   A21        2.04373  -0.00004   0.00000  -0.00078  -0.00078   2.04295
   A22        2.06852  -0.00060   0.00000  -0.00295  -0.00295   2.06557
   A23        2.11122  -0.00059   0.00000  -0.00147  -0.00146   2.10976
   A24        2.07794  -0.00054   0.00000  -0.00437  -0.00438   2.07356
   A25        2.09403   0.00113   0.00000   0.00584   0.00584   2.09987
   A26        2.10556  -0.00007   0.00000   0.00100   0.00101   2.10656
   A27        2.09192  -0.00023   0.00000  -0.00214  -0.00214   2.08978
   A28        2.08571   0.00030   0.00000   0.00114   0.00114   2.08685
   A29        2.09487   0.00019   0.00000  -0.00022  -0.00023   2.09464
   A30        2.11420   0.00050   0.00000   0.00373   0.00374   2.11794
   A31        2.07411  -0.00068   0.00000  -0.00351  -0.00351   2.07061
   A32        2.09350  -0.00256   0.00000  -0.00695  -0.00693   2.08656
   A33        2.08745   0.00186   0.00000   0.00572   0.00572   2.09316
   A34        2.10224   0.00069   0.00000   0.00123   0.00121   2.10346
   A35        2.10110  -0.00009   0.00000   0.00082   0.00082   2.10193
   A36        2.09812  -0.00029   0.00000  -0.00324  -0.00325   2.09487
   A37        2.08396   0.00038   0.00000   0.00242   0.00242   2.08638
    D1        3.14091  -0.00000   0.00000  -0.00016  -0.00016   3.14075
    D2       -0.00087   0.00000   0.00000   0.00018   0.00018  -0.00070
    D3        0.00024   0.00000   0.00000   0.00010   0.00010   0.00034
    D4       -3.14141   0.00000   0.00000   0.00009   0.00009  -3.14132
    D5       -3.14115  -0.00000   0.00000  -0.00026  -0.00026  -3.14141
    D6        0.00039  -0.00000   0.00000  -0.00027  -0.00027   0.00011
    D7       -3.14045  -0.00001   0.00000  -0.00076  -0.00075  -3.14121
    D8        0.00097  -0.00000   0.00000   0.00003   0.00003   0.00099
    D9        3.14099   0.00000   0.00000   0.00002   0.00002   3.14101
   D10       -0.00057  -0.00000   0.00000  -0.00015  -0.00015  -0.00072
   D11       -0.00078   0.00001   0.00000   0.00085   0.00085   0.00007
   D12        3.14084   0.00001   0.00000   0.00069   0.00069   3.14152
   D13        3.14141   0.00000   0.00000   0.00003   0.00003   3.14144
   D14       -0.00036   0.00001   0.00000   0.00024   0.00024  -0.00012
   D15       -0.00021   0.00000   0.00000   0.00019   0.00019  -0.00002
   D16        3.14120   0.00001   0.00000   0.00041   0.00041  -3.14157
   D17       -3.14145   0.00000   0.00000   0.00005   0.00005  -3.14139
   D18        0.00017   0.00000   0.00000   0.00004   0.00005   0.00022
   D19        0.00017  -0.00000   0.00000  -0.00011  -0.00011   0.00006
   D20       -3.14140  -0.00000   0.00000  -0.00012  -0.00012  -3.14152
   D21        0.00002  -0.00000   0.00000  -0.00003  -0.00003  -0.00001
   D22        3.14133   0.00001   0.00000   0.00028   0.00029  -3.14157
   D23       -3.14139  -0.00001   0.00000  -0.00024  -0.00024   3.14155
   D24       -0.00008   0.00000   0.00000   0.00007   0.00007  -0.00001
   D25        3.14130   0.00001   0.00000   0.00046   0.00046  -3.14142
   D26        0.00021  -0.00001   0.00000  -0.00023  -0.00023  -0.00002
   D27       -0.00001   0.00000   0.00000   0.00015   0.00015   0.00014
   D28       -3.14110  -0.00001   0.00000  -0.00054  -0.00054   3.14155
   D29        3.14126   0.00001   0.00000   0.00036   0.00036  -3.14156
   D30       -0.00025   0.00001   0.00000   0.00030   0.00030   0.00006
   D31        0.00018  -0.00001   0.00000  -0.00034  -0.00034  -0.00016
   D32       -3.14132  -0.00001   0.00000  -0.00040  -0.00040   3.14146
   D33       -3.14154   0.00000   0.00000   0.00003   0.00003  -3.14151
   D34        0.00006   0.00000   0.00000   0.00000   0.00000   0.00007
   D35       -0.00003   0.00000   0.00000   0.00009   0.00009   0.00006
   D36        3.14157   0.00000   0.00000   0.00006   0.00006  -3.14155
   D37        0.00005  -0.00000   0.00000  -0.00013  -0.00013  -0.00008
   D38       -3.14157  -0.00000   0.00000  -0.00012  -0.00012   3.14150
   D39       -3.14146  -0.00000   0.00000  -0.00019  -0.00019   3.14154
   D40        0.00010  -0.00000   0.00000  -0.00018  -0.00018  -0.00007
   D41       -0.00004   0.00000   0.00000   0.00003   0.00003  -0.00001
   D42        3.14143   0.00000   0.00000   0.00011   0.00011   3.14154
   D43        3.14154   0.00000   0.00000   0.00006   0.00006  -3.14159
   D44       -0.00017   0.00000   0.00000   0.00014   0.00014  -0.00003
   D45        0.00004  -0.00000   0.00000  -0.00007  -0.00007  -0.00002
   D46        3.14145   0.00000   0.00000   0.00011   0.00011   3.14156
   D47       -3.14143  -0.00000   0.00000  -0.00015  -0.00015  -3.14158
   D48       -0.00002   0.00000   0.00000   0.00003   0.00003   0.00001
   D49        3.14157  -0.00000   0.00000  -0.00003  -0.00003   3.14153
   D50        0.00003  -0.00000   0.00000  -0.00002  -0.00002   0.00001
   D51        0.00015  -0.00001   0.00000  -0.00021  -0.00021  -0.00005
   D52       -3.14138  -0.00001   0.00000  -0.00020  -0.00020  -3.14158
   D53       -0.00008   0.00000   0.00000   0.00017   0.00017   0.00009
   D54        3.14154   0.00000   0.00000   0.00016   0.00016  -3.14148
   D55        3.14146   0.00000   0.00000   0.00016   0.00016  -3.14157
   D56       -0.00011   0.00000   0.00000   0.00015   0.00015   0.00004
         Item               Value     Threshold  Converged?
 Maximum Force            0.013563     0.000450     NO 
 RMS     Force            0.003562     0.000300     NO 
 Maximum Displacement     0.052663     0.001800     NO 
 RMS     Displacement     0.013710     0.001200     NO 
 Predicted change in Energy=-1.421922D-03
 Lowest energy point so far.  Saving SCF results.
 GradGradGradGradGradGradGradGradGradGradGradGradGradGradGradGradGradGrad

 Leave Link  103 at Tue Sep 17 09:57:05 2024, MaxMem=  1342177280 cpu:               0.1 elap:               0.0
 (Enter /groups/ReismanLab/Software/Gaussian16_RevC/Linux_Binary_AVX2-enabled-CPU/g16/l202.exe)
                          Input orientation:                          
 ---------------------------------------------------------------------
 Center     Atomic      Atomic             Coordinates (Angstroms)
 Number     Number       Type             X           Y           Z
 ---------------------------------------------------------------------
      1          8           0       -4.222361   -1.514577    0.000061
      2          6           0       -3.294791   -0.744991   -0.000201
      3          8           0       -3.568613    0.608762   -0.000485
      4          6           0       -2.631843    1.622949    0.000140
      5          8           0       -3.023119    2.763233    0.000192
      6          6           0       -1.208814    1.221798   -0.000101
      7          6           0       -0.223619    2.192224   -0.000201
      8          6           0        1.134410    1.827573   -0.000242
      9          6           0        1.493333    0.494278   -0.000176
     10         35           0        3.351107    0.065328    0.000048
     11          6           0        0.520019   -0.546436   -0.000047
     12          6           0        0.822590   -1.932133    0.000065
     13          6           0       -0.183957   -2.877269    0.000086
     14          6           0       -1.537021   -2.486598    0.000015
     15          6           0       -1.869477   -1.144088   -0.000051
     16          6           0       -0.856329   -0.150969   -0.000059
     17          1           0       -0.516769    3.236054   -0.000215
     18          1           0        1.902731    2.591382   -0.000299
     19          1           0        1.861564   -2.239669    0.000116
     20          1           0        0.068613   -3.932350    0.000124
     21          1           0       -2.335917   -3.219830    0.000004
 ---------------------------------------------------------------------
                    Distance matrix (angstroms):
                    1          2          3          4          5
     1  O    0.000000
     2  C    1.205259   0.000000
     3  O    2.221700   1.381168   0.000000
     4  C    3.517643   2.458991   1.380621   0.000000
     5  O    4.442728   3.518727   2.222456   1.205547   0.000000
     6  C    4.070530   2.866977   2.438128   1.478490   2.380698
     7  C    5.452550   4.249626   3.700857   2.474594   2.857140
     8  C    6.313870   5.122100   4.858388   3.771808   4.261515
     9  C    6.058437   4.945899   5.063241   4.276795   5.054354
    10  Br   7.736506   6.695116   6.941027   6.182384   6.921665
    11  C    4.840193   3.819974   4.248693   3.826286   4.848477
    12  C    5.062201   4.285106   5.073343   4.956986   6.069262
    13  C    4.262116   3.771458   4.858838   5.122900   6.314752
    14  C    2.855849   2.474459   3.702515   4.252882   5.456117
    15  C    2.381875   1.480135   2.441218   2.870139   4.074070
    16  C    3.631749   2.509773   2.816679   2.509828   3.631467
    17  H    6.024940   4.854495   4.026961   2.660008   2.550558
    18  H    7.373985   6.176214   5.819484   4.636834   4.928847
    19  H    6.126982   5.368618   6.131916   5.925414   6.992078
    20  H    4.925249   4.633761   5.818170   6.176876   7.374933
    21  H    2.542943   2.654104   4.022145   4.851812   6.022399
                    6          7          8          9         10
     6  C    0.000000
     7  C    1.382872   0.000000
     8  C    2.420261   1.406135   0.000000
     9  C    2.798372   2.414735   1.380760   0.000000
    10  Br   4.704286   4.159610   2.831828   1.906652   0.000000
    11  C    2.472957   2.837826   2.452222   1.424930   2.896432
    12  C    3.751517   4.254982   3.772614   2.517413   3.222305
    13  C    4.225243   5.069648   4.886064   3.765718   4.599517
    14  C    3.722891   4.859670   5.074309   4.250726   5.514175
    15  C    2.456398   3.720191   4.225412   3.740686   5.358842
    16  C    1.417299   2.427113   2.806719   2.436648   4.212992
    17  H    2.129825   1.084213   2.170303   3.399683   5.001397
    18  H    3.399629   2.163491   1.083385   2.136692   2.911829
    19  H    4.626984   4.897925   4.131732   2.758634   2.744404
    20  H    5.310090   6.131542   5.857698   4.650254   5.172639
    21  H    4.582403   5.809658   6.125311   5.334581   6.567686
                   11         12         13         14         15
    11  C    0.000000
    12  C    1.418346   0.000000
    13  C    2.434823   1.380731   0.000000
    14  C    2.827657   2.423880   1.408334   0.000000
    15  C    2.463103   2.805038   2.417621   1.383061   0.000000
    16  C    1.432036   2.447716   2.807987   2.432797   1.418715
    17  H    3.922010   5.338918   6.122375   5.812887   4.584262
    18  H    3.428964   4.650688   5.853240   6.133333   5.308794
    19  H    2.160274   1.083534   2.142590   3.407544   3.888568
    20  H    3.415872   2.137603   1.084891   2.160615   3.395673
    21  H    3.911957   3.410913   2.179054   1.084372   2.127503
                   16         17         18         19         20
    16  C    0.000000
    17  H    3.404002   0.000000
    18  H    3.890104   2.503914   0.000000
    19  H    3.427770   5.969926   4.831227   0.000000
    20  H    3.892859   7.192266   6.776656   2.465734   0.000000
    21  H    3.406917   6.707289   7.192797   4.310402   2.507877
                   21
    21  H    0.000000
 Stoichiometry    C12H5BrO3
 Framework group  C1[X(C12H5BrO3)]
 Deg. of freedom    57
 Full point group                 C1      NOp   1
 RotChk:  IX=0 Diff= 3.44D-03
 Largest Abelian subgroup         C1      NOp   1
 Largest concise Abelian subgroup C1      NOp   1
                         Standard orientation:                         
 ---------------------------------------------------------------------
 Center     Atomic      Atomic             Coordinates (Angstroms)
 Number     Number       Type             X           Y           Z
 ---------------------------------------------------------------------
      1          8           0       -4.119029    1.478677   -0.000099
      2          6           0       -3.186907    0.714611    0.000164
      3          8           0       -3.452689   -0.640743    0.000448
      4          6           0       -2.509914   -1.649352   -0.000178
      5          8           0       -2.894414   -2.791939   -0.000229
      6          6           0       -1.089292   -1.239761    0.000063
      7          6           0       -0.098354   -2.204321    0.000164
      8          6           0        1.257487   -1.831615    0.000205
      9          6           0        1.608489   -0.496213    0.000139
     10         35           0        3.463684   -0.056243   -0.000085
     11          6           0        0.629014    0.538704    0.000009
     12          6           0        0.923354    1.926174   -0.000102
     13          6           0       -0.088786    2.865317   -0.000124
     14          6           0       -1.439507    2.466621   -0.000052
     15          6           0       -1.763987    1.122162    0.000013
     16          6           0       -0.744962    0.135075    0.000021
     17          1           0       -0.385302   -3.249873    0.000177
     18          1           0        2.030329   -2.590851    0.000261
     19          1           0        1.960485    2.239872   -0.000153
     20          1           0        0.157517    3.921879   -0.000162
     21          1           0       -2.242741    3.195098   -0.000041
 ---------------------------------------------------------------------
 Rotational constants (GHZ):           0.8308722           0.2661595           0.2015845
 Leave Link  202 at Tue Sep 17 09:57:05 2024, MaxMem=  1342177280 cpu:               0.0 elap:               0.0
 (Enter /groups/ReismanLab/Software/Gaussian16_RevC/Linux_Binary_AVX2-enabled-CPU/g16/l301.exe)
[...]
 NQMom=    0.0000000   0.0000000   0.0000000   0.0000000   0.0000000   0.0000000   0.0000000   0.0000000   0.0000000  31.3000000
 NMagM=    0.0000000   0.0000000   0.0000000   0.0000000   0.0000000   0.0000000   0.0000000   0.0000000   0.0000000   2.1063990
 AtZNuc=   8.0000000   6.0000000   8.0000000   6.0000000   8.0000000   6.0000000   6.0000000   6.0000000   6.0000000  35.0000000

  Atom        11          12          13          14          15          16          17          18          19          20
 IAtWgt=          12          12          12          12          12          12           1           1           1           1
 AtmWgt=  12.0000000  12.0000000  12.0000000  12.0000000  12.0000000  12.0000000   1.0078250   1.0078250   1.0078250   1.0078250
 NucSpn=           0           0           0           0           0           0           1           1           1           1
 AtZEff=   3.6000000   3.6000000   3.6000000   3.6000000   3.6000000   3.6000000   1.0000000   1.0000000   1.0000000   1.0000000
 NQMom=    0.0000000   0.0000000   0.0000000   0.0000000   0.0000000   0.0000000   0.0000000   0.0000000   0.0000000   0.0000000
 NMagM=    0.0000000   0.0000000   0.0000000   0.0000000   0.0000000   0.0000000   2.7928460   2.7928460   2.7928460   2.7928460
 AtZNuc=   6.0000000   6.0000000   6.0000000   6.0000000   6.0000000   6.0000000   1.0000000   1.0000000   1.0000000   1.0000000

  Atom        21
 IAtWgt=           1
 AtmWgt=   1.0078250
 NucSpn=           1
 AtZEff=   1.0000000
 NQMom=    0.0000000
 NMagM=    2.7928460
 AtZNuc=   1.0000000
 Leave Link  101 at Tue Sep 17 11:21:52 2024, MaxMem=  1342177280 cpu:               0.2 elap:               0.2
 (Enter /groups/ReismanLab/Software/Gaussian16_RevC/Linux_Binary_AVX2-enabled-CPU/g16/l202.exe)
                          Input orientation:                          
 ---------------------------------------------------------------------
 Center     Atomic      Atomic             Coordinates (Angstroms)
 Number     Number       Type             X           Y           Z
 ---------------------------------------------------------------------
      1          8           0       -4.218862   -1.517072    0.000097
      2          6           0       -3.291633   -0.748193    0.000089
      3          8           0       -3.572558    0.609977   -0.000298
      4          6           0       -2.627595    1.624605   -0.000419
      5          8           0       -3.019373    2.763949    0.000141
      6          6           0       -1.207779    1.221004   -0.000208
      7          6           0       -0.224194    2.191714   -0.000157
      8          6           0        1.133856    1.827100   -0.000101
      9          6           0        1.489168    0.494283   -0.000080
     10         35           0        3.343910    0.059520    0.000010
     11          6           0        0.517178   -0.545988   -0.000076
     12          6           0        0.821084   -1.930857   -0.000016
     13          6           0       -0.183326   -2.876038    0.000028
     14          6           0       -1.536144   -2.485605    0.000029
     15          6           0       -1.867669   -1.143676   -0.000037
     16          6           0       -0.856736   -0.150776   -0.000120
     17          1           0       -0.516891    3.235495   -0.000207
     18          1           0        1.902992    2.589522   -0.000094
     19          1           0        1.861017   -2.234558   -0.000002
     20          1           0        0.069725   -3.930683    0.000085
     21          1           0       -2.334431   -3.219051    0.000108
 ---------------------------------------------------------------------
                    Distance matrix (angstroms):
                    1          2          3          4          5
     1  O    0.000000
     2  C    1.204545   0.000000
     3  O    2.223072   1.386919   0.000000
     4  C    3.521685   2.463963   1.386514   0.000000
     5  O    4.445888   3.522679   2.223872   1.204822   0.000000
     6  C    4.069850   2.867086   2.442444   1.476067   2.379613
     7  C    5.450914   4.248792   3.703165   2.469403   2.853153
     8  C    6.311503   5.120262   4.861246   3.766897   4.257581
     9  C    6.052037   4.939616   5.063048   4.269118   5.047607
    10  Br   7.725358   6.684522   6.938337   6.173197   6.914138
    11  C    4.834572   3.814175   4.249964   3.821135   4.843850
    12  C    5.056903   4.279385   5.075423   4.953251   6.065502
    13  C    4.258209   3.766869   4.862016   5.121547   6.312894
    14  C    2.852198   2.469888   3.705349   4.252657   5.455070
    15  C    2.380658   1.477864   2.445801   2.870690   4.073813
    16  C    3.629140   2.507116   2.820361   2.507573   3.629411
    17  H    6.024241   4.854788   4.028702   2.655191   2.546521
    18  H    7.371649   6.174502   5.822391   4.632201   4.925455
    19  H    6.122068   5.362750   6.133116   5.919525   6.985935
    20  H    4.921128   4.628928   5.820981   6.175497   7.372966
    21  H    2.539254   2.649788   4.024229   4.852519   6.022079
                    6          7          8          9         10
     6  C    0.000000
     7  C    1.381925   0.000000
     8  C    2.418802   1.406144   0.000000
     9  C    2.793143   2.411821   1.379366   0.000000
    10  Br   4.697543   4.156635   2.829961   1.905016   0.000000
    11  C    2.469360   2.836308   2.451905   1.423702   2.890856
    12  C    3.748401   4.253021   3.770950   2.515480   3.213448
    13  C    4.223181   5.067917   4.884105   3.762486   4.588997
    14  C    3.721125   4.857831   5.072309   4.246439   5.503870
    15  C    2.455028   3.718310   4.223110   3.735139   5.348667
    16  C    1.415984   2.426390   2.806145   2.432975   4.205906
    17  H    2.129672   1.084044   2.169917   3.396839   4.999260
    18  H    3.398490   2.164064   1.082986   2.135714   2.911555
    19  H    4.621516   4.892850   4.126237   2.754059   2.731623
    20  H    5.307720   6.129447   5.855291   4.647057   5.161589
    21  H    4.580767   5.807708   6.123125   5.329987   6.556873
                   11         12         13         14         15
    11  C    0.000000
    12  C    1.417822   0.000000
    13  C    2.433072   1.379205   0.000000
    14  C    2.824579   2.421625   1.408032   0.000000
    15  C    2.458603   2.801615   2.416215   1.382275   0.000000
    16  C    1.429627   2.446173   2.807229   2.431670   1.416981
    17  H    3.920321   5.336794   6.120629   5.811184   4.582765
    18  H    3.428105   4.648048   5.850220   6.130625   5.306096
    19  H    2.158048   1.083372   2.142623   3.406424   3.884987
    20  H    3.414143   2.136315   1.084578   2.160339   3.394246
    21  H    3.908573   3.408331   2.178282   1.084069   2.127216
                   16         17         18         19         20
    16  C    0.000000
    17  H    3.403282   0.000000
    18  H    3.889130   2.504619   0.000000
    19  H    3.424664   5.964556   4.824262   0.000000
    20  H    3.891789   7.190148   6.773030   2.466894   0.000000
    21  H    3.405568   6.705566   7.189943   4.309410   2.507267
                   21
    21  H    0.000000
 Stoichiometry    C12H5BrO3
 Framework group  C1[X(C12H5BrO3)]
 Deg. of freedom    57
 Full point group                 C1      NOp   1
 RotChk:  IX=0 Diff= 2.37D-16
 Largest Abelian subgroup         C1      NOp   1
 Largest concise Abelian subgroup C1      NOp   1
                         Standard orientation:                         
 ---------------------------------------------------------------------
 Center     Atomic      Atomic             Coordinates (Angstroms)
 Number     Number       Type             X           Y           Z
 ---------------------------------------------------------------------
      1          8           0       -4.112355    1.484249   -0.000145
      2          6           0       -3.181411    0.719872   -0.000138
      3          8           0       -3.455749   -0.639644    0.000249
      4          6           0       -2.505881   -1.649679    0.000370
      5          8           0       -2.892132   -2.790909   -0.000190
      6          6           0       -1.088037   -1.239202    0.000159
      7          6           0       -0.099759   -2.205133    0.000108
      8          6           0        1.256507   -1.833943    0.000052
      9          6           0        1.605356   -0.499419    0.000031
     10         35           0        3.457969   -0.055672   -0.000059
     11          6           0        0.628336    0.536129    0.000027
     12          6           0        0.925526    1.922455   -0.000033
     13          6           0       -0.083452    2.862757   -0.000077
     14          6           0       -1.434362    2.465772   -0.000078
     15          6           0       -1.759380    1.122252   -0.000012
     16          6           0       -0.743647    0.134263    0.000071
     17          1           0       -0.387394   -3.250321    0.000158
     18          1           0        2.029330   -2.592627    0.000045
     19          1           0        1.963975    2.231192   -0.000047
     20          1           0        0.164485    3.918616   -0.000134
     21          1           0       -2.236195    3.195340   -0.000157
 ---------------------------------------------------------------------
 Rotational constants (GHZ):           0.8309634           0.2668746           0.2019998
 Leave Link  202 at Tue Sep 17 11:21:52 2024, MaxMem=  1342177280 cpu:               0.0 elap:               0.0
 (Enter /groups/ReismanLab/Software/Gaussian16_RevC/Linux_Binary_AVX2-enabled-CPU/g16/l301.exe)
 Standard basis: def2TZVP (5D, 7F)
 Ernie: Thresh=  0.10000D-02 Tol=  0.10000D-05 Strict=F.
 There are   625 symmetry adapted cartesian basis functions of A   symmetry.
 There are   543 symmetry adapted basis functions of A   symmetry.
   543 basis functions,   919 primitive gaussians,   625 cartesian basis functions
    68 alpha electrons       68 beta electrons
       nuclear repulsion energy      1328.2872638061 Hartrees.
 IExCor= 4336 DFT=T Ex+Corr=M062X ExCW=0 ScaHFX=  0.540000
 ScaDFX=  1.000000  1.000000  1.000000  1.000000 ScalE2=  1.000000  1.000000
 IRadAn=      5 IRanWt=     -1 IRanGd=            0 ICorTp=0 IEmpDi=  4
 NAtoms=   21 NActive=   21 NUniq=   21 SFac= 1.00D+00 NAtFMM=   60 NAOKFM=F Big=F
 Integral buffers will be    131072 words long.
 Raffenetti 2 integral format.
 Two-electron integral symmetry is turned on.
 ------------------------------------------------------------------------------
 Polarizable Continuum Model (PCM)
 =================================
 Model                : PCM.
 Atomic radii         : SMD-Coulomb.
 Polarization charges : Total charges.
 Charge compensation  : None.
 Solution method      : On-the-fly selection.
 Cavity type          : VdW (van der Waals Surface) (Alpha=1.000).
 Cavity algorithm     : GePol (No added spheres)
                        Default sphere list used, NSphG=   21.
                        Lebedev-Laikov grids with approx.  5.0 points / Ang**2.
                        Smoothing algorithm: York/Karplus (Gamma=1.0000).
                        Polarization charges: spherical gaussians, with
                                              point-specific exponents (IZeta= 3).
                        Self-potential: point-specific (ISelfS= 7).
                        Self-field    : sphere-specific E.n sum rule (ISelfD= 2).
 Solvent              : 1,4-Dioxane, Eps=   2.209900 Eps(inf)=   2.023222
 ------------------------------------------------------------------------------
 GePol: Number of generator spheres                  =      21
 GePol: Total number of spheres                      =      21
 GePol: Number of exposed spheres                    =      21 (100.00%)
 GePol: Number of points                             =    2106
 GePol: Average weight of points                     =       0.13
 GePol: Minimum weight of points                     =   0.34D-08
 GePol: Maximum weight of points                     =    0.21647
 GePol: Number of points with low weight             =      70
 GePol: Fraction of low-weight points (<1% of avg)   =       3.32%
 GePol: Cavity surface area                          =    266.421 Ang**2
 GePol: Cavity volume                                =    285.021 Ang**3
 ------------------------------------------------------------------------------
 Atomic radii for non-electrostatic terms: SMD-CDS.
 ------------------------------------------------------------------------------
 PCM non-electrostatic energy =        -0.0084039677 Hartrees.
 Nuclear repulsion after PCM non-electrostatic terms =     1328.2788598384 Hartrees.
 Leave Link  301 at Tue Sep 17 11:21:52 2024, MaxMem=  1342177280 cpu:               0.1 elap:               0.1
 (Enter /groups/ReismanLab/Software/Gaussian16_RevC/Linux_Binary_AVX2-enabled-CPU/g16/l302.exe)
 NPDir=0 NMtPBC=     1 NCelOv=     1 NCel=       1 NClECP=     1 NCelD=      1
         NCelK=      1 NCelE2=     1 NClLst=     1 CellRange=     0.0.
 One-electron integrals computed using PRISM.
 One-electron integral symmetry used in STVInt
   1 Symmetry operations used in ECPInt.
 ECPInt:  NShTT=   20301 NPrTT=   68676 LenC2=   18750 LenP2D=   45878.
 LDataN:  DoStor=T MaxTD1= 6 Len=  172
 NBasis=   543 RedAO= T EigKep=  4.30D-06  NBF=   543
 NBsUse=   543 1.00D-06 EigRej= -1.00D+00 NBFU=   543
 Precomputing XC quadrature grid using
 IXCGrd= 4 IRadAn=           5 IRanWt=          -1 IRanGd=           0 AccXCQ= 0.00D+00.
 Generated NRdTot=       0 NPtTot=           0 NUsed=           0 NTot=          32
 NSgBfM=   619   619   619   619   619 MxSgAt=    21 MxSgA2=    21.
 Leave Link  302 at Tue Sep 17 11:21:53 2024, MaxMem=  1342177280 cpu:               0.8 elap:               0.8
 (Enter /groups/ReismanLab/Software/Gaussian16_RevC/Linux_Binary_AVX2-enabled-CPU/g16/l303.exe)
 DipDrv:  MaxL=1.
 Leave Link  303 at Tue Sep 17 11:21:53 2024, MaxMem=  1342177280 cpu:               0.1 elap:               0.1
 (Enter /groups/ReismanLab/Software/Gaussian16_RevC/Linux_Binary_AVX2-enabled-CPU/g16/l308.exe)
 Leave Link  308 at Tue Sep 17 11:21:53 2024, MaxMem=  1342177280 cpu:               0.1 elap:               0.2
 (Enter /groups/ReismanLab/Software/Gaussian16_RevC/Linux_Binary_AVX2-enabled-CPU/g16/l401.exe)
 Initial guess from the checkpoint file:  "smiles_00091_conf_0.chk"
 B after Tr=    -0.000000   -0.000000    0.000000
         Rot=    1.000000   -0.000000    0.000000    0.000000 Ang=   0.00 deg.
 Guess basis will be translated and rotated to current coordinates.
 JPrj=2 DoOrth=T DoCkMO=T.
 Leave Link  401 at Tue Sep 17 11:21:54 2024, MaxMem=  1342177280 cpu:               0.4 elap:               0.4
 (Enter /groups/ReismanLab/Software/Gaussian16_RevC/Linux_Binary_AVX2-enabled-CPU/g16/l502.exe)
 Integral symmetry usage will be decided dynamically.
 Closed shell SCF:
 Using DIIS extrapolation, IDIIS=  1040.
 NGot=  1342177280 LenX=  1341386528 LenY=  1340995278
 Requested convergence on RMS density matrix=1.00D-08 within  32 cycles.
 Requested convergence on MAX density matrix=1.00D-06.
 Requested convergence on             energy=1.00D-06.
 No special actions if energy rises.
 Fock matrices will be formed incrementally for  20 cycles.

 Cycle   1  Pass 1  IDiag  1:
 FoFJK:  IHMeth= 1 ICntrl=       0 DoSepK=F KAlg= 0 I1Cent=           0 FoldK=F
 IRaf= 880000000 NMat=       1 IRICut=       1 DoRegI=T DoRafI=F ISym2E= 0 IDoP0=0 IntGTp=1.
 FoFCou: FMM=F IPFlag=           0 FMFlag=      100000 FMFlg1=           0
         NFxFlg=           0 DoJE=F BraDBF=F KetDBF=F FulRan=T
         wScrn=  0.000000 ICntrl=         0 IOpCl=  0 I1Cent=           0 NGrid=           0
         NMat0=    1 NMatS0=      1 NMatT0=    0 NMatD0=    1 NMtDS0=    0 NMtDT0=    0
 Symmetry not used in FoFCou.
 Inv3:  Mode=1 IEnd=    13305708.
 Iteration    1 A*A^-1 deviation from unit magnitude is 3.11D-15 for   1643.
 Iteration    1 A*A^-1 deviation from orthogonality  is 2.13D-15 for    679    381.
 Iteration    1 A^-1*A deviation from unit magnitude is 3.11D-15 for   1643.
 Iteration    1 A^-1*A deviation from orthogonality  is 1.48D-15 for    903    451.
 E= -3260.20561768552    
 DIIS: error= 1.80D-08 at cycle   1 NSaved=   1.
 NSaved= 1 IEnMin= 1 EnMin= -3260.20561768552     IErMin= 1 ErrMin= 1.80D-08
 ErrMax= 1.80D-08  0.00D+00 EMaxC= 1.00D-01 BMatC= 8.56D-14 BMatP= 8.56D-14
 IDIUse=1 WtCom= 1.00D+00 WtEn= 0.00D+00
 Coeff-Com:  0.100D+01
 Coeff:      0.100D+01
 Gap=     0.217 Goal=   None    Shift=    0.000
 RMSDP=2.10D-09 MaxDP=1.33D-07              OVMax= 2.56D-07

 Error on total polarization charges =  0.01658
 SCF Done:  E(RM062X) =  -3260.20561769     A.U. after    1 cycles
            NFock=  1  Conv=0.21D-08     -V/T= 2.0021
 KE= 3.253362806462D+03 PE=-1.040772107632D+04 EE= 2.565873792335D+03
 SMD-CDS (non-electrostatic) energy       (kcal/mol) =      -5.27
 (included in total energy above)
 Leave Link  502 at Tue Sep 17 11:24:15 2024, MaxMem=  1342177280 cpu:             141.1 elap:             141.6
 (Enter /groups/ReismanLab/Software/Gaussian16_RevC/Linux_Binary_AVX2-enabled-CPU/g16/l508.exe)
 QCSCF skips out because SCF is already converged.
 Leave Link  508 at Tue Sep 17 11:24:15 2024, MaxMem=  1342177280 cpu:               0.0 elap:               0.0
 (Enter /groups/ReismanLab/Software/Gaussian16_RevC/Linux_Binary_AVX2-enabled-CPU/g16/l801.exe)
 DoSCS=F DFT=T ScalE2(SS,OS)=  1.000000  1.000000
 Range of M.O.s used for correlation:     1   543
 NBasis=   543 NAE=    68 NBE=    68 NFC=     0 NFV=     0
 NROrb=    543 NOA=    68 NOB=    68 NVA=   475 NVB=   475

 **** Warning!!: The largest alpha MO coefficient is  0.10114842D+03

 Leave Link  801 at Tue Sep 17 11:24:15 2024, MaxMem=  1342177280 cpu:               0.0 elap:               0.0
 (Enter /groups/ReismanLab/Software/Gaussian16_RevC/Linux_Binary_AVX2-enabled-CPU/g16/l1002.exe)
 Minotr:  Closed shell wavefunction.
 NEqPCM:  Using equilibrium solvation (IEInf=0, Eps=   2.2099, EpsInf=   2.0232)
          Direct CPHF calculation.
          Differentiating once with respect to magnetic field using GIAOs.
          Electric field/nuclear overlap derivatives assumed to be zero.
          Requested convergence is 1.0D-08 RMS, and 1.0D-07 maximum.
          Secondary convergence is 1.0D-12 RMS, and 1.0D-12 maximum.
          NewPWx=T KeepS1=F KeepF1=F KeepIn=T MapXYZ=F SortEE=F KeepMc=T.
         6308 words used for storage of precomputed grid.
 Two-electron integral symmetry used by symmetrizing perturbed Fock matrices.
          MDV=    1342177280 using IRadAn=       1.
          Solving linear equations simultaneously, MaxMat=     384.
   1 Symmetry operations used in ECPInt.
 ECPInt:  NShTT=   20301 NPrTT=   68676 LenC2=   20302 LenP2D=   68676.
 LDataN:  DoStor=T MaxTD1= 7 Len=  274
 FoFJK:  IHMeth= 1 ICntrl=    6127 DoSepK=F KAlg= 0 I1Cent=           0 FoldK=F
 IRaf=         1 NMat=       1 IRICut=       1 DoRegI=T DoRafI=F ISym2E= 0 IDoP0=0 IntGTp=1.
          There are     3 degrees of freedom in the 1st order CPHF.  IDoFFX=0 NUNeed=     3.
      3 vectors produced by pass  0 Test12= 1.08D-12 3.33D-08 XBig12= 2.60D+01 9.23D-01.
 AX will form     3 AO Fock derivatives at one time.
      3 vectors produced by pass  1 Test12= 1.08D-12 3.33D-08 XBig12= 2.04D-01 1.38D-01.
      3 vectors produced by pass  2 Test12= 1.08D-12 3.33D-08 XBig12= 3.17D-03 1.90D-02.
      3 vectors produced by pass  3 Test12= 1.08D-12 3.33D-08 XBig12= 6.20D-05 1.68D-03.
      3 vectors produced by pass  4 Test12= 1.08D-12 3.33D-08 XBig12= 8.20D-07 3.40D-04.
      3 vectors produced by pass  5 Test12= 1.08D-12 3.33D-08 XBig12= 1.69D-08 4.23D-05.
      3 vectors produced by pass  6 Test12= 1.08D-12 3.33D-08 XBig12= 1.79D-10 3.35D-06.
      3 vectors produced by pass  7 Test12= 1.08D-12 3.33D-08 XBig12= 2.08D-12 3.43D-07.
      2 vectors produced by pass  8 Test12= 1.08D-12 3.33D-08 XBig12= 2.28D-14 4.21D-08.
