 Entering Gaussian System, Link 0=g16
 Input=smiles_00106_conf_0.gjf
 Output=smiles_00106_conf_0.log
 Initial command:
 /groups/ReismanLab/Software/Gaussian16_RevC/Linux_Binary_AVX2-enabled-CPU/g16/l1.exe "/central/groups/ReismanLab/DM/dft_final/smiles_00106/Gau-3234968.inp" -scrdir="/central/groups/ReismanLab/DM/dft_final/smiles_00106/"
 Entering Link 1 = /groups/ReismanLab/Software/Gaussian16_RevC/Linux_Binary_AVX2-enabled-CPU/g16/l1.exe PID=   3234969.
  
 Copyright (c) 1988-2021, Gaussian, Inc.  All Rights Reserved.
  
 This is part of the Gaussian(R) 16 program.  It is based on
 the Gaussian(R) 09 system (copyright 2009, Gaussian, Inc.),
 the Gaussian(R) 03 system (copyright 2003, Gaussian, Inc.),
 the Gaussian(R) 98 system (copyright 1998, Gaussian, Inc.),
 the Gaussian(R) 94 system (copyright 1995, Gaussian, Inc.),
 the Gaussian 92(TM) system (copyright 1992, Gaussian, Inc.),
 the Gaussian 90(TM) system (copyright 1990, Gaussian, Inc.),
 the Gaussian 88(TM) system (copyright 1988, Gaussian, Inc.),
 the Gaussian 86(TM) system (copyright 1986, Carnegie Mellon
 University), and the Gaussian 82(TM) system (copyright 1983,
 Carnegie Mellon University). Gaussian is a federally registered
 trademark of Gaussian, Inc.
  
 This software contains proprietary and confidential information,
 including trade secrets, belonging to Gaussian, Inc.
  
 This software is provided under written license and may be
 used, copied, transmitted, or stored only in accord with that
 written license.
  
 The following legend is applicable only to US Government
 contracts under FAR:
  
                    RESTRICTED RIGHTS LEGEND
  
 Use, reproduction and disclosure by the US Government is
 subject to restrictions as set forth in subparagraphs (a)
 and (c) of the Commercial Computer Software - Restricted
 Rights clause in FAR 52.227-19.
  
 Gaussian, Inc.
 340 Quinnipiac St., Bldg. 40, Wallingford CT 06492
  
  
 ---------------------------------------------------------------
 Warning -- This program may not be used in any manner that
 competes with the business of Gaussian, Inc. or will provide
 assistance to any competitor of Gaussian, Inc.  The licensee
 of this program is prohibited from giving any competitor of
 Gaussian, Inc. access to this program.  By using this program,
 the user acknowledges that Gaussian, Inc. is engaged in the
 business of creating and licensing software in the field of
 computational chemistry and represents and warrants to the
 licensee that it is not a competitor of Gaussian, Inc. and that
 it will not use this program in any manner prohibited above.
 ---------------------------------------------------------------
  

 Cite this work as:
 Gaussian 16, Revision C.02,
 M. J. Frisch, G. W. Trucks, H. B. Schlegel, G. E. Scuseria, 
 M. A. Robb, J. R. Cheeseman, G. Scalmani, V. Barone, 
 G. A. Petersson, H. Nakatsuji, X. Li, M. Caricato, A. V. Marenich, 
 J. Bloino, B. G. Janesko, R. Gomperts, B. Mennucci, H. P. Hratchian, 
 J. V. Ortiz, A. F. Izmaylov, J. L. Sonnenberg, D. Williams-Young, 
 F. Ding, F. Lipparini, F. Egidi, J. Goings, B. Peng, A. Petrone, 
 T. Henderson, D. Ranasinghe, V. G. Zakrzewski, J. Gao, N. Rega, 
 G. Zheng, W. Liang, M. Hada, M. Ehara, K. Toyota, R. Fukuda, 
 J. Hasegawa, M. Ishida, T. Nakajima, Y. Honda, O. Kitao, H. Nakai, 
 T. Vreven, K. Throssell, J. A. Montgomery, Jr., J. E. Peralta, 
 F. Ogliaro, M. J. Bearpark, J. J. Heyd, E. N. Brothers, K. N. Kudin, 
 V. N. Staroverov, T. A. Keith, R. Kobayashi, J. Normand, 
 K. Raghavachari, A. P. Rendell, J. C. Burant, S. S. Iyengar, 
 J. Tomasi, M. Cossi, J. M. Millam, M. Klene, C. Adamo, R. Cammi, 
 J. W. Ochterski, R. L. Martin, K. Morokuma, O. Farkas, 
 J. B. Foresman, and D. J. Fox, Gaussian, Inc., Wallingford CT, 2019.
 
 ******************************************
 Gaussian 16:  ES64L-G16RevC.02  7-Dec-2021
                17-Sep-2024 
 ******************************************
 %nprocshared=8
 Will use up to    8 processors via shared memory.
 %Mem=10GB
 %Chk=smiles_00106_conf_0.chk
 ----------------------------------------------------------------------
 #p B3LYP/6-31G(d,p) EmpiricalDispersion=GD3BJ opt freq scf(xqc,tight) 
 integral(grid=ultrafine)
 ----------------------------------------------------------------------
 1/18=20,19=15,26=4,38=1/1,3;
 2/9=110,12=2,17=6,18=5,40=1/2;
 3/5=1,6=6,7=101,11=2,25=1,30=1,71=1,74=-5,75=-5,124=41/1,2,3;
 4//1;
 5/5=2,8=3,13=1,32=2,38=5/2,8;
 6/7=2,8=2,9=2,10=2,28=1/1;
 7//1,2,3,16;
 1/18=20,19=15,26=4/3(2);
 2/9=110/2;
 99//99;
 2/9=110/2;
 3/5=1,6=6,7=101,11=2,25=1,30=1,71=1,74=-5,75=-5,124=41/1,2,3;
 4/5=5,16=3,69=1/1;
 5/5=2,8=3,13=1,32=2,38=5/2,8;
 7//1,2,3,16;
 1/18=20,19=15,26=4/3(-5);
 2/9=110/2;
 6/7=2,8=2,9=2,10=2,19=2,28=1/1;
 99/9=1/99;
 Leave Link    1 at Tue Sep 17 09:48:40 2024, MaxMem=  1342177280 cpu:               0.1 elap:               0.5
 (Enter /groups/ReismanLab/Software/Gaussian16_RevC/Linux_Binary_AVX2-enabled-CPU/g16/l101.exe)
 ----------------------------------
 opt-freq conformers_unique/conf_aa
 ----------------------------------
 Symbolic Z-matrix:
 Charge =  0 Multiplicity = 1
 F                    -4.62605   0.4322   -1.07179 
 C                    -4.0332   -0.12407  -0.00007 
 F                    -4.33572  -1.41538  -0.00553 
 F                    -4.62411   0.42271   1.07751 
 C                    -2.54644   0.15429  -0.00017 
 C                    -2.0931    1.49551  -0.00005 
 N                    -0.82121   1.77794   0.00003 
 C                     0.04342   0.74368   0.00003 
 C                     1.43422   0.97415   0.00001 
 C                     2.25618  -0.12119  -0.00009 
 Br                    4.13699   0.07392  0. 
 C                     1.70033  -1.42368  -0.00005 
 N                     0.42475  -1.65208   0.00007 
 C                    -0.42004  -0.60703   0.00005 
 N                    -1.73724  -0.86902  -0.00002 
 H                    -2.7862    2.32504  -0.00022 
 H                     1.80448   1.9879   -0.00002 
 H                     2.34843  -2.29019   0.00008 
 
 ITRead=  0  0  0  0  0  0  0  0  0  0  0  0  0  0  0  0  0  0
 MicOpt= -1 -1 -1 -1 -1 -1 -1 -1 -1 -1 -1 -1 -1 -1 -1 -1 -1 -1
 NAtoms=     18 NQM=       18 NQMF=       0 NMMI=      0 NMMIF=      0
                NMic=       0 NMicF=      0.
                    Isotopes and Nuclear Properties:
 (Nuclear quadrupole moments (NQMom) in fm**2, nuclear magnetic moments (NMagM)
  in nuclear magnetons)

  Atom         1           2           3           4           5           6           7           8           9          10
 IAtWgt=          19          12          19          19          12          12          14          12          12          12
 AtmWgt=  18.9984032  12.0000000  18.9984032  18.9984032  12.0000000  12.0000000  14.0030740  12.0000000  12.0000000  12.0000000
 NucSpn=           1           0           1           1           0           0           2           0           0           0
 AtZEff=  -0.0000000  -0.0000000  -0.0000000  -0.0000000  -0.0000000  -0.0000000  -0.0000000  -0.0000000  -0.0000000  -0.0000000
 NQMom=    0.0000000   0.0000000   0.0000000   0.0000000   0.0000000   0.0000000   2.0440000   0.0000000   0.0000000   0.0000000
 NMagM=    2.6288670   0.0000000   2.6288670   2.6288670   0.0000000   0.0000000   0.4037610   0.0000000   0.0000000   0.0000000
 AtZNuc=   9.0000000   6.0000000   9.0000000   9.0000000   6.0000000   6.0000000   7.0000000   6.0000000   6.0000000   6.0000000

  Atom        11          12          13          14          15          16          17          18
 IAtWgt=          79          12          14          12          14           1           1           1
 AtmWgt=  78.9183361  12.0000000  14.0030740  12.0000000  14.0030740   1.0078250   1.0078250   1.0078250
 NucSpn=           3           0           2           0           2           1           1           1
 AtZEff=  -0.0000000  -0.0000000  -0.0000000  -0.0000000  -0.0000000  -0.0000000  -0.0000000  -0.0000000
 NQMom=   31.3000000   0.0000000   2.0440000   0.0000000   2.0440000   0.0000000   0.0000000   0.0000000
 NMagM=    2.1063990   0.0000000   0.4037610   0.0000000   0.4037610   2.7928460   2.7928460   2.7928460
 AtZNuc=  35.0000000   6.0000000   7.0000000   6.0000000   7.0000000   1.0000000   1.0000000   1.0000000
 Leave Link  101 at Tue Sep 17 09:48:40 2024, MaxMem=  1342177280 cpu:               0.2 elap:               0.2
 (Enter /groups/ReismanLab/Software/Gaussian16_RevC/Linux_Binary_AVX2-enabled-CPU/g16/l103.exe)

 GradGradGradGradGradGradGradGradGradGradGradGradGradGradGradGradGradGrad
 Berny optimization.
 Initialization pass.
                           ----------------------------
                           !    Initial Parameters    !
                           ! (Angstroms and Degrees)  !
 --------------------------                            --------------------------
 ! Name  Definition              Value          Derivative Info.                !
 --------------------------------------------------------------------------------
 ! R1    R(1,2)                  1.3452         estimate D2E/DX2                !
 ! R2    R(2,3)                  1.3263         estimate D2E/DX2                !
 ! R3    R(2,4)                  1.3451         estimate D2E/DX2                !
 ! R4    R(2,5)                  1.5126         estimate D2E/DX2                !
 ! R5    R(5,6)                  1.4158         estimate D2E/DX2                !
 ! R6    R(5,15)                 1.3046         estimate D2E/DX2                !
 ! R7    R(6,7)                  1.3029         estimate D2E/DX2                !
 ! R8    R(6,16)                 1.081          estimate D2E/DX2                !
 ! R9    R(7,8)                  1.3481         estimate D2E/DX2                !
 ! R10   R(8,9)                  1.4098         estimate D2E/DX2                !
 ! R11   R(8,14)                 1.428          estimate D2E/DX2                !
 ! R12   R(9,10)                 1.3694         estimate D2E/DX2                !
 ! R13   R(9,17)                 1.0792         estimate D2E/DX2                !
 ! R14   R(10,11)                1.8909         estimate D2E/DX2                !
 ! R15   R(10,12)                1.4161         estimate D2E/DX2                !
 ! R16   R(12,13)                1.2959         estimate D2E/DX2                !
 ! R17   R(12,18)                1.0821         estimate D2E/DX2                !
 ! R18   R(13,14)                1.3438         estimate D2E/DX2                !
 ! R19   R(14,15)                1.343          estimate D2E/DX2                !
 ! A1    A(1,2,3)              107.3868         estimate D2E/DX2                !
 ! A2    A(1,2,4)              106.0545         estimate D2E/DX2                !
 ! A3    A(1,2,5)              110.9185         estimate D2E/DX2                !
 ! A4    A(3,2,4)              107.3897         estimate D2E/DX2                !
 ! A5    A(3,2,5)              113.789          estimate D2E/DX2                !
 ! A6    A(4,2,5)              110.919          estimate D2E/DX2                !
 ! A7    A(2,5,6)              119.2796         estimate D2E/DX2                !
 ! A8    A(2,5,15)             117.7313         estimate D2E/DX2                !
 ! A9    A(6,5,15)             122.9891         estimate D2E/DX2                !
 ! A10   A(5,6,7)              121.1951         estimate D2E/DX2                !
 ! A11   A(5,6,16)             121.4449         estimate D2E/DX2                !
 ! A12   A(7,6,16)             117.36           estimate D2E/DX2                !
 ! A13   A(6,7,8)              117.3754         estimate D2E/DX2                !
 ! A14   A(7,8,9)              120.486          estimate D2E/DX2                !
 ! A15   A(7,8,14)             121.1666         estimate D2E/DX2                !
 ! A16   A(9,8,14)             118.3474         estimate D2E/DX2                !
 ! A17   A(8,9,10)             117.4757         estimate D2E/DX2                !
 ! A18   A(8,9,17)             119.4735         estimate D2E/DX2                !
 ! A19   A(10,9,17)            123.0508         estimate D2E/DX2                !
 ! A20   A(9,10,11)            120.9625         estimate D2E/DX2                !
 ! A21   A(9,10,12)            120.0043         estimate D2E/DX2                !
 ! A22   A(11,10,12)           119.0332         estimate D2E/DX2                !
 ! A23   A(10,12,13)           123.2624         estimate D2E/DX2                !
 ! A24   A(10,12,18)           120.0949         estimate D2E/DX2                !
 ! A25   A(13,12,18)           116.6427         estimate D2E/DX2                !
 ! A26   A(12,13,14)           118.7994         estimate D2E/DX2                !
 ! A27   A(8,14,13)            122.1108         estimate D2E/DX2                !
 ! A28   A(8,14,15)            120.1871         estimate D2E/DX2                !
 ! A29   A(13,14,15)           117.7021         estimate D2E/DX2                !
 ! A30   A(5,15,14)            117.0866         estimate D2E/DX2                !
 ! D1    D(1,2,5,6)             58.5428         estimate D2E/DX2                !
 ! D2    D(1,2,5,15)          -121.4743         estimate D2E/DX2                !
 ! D3    D(3,2,5,6)            179.7482         estimate D2E/DX2                !
 ! D4    D(3,2,5,15)            -0.269          estimate D2E/DX2                !
 ! D5    D(4,2,5,6)            -59.0422         estimate D2E/DX2                !
 ! D6    D(4,2,5,15)           120.9407         estimate D2E/DX2                !
 ! D7    D(2,5,6,7)            179.9918         estimate D2E/DX2                !
 ! D8    D(2,5,6,16)            -0.0203         estimate D2E/DX2                !
 ! D9    D(15,5,6,7)             0.0099         estimate D2E/DX2                !
 ! D10   D(15,5,6,16)          179.9978         estimate D2E/DX2                !
 ! D11   D(2,5,15,14)         -179.9921         estimate D2E/DX2                !
 ! D12   D(6,5,15,14)           -0.0099         estimate D2E/DX2                !
 ! D13   D(5,6,7,8)             -0.0022         estimate D2E/DX2                !
 ! D14   D(16,6,7,8)          -179.9905         estimate D2E/DX2                !
 ! D15   D(6,7,8,9)            179.9949         estimate D2E/DX2                !
 ! D16   D(6,7,8,14)            -0.0043         estimate D2E/DX2                !
 ! D17   D(7,8,9,10)          -179.9949         estimate D2E/DX2                !
 ! D18   D(7,8,9,17)            -0.0005         estimate D2E/DX2                !
 ! D19   D(14,8,9,10)            0.0043         estimate D2E/DX2                !
 ! D20   D(14,8,9,17)          179.9987         estimate D2E/DX2                !
 ! D21   D(7,8,14,13)         -179.9995         estimate D2E/DX2                !
 ! D22   D(7,8,14,15)            0.004          estimate D2E/DX2                !
 ! D23   D(9,8,14,13)            0.0013         estimate D2E/DX2                !
 ! D24   D(9,8,14,15)         -179.9952         estimate D2E/DX2                !
 ! D25   D(8,9,10,11)         -179.9955         estimate D2E/DX2                !
 ! D26   D(8,9,10,12)           -0.005          estimate D2E/DX2                !
 ! D27   D(17,9,10,11)           0.0103         estimate D2E/DX2                !
 ! D28   D(17,9,10,12)        -179.9993         estimate D2E/DX2                !
 ! D29   D(9,10,12,13)           0.0002         estimate D2E/DX2                !
 ! D30   D(9,10,12,18)        -179.9873         estimate D2E/DX2                !
 ! D31   D(11,10,12,13)        179.9909         estimate D2E/DX2                !
 ! D32   D(11,10,12,18)          0.0033         estimate D2E/DX2                !
 ! D33   D(10,12,13,14)          0.0055         estimate D2E/DX2                !
 ! D34   D(18,12,13,14)        179.9934         estimate D2E/DX2                !
 ! D35   D(12,13,14,8)          -0.0062         estimate D2E/DX2                !
 ! D36   D(12,13,14,15)        179.9904         estimate D2E/DX2                !
 ! D37   D(8,14,15,5)            0.0032         estimate D2E/DX2                !
 ! D38   D(13,14,15,5)        -179.9934         estimate D2E/DX2                !
 --------------------------------------------------------------------------------
 Trust Radius=3.00D-01 FncErr=1.00D-07 GrdErr=1.00D-06 EigMax=2.50D+02 EigMin=1.00D-04
 Number of steps in this run=     97 maximum allowed number of steps=    108.
 GradGradGradGradGradGradGradGradGradGradGradGradGradGradGradGradGradGrad

 Leave Link  103 at Tue Sep 17 09:48:40 2024, MaxMem=  1342177280 cpu:               0.0 elap:               0.0
 (Enter /groups/ReismanLab/Software/Gaussian16_RevC/Linux_Binary_AVX2-enabled-CPU/g16/l202.exe)
                          Input orientation:                          
 ---------------------------------------------------------------------
 Center     Atomic      Atomic             Coordinates (Angstroms)
 Number     Number       Type             X           Y           Z
 ---------------------------------------------------------------------
      1          9           0       -4.626046    0.432199   -1.071790
      2          6           0       -4.033204   -0.124069   -0.000073
      3          9           0       -4.335718   -1.415376   -0.005535
      4          9           0       -4.624115    0.422708    1.077509
      5          6           0       -2.546436    0.154289   -0.000173
      6          6           0       -2.093103    1.495508   -0.000053
      7          7           0       -0.821210    1.777942    0.000026
      8          6           0        0.043423    0.743679    0.000034
      9          6           0        1.434218    0.974154    0.000010
     10          6           0        2.256176   -0.121190   -0.000088
     11         35           0        4.136995    0.073921   -0.000003
     12          6           0        1.700328   -1.423680   -0.000052
     13          7           0        0.424751   -1.652082    0.000068
     14          6           0       -0.420035   -0.607035    0.000050
     15          7           0       -1.737243   -0.869019   -0.000024
     16          1           0       -2.786205    2.325041   -0.000218
     17          1           0        1.804480    1.987901   -0.000024
     18          1           0        2.348426   -2.290188    0.000079
 ---------------------------------------------------------------------
                    Distance matrix (angstroms):
                    1          2          3          4          5
     1  F    0.000000
     2  C    1.345166   0.000000
     3  F    2.152840   1.326280   0.000000
     4  F    2.149321   1.345111   2.152837   0.000000
     5  C    2.355923   1.512601   2.380212   2.355886   0.000000
     6  C    2.948736   2.527255   3.674588   2.952636   1.415761
     7  N    4.175715   3.732901   4.748587   4.178483   2.369104
     8  C    4.801017   4.167958   4.882461   4.801030   2.656078
     9  C    6.178128   5.576629   6.245162   6.178066   4.064208
    10  C    6.987114   6.289380   6.717739   6.985374   4.810506
    11  Br   8.835608   8.172597   8.602610   8.834010   6.683914
    12  C    6.679515   5.878978   6.036055   6.675992   4.530452
    13  N    5.568093   4.712556   4.766354   5.563873   3.477202
    14  C    4.463113   3.645304   3.998252   4.460445   2.258582
    15  N    3.344703   2.413791   2.655299   3.341207   1.304590
    16  H    2.848883   2.748298   4.048671   2.856271   2.183953
    17  H    6.702280   6.207976   7.020282   6.703562   4.721504
    18  H    7.563303   6.739233   6.741150   7.558901   5.471301
                    6          7          8          9         10
     6  C    0.000000
     7  N    1.302874   0.000000
     8  C    2.264948   1.348069   0.000000
     9  C    3.565642   2.394375   1.409762   0.000000
    10  C    4.640037   3.616214   2.375768   1.369450   0.000000
    11  Br   6.390229   5.242850   4.148000   2.848758   1.890912
    12  C    4.786625   4.075358   2.728146   2.412555   1.416139
    13  N    4.030746   3.649313   2.425919   2.813564   2.386996
    14  C    2.686976   2.418482   1.428013   2.436886   2.719954
    15  N    2.391156   2.800986   2.402409   3.668167   4.062837
    16  H    1.080978   2.039736   3.241527   4.431350   5.604431
    17  H    3.928562   2.634071   2.156249   1.079249   2.156918
    18  H    5.835981   5.157157   3.810169   3.389941   2.170959
                   11         12         13         14         15
    11  Br   0.000000
    12  C    2.860097   0.000000
    13  N    4.093878   1.295864   0.000000
    14  C    4.607627   2.272191   1.343796   0.000000
    15  N    5.949437   3.482032   2.299436   1.343008   0.000000
    16  H    7.279988   5.846528   5.111531   3.767735   3.361896
    17  H    3.017275   3.413171   3.892702   3.417918   4.550362
    18  H    2.964454   1.082065   2.026747   3.239966   4.325784
                   16         17         18
    16  H    0.000000
    17  H    4.603047   0.000000
    18  H    6.903967   4.312531   0.000000
 Stoichiometry    C8H3BrF3N3
 Framework group  C1[X(C8H3BrF3N3)]
 Deg. of freedom    48
 Full point group                 C1      NOp   1
 Largest Abelian subgroup         C1      NOp   1
 Largest concise Abelian subgroup C1      NOp   1
                         Standard orientation:                         
 ---------------------------------------------------------------------
 Center     Atomic      Atomic             Coordinates (Angstroms)
 Number     Number       Type             X           Y           Z
 ---------------------------------------------------------------------
      1          9           0        4.531137   -0.402407   -1.071789
      2          6           0        3.935481    0.150847   -0.000072
      3          9           0        4.231443    1.443671   -0.005533
      4          9           0        4.529158   -0.392926    1.077510
      5          6           0        2.450144   -0.135047   -0.000172
      6          6           0        2.003619   -1.478548   -0.000052
      7          7           0        0.733174   -1.767429    0.000027
      8          6           0       -0.136692   -0.737564    0.000036
      9          6           0       -1.526301   -0.975089    0.000011
     10          6           0       -2.353803    0.116072   -0.000087
     11         35           0       -4.233608   -0.088574   -0.000001
     12          6           0       -1.804568    1.421365   -0.000050
     13          7           0       -0.530166    1.656233    0.000069
     14          6           0        0.319910    0.615483    0.000051
     15          7           0        1.635772    0.884144   -0.000022
     16          1           0        2.700918   -2.304555   -0.000217
     17          1           0       -1.891417   -1.990701   -0.000023
     18          1           0       -2.457051    2.284574    0.000080
 ---------------------------------------------------------------------
 Rotational constants (GHZ):           1.8624862           0.1638970           0.1546875
 Leave Link  202 at Tue Sep 17 09:48:40 2024, MaxMem=  1342177280 cpu:               0.0 elap:               0.0
 (Enter /groups/ReismanLab/Software/Gaussian16_RevC/Linux_Binary_AVX2-enabled-CPU/g16/l301.exe)
 Standard basis: 6-31G(d,p) (6D, 7F)
 Ernie: Thresh=  0.10000D-02 Tol=  0.10000D-05 Strict=F.
 There are   255 symmetry adapted cartesian basis functions of A   symmetry.
 There are   255 symmetry adapted basis functions of A   symmetry.
   255 basis functions,   496 primitive gaussians,   255 cartesian basis functions
    67 alpha electrons       67 beta electrons
       nuclear repulsion energy      1244.4091772604 Hartrees.
 IExCor=  402 DFT=T Ex+Corr=B3LYP ExCW=0 ScaHFX=  0.200000
 ScaDFX=  0.800000  0.720000  1.000000  0.810000 ScalE2=  1.000000  1.000000
 IRadAn=      5 IRanWt=     -1 IRanGd=            0 ICorTp=0 IEmpDi=141
 NAtoms=   18 NActive=   18 NUniq=   18 SFac= 1.00D+00 NAtFMM=   60 NAOKFM=F Big=F
 Integral buffers will be    131072 words long.
 Raffenetti 2 integral format.
 Two-electron integral symmetry is turned on.
 R6Disp:  Grimme-D3(BJ) Dispersion energy=       -0.0412112214 Hartrees.
 Nuclear repulsion after empirical dispersion term =     1244.3679660390 Hartrees.
 Leave Link  301 at Tue Sep 17 09:48:40 2024, MaxMem=  1342177280 cpu:               0.1 elap:               0.2
 (Enter /groups/ReismanLab/Software/Gaussian16_RevC/Linux_Binary_AVX2-enabled-CPU/g16/l302.exe)
 NPDir=0 NMtPBC=     1 NCelOv=     1 NCel=       1 NClECP=     1 NCelD=      1
         NCelK=      1 NCelE2=     1 NClLst=     1 CellRange=     0.0.
 One-electron integrals computed using PRISM.
 One-electron integral symmetry used in STVInt
 NBasis=   255 RedAO= T EigKep=  5.91D-04  NBF=   255
 NBsUse=   255 1.00D-06 EigRej= -1.00D+00 NBFU=   255
 Precomputing XC quadrature grid using
 IXCGrd= 4 IRadAn=           5 IRanWt=          -1 IRanGd=           0 AccXCQ= 0.00D+00.
 Generated NRdTot=       0 NPtTot=           0 NUsed=           0 NTot=          32
 NSgBfM=   251   251   251   251   251 MxSgAt=    18 MxSgA2=    18.
 Leave Link  302 at Tue Sep 17 09:48:41 2024, MaxMem=  1342177280 cpu:               1.0 elap:               0.2
 (Enter /groups/ReismanLab/Software/Gaussian16_RevC/Linux_Binary_AVX2-enabled-CPU/g16/l303.exe)
 DipDrv:  MaxL=1.
 Leave Link  303 at Tue Sep 17 09:48:41 2024, MaxMem=  1342177280 cpu:               0.1 elap:               0.0
 (Enter /groups/ReismanLab/Software/Gaussian16_RevC/Linux_Binary_AVX2-enabled-CPU/g16/l401.exe)
 ExpMin= 1.43D-01 ExpMax= 5.74D+05 ExpMxC= 5.74D+03 IAcc=3 IRadAn=         5 AccDes= 0.00D+00
 Harris functional with IExCor=  402 and IRadAn=       5 diagonalized for initial guess.
 HarFok:  IExCor=  402 AccDes= 0.00D+00 IRadAn=         5 IDoV= 1 UseB2=F ITyADJ=14
 ICtDFT=  3500011 ScaDFX=  1.000000  1.000000  1.000000  1.000000
 FoFCou: FMM=F IPFlag=           0 FMFlag=      100000 FMFlg1=           0
         NFxFlg=           0 DoJE=T BraDBF=F KetDBF=T FulRan=T
         wScrn=  0.000000 ICntrl=       500 IOpCl=  0 I1Cent=   200000004 NGrid=           0
         NMat0=    1 NMatS0=      1 NMatT0=    0 NMatD0=    1 NMtDS0=    0 NMtDT0=    0
 Petite list used in FoFCou.
 Harris En= -3342.18635925862    
 JPrj=0 DoOrth=F DoCkMO=F.
 Leave Link  401 at Tue Sep 17 09:48:41 2024, MaxMem=  1342177280 cpu:               5.4 elap:               0.7
 (Enter /groups/ReismanLab/Software/Gaussian16_RevC/Linux_Binary_AVX2-enabled-CPU/g16/l502.exe)
 Integral symmetry usage will be decided dynamically.
 Closed shell SCF:
 Using DIIS extrapolation, IDIIS=  1040.
 NGot=  1342177280 LenX=  1342042190 LenY=  1341976724
 Requested convergence on RMS density matrix=1.00D-08 within  32 cycles.
 Requested convergence on MAX density matrix=1.00D-06.
 Requested convergence on             energy=1.00D-06.
 No special actions if energy rises.
 Fock matrices will be formed incrementally for  20 cycles.
 Integral accuracy reduced to 1.0D-05 until final iterations.

 Cycle   1  Pass 0  IDiag  1:
 FoFJK:  IHMeth= 1 ICntrl=       0 DoSepK=F KAlg= 0 I1Cent=           0 FoldK=F
 IRaf= 800000000 NMat=       1 IRICut=       1 DoRegI=T DoRafI=F ISym2E= 0 IDoP0=0 IntGTp=1.
 FoFCou: FMM=F IPFlag=           0 FMFlag=      100000 FMFlg1=           0
         NFxFlg=           0 DoJE=F BraDBF=F KetDBF=F FulRan=T
         wScrn=  0.000000 ICntrl=         0 IOpCl=  0 I1Cent=           0 NGrid=           0
         NMat0=    1 NMatS0=      1 NMatT0=    0 NMatD0=    1 NMtDS0=    0 NMtDT0=    0
 Symmetry not used in FoFCou.
 E= -3341.99301933979    
 DIIS: error= 2.13D-01 at cycle   1 NSaved=   1.
 NSaved= 1 IEnMin= 1 EnMin= -3341.99301933979     IErMin= 1 ErrMin= 2.13D-01
 ErrMax= 2.13D-01  0.00D+00 EMaxC= 1.00D-01 BMatC= 5.80D-01 BMatP= 5.80D-01
 IDIUse=3 WtCom= 0.00D+00 WtEn= 1.00D+00
 Coeff-Com:  0.100D+01
 Coeff-En:   0.100D+01
 Coeff:      0.100D+01
 Gap=     0.207 Goal=   None    Shift=    0.000
 GapD=    0.207 DampG=1.000 DampE=0.250 DampFc=0.2500 IDamp=-1.
 Damping current iteration by 2.50D-01
 RMSDP=4.37D-03 MaxDP=1.41D-01              OVMax= 1.38D-01

 Cycle   2  Pass 0  IDiag  1:
 RMSU=  1.06D-03    CP:  9.93D-01
 E= -3342.05769324033     Delta-E=       -0.064673900544 Rises=F Damp=T
 DIIS: error= 1.57D-01 at cycle   2 NSaved=   2.
 NSaved= 2 IEnMin= 2 EnMin= -3342.05769324033     IErMin= 2 ErrMin= 1.57D-01
 ErrMax= 1.57D-01  0.00D+00 EMaxC= 1.00D-01 BMatC= 2.48D-01 BMatP= 5.80D-01
 IDIUse=3 WtCom= 0.00D+00 WtEn= 1.00D+00
 Coeff-Com: -0.130D+01 0.230D+01
 Coeff-En:   0.000D+00 0.100D+01
 Coeff:      0.000D+00 0.100D+01
 Gap=     0.161 Goal=   None    Shift=    0.000
 RMSDP=2.32D-03 MaxDP=1.09D-01 DE=-6.47D-02 OVMax= 6.37D-02

 Cycle   3  Pass 0  IDiag  1:
 RMSU=  8.48D-04    CP:  9.72D-01  2.90D+00
 E= -3342.14081624429     Delta-E=       -0.083123003960 Rises=F Damp=F
 DIIS: error= 1.49D-02 at cycle   3 NSaved=   3.
 NSaved= 3 IEnMin= 3 EnMin= -3342.14081624429     IErMin= 3 ErrMin= 1.49D-02
 ErrMax= 1.49D-02  0.00D+00 EMaxC= 1.00D-01 BMatC= 4.70D-02 BMatP= 2.48D-01
 IDIUse=3 WtCom= 8.51D-01 WtEn= 1.49D-01
 Coeff-Com:  0.129D+01-0.164D+01 0.135D+01
 Coeff-En:   0.996D-01 0.000D+00 0.900D+00
 Coeff:      0.111D+01-0.139D+01 0.128D+01
 Gap=     0.157 Goal=   None    Shift=    0.000
 RMSDP=1.06D-03 MaxDP=3.13D-02 DE=-8.31D-02 OVMax= 4.74D-02

 Cycle   4  Pass 0  IDiag  1:
 RMSU=  6.42D-04    CP:  9.73D-01  2.12D+00  1.18D+00
 E= -3342.16905414015     Delta-E=       -0.028237895855 Rises=F Damp=F
 DIIS: error= 5.67D-03 at cycle   4 NSaved=   4.
 NSaved= 4 IEnMin= 4 EnMin= -3342.16905414015     IErMin= 4 ErrMin= 5.67D-03
 ErrMax= 5.67D-03  0.00D+00 EMaxC= 1.00D-01 BMatC= 8.04D-03 BMatP= 4.70D-02
 IDIUse=3 WtCom= 9.43D-01 WtEn= 5.67D-02
 Coeff-Com:  0.749D+00-0.978D+00 0.776D+00 0.452D+00
 Coeff-En:   0.000D+00 0.000D+00 0.636D-01 0.936D+00
 Coeff:      0.707D+00-0.922D+00 0.736D+00 0.480D+00
 Gap=     0.162 Goal=   None    Shift=    0.000
 RMSDP=4.50D-04 MaxDP=1.83D-02 DE=-2.82D-02 OVMax= 4.30D-02

 Cycle   5  Pass 0  IDiag  1:
 RMSU=  1.58D-04    CP:  9.73D-01  2.18D+00  1.30D+00  3.69D-01
 E= -3342.17690799143     Delta-E=       -0.007853851283 Rises=F Damp=F
 DIIS: error= 1.67D-03 at cycle   5 NSaved=   5.
 NSaved= 5 IEnMin= 5 EnMin= -3342.17690799143     IErMin= 5 ErrMin= 1.67D-03
 ErrMax= 1.67D-03  0.00D+00 EMaxC= 1.00D-01 BMatC= 5.62D-04 BMatP= 8.04D-03
 IDIUse=3 WtCom= 9.83D-01 WtEn= 1.67D-02
 Coeff-Com:  0.281D+00-0.370D+00 0.291D+00 0.270D+00 0.527D+00
 Coeff-En:   0.000D+00 0.000D+00 0.000D+00 0.511D-02 0.995D+00
 Coeff:      0.277D+00-0.364D+00 0.286D+00 0.266D+00 0.535D+00
 Gap=     0.160 Goal=   None    Shift=    0.000
 RMSDP=1.15D-04 MaxDP=3.89D-03 DE=-7.85D-03 OVMax= 1.02D-02

 Cycle   6  Pass 0  IDiag  1:
 RMSU=  5.09D-05    CP:  9.73D-01  2.21D+00  1.26D+00  4.42D-01  4.74D-01
 E= -3342.17745237044     Delta-E=       -0.000544379010 Rises=F Damp=F
 DIIS: error= 3.19D-04 at cycle   6 NSaved=   6.
 NSaved= 6 IEnMin= 6 EnMin= -3342.17745237044     IErMin= 6 ErrMin= 3.19D-04
 ErrMax= 3.19D-04  0.00D+00 EMaxC= 1.00D-01 BMatC= 3.20D-05 BMatP= 5.62D-04
 IDIUse=3 WtCom= 9.97D-01 WtEn= 3.19D-03
 Coeff-Com:  0.870D-01-0.115D+00 0.863D-01 0.100D+00 0.284D+00 0.557D+00
 Coeff-En:   0.000D+00 0.000D+00 0.000D+00 0.000D+00 0.000D+00 0.100D+01
 Coeff:      0.867D-01-0.115D+00 0.861D-01 0.100D+00 0.284D+00 0.558D+00
 Gap=     0.160 Goal=   None    Shift=    0.000
 RMSDP=3.20D-05 MaxDP=1.38D-03 DE=-5.44D-04 OVMax= 1.83D-03

 Cycle   7  Pass 0  IDiag  1:
 RMSU=  1.29D-05    CP:  9.73D-01  2.20D+00  1.28D+00  4.51D-01  5.34D-01
                    CP:  5.44D-01
 E= -3342.17748583350     Delta-E=       -0.000033463062 Rises=F Damp=F
 DIIS: error= 6.92D-05 at cycle   7 NSaved=   7.
 NSaved= 7 IEnMin= 7 EnMin= -3342.17748583350     IErMin= 7 ErrMin= 6.92D-05
 ErrMax= 6.92D-05  0.00D+00 EMaxC= 1.00D-01 BMatC= 2.16D-06 BMatP= 3.20D-05
 IDIUse=1 WtCom= 1.00D+00 WtEn= 0.00D+00
 Coeff-Com:  0.286D-01-0.380D-01 0.267D-01 0.342D-01 0.109D+00 0.285D+00
 Coeff-Com:  0.554D+00
 Coeff:      0.286D-01-0.380D-01 0.267D-01 0.342D-01 0.109D+00 0.285D+00
 Coeff:      0.554D+00
 Gap=     0.160 Goal=   None    Shift=    0.000
 RMSDP=9.13D-06 MaxDP=3.53D-04 DE=-3.35D-05 OVMax= 7.06D-04

 Initial convergence to 1.0D-05 achieved.  Increase integral accuracy.
 Cycle   8  Pass 1  IDiag  1:
 E= -3342.17748180047     Delta-E=        0.000004033031 Rises=F Damp=F
 DIIS: error= 4.72D-05 at cycle   1 NSaved=   1.
 NSaved= 1 IEnMin= 1 EnMin= -3342.17748180047     IErMin= 1 ErrMin= 4.72D-05
 ErrMax= 4.72D-05  0.00D+00 EMaxC= 1.00D-01 BMatC= 8.80D-07 BMatP= 8.80D-07
 IDIUse=1 WtCom= 1.00D+00 WtEn= 0.00D+00
 Coeff-Com:  0.100D+01
 Coeff:      0.100D+01
 Gap=     0.159 Goal=   None    Shift=    0.000
 RMSDP=9.13D-06 MaxDP=3.53D-04 DE= 4.03D-06 OVMax= 9.64D-04

 Cycle   9  Pass 1  IDiag  1:
 RMSU=  2.47D-05    CP:  1.00D+00
 E= -3342.17747963007     Delta-E=        0.000002170398 Rises=F Damp=F
 DIIS: error= 1.06D-04 at cycle   2 NSaved=   2.
 NSaved= 2 IEnMin= 1 EnMin= -3342.17748180047     IErMin= 1 ErrMin= 4.72D-05
 ErrMax= 1.06D-04  0.00D+00 EMaxC= 1.00D-01 BMatC= 2.86D-06 BMatP= 8.80D-07
 IDIUse=3 WtCom= 4.93D-01 WtEn= 5.07D-01
 Coeff-Com:  0.655D+00 0.345D+00
 Coeff-En:   0.747D+00 0.253D+00
 Coeff:      0.701D+00 0.299D+00
 Gap=     0.160 Goal=   None    Shift=    0.000
 RMSDP=6.96D-06 MaxDP=2.83D-04 DE= 2.17D-06 OVMax= 6.27D-04

 Cycle  10  Pass 1  IDiag  1:
 RMSU=  6.34D-06    CP:  1.00D+00  8.84D-01
 E= -3342.17748261693     Delta-E=       -0.000002986853 Rises=F Damp=F
 DIIS: error= 7.65D-06 at cycle   3 NSaved=   3.
 NSaved= 3 IEnMin= 3 EnMin= -3342.17748261693     IErMin= 3 ErrMin= 7.65D-06
 ErrMax= 7.65D-06  0.00D+00 EMaxC= 1.00D-01 BMatC= 2.38D-08 BMatP= 8.80D-07
 IDIUse=1 WtCom= 1.00D+00 WtEn= 0.00D+00
 Coeff-Com:  0.129D+00 0.273D-01 0.843D+00
 Coeff:      0.129D+00 0.273D-01 0.843D+00
 Gap=     0.160 Goal=   None    Shift=    0.000
 RMSDP=1.34D-06 MaxDP=5.59D-05 DE=-2.99D-06 OVMax= 7.96D-05

 Cycle  11  Pass 1  IDiag  1:
 RMSU=  1.29D-06    CP:  1.00D+00  8.81D-01  1.05D+00
 E= -3342.17748261502     Delta-E=        0.000000001904 Rises=F Damp=F
 DIIS: error= 8.89D-06 at cycle   4 NSaved=   4.
 NSaved= 4 IEnMin= 3 EnMin= -3342.17748261693     IErMin= 3 ErrMin= 7.65D-06
 ErrMax= 8.89D-06  0.00D+00 EMaxC= 1.00D-01 BMatC= 2.76D-08 BMatP= 2.38D-08
 IDIUse=1 WtCom= 1.00D+00 WtEn= 0.00D+00
 Coeff-Com:  0.467D-02-0.231D-01 0.565D+00 0.453D+00
 Coeff:      0.467D-02-0.231D-01 0.565D+00 0.453D+00
 Gap=     0.160 Goal=   None    Shift=    0.000
 RMSDP=7.31D-07 MaxDP=3.59D-05 DE= 1.90D-09 OVMax= 5.34D-05

 Cycle  12  Pass 1  IDiag  1:
 RMSU=  2.62D-07    CP:  1.00D+00  8.83D-01  1.07D+00  4.79D-01
 E= -3342.17748263881     Delta-E=       -0.000000023791 Rises=F Damp=F
 DIIS: error= 1.98D-06 at cycle   5 NSaved=   5.
 NSaved= 5 IEnMin= 5 EnMin= -3342.17748263881     IErMin= 5 ErrMin= 1.98D-06
 ErrMax= 1.98D-06  0.00D+00 EMaxC= 1.00D-01 BMatC= 1.15D-09 BMatP= 2.38D-08
 IDIUse=1 WtCom= 1.00D+00 WtEn= 0.00D+00
 Coeff-Com: -0.158D-02-0.156D-01 0.329D+00 0.287D+00 0.401D+00
 Coeff:     -0.158D-02-0.156D-01 0.329D+00 0.287D+00 0.401D+00
 Gap=     0.160 Goal=   None    Shift=    0.000
 RMSDP=1.56D-07 MaxDP=5.82D-06 DE=-2.38D-08 OVMax= 1.13D-05

 Cycle  13  Pass 1  IDiag  1:
 RMSU=  6.53D-08    CP:  1.00D+00  8.84D-01  1.06D+00  4.93D-01  4.77D-01
 E= -3342.17748263994     Delta-E=       -0.000000001130 Rises=F Damp=F
 DIIS: error= 3.17D-07 at cycle   6 NSaved=   6.
 NSaved= 6 IEnMin= 6 EnMin= -3342.17748263994     IErMin= 6 ErrMin= 3.17D-07
 ErrMax= 3.17D-07  0.00D+00 EMaxC= 1.00D-01 BMatC= 2.77D-11 BMatP= 1.15D-09
 IDIUse=1 WtCom= 1.00D+00 WtEn= 0.00D+00
 Coeff-Com: -0.103D-02-0.643D-02 0.130D+00 0.115D+00 0.204D+00 0.559D+00
 Coeff:     -0.103D-02-0.643D-02 0.130D+00 0.115D+00 0.204D+00 0.559D+00
 Gap=     0.160 Goal=   None    Shift=    0.000
 RMSDP=3.18D-08 MaxDP=1.12D-06 DE=-1.13D-09 OVMax= 3.55D-06

 Cycle  14  Pass 1  IDiag  1:
 RMSU=  2.60D-08    CP:  1.00D+00  8.84D-01  1.06D+00  4.85D-01  4.93D-01
                    CP:  7.87D-01
 E= -3342.17748263996     Delta-E=       -0.000000000017 Rises=F Damp=F
 DIIS: error= 1.22D-07 at cycle   7 NSaved=   7.
 NSaved= 7 IEnMin= 7 EnMin= -3342.17748263996     IErMin= 7 ErrMin= 1.22D-07
 ErrMax= 1.22D-07  0.00D+00 EMaxC= 1.00D-01 BMatC= 3.87D-12 BMatP= 2.77D-11
 IDIUse=1 WtCom= 1.00D+00 WtEn= 0.00D+00
 Coeff-Com: -0.414D-03-0.192D-02 0.366D-01 0.318D-01 0.692D-01 0.316D+00
 Coeff-Com:  0.549D+00
 Coeff:     -0.414D-03-0.192D-02 0.366D-01 0.318D-01 0.692D-01 0.316D+00
 Coeff:      0.549D+00
 Gap=     0.160 Goal=   None    Shift=    0.000
 RMSDP=1.12D-08 MaxDP=4.57D-07 DE=-1.73D-11 OVMax= 1.05D-06

 Cycle  15  Pass 1  IDiag  1:
 RMSU=  7.33D-09    CP:  1.00D+00  8.84D-01  1.06D+00  4.88D-01  5.00D-01
                    CP:  8.44D-01  7.56D-01
 E= -3342.17748263996     Delta-E=        0.000000000005 Rises=F Damp=F
 DIIS: error= 3.51D-08 at cycle   8 NSaved=   8.
 NSaved= 8 IEnMin= 7 EnMin= -3342.17748263996     IErMin= 8 ErrMin= 3.51D-08
 ErrMax= 3.51D-08  0.00D+00 EMaxC= 1.00D-01 BMatC= 3.78D-13 BMatP= 3.87D-12
 IDIUse=1 WtCom= 1.00D+00 WtEn= 0.00D+00
 Coeff-Com: -0.835D-04-0.211D-03 0.273D-02 0.168D-02 0.106D-01 0.992D-01
 Coeff-Com:  0.272D+00 0.614D+00
 Coeff:     -0.835D-04-0.211D-03 0.273D-02 0.168D-02 0.106D-01 0.992D-01
 Coeff:      0.272D+00 0.614D+00
 Gap=     0.160 Goal=   None    Shift=    0.000
 RMSDP=3.99D-09 MaxDP=1.47D-07 DE= 5.46D-12 OVMax= 4.26D-07

 SCF Done:  E(RB3LYP) =  -3342.17748264     A.U. after   15 cycles
            NFock= 15  Conv=0.40D-08     -V/T= 2.0065
 KE= 3.320575024248D+03 PE=-1.042873939999D+04 EE= 2.521618927065D+03
 Leave Link  502 at Tue Sep 17 09:48:59 2024, MaxMem=  1342177280 cpu:             128.7 elap:              17.4
 (Enter /groups/ReismanLab/Software/Gaussian16_RevC/Linux_Binary_AVX2-enabled-CPU/g16/l508.exe)
 QCSCF skips out because SCF is already converged.
 Leave Link  508 at Tue Sep 17 09:48:59 2024, MaxMem=  1342177280 cpu:               0.0 elap:               0.0
 (Enter /groups/ReismanLab/Software/Gaussian16_RevC/Linux_Binary_AVX2-enabled-CPU/g16/l601.exe)
 Copying SCF densities to generalized density rwf, IOpCl= 0 IROHF=0.

 **********************************************************************

            Population analysis using the SCF Density.

 **********************************************************************

 Orbital symmetries:
       Occupied  (A) (A) (A) (A) (A) (A) (A) (A) (A) (A) (A) (A)
                 (A) (A) (A) (A) (A) (A) (A) (A) (A) (A) (A) (A)
                 (A) (A) (A) (A) (A) (A) (A) (A) (A) (A) (A) (A)
                 (A) (A) (A) (A) (A) (A) (A) (A) (A) (A) (A) (A)
                 (A) (A) (A) (A) (A) (A) (A) (A) (A) (A) (A) (A)
                 (A) (A) (A) (A) (A) (A) (A)
       Virtual   (A) (A) (A) (A) (A) (A) (A) (A) (A) (A) (A) (A)
                 (A) (A) (A) (A) (A) (A) (A) (A) (A) (A) (A) (A)
                 (A) (A) (A) (A) (A) (A) (A) (A) (A) (A) (A) (A)
                 (A) (A) (A) (A) (A) (A) (A) (A) (A) (A) (A) (A)
                 (A) (A) (A) (A) (A) (A) (A) (A) (A) (A) (A) (A)
                 (A) (A) (A) (A) (A) (A) (A) (A) (A) (A) (A) (A)
                 (A) (A) (A) (A) (A) (A) (A) (A) (A) (A) (A) (A)
                 (A) (A) (A) (A) (A) (A) (A) (A) (A) (A) (A) (A)
                 (A) (A) (A) (A) (A) (A) (A) (A) (A) (A) (A) (A)
                 (A) (A) (A) (A) (A) (A) (A) (A) (A) (A) (A) (A)
                 (A) (A) (A) (A) (A) (A) (A) (A) (A) (A) (A) (A)
                 (A) (A) (A) (A) (A) (A) (A) (A) (A) (A) (A) (A)
                 (A) (A) (A) (A) (A) (A) (A) (A) (A) (A) (A) (A)
                 (A) (A) (A) (A) (A) (A) (A) (A) (A) (A) (A) (A)
                 (A) (A) (A) (A) (A) (A) (A) (A) (A) (A) (A) (A)
                 (A) (A) (A) (A) (A) (A) (A) (A)
 The electronic state is 1-A.
 Alpha  occ. eigenvalues -- -482.93852 -61.90016 -56.42163 -56.41734 -56.41731
 Alpha  occ. eigenvalues --  -24.73361 -24.73232 -24.73228 -14.37720 -14.37649
 Alpha  occ. eigenvalues --  -14.36268 -10.44322 -10.28543 -10.28174 -10.27497
 Alpha  occ. eigenvalues --  -10.26794 -10.26668 -10.26464 -10.24258  -8.61163
 Alpha  occ. eigenvalues --   -6.56582  -6.55285  -6.55232  -2.68153  -2.67786
 Alpha  occ. eigenvalues --   -2.67746  -2.66710  -2.66710  -1.31868  -1.22803
 Alpha  occ. eigenvalues --   -1.22404  -1.03354  -0.97841  -0.94981  -0.86505
 Alpha  occ. eigenvalues --   -0.82815  -0.78759  -0.73415  -0.70779  -0.67089
 Alpha  occ. eigenvalues --   -0.65820  -0.60690  -0.59860  -0.59308  -0.57269
 Alpha  occ. eigenvalues --   -0.55666  -0.53812  -0.49373  -0.48212  -0.47587
 Alpha  occ. eigenvalues --   -0.46525  -0.46397  -0.44869  -0.43128  -0.42498
 Alpha  occ. eigenvalues --   -0.41752  -0.40974  -0.40525  -0.39925  -0.38492
 Alpha  occ. eigenvalues --   -0.34079  -0.33696  -0.31956  -0.30296  -0.30142
 Alpha  occ. eigenvalues --   -0.27491  -0.26607
 Alpha virt. eigenvalues --   -0.10646  -0.06313  -0.02932  -0.01350   0.03608
 Alpha virt. eigenvalues --    0.11830   0.12459   0.12859   0.14178   0.14597
 Alpha virt. eigenvalues --    0.19271   0.20969   0.21203   0.22353   0.22723
 Alpha virt. eigenvalues --    0.23812   0.25825   0.27579   0.31511   0.32493
 Alpha virt. eigenvalues --    0.35557   0.37434   0.38836   0.40352   0.41894
 Alpha virt. eigenvalues --    0.43805   0.43841   0.44099   0.45215   0.45684
 Alpha virt. eigenvalues --    0.46691   0.47546   0.47693   0.50208   0.53039
 Alpha virt. eigenvalues --    0.53658   0.54234   0.55366   0.57460   0.57730
 Alpha virt. eigenvalues --    0.59299   0.59825   0.59895   0.60856   0.65239
 Alpha virt. eigenvalues --    0.66804   0.68479   0.69188   0.70033   0.71240
 Alpha virt. eigenvalues --    0.72148   0.76379   0.77928   0.78745   0.79211
 Alpha virt. eigenvalues --    0.79390   0.81918   0.82411   0.83443   0.84002
 Alpha virt. eigenvalues --    0.86978   0.89713   0.90186   0.93483   0.94980
 Alpha virt. eigenvalues --    0.98430   1.03983   1.06345   1.07143   1.08110
 Alpha virt. eigenvalues --    1.09680   1.11470   1.12665   1.16089   1.17392
 Alpha virt. eigenvalues --    1.18231   1.20118   1.21263   1.22057   1.29641
 Alpha virt. eigenvalues --    1.31916   1.32483   1.33539   1.33670   1.36510
 Alpha virt. eigenvalues --    1.36990   1.37976   1.38528   1.38589   1.39614
 Alpha virt. eigenvalues --    1.40661   1.41951   1.45426   1.45782   1.51161
 Alpha virt. eigenvalues --    1.52560   1.56121   1.57372   1.62114   1.64340
 Alpha virt. eigenvalues --    1.66080   1.68126   1.71024   1.73174   1.75244
 Alpha virt. eigenvalues --    1.76878   1.78486   1.79968   1.80925   1.82359
 Alpha virt. eigenvalues --    1.84559   1.84924   1.85337   1.90054   1.92913
 Alpha virt. eigenvalues --    1.94635   1.95855   1.96691   1.98399   2.00753
 Alpha virt. eigenvalues --    2.00970   2.01265   2.05170   2.05487   2.06980
 Alpha virt. eigenvalues --    2.08222   2.10635   2.13395   2.15288   2.16089
 Alpha virt. eigenvalues --    2.18846   2.22058   2.26284   2.30101   2.32260
 Alpha virt. eigenvalues --    2.32903   2.33985   2.37412   2.39419   2.39788
 Alpha virt. eigenvalues --    2.40780   2.43702   2.49426   2.50574   2.53528
 Alpha virt. eigenvalues --    2.54051   2.55622   2.55746   2.58264   2.63222
 Alpha virt. eigenvalues --    2.65418   2.65897   2.67635   2.72950   2.73721
 Alpha virt. eigenvalues --    2.76117   2.77775   2.80933   2.87691   2.90479
 Alpha virt. eigenvalues --    2.98038   3.00303   3.03388   3.03870   3.05489
 Alpha virt. eigenvalues --    3.10140   3.16109   3.26885   3.30498   3.37605
 Alpha virt. eigenvalues --    3.60824   3.63027   3.97514   4.03427   4.07083
 Alpha virt. eigenvalues --    4.19703   4.23522   4.30547   4.30948   4.35260
 Alpha virt. eigenvalues --    4.42180   4.57139   4.61015   4.70697   4.89373
 Alpha virt. eigenvalues --    5.69429   8.58012  72.79514
          Condensed to atoms (all electrons):
               1          2          3          4          5          6
     1  F    9.104370   0.288405  -0.040363  -0.042316  -0.054035   0.007204
     2  C    0.288405   4.110607   0.311517   0.288487   0.274219  -0.036211
     3  F   -0.040363   0.311517   9.044657  -0.040387  -0.038407   0.002955
     4  F   -0.042316   0.288487  -0.040387   9.104236  -0.053933   0.007119
     5  C   -0.054035   0.274219  -0.038407  -0.053933   5.126991   0.329164
     6  C    0.007204  -0.036211   0.002955   0.007119   0.329164   4.852924
     7  N    0.000105   0.003034  -0.000012   0.000102  -0.037076   0.482524
     8  C    0.000001   0.000180  -0.000029   0.000001  -0.019525  -0.067457
     9  C   -0.000000   0.000008  -0.000000  -0.000000   0.001453   0.005339
    10  C   -0.000000   0.000000   0.000000  -0.000000   0.000019  -0.000244
    11  Br   0.000000  -0.000000   0.000000   0.000000  -0.000001   0.000003
    12  C   -0.000000   0.000002   0.000000  -0.000000  -0.000049   0.000062
    13  N    0.000000  -0.000004   0.000002   0.000000   0.004157   0.000212
    14  C   -0.000060   0.005267   0.000411  -0.000061  -0.041650  -0.036314
    15  N   -0.000049  -0.056681   0.000759  -0.000088   0.439677  -0.048485
    16  H    0.001242   0.003438   0.000043   0.001187  -0.064018   0.385351
    17  H    0.000000  -0.000000   0.000000   0.000000   0.000040   0.000111
    18  H    0.000000  -0.000000   0.000000   0.000000  -0.000002   0.000001
               7          8          9         10         11         12
     1  F    0.000105   0.000001  -0.000000  -0.000000   0.000000  -0.000000
     2  C    0.003034   0.000180   0.000008   0.000000  -0.000000   0.000002
     3  F   -0.000012  -0.000029  -0.000000   0.000000   0.000000   0.000000
     4  F    0.000102   0.000001  -0.000000  -0.000000   0.000000  -0.000000
     5  C   -0.037076  -0.019525   0.001453   0.000019  -0.000001  -0.000049
     6  C    0.482524  -0.067457   0.005339  -0.000244   0.000003   0.000062
     7  N    6.851267   0.366806  -0.069759   0.005565  -0.000083   0.000145
     8  C    0.366806   4.853351   0.437360  -0.005067   0.005357  -0.024545
     9  C   -0.069759   0.437360   5.007933   0.507632  -0.059882  -0.046452
    10  C    0.005565  -0.005067   0.507632   4.974215   0.254112   0.407144
    11  Br  -0.000083   0.005357  -0.059882   0.254112  34.928748  -0.047361
    12  C    0.000145  -0.024545  -0.046452   0.407144  -0.047361   4.775157
    13  N    0.006183  -0.076398  -0.039723  -0.017330   0.004399   0.477532
    14  C   -0.057692   0.373787  -0.070756  -0.034146   0.000579  -0.055393
    15  N   -0.026586  -0.093268   0.005163   0.000120   0.000009   0.002249
    16  H   -0.043525   0.003711  -0.000273   0.000003  -0.000000  -0.000002
    17  H   -0.000230  -0.031043   0.365584  -0.045166  -0.004043   0.004914
    18  H    0.000011   0.000373   0.003289  -0.068163   0.002599   0.394543
              13         14         15         16         17         18
     1  F    0.000000  -0.000060  -0.000049   0.001242   0.000000   0.000000
     2  C   -0.000004   0.005267  -0.056681   0.003438  -0.000000  -0.000000
     3  F    0.000002   0.000411   0.000759   0.000043   0.000000   0.000000
     4  F    0.000000  -0.000061  -0.000088   0.001187   0.000000   0.000000
     5  C    0.004157  -0.041650   0.439677  -0.064018   0.000040  -0.000002
     6  C    0.000212  -0.036314  -0.048485   0.385351   0.000111   0.000001
     7  N    0.006183  -0.057692  -0.026586  -0.043525  -0.000230   0.000011
     8  C   -0.076398   0.373787  -0.093268   0.003711  -0.031043   0.000373
     9  C   -0.039723  -0.070756   0.005163  -0.000273   0.365584   0.003289
    10  C   -0.017330  -0.034146   0.000120   0.000003  -0.045166  -0.068163
    11  Br   0.004399   0.000579   0.000009  -0.000000  -0.004043   0.002599
    12  C    0.477532  -0.055393   0.002249  -0.000002   0.004914   0.394543
    13  N    6.867175   0.366208  -0.090107   0.000027  -0.000682  -0.048841
    14  C    0.366208   4.734941   0.381814   0.001106   0.005587   0.004242
    15  N   -0.090107   0.381814   6.946707   0.003055  -0.000141  -0.000079
    16  H    0.000027   0.001106   0.003055   0.572819  -0.000034   0.000000
    17  H   -0.000682   0.005587  -0.000141  -0.000034   0.564495  -0.000138
    18  H   -0.048841   0.004242  -0.000079   0.000000  -0.000138   0.578115
 Mulliken charges:
               1
     1  F   -0.264503
     2  C    0.807731
     3  F   -0.241148
     4  F   -0.264346
     5  C    0.132976
     6  C    0.115742
     7  N   -0.480778
     8  C    0.276404
     9  C   -0.046916
    10  C    0.021306
    11  Br  -0.084435
    12  C    0.112052
    13  N   -0.452811
    14  C    0.422131
    15  N   -0.464069
    16  H    0.135869
    17  H    0.140746
    18  H    0.134050
 Sum of Mulliken charges =  -0.00000
 Mulliken charges with hydrogens summed into heavy atoms:
               1
     1  F   -0.264503
     2  C    0.807731
     3  F   -0.241148
     4  F   -0.264346
     5  C    0.132976
     6  C    0.251611
     7  N   -0.480778
     8  C    0.276404
     9  C    0.093830
    10  C    0.021306
    11  Br  -0.084435
    12  C    0.246102
    13  N   -0.452811
    14  C    0.422131
    15  N   -0.464069
 Electronic spatial extent (au):  <R**2>=           5784.6370
 Charge=             -0.0000 electrons
 Dipole moment (field-independent basis, Debye):
    X=             -2.1551    Y=             -1.8369    Z=             -0.0008  Tot=              2.8317
 Quadrupole moment (field-independent basis, Debye-Ang):
   XX=            -96.3360   YY=            -96.6375   ZZ=            -93.2975
   XY=             -5.3399   XZ=             -0.0032   YZ=             -0.0008
 Traceless Quadrupole moment (field-independent basis, Debye-Ang):
   XX=             -0.9123   YY=             -1.2139   ZZ=              2.1262
   XY=             -5.3399   XZ=             -0.0032   YZ=             -0.0008
 Octapole moment (field-independent basis, Debye-Ang**2):
  XXX=            -87.7475  YYY=             -3.7410  ZZZ=             -0.0117  XYY=            -21.1347
  XXY=             -8.2445  XXZ=             -0.0088  XZZ=            -12.2790  YZZ=              2.2761
  YYZ=              0.0106  XYZ=             -0.0064
 Hexadecapole moment (field-independent basis, Debye-Ang**3):
 XXXX=          -5137.3733 YYYY=           -641.1138 ZZZZ=           -149.0871 XXXY=              8.6088
 XXXZ=             -0.0434 YYYX=              0.1007 YYYZ=              0.0027 ZZZX=             -0.0494
 ZZZY=             -0.0047 XXYY=           -918.8450 XXZZ=           -892.4419 YYZZ=           -129.9961
 XXYZ=             -0.0353 YYXZ=              0.0421 ZZXY=             13.3646
 N-N= 1.244367966039D+03 E-N=-1.042873939777D+04  KE= 3.320575024248D+03
 No NMR shielding tensors so no spin-rotation constants.
 Leave Link  601 at Tue Sep 17 09:48:59 2024, MaxMem=  1342177280 cpu:               0.5 elap:               0.1
 (Enter /groups/ReismanLab/Software/Gaussian16_RevC/Linux_Binary_AVX2-enabled-CPU/g16/l701.exe)
 ... and contract with generalized density number  0.
 Compute integral first derivatives.
 R6Disp: Adding Grimme-D3(BJ) dispersion energy 1st derivatives to the gradient.
 Leave Link  701 at Tue Sep 17 09:48:59 2024, MaxMem=  1342177280 cpu:               0.6 elap:               0.1
 (Enter /groups/ReismanLab/Software/Gaussian16_RevC/Linux_Binary_AVX2-enabled-CPU/g16/l702.exe)
 L702 exits ... SP integral derivatives will be done elsewhere.
 Leave Link  702 at Tue Sep 17 09:48:59 2024, MaxMem=  1342177280 cpu:               0.1 elap:               0.0
 (Enter /groups/ReismanLab/Software/Gaussian16_RevC/Linux_Binary_AVX2-enabled-CPU/g16/l703.exe)
 Integral derivatives from FoFJK, PRISM(SPDF).
 Compute integral first derivatives, UseDBF=F ICtDFT=           0.
 Calling FoFJK, ICntrl=      2127 FMM=F ISym2X=0 I1Cent= 0 IOpClX= 0 NMat=1 NMatS=1 NMatT=0.
 FoFJK:  IHMeth= 1 ICntrl=    2127 DoSepK=F KAlg= 0 I1Cent=           0 FoldK=F
 IRaf=         0 NMat=       1 IRICut=       1 DoRegI=T DoRafI=F ISym2E= 0 IDoP0=0 IntGTp=1.
 FoFCou: FMM=F IPFlag=           0 FMFlag=      100000 FMFlg1=         800
         NFxFlg=           0 DoJE=F BraDBF=F KetDBF=F FulRan=T
         wScrn=  0.000000 ICntrl=      2127 IOpCl=  0 I1Cent=           0 NGrid=           0
         NMat0=    1 NMatS0=      1 NMatT0=    0 NMatD0=    1 NMtDS0=    0 NMtDT0=    0
 Symmetry not used in FoFCou.
 Leave Link  703 at Tue Sep 17 09:49:04 2024, MaxMem=  1342177280 cpu:              38.6 elap:               4.9
 (Enter /groups/ReismanLab/Software/Gaussian16_RevC/Linux_Binary_AVX2-enabled-CPU/g16/l716.exe)
 Dipole        =-8.47871089D-01-7.22673712D-01-3.13118157D-04
 ***** Axes restored to original set *****
 -------------------------------------------------------------------
 Center     Atomic                   Forces (Hartrees/Bohr)
 Number     Number              X              Y              Z
 -------------------------------------------------------------------
      1        9           0.000953686    0.005923584   -0.008984423
      2        6          -0.007667477   -0.000746150   -0.000001123
      3        9           0.003912421   -0.009583154   -0.000042754
      4        9           0.000949073    0.005836875    0.009050098
      5        6          -0.006996560   -0.000728751   -0.000019614
      6        6          -0.006541874   -0.000429537   -0.000013277
      7        7           0.008076937    0.015598120    0.000008693
      8        6           0.001326108   -0.008164556    0.000002263
      9        6           0.001516143    0.000861770   -0.000011163
     10        6           0.003201860    0.004254952    0.000008824
     11       35           0.003171474   -0.000205800   -0.000003892
     12        6           0.013292926   -0.001122891    0.000017283
     13        7          -0.013342278   -0.015233859   -0.000005067
     14        6           0.004393491    0.011732665    0.000000883
     15        7          -0.008129206   -0.011248139   -0.000001727
     16        1          -0.004293539    0.002170444   -0.000000505
     17        1           0.001316723    0.002642851    0.000003126
     18        1           0.004860093   -0.001558424   -0.000007627
 -------------------------------------------------------------------
 Cartesian Forces:  Max     0.015598120 RMS     0.005941895
 Leave Link  716 at Tue Sep 17 09:49:04 2024, MaxMem=  1342177280 cpu:               0.0 elap:               0.0
 (Enter /groups/ReismanLab/Software/Gaussian16_RevC/Linux_Binary_AVX2-enabled-CPU/g16/l103.exe)

 GradGradGradGradGradGradGradGradGradGradGradGradGradGradGradGradGradGrad
 Berny optimization.
 FormGI is forming the generalized inverse of G from B-inverse, IUseBI=4.
 GSVD:  received Info=                   1 from GESDD.
 Internal  Forces:  Max     0.021038244 RMS     0.004973806
 Search for a local minimum.
 Step number   1 out of a maximum of   97
 All quantities printed in internal units (Hartrees-Bohrs-Radians)
 RMS Force = .49738D-02 SwitMx=.10000D-02 MixMth= 1
 Mixed Optimization -- RFO/linear search
 Second derivative matrix not updated -- first step.
 ITU=  0
     Eigenvalues ---    0.00599   0.01503   0.01945   0.01973   0.02077
     Eigenvalues ---    0.02120   0.02169   0.02207   0.02237   0.02328
     Eigenvalues ---    0.02359   0.02635   0.02722   0.10328   0.11021
     Eigenvalues ---    0.16000   0.16000   0.16000   0.18702   0.23302
     Eigenvalues ---    0.23365   0.23536   0.25000   0.25000   0.25000
     Eigenvalues ---    0.25000   0.25000   0.25000   0.25000   0.25000
     Eigenvalues ---    0.31091   0.35746   0.35876   0.36085   0.36999
     Eigenvalues ---    0.41720   0.42508   0.43002   0.49326   0.53143
     Eigenvalues ---    0.55037   0.55113   0.56063   0.56075   0.60393
     Eigenvalues ---    0.63937   0.64916   0.66154
 RFO step:  Lambda=-4.60487488D-03 EMin= 5.99264810D-03
 Linear search not attempted -- first point.
 Iteration  1 RMS(Cart)=  0.01983804 RMS(Int)=  0.00029292
 Iteration  2 RMS(Cart)=  0.00037055 RMS(Int)=  0.00008763
 Iteration  3 RMS(Cart)=  0.00000016 RMS(Int)=  0.00008763
 ITry= 1 IFail=0 DXMaxC= 8.31D-02 DCOld= 1.00D+10 DXMaxT= 3.00D-01 DXLimC= 3.00D+00 Rises=F
 Variable       Old X    -DE/DX   Delta X   Delta X   Delta X     New X
                                 (Linear)    (Quad)   (Total)
    R1        2.54200   0.00919   0.00000   0.01625   0.01625   2.55825
    R2        2.50631   0.00844   0.00000   0.01387   0.01387   2.52017
    R3        2.54189   0.00921   0.00000   0.01628   0.01628   2.55817
    R4        2.85840   0.00156   0.00000   0.00494   0.00494   2.86334
    R5        2.67540   0.00691   0.00000   0.01616   0.01616   2.69156
    R6        2.46532   0.00924   0.00000   0.01401   0.01401   2.47933
    R7        2.46208   0.01436   0.00000   0.02157   0.02158   2.48365
    R8        2.04275   0.00442   0.00000   0.01216   0.01216   2.05491
    R9        2.54748   0.01204   0.00000   0.02143   0.02143   2.56891
   R10        2.66406   0.00675   0.00000   0.01328   0.01327   2.67733
   R11        2.69855   0.00484   0.00000   0.01069   0.01069   2.70925
   R12        2.58789   0.00388   0.00000   0.00648   0.00647   2.59435
   R13        2.03948   0.00293   0.00000   0.00803   0.00803   2.04751
   R14        3.57331   0.00313   0.00000   0.01635   0.01635   3.58966
   R15        2.67611   0.00662   0.00000   0.01590   0.01590   2.69202
   R16        2.44883   0.02104   0.00000   0.03179   0.03180   2.48063
   R17        2.04481   0.00416   0.00000   0.01149   0.01149   2.05629
   R18        2.53941   0.01387   0.00000   0.02541   0.02542   2.56482
   R19        2.53792   0.01468   0.00000   0.02564   0.02563   2.56355
    A1        1.87425   0.00754   0.00000   0.02957   0.02925   1.90350
    A2        1.85100   0.00679   0.00000   0.02671   0.02637   1.87737
    A3        1.93589  -0.00669   0.00000  -0.02625  -0.02659   1.90930
    A4        1.87430   0.00752   0.00000   0.02951   0.02918   1.90349
    A5        1.98599  -0.00679   0.00000  -0.02671  -0.02704   1.95895
    A6        1.93590  -0.00666   0.00000  -0.02613  -0.02647   1.90943
    A7        2.08182  -0.00265   0.00000  -0.01053  -0.01053   2.07129
    A8        2.05480   0.00245   0.00000   0.00950   0.00950   2.06430
    A9        2.14656   0.00020   0.00000   0.00103   0.00103   2.14760
   A10        2.11525   0.00181   0.00000   0.00833   0.00834   2.12360
   A11        2.11961  -0.00285   0.00000  -0.01598  -0.01598   2.10363
   A12        2.04832   0.00104   0.00000   0.00764   0.00764   2.05596
   A13        2.04859  -0.00296   0.00000  -0.01230  -0.01229   2.03630
   A14        2.10288  -0.00291   0.00000  -0.00825  -0.00825   2.09463
   A15        2.11476   0.00115   0.00000   0.00592   0.00592   2.12068
   A16        2.06555   0.00176   0.00000   0.00233   0.00232   2.06787
   A17        2.05034   0.00267   0.00000   0.00462   0.00460   2.05493
   A18        2.08521  -0.00100   0.00000  -0.00027  -0.00025   2.08495
   A19        2.14764  -0.00167   0.00000  -0.00435  -0.00434   2.14330
   A20        2.11119   0.00073   0.00000   0.00383   0.00383   2.11503
   A21        2.09447   0.00043   0.00000  -0.00020  -0.00021   2.09426
   A22        2.07752  -0.00117   0.00000  -0.00363  -0.00362   2.07390
   A23        2.15133  -0.00092   0.00000   0.00011   0.00012   2.15145
   A24        2.09605  -0.00256   0.00000  -0.01843  -0.01844   2.07761
   A25        2.03580   0.00349   0.00000   0.01832   0.01832   2.05412
   A26        2.07344  -0.00364   0.00000  -0.00691  -0.00689   2.06656
   A27        2.13123  -0.00030   0.00000   0.00005   0.00006   2.13129
   A28        2.09766   0.00120   0.00000   0.00321   0.00320   2.10086
   A29        2.05429  -0.00090   0.00000  -0.00326  -0.00326   2.05103
   A30        2.04355  -0.00140   0.00000  -0.00619  -0.00620   2.03734
    D1        1.02176   0.00001   0.00000  -0.00010  -0.00009   1.02168
    D2       -2.12013   0.00000   0.00000  -0.00034  -0.00033  -2.12046
    D3        3.13720  -0.00000   0.00000  -0.00017  -0.00017   3.13703
    D4       -0.00469  -0.00001   0.00000  -0.00041  -0.00041  -0.00510
    D5       -1.03048  -0.00001   0.00000  -0.00024  -0.00025  -1.03073
    D6        2.11081  -0.00001   0.00000  -0.00048  -0.00049   2.11032
    D7        3.14145  -0.00001   0.00000  -0.00043  -0.00043   3.14102
    D8       -0.00036  -0.00000   0.00000  -0.00020  -0.00020  -0.00055
    D9        0.00017  -0.00001   0.00000  -0.00018  -0.00018  -0.00001
   D10        3.14155   0.00000   0.00000   0.00005   0.00005  -3.14158
   D11       -3.14145   0.00001   0.00000   0.00037   0.00037  -3.14108
   D12       -0.00017   0.00000   0.00000   0.00012   0.00012  -0.00006
   D13       -0.00004   0.00000   0.00000   0.00010   0.00010   0.00006
   D14       -3.14143  -0.00000   0.00000  -0.00012  -0.00013  -3.14155
   D15        3.14150   0.00000   0.00000   0.00001   0.00001   3.14151
   D16       -0.00007   0.00000   0.00000   0.00002   0.00002  -0.00005
   D17       -3.14150  -0.00000   0.00000  -0.00009  -0.00009   3.14159
   D18       -0.00001   0.00000   0.00000  -0.00001  -0.00001  -0.00002
   D19        0.00007  -0.00000   0.00000  -0.00011  -0.00011  -0.00003
   D20        3.14157  -0.00000   0.00000  -0.00002  -0.00002   3.14155
   D21       -3.14158   0.00000   0.00000   0.00002   0.00002  -3.14157
   D22        0.00007  -0.00000   0.00000  -0.00008  -0.00008  -0.00001
   D23        0.00002   0.00000   0.00000   0.00004   0.00004   0.00006
   D24       -3.14151  -0.00000   0.00000  -0.00006  -0.00006  -3.14157
   D25       -3.14151  -0.00000   0.00000  -0.00011  -0.00011   3.14156
   D26       -0.00009   0.00000   0.00000   0.00007   0.00007  -0.00002
   D27        0.00018  -0.00001   0.00000  -0.00020  -0.00020  -0.00002
   D28       -3.14158  -0.00000   0.00000  -0.00002  -0.00002   3.14159
   D29        0.00000   0.00000   0.00000   0.00005   0.00005   0.00005
   D30       -3.14137  -0.00001   0.00000  -0.00026  -0.00026   3.14155
   D31        3.14143   0.00001   0.00000   0.00023   0.00022  -3.14153
   D32        0.00006  -0.00000   0.00000  -0.00009  -0.00008  -0.00003
   D33        0.00010  -0.00000   0.00000  -0.00012  -0.00012  -0.00003
   D34        3.14148   0.00000   0.00000   0.00017   0.00018  -3.14153
   D35       -0.00011   0.00000   0.00000   0.00008   0.00008  -0.00003
   D36        3.14142   0.00000   0.00000   0.00018   0.00018  -3.14158
   D37        0.00006  -0.00000   0.00000   0.00001   0.00001   0.00006
   D38       -3.14148  -0.00000   0.00000  -0.00009  -0.00009  -3.14156
         Item               Value     Threshold  Converged?
 Maximum Force            0.021038     0.000450     NO 
 RMS     Force            0.004974     0.000300     NO 
 Maximum Displacement     0.083081     0.001800     NO 
 RMS     Displacement     0.019793     0.001200     NO 
 Predicted change in Energy=-2.329514D-03
 Lowest energy point so far.  Saving SCF results.
 GradGradGradGradGradGradGradGradGradGradGradGradGradGradGradGradGradGrad

 Leave Link  103 at Tue Sep 17 09:49:04 2024, MaxMem=  1342177280 cpu:               0.1 elap:               0.0
 (Enter /groups/ReismanLab/Software/Gaussian16_RevC/Linux_Binary_AVX2-enabled-CPU/g16/l202.exe)
                          Input orientation:                          
 ---------------------------------------------------------------------
 Center     Atomic      Atomic             Coordinates (Angstroms)
 Number     Number       Type             X           Y           Z
 ---------------------------------------------------------------------
      1          9           0       -4.615936    0.463162   -1.088829
      2          6           0       -4.058122   -0.116344    0.000071
      3          9           0       -4.343228   -1.419118   -0.005692
      4          9           0       -4.613564    0.452946    1.095503
      5          6           0       -2.565452    0.144053   -0.000442
      6          6           0       -2.106906    1.492534   -0.000370
      7          7           0       -0.825747    1.785786   -0.000154
      8          6           0        0.040112    0.737795   -0.000076
      9          6           0        1.437258    0.972856    0.000053
     10          6           0        2.268998   -0.119382    0.000129
     11         35           0        4.157782    0.082709    0.000249
     12          6           0        1.718830   -1.433410    0.000100
     13          7           0        0.428332   -1.673774   -0.000053
     14          6           0       -0.424994   -0.618335   -0.000160
     15          7           0       -1.754615   -0.887402   -0.000308
     16          1           0       -2.815869    2.317057   -0.000474
     17          1           0        1.806213    1.991601    0.000074
     18          1           0        2.392390   -2.288030    0.000124
 ---------------------------------------------------------------------
                    Distance matrix (angstroms):
                    1          2          3          4          5
     1  F    0.000000
     2  C    1.353767   0.000000
     3  F    2.188728   1.333618   0.000000
     4  F    2.184357   1.353728   2.188683   0.000000
     5  C    2.343267   1.515213   2.367280   2.343346   0.000000
     6  C    2.922256   2.528978   3.671359   2.926604   1.424312
     7  N    4.159337   3.750513   4.758583   4.162269   2.392041
     8  C    4.789529   4.186296   4.885281   4.789377   2.672357
     9  C    6.171435   5.602282   6.255845   6.171123   4.087616
    10  C    6.994820   6.327121   6.738760   6.992643   4.841622
    11  Br   8.849235   8.218315   8.632653   8.847212   6.723514
    12  C    6.701643   5.925187   6.062078   6.697571   4.565465
    13  N    5.585389   4.749090   4.778354   5.580671   3.502462
    14  C    4.463051   3.667644   3.999230   4.460071   2.272178
    15  N    3.346051   2.429130   2.642663   3.342292   1.312004
    16  H    2.803870   2.732148   4.036317   2.812077   2.187386
    17  H    6.690727   6.231681   7.031974   6.691857   4.746039
    18  H    7.607332   6.806271   6.791435   7.602380   5.522248
                    6          7          8          9         10
     6  C    0.000000
     7  N    1.314293   0.000000
     8  C    2.275811   1.359410   0.000000
     9  C    3.582062   2.404589   1.416782   0.000000
    10  C    4.663348   3.634159   2.388030   1.372871   0.000000
    11  Br   6.421365   5.266501   4.169454   2.862449   1.899565
    12  C    4.816369   4.103425   2.744491   2.422685   1.424555
    13  N    4.056222   3.679846   2.442617   2.832416   2.409188
    14  C    2.698999   2.437293   1.433671   2.449464   2.739808
    15  N    2.405868   2.829970   2.421221   3.694403   4.096257
    16  H    1.087413   2.059814   3.263540   4.460490   5.638449
    17  H    3.944815   2.639994   2.165904   1.083498   2.161115
    18  H    5.876761   5.191568   3.832601   3.397890   2.172155
                   11         12         13         14         15
    11  Br   0.000000
    12  C    2.871777   0.000000
    13  N    4.122382   1.312692   0.000000
    14  C    4.636087   2.293541   1.357246   0.000000
    15  N    5.991457   3.516099   2.320268   1.356573   0.000000
    16  H    7.322849   5.884684   5.143109   3.785870   3.375621
    17  H    3.028819   3.426125   3.915804   3.433664   4.579099
    18  H    2.955844   1.088144   2.057871   3.274986   4.377147
                   16         17         18
    16  H    0.000000
    17  H    4.633526   0.000000
    18  H    6.952179   4.319588   0.000000
 Stoichiometry    C8H3BrF3N3
 Framework group  C1[X(C8H3BrF3N3)]
 Deg. of freedom    48
 Full point group                 C1      NOp   1
 RotChk:  IX=0 Diff= 1.24D-03
 Largest Abelian subgroup         C1      NOp   1
 Largest concise Abelian subgroup C1      NOp   1
                         Standard orientation:                         
 ---------------------------------------------------------------------
 Center     Atomic      Atomic             Coordinates (Angstroms)
 Number     Number       Type             X           Y           Z
 ---------------------------------------------------------------------
      1          9           0        4.525603   -0.426401   -1.088900
      2          6           0        3.964351    0.149776   -0.000000
      3          9           0        4.241702    1.454223   -0.005763
      4          9           0        4.523170   -0.416199    1.095432
      5          6           0        2.473257   -0.119496   -0.000512
      6          6           0        2.022741   -1.470681   -0.000441
      7          7           0        0.743349   -1.771550   -0.000225
      8          6           0       -0.128729   -0.728729   -0.000147
      9          6           0       -1.524452   -0.972098   -0.000018
     10          6           0       -2.362675    0.115173    0.000058
     11         35           0       -4.250224   -0.098151    0.000178
     12          6           0       -1.820334    1.432451    0.000029
     13          7           0       -0.531289    1.680488   -0.000124
     14          6           0        0.328301    0.630144   -0.000230
     15          7           0        1.656298    0.907116   -0.000379
     16          1           0        2.736597   -2.290972   -0.000544
     17          1           0       -1.887339   -1.993019    0.000003
     18          1           0       -2.498966    2.283048    0.000053
 ---------------------------------------------------------------------
 Rotational constants (GHZ):           1.8301605           0.1628427           0.1536588
 Leave Link  202 at Tue Sep 17 09:49:04 2024, MaxMem=  1342177280 cpu:               0.0 elap:               0.0
 (Enter /groups/ReismanLab/Software/Gaussian16_RevC/Linux_Binary_AVX2-enabled-CPU/g16/l301.exe)
 Standard basis: 6-31G(d,p) (6D, 7F)
 Ernie: Thresh=  0.10000D-02 Tol=  0.10000D-05 Strict=F.
 There are   255 symmetry adapted cartesian basis functions of A   symmetry.
 There are   255 symmetry adapted basis functions of A   symmetry.
   255 basis functions,   496 primitive gaussians,   255 cartesian basis functions
    67 alpha electrons       67 beta electrons
       nuclear repulsion energy      1238.2903034379 Hartrees.
 IExCor=  402 DFT=T Ex+Corr=B3LYP ExCW=0 ScaHFX=  0.200000
 ScaDFX=  0.800000  0.720000  1.000000  0.810000 ScalE2=  1.000000  1.000000
 IRadAn=      5 IRanWt=     -1 IRanGd=            0 ICorTp=0 IEmpDi=141
 NAtoms=   18 NActive=   18 NUniq=   18 SFac= 1.00D+00 NAtFMM=   60 NAOKFM=F Big=F
 Integral buffers will be    131072 words long.
 Raffenetti 2 integral format.
 Two-electron integral symmetry is turned on.
 R6Disp:  Grimme-D3(BJ) Dispersion energy=       -0.0411738882 Hartrees.
 Nuclear repulsion after empirical dispersion term =     1238.2491295497 Hartrees.
 Leave Link  301 at Tue Sep 17 09:49:04 2024, MaxMem=  1342177280 cpu:               0.1 elap:               0.1
 (Enter /groups/ReismanLab/Software/Gaussian16_RevC/Linux_Binary_AVX2-enabled-CPU/g16/l302.exe)
 NPDir=0 NMtPBC=     1 NCelOv=     1 NCel=       1 NClECP=     1 NCelD=      1
         NCelK=      1 NCelE2=     1 NClLst=     1 CellRange=     0.0.
 One-electron integrals computed using PRISM.
 One-electron integral symmetry used in STVInt
 NBasis=   255 RedAO= T EigKep=  6.18D-04  NBF=   255
 NBsUse=   255 1.00D-06 EigRej= -1.00D+00 NBFU=   255
 Precomputing XC quadrature grid using
 IXCGrd= 4 IRadAn=           5 IRanWt=          -1 IRanGd=           0 AccXCQ= 0.00D+00.
 Generated NRdTot=       0 NPtTot=           0 NUsed=           0 NTot=          32
 NSgBfM=   251   251   251   251   251 MxSgAt=    18 MxSgA2=    18.
 Leave Link  302 at Tue Sep 17 09:49:04 2024, MaxMem=  1342177280 cpu:               0.8 elap:               0.2
 (Enter /groups/ReismanLab/Software/Gaussian16_RevC/Linux_Binary_AVX2-enabled-CPU/g16/l303.exe)
 DipDrv:  MaxL=1.
 Leave Link  303 at Tue Sep 17 09:49:04 2024, MaxMem=  1342177280 cpu:               0.1 elap:               0.0
 (Enter /groups/ReismanLab/Software/Gaussian16_RevC/Linux_Binary_AVX2-enabled-CPU/g16/l401.exe)
 Initial guess from the checkpoint file:  "smiles_00106_conf_0.chk"
 B after Tr=     0.000000   -0.000000   -0.000000
         Rot=    1.000000    0.000022   -0.000005   -0.000183 Ang=   0.02 deg.
 Guess basis will be translated and rotated to current coordinates.
 JPrj=2 DoOrth=T DoCkMO=T.
 Generating alternative initial guess.
 ExpMin= 1.43D-01 ExpMax= 5.74D+05 ExpMxC= 5.74D+03 IAcc=3 IRadAn=         5 AccDes= 0.00D+00
 Harris functional with IExCor=  402 and IRadAn=       5 diagonalized for initial guess.
 HarFok:  IExCor=  402 AccDes= 0.00D+00 IRadAn=         5 IDoV= 1 UseB2=F ITyADJ=14
 ICtDFT=  3500011 ScaDFX=  1.000000  1.000000  1.000000  1.000000
 FoFCou: FMM=F IPFlag=           0 FMFlag=      100000 FMFlg1=           0
         NFxFlg=           0 DoJE=T BraDBF=F KetDBF=T FulRan=T
         wScrn=  0.000000 ICntrl=       500 IOpCl=  0 I1Cent=   200000004 NGrid=           0
         NMat0=    1 NMatS0=      1 NMatT0=    0 NMatD0=    1 NMtDS0=    0 NMtDT0=    0
 Petite list used in FoFCou.
 Harris En= -3342.18559889487    
 Leave Link  401 at Tue Sep 17 09:49:05 2024, MaxMem=  1342177280 cpu:               4.8 elap:               0.7
 (Enter /groups/ReismanLab/Software/Gaussian16_RevC/Linux_Binary_AVX2-enabled-CPU/g16/l502.exe)
 Integral symmetry usage will be decided dynamically.
 Closed shell SCF:
 Using DIIS extrapolation, IDIIS=  1040.
 NGot=  1342177280 LenX=  1342042190 LenY=  1341976724
 Requested convergence on RMS density matrix=1.00D-08 within  32 cycles.
 Requested convergence on MAX density matrix=1.00D-06.
 Requested convergence on             energy=1.00D-06.
 No special actions if energy rises.
 Fock matrices will be formed incrementally for  20 cycles.
 Integral accuracy reduced to 1.0D-05 until final iterations.

 Cycle   1  Pass 0  IDiag  1:
 FoFJK:  IHMeth= 1 ICntrl=       0 DoSepK=F KAlg= 0 I1Cent=           0 FoldK=F
 IRaf= 800000000 NMat=       1 IRICut=       1 DoRegI=T DoRafI=F ISym2E= 0 IDoP0=0 IntGTp=1.
 FoFCou: FMM=F IPFlag=           0 FMFlag=      100000 FMFlg1=           0
         NFxFlg=           0 DoJE=F BraDBF=F KetDBF=F FulRan=T
         wScrn=  0.000000 ICntrl=         0 IOpCl=  0 I1Cent=           0 NGrid=           0
         NMat0=    1 NMatS0=      1 NMatT0=    0 NMatD0=    1 NMtDS0=    0 NMtDT0=    0
 Symmetry not used in FoFCou.
 E= -3342.17781152831    
 DIIS: error= 1.57D-03 at cycle   1 NSaved=   1.
 NSaved= 1 IEnMin= 1 EnMin= -3342.17781152831     IErMin= 1 ErrMin= 1.57D-03
 ErrMax= 1.57D-03  0.00D+00 EMaxC= 1.00D-01 BMatC= 1.55D-03 BMatP= 1.55D-03
 IDIUse=3 WtCom= 9.84D-01 WtEn= 1.57D-02
 Coeff-Com:  0.100D+01
 Coeff-En:   0.100D+01
 Coeff:      0.100D+01
 Gap=     1.620 Goal=   None    Shift=    0.000
 GapD=    1.620 DampG=2.000 DampE=1.000 DampFc=2.0000 IDamp=-1.
 RMSDP=2.89D-04 MaxDP=6.16D-03              OVMax= 8.65D-03

 Cycle   2  Pass 0  IDiag  1:
 RMSU=  2.89D-04    CP:  1.00D+00
 E= -3342.17934838971     Delta-E=       -0.001536861408 Rises=F Damp=F
 DIIS: error= 4.74D-04 at cycle   2 NSaved=   2.
 NSaved= 2 IEnMin= 2 EnMin= -3342.17934838971     IErMin= 2 ErrMin= 4.74D-04
 ErrMax= 4.74D-04  0.00D+00 EMaxC= 1.00D-01 BMatC= 9.46D-05 BMatP= 1.55D-03
 IDIUse=3 WtCom= 9.95D-01 WtEn= 4.74D-03
 Coeff-Com:  0.746D-01 0.925D+00
 Coeff-En:   0.000D+00 0.100D+01
 Coeff:      0.743D-01 0.926D+00
 Gap=     0.160 Goal=   None    Shift=    0.000
 RMSDP=9.78D-05 MaxDP=3.63D-03 DE=-1.54D-03 OVMax= 5.61D-03

 Cycle   3  Pass 0  IDiag  1:
 RMSU=  9.68D-05    CP:  1.00D+00  1.05D+00
 E= -3342.17932906313     Delta-E=        0.000019326588 Rises=F Damp=F
 DIIS: error= 5.05D-04 at cycle   3 NSaved=   3.
 NSaved= 3 IEnMin= 2 EnMin= -3342.17934838971     IErMin= 2 ErrMin= 4.74D-04
 ErrMax= 5.05D-04  0.00D+00 EMaxC= 1.00D-01 BMatC= 1.19D-04 BMatP= 9.46D-05
 IDIUse=3 WtCom= 3.08D-01 WtEn= 6.92D-01
 Coeff-Com: -0.107D-01 0.533D+00 0.477D+00
 Coeff-En:   0.000D+00 0.544D+00 0.456D+00
 Coeff:     -0.330D-02 0.541D+00 0.462D+00
 Gap=     0.160 Goal=   None    Shift=    0.000
 RMSDP=5.58D-05 MaxDP=2.36D-03 DE= 1.93D-05 OVMax= 4.83D-03

 Cycle   4  Pass 0  IDiag  1:
 RMSU=  2.55D-05    CP:  1.00D+00  1.06D+00  4.88D-01
 E= -3342.17943500759     Delta-E=       -0.000105944460 Rises=F Damp=F
 DIIS: error= 2.30D-04 at cycle   4 NSaved=   4.
 NSaved= 4 IEnMin= 4 EnMin= -3342.17943500759     IErMin= 4 ErrMin= 2.30D-04
 ErrMax= 2.30D-04  0.00D+00 EMaxC= 1.00D-01 BMatC= 1.04D-05 BMatP= 9.46D-05
 IDIUse=3 WtCom= 9.98D-01 WtEn= 2.30D-03
 Coeff-Com: -0.120D-01 0.250D+00 0.285D+00 0.477D+00
 Coeff-En:   0.000D+00 0.000D+00 0.000D+00 0.100D+01
 Coeff:     -0.120D-01 0.249D+00 0.285D+00 0.478D+00
 Gap=     0.160 Goal=   None    Shift=    0.000
 RMSDP=1.72D-05 MaxDP=6.33D-04 DE=-1.06D-04 OVMax= 1.64D-03

 Cycle   5  Pass 0  IDiag  1:
 RMSU=  1.04D-05    CP:  1.00D+00  1.06D+00  5.03D-01  4.66D-01
 E= -3342.17944416896     Delta-E=       -0.000009161377 Rises=F Damp=F
 DIIS: error= 7.18D-05 at cycle   5 NSaved=   5.
 NSaved= 5 IEnMin= 5 EnMin= -3342.17944416896     IErMin= 5 ErrMin= 7.18D-05
 ErrMax= 7.18D-05  0.00D+00 EMaxC= 1.00D-01 BMatC= 1.14D-06 BMatP= 1.04D-05
 IDIUse=1 WtCom= 1.00D+00 WtEn= 0.00D+00
 Coeff-Com: -0.544D-02 0.807D-01 0.112D+00 0.286D+00 0.526D+00
 Coeff:     -0.544D-02 0.807D-01 0.112D+00 0.286D+00 0.526D+00
 Gap=     0.160 Goal=   None    Shift=    0.000
 RMSDP=5.65D-06 MaxDP=2.05D-04 DE=-9.16D-06 OVMax= 4.69D-04

 Initial convergence to 1.0D-05 achieved.  Increase integral accuracy.
 Cycle   6  Pass 1  IDiag  1:
 E= -3342.17943348109     Delta-E=        0.000010687877 Rises=F Damp=F
 DIIS: error= 3.77D-05 at cycle   1 NSaved=   1.
 NSaved= 1 IEnMin= 1 EnMin= -3342.17943348109     IErMin= 1 ErrMin= 3.77D-05
 ErrMax= 3.77D-05  0.00D+00 EMaxC= 1.00D-01 BMatC= 3.55D-07 BMatP= 3.55D-07
 IDIUse=1 WtCom= 1.00D+00 WtEn= 0.00D+00
 Coeff-Com:  0.100D+01
 Coeff:      0.100D+01
 Gap=     0.160 Goal=   None    Shift=    0.000
 RMSDP=5.65D-06 MaxDP=2.05D-04 DE= 1.07D-05 OVMax= 3.26D-04

 Cycle   7  Pass 1  IDiag  1:
 RMSU=  2.09D-05    CP:  1.00D+00
 E= -3342.17943320352     Delta-E=        0.000000277569 Rises=F Damp=F
 DIIS: error= 5.63D-05 at cycle   2 NSaved=   2.
 NSaved= 2 IEnMin= 1 EnMin= -3342.17943348109     IErMin= 1 ErrMin= 3.77D-05
 ErrMax= 5.63D-05  0.00D+00 EMaxC= 1.00D-01 BMatC= 5.84D-07 BMatP= 3.55D-07
 IDIUse=1 WtCom= 1.00D+00 WtEn= 0.00D+00
 Coeff-Com:  0.577D+00 0.423D+00
 Coeff:      0.577D+00 0.423D+00
 Gap=     0.160 Goal=   None    Shift=    0.000
 RMSDP=4.20D-06 MaxDP=1.99D-04 DE= 2.78D-07 OVMax= 3.45D-04

 Cycle   8  Pass 1  IDiag  1:
 RMSU=  4.13D-06    CP:  1.00D+00  9.62D-01
 E= -3342.17943367874     Delta-E=       -0.000000475226 Rises=F Damp=F
 DIIS: error= 2.57D-05 at cycle   3 NSaved=   3.
 NSaved= 3 IEnMin= 3 EnMin= -3342.17943367874     IErMin= 3 ErrMin= 2.57D-05
 ErrMax= 2.57D-05  0.00D+00 EMaxC= 1.00D-01 BMatC= 8.92D-08 BMatP= 3.55D-07
 IDIUse=1 WtCom= 1.00D+00 WtEn= 0.00D+00
 Coeff-Com:  0.648D-01 0.278D+00 0.658D+00
 Coeff:      0.648D-01 0.278D+00 0.658D+00
 Gap=     0.160 Goal=   None    Shift=    0.000
 RMSDP=1.50D-06 MaxDP=5.29D-05 DE=-4.75D-07 OVMax= 1.38D-04

 Cycle   9  Pass 1  IDiag  1:
 RMSU=  6.96D-07    CP:  1.00D+00  9.81D-01  6.93D-01
 E= -3342.17943375817     Delta-E=       -0.000000079424 Rises=F Damp=F
 DIIS: error= 6.64D-06 at cycle   4 NSaved=   4.
 NSaved= 4 IEnMin= 4 EnMin= -3342.17943375817     IErMin= 4 ErrMin= 6.64D-06
 ErrMax= 6.64D-06  0.00D+00 EMaxC= 1.00D-01 BMatC= 1.20D-08 BMatP= 8.92D-08
 IDIUse=1 WtCom= 1.00D+00 WtEn= 0.00D+00
 Coeff-Com:  0.127D-02 0.147D+00 0.416D+00 0.436D+00
 Coeff:      0.127D-02 0.147D+00 0.416D+00 0.436D+00
 Gap=     0.160 Goal=   None    Shift=    0.000
 RMSDP=4.42D-07 MaxDP=2.23D-05 DE=-7.94D-08 OVMax= 3.89D-05

 Cycle  10  Pass 1  IDiag  1:
 RMSU=  1.75D-07    CP:  1.00D+00  9.81D-01  7.30D-01  4.61D-01
 E= -3342.17943376813     Delta-E=       -0.000000009963 Rises=F Damp=F
 DIIS: error= 1.22D-06 at cycle   5 NSaved=   5.
[...]
 Leave Link 1002 at Tue Sep 17 11:14:10 2024, MaxMem=  1342177280 cpu:            1222.7 elap:            1225.4
 (Enter /groups/ReismanLab/Software/Gaussian16_RevC/Linux_Binary_AVX2-enabled-CPU/g16/l601.exe)
 Copying SCF densities to generalized density rwf, IOpCl= 0 IROHF=0.

 **********************************************************************

            Population analysis using the SCF Density.

 **********************************************************************

 Orbital symmetries:
       Occupied  (A) (A) (A) (A) (A) (A) (A) (A) (A) (A) (A) (A)
                 (A) (A) (A) (A) (A) (A) (A) (A) (A) (A) (A) (A)
                 (A) (A) (A) (A) (A) (A) (A) (A) (A) (A) (A) (A)
                 (A) (A) (A) (A) (A) (A) (A) (A) (A) (A) (A) (A)
                 (A) (A) (A) (A) (A) (A) (A) (A) (A) (A) (A) (A)
                 (A) (A) (A) (A) (A) (A) (A)
       Virtual   (A) (A) (A) (A) (A) (A) (A) (A) (A) (A) (A) (A)
                 (A) (A) (A) (A) (A) (A) (A) (A) (A) (A) (A) (A)
                 (A) (A) (A) (A) (A) (A) (A) (A) (A) (A) (A) (A)
                 (A) (A) (A) (A) (A) (A) (A) (A) (A) (A) (A) (A)
                 (A) (A) (A) (A) (A) (A) (A) (A) (A) (A) (A) (A)
                 (A) (A) (A) (A) (A) (A) (A) (A) (A) (A) (A) (A)
                 (A) (A) (A) (A) (A) (A) (A) (A) (A) (A) (A) (A)
                 (A) (A) (A) (A) (A) (A) (A) (A) (A) (A) (A) (A)
                 (A) (A) (A) (A) (A) (A) (A) (A) (A) (A) (A) (A)
                 (A) (A) (A) (A) (A) (A) (A) (A) (A) (A) (A) (A)
                 (A) (A) (A) (A) (A) (A) (A) (A) (A) (A) (A) (A)
                 (A) (A) (A) (A) (A) (A) (A) (A) (A) (A) (A) (A)
                 (A) (A) (A) (A) (A) (A) (A) (A) (A) (A) (A) (A)
                 (A) (A) (A) (A) (A) (A) (A) (A) (A) (A) (A) (A)
                 (A) (A) (A) (A) (A) (A) (A) (A) (A) (A) (A) (A)
                 (A) (A) (A) (A) (A) (A) (A) (A) (A) (A) (A) (A)
                 (A) (A) (A) (A) (A) (A) (A) (A) (A) (A) (A) (A)
                 (A) (A) (A) (A) (A) (A) (A) (A) (A) (A) (A) (A)
                 (A) (A) (A) (A) (A) (A) (A) (A) (A) (A) (A) (A)
                 (A) (A) (A) (A) (A) (A) (A) (A) (A) (A) (A) (A)
                 (A) (A) (A) (A) (A) (A) (A) (A) (A) (A) (A) (A)
                 (A) (A) (A) (A) (A) (A) (A) (A) (A) (A) (A) (A)
                 (A) (A) (A) (A) (A) (A) (A) (A) (A) (A) (A) (A)
                 (A) (A) (A) (A) (A) (A) (A) (A) (A) (A) (A) (A)
                 (A) (A) (A) (A) (A) (A) (A) (A) (A) (A) (A) (A)
                 (A) (A) (A) (A) (A) (A) (A) (A) (A) (A) (A) (A)
                 (A) (A) (A) (A) (A) (A) (A) (A) (A) (A) (A) (A)
                 (A) (A) (A) (A) (A) (A) (A) (A) (A) (A) (A) (A)
                 (A) (A) (A) (A) (A) (A) (A) (A) (A) (A) (A) (A)
                 (A) (A) (A) (A) (A) (A) (A) (A) (A) (A) (A) (A)
                 (A) (A) (A) (A) (A) (A) (A) (A) (A) (A) (A) (A)
                 (A) (A) (A) (A) (A) (A) (A) (A) (A) (A) (A) (A)
                 (A) (A) (A) (A) (A) (A) (A) (A) (A) (A) (A) (A)
                 (A) (A) (A) (A) (A) (A) (A) (A) (A) (A) (A) (A)
                 (A) (A) (A) (A) (A) (A) (A) (A) (A) (A) (A) (A)
                 (A) (A) (A) (A) (A) (A) (A) (A) (A) (A) (A) (A)
                 (A)
 The electronic state is 1-A.
 Alpha  occ. eigenvalues -- -485.39795 -63.38267 -57.20218 -57.19974 -57.19963
 Alpha  occ. eigenvalues --  -25.29400 -25.29281 -25.29279 -14.80173 -14.79965
 Alpha  occ. eigenvalues --  -14.78397 -10.81549 -10.64270 -10.63476 -10.63402
 Alpha  occ. eigenvalues --  -10.62252 -10.62095 -10.61799 -10.59337  -9.04912
 Alpha  occ. eigenvalues --   -6.87343  -6.86435  -6.86399  -2.90721  -2.90394
 Alpha  occ. eigenvalues --   -2.90357  -2.89511  -2.89510  -1.47593  -1.38845
 Alpha  occ. eigenvalues --   -1.38399  -1.13992  -1.07901  -1.05338  -0.95903
 Alpha  occ. eigenvalues --   -0.92496  -0.88290  -0.83371  -0.79568  -0.76759
 Alpha  occ. eigenvalues --   -0.74325  -0.70498  -0.70433  -0.69556  -0.65206
 Alpha  occ. eigenvalues --   -0.63053  -0.61345  -0.58740  -0.58542  -0.55933
 Alpha  occ. eigenvalues --   -0.55695  -0.54380  -0.54361  -0.53586  -0.52810
 Alpha  occ. eigenvalues --   -0.51265  -0.49433  -0.47980  -0.46225  -0.44888
 Alpha  occ. eigenvalues --   -0.42227  -0.40185  -0.39192  -0.36948  -0.35134
 Alpha  occ. eigenvalues --   -0.33839  -0.32483
 Alpha virt. eigenvalues --   -0.08060  -0.03519   0.00018   0.01980   0.07321
 Alpha virt. eigenvalues --    0.08434   0.10073   0.10571   0.11679   0.14190
 Alpha virt. eigenvalues --    0.14938   0.16104   0.16901   0.17495   0.18547
 Alpha virt. eigenvalues --    0.19574   0.21359   0.21502   0.21532   0.22677
 Alpha virt. eigenvalues --    0.22986   0.24708   0.25181   0.25339   0.25886
 Alpha virt. eigenvalues --    0.26606   0.28372   0.28400   0.28638   0.28673
 Alpha virt. eigenvalues --    0.29110   0.30041   0.30082   0.31509   0.32917
 Alpha virt. eigenvalues --    0.33398   0.34755   0.35119   0.35369   0.35700
 Alpha virt. eigenvalues --    0.36425   0.37030   0.38239   0.39538   0.40646
 Alpha virt. eigenvalues --    0.41520   0.42571   0.43142   0.43316   0.44371
 Alpha virt. eigenvalues --    0.46019   0.47056   0.47682   0.48223   0.48478
 Alpha virt. eigenvalues --    0.51641   0.53366   0.53842   0.54511   0.56101
 Alpha virt. eigenvalues --    0.56489   0.56816   0.57127   0.57438   0.57578
 Alpha virt. eigenvalues --    0.57895   0.59970   0.60857   0.61842   0.62339
 Alpha virt. eigenvalues --    0.63670   0.64346   0.66086   0.67097   0.68553
 Alpha virt. eigenvalues --    0.69599   0.70744   0.71047   0.72482   0.72697
 Alpha virt. eigenvalues --    0.73643   0.74727   0.75119   0.75364   0.76207
 Alpha virt. eigenvalues --    0.77016   0.79595   0.80184   0.81123   0.82229
 Alpha virt. eigenvalues --    0.82344   0.84768   0.86493   0.86703   0.87505
 Alpha virt. eigenvalues --    0.88338   0.91230   0.92937   0.94781   0.95457
 Alpha virt. eigenvalues --    0.95906   0.97458   0.99216   0.99523   1.01627
 Alpha virt. eigenvalues --    1.03315   1.05863   1.08804   1.09071   1.10156
 Alpha virt. eigenvalues --    1.12353   1.12460   1.12678   1.14418   1.14920
 Alpha virt. eigenvalues --    1.19853   1.20778   1.23352   1.25199   1.26963
 Alpha virt. eigenvalues --    1.28152   1.30802   1.31167   1.31479   1.32109
 Alpha virt. eigenvalues --    1.33686   1.37688   1.37807   1.38502   1.40014
 Alpha virt. eigenvalues --    1.40839   1.43018   1.43419   1.45376   1.45930
 Alpha virt. eigenvalues --    1.46670   1.48151   1.48951   1.50135   1.50916
 Alpha virt. eigenvalues --    1.52156   1.52192   1.53946   1.55365   1.55803
 Alpha virt. eigenvalues --    1.56817   1.57725   1.59424   1.59442   1.62238
 Alpha virt. eigenvalues --    1.63460   1.64523   1.65131   1.65377   1.66498
 Alpha virt. eigenvalues --    1.67934   1.68314   1.71677   1.71891   1.72757
 Alpha virt. eigenvalues --    1.72975   1.74806   1.75874   1.78361   1.80216
 Alpha virt. eigenvalues --    1.81768   1.82019   1.83711   1.86027   1.86061
 Alpha virt. eigenvalues --    1.86529   1.89675   1.89884   1.91922   1.92975
 Alpha virt. eigenvalues --    1.93048   1.96362   1.97218   1.98965   1.99707
 Alpha virt. eigenvalues --    2.00776   2.02886   2.04624   2.05039   2.08927
 Alpha virt. eigenvalues --    2.10836   2.11237   2.12817   2.14962   2.16092
 Alpha virt. eigenvalues --    2.16876   2.20952   2.21515   2.22653   2.27409
 Alpha virt. eigenvalues --    2.29743   2.30532   2.30842   2.32055   2.35961
 Alpha virt. eigenvalues --    2.38274   2.38800   2.41368   2.41795   2.43773
 Alpha virt. eigenvalues --    2.44299   2.44978   2.46989   2.48085   2.49882
 Alpha virt. eigenvalues --    2.50794   2.52063   2.52911   2.56809   2.58697
 Alpha virt. eigenvalues --    2.59295   2.61389   2.63738   2.64151   2.67046
 Alpha virt. eigenvalues --    2.68734   2.69429   2.70995   2.72032   2.72918
 Alpha virt. eigenvalues --    2.73239   2.78716   2.79974   2.81812   2.81976
 Alpha virt. eigenvalues --    2.85233   2.87555   2.87761   2.89877   2.90072
 Alpha virt. eigenvalues --    2.91768   2.92811   2.94958   2.95404   2.96535
 Alpha virt. eigenvalues --    2.97661   2.98392   3.01314   3.01902   3.03057
 Alpha virt. eigenvalues --    3.03477   3.03934   3.05440   3.05592   3.08007
 Alpha virt. eigenvalues --    3.10419   3.12426   3.13009   3.13540   3.13856
 Alpha virt. eigenvalues --    3.16073   3.16768   3.17088   3.18235   3.18587
 Alpha virt. eigenvalues --    3.20401   3.21402   3.23424   3.24618   3.25576
 Alpha virt. eigenvalues --    3.26426   3.26705   3.29560   3.29615   3.30301
 Alpha virt. eigenvalues --    3.30868   3.31020   3.32788   3.33324   3.34649
 Alpha virt. eigenvalues --    3.36556   3.38027   3.40352   3.41249   3.43686
 Alpha virt. eigenvalues --    3.45749   3.46012   3.47176   3.48726   3.49568
 Alpha virt. eigenvalues --    3.53455   3.57396   3.57441   3.62395   3.63743
 Alpha virt. eigenvalues --    3.65773   3.68272   3.70142   3.71225   3.74139
 Alpha virt. eigenvalues --    3.75343   3.76104   3.76564   3.81529   3.81749
 Alpha virt. eigenvalues --    3.82517   3.83258   3.85974   3.87486   3.91544
 Alpha virt. eigenvalues --    3.92896   3.94109   3.95581   3.95719   3.97790
 Alpha virt. eigenvalues --    4.00293   4.02408   4.02694   4.04594   4.07380
 Alpha virt. eigenvalues --    4.07573   4.09062   4.11337   4.12603   4.13855
 Alpha virt. eigenvalues --    4.15584   4.16859   4.19419   4.19698   4.21624
 Alpha virt. eigenvalues --    4.22600   4.24038   4.26075   4.27519   4.33435
 Alpha virt. eigenvalues --    4.33947   4.36268   4.41699   4.43609   4.44276
 Alpha virt. eigenvalues --    4.49414   4.53249   4.56207   4.62103   4.63174
 Alpha virt. eigenvalues --    4.70114   4.70581   4.74977   4.75288   4.75861
 Alpha virt. eigenvalues --    4.77413   4.80953   4.83596   4.85136   4.97212
 Alpha virt. eigenvalues --    4.98429   4.98915   5.00751   5.02805   5.03162
 Alpha virt. eigenvalues --    5.04815   5.05929   5.10399   5.13474   5.16711
 Alpha virt. eigenvalues --    5.17940   5.19768   5.20188   5.23094   5.28287
 Alpha virt. eigenvalues --    5.32123   5.32811   5.33712   5.40851   5.45333
 Alpha virt. eigenvalues --    5.48796   5.52190   5.55728   5.59399   5.62523
 Alpha virt. eigenvalues --    5.65228   5.69844   5.81259   5.82870   5.87476
 Alpha virt. eigenvalues --    6.02939   6.42753   6.82001   6.86761   6.86859
 Alpha virt. eigenvalues --    6.87127   6.87758   6.87931   6.88003   6.89245
 Alpha virt. eigenvalues --    6.90294   6.97318   6.98870   7.01080   7.04184
 Alpha virt. eigenvalues --    7.06822   7.12940   7.32135   7.35224   7.40214
 Alpha virt. eigenvalues --    7.49557   7.54670   7.57847   7.84845   8.27946
 Alpha virt. eigenvalues --    8.30486   8.30979   8.44194   8.45786   8.55068
 Alpha virt. eigenvalues --    8.67227   8.74579   8.77031   8.86199   8.91310
 Alpha virt. eigenvalues --    8.97489   8.98109   9.03855   9.10597  22.55831
 Alpha virt. eigenvalues --   22.78958  22.80607  22.84446  22.93355  23.02278
 Alpha virt. eigenvalues --   23.17215  23.33360  32.50834  32.55510  32.87294
 Alpha virt. eigenvalues --   57.25623  57.43085  57.50574
          Condensed to atoms (all electrons):
               1          2          3          4          5          6
     1  F    9.002204   0.332487  -0.044628  -0.048523  -0.067602   0.004830
     2  C    0.332487   4.089081   0.353901   0.332721   0.428036  -0.026574
     3  F   -0.044628   0.353901   8.942548  -0.044673  -0.046159   0.004293
     4  F   -0.048523   0.332721  -0.044673   9.002051  -0.067582   0.004766
     5  C   -0.067602   0.428036  -0.046159  -0.067582   5.073375   0.422659
     6  C    0.004830  -0.026574   0.004293   0.004766   0.422659   4.881319
     7  N   -0.000012   0.000074  -0.000130  -0.000016  -0.080331   0.554771
     8  C    0.000100   0.002763   0.000122   0.000097  -0.002518  -0.100304
     9  C   -0.000006  -0.000210   0.000004  -0.000006   0.003906   0.001410
    10  C    0.000000   0.000024   0.000000   0.000000   0.000917  -0.000723
    11  Br   0.000000  -0.000000  -0.000000   0.000000  -0.000019   0.000012
    12  C   -0.000001   0.000060  -0.000005  -0.000001  -0.001898   0.000776
    13  N   -0.000002  -0.000018  -0.000063  -0.000002   0.002148  -0.000201
    14  C   -0.000350  -0.000484  -0.000704  -0.000360  -0.096913  -0.036126
    15  N    0.000548  -0.025996  -0.009464   0.000487   0.458589  -0.045297
    16  H    0.001771   0.004293   0.000092   0.001700  -0.054309   0.410062
    17  H    0.000000   0.000009   0.000000   0.000000   0.000596   0.000765
    18  H    0.000000  -0.000002   0.000000   0.000000  -0.000019   0.000017
               7          8          9         10         11         12
     1  F   -0.000012   0.000100  -0.000006   0.000000   0.000000  -0.000001
     2  C    0.000074   0.002763  -0.000210   0.000024  -0.000000   0.000060
     3  F   -0.000130   0.000122   0.000004   0.000000  -0.000000  -0.000005
     4  F   -0.000016   0.000097  -0.000006   0.000000   0.000000  -0.000001
     5  C   -0.080331  -0.002518   0.003906   0.000917  -0.000019  -0.001898
     6  C    0.554771  -0.100304   0.001410  -0.000723   0.000012   0.000776
     7  N    6.461960   0.366076  -0.043981   0.000630  -0.000382   0.001020
     8  C    0.366076   5.134207   0.280444  -0.001905   0.017916  -0.004476
     9  C   -0.043981   0.280444   5.264844   0.460799  -0.097168  -0.041135
    10  C    0.000630  -0.001905   0.460799   4.907412   0.360665   0.396005
    11  Br  -0.000382   0.017916  -0.097168   0.360665  34.843934  -0.066601
    12  C    0.001020  -0.004476  -0.041135   0.396005  -0.066601   4.922626
    13  N    0.009110  -0.094267  -0.050828  -0.038993   0.007267   0.526658
    14  C   -0.034334   0.407757  -0.001126  -0.040497   0.001547  -0.103864
    15  N   -0.001690  -0.101015   0.008243  -0.002563   0.000042   0.002228
    16  H   -0.029392   0.001170  -0.000926  -0.000031  -0.000000   0.000006
    17  H    0.014204  -0.025398   0.400478  -0.026233  -0.009040   0.005871
    18  H    0.000035  -0.005783   0.010486  -0.075139  -0.000006   0.438720
              13         14         15         16         17         18
     1  F   -0.000002  -0.000350   0.000548   0.001771   0.000000   0.000000
     2  C   -0.000018  -0.000484  -0.025996   0.004293   0.000009  -0.000002
     3  F   -0.000063  -0.000704  -0.009464   0.000092   0.000000   0.000000
     4  F   -0.000002  -0.000360   0.000487   0.001700   0.000000   0.000000
     5  C    0.002148  -0.096913   0.458589  -0.054309   0.000596  -0.000019
     6  C   -0.000201  -0.036126  -0.045297   0.410062   0.000765   0.000017
     7  N    0.009110  -0.034334  -0.001690  -0.029392   0.014204   0.000035
     8  C   -0.094267   0.407757  -0.101015   0.001170  -0.025398  -0.005783
     9  C   -0.050828  -0.001126   0.008243  -0.000926   0.400478   0.010486
    10  C   -0.038993  -0.040497  -0.002563  -0.000031  -0.026233  -0.075139
    11  Br   0.007267   0.001547   0.000042  -0.000000  -0.009040  -0.000006
    12  C    0.526658  -0.103864   0.002228   0.000006   0.005871   0.438720
    13  N    6.523452   0.465488  -0.104437   0.000180  -0.002148  -0.032897
    14  C    0.465488   4.698993   0.505699   0.004162  -0.001078   0.010519
    15  N   -0.104437   0.505699   6.490957   0.003710  -0.000381   0.000264
    16  H    0.000180   0.004162   0.003710   0.465952  -0.000145   0.000000
    17  H   -0.002148  -0.001078  -0.000381  -0.000145   0.435850   0.000014
    18  H   -0.032897   0.010519   0.000264   0.000000   0.000014   0.464975
 Mulliken charges:
               1
     1  F   -0.180817
     2  C    0.509835
     3  F   -0.155134
     4  F   -0.180660
     5  C    0.027124
     6  C   -0.076456
     7  N   -0.217615
     8  C    0.125015
     9  C   -0.195229
    10  C    0.059634
    11  Br  -0.058166
    12  C   -0.075988
    13  N   -0.210446
    14  C    0.221671
    15  N   -0.179924
    16  H    0.191707
    17  H    0.206634
    18  H    0.188816
 Sum of Mulliken charges =  -0.00000
 Mulliken charges with hydrogens summed into heavy atoms:
               1
     1  F   -0.180817
     2  C    0.509835
     3  F   -0.155134
     4  F   -0.180660
     5  C    0.027124
     6  C    0.115251
     7  N   -0.217615
     8  C    0.125015
     9  C    0.011405
    10  C    0.059634
    11  Br  -0.058166
    12  C    0.112828
    13  N   -0.210446
    14  C    0.221671
    15  N   -0.179924
 Electronic spatial extent (au):  <R**2>=           5829.6891
 Charge=             -0.0000 electrons
 Dipole moment (field-independent basis, Debye):
    X=             -2.5497    Y=             -2.3163    Z=             -0.0016  Tot=              3.4448
 Quadrupole moment (field-independent basis, Debye-Ang):
   XX=            -98.8581   YY=            -98.8163   ZZ=            -96.1352
   XY=             -6.6151   XZ=             -0.0068   YZ=              0.0010
 Traceless Quadrupole moment (field-independent basis, Debye-Ang):
   XX=             -0.9215   YY=             -0.8798   ZZ=              1.8013
   XY=             -6.6151   XZ=             -0.0068   YZ=              0.0010
 Octapole moment (field-independent basis, Debye-Ang**2):
  XXX=            -98.2497  YYY=             -7.8763  ZZZ=             -0.0041  XYY=            -25.5893
  XXY=            -10.2158  XXZ=             -0.0141  XZZ=            -15.4978  YZZ=              1.9286
  YYZ=              0.0270  XYZ=             -0.0020
 Hexadecapole moment (field-independent basis, Debye-Ang**3):
 XXXX=          -5361.1414 YYYY=           -671.3823 ZZZZ=           -164.5926 XXXY=             -5.1896
 XXXZ=             -0.0619 YYYX=            -10.3226 YYYZ=              0.0148 ZZZX=             -0.0868
 ZZZY=             -0.0049 XXYY=           -947.9360 XXZZ=           -932.2197 YYZZ=           -138.3400
 XXYZ=             -0.0407 YYXZ=              0.0707 ZZXY=             13.7846
 N-N= 1.238607663317D+03 E-N=-1.043783739617D+04  KE= 3.337770398456D+03
 Calculating spin-rotation constants.
 Leave Link  601 at Tue Sep 17 11:14:15 2024, MaxMem=  1342177280 cpu:               4.9 elap:               4.9
 (Enter /groups/ReismanLab/Software/Gaussian16_RevC/Linux_Binary_AVX2-enabled-CPU/g16/l9999.exe)
 Unable to Open any file for archive entry.
 1\1\GINC-HPC-21-32\SP\RM062X\def2TZVP\C8H3Br1F3N3\MANTIND\17-Sep-2024\
 0\\#p M062X/def2tzvp geom=check guess=read scf(xqc,tight) integral(gri
 d=ultrafine) scrf(SMD, solvent=1,4-Dioxane) nmr=giao\\spe\\0,1\F,0,-4.
 619706394,0.4662710681,-1.0826852168\C,0,-4.0532009254,-0.1145898729,0
 .0002145068\F,0,-4.3587461648,-1.411245682,-0.0068625696\F,0,-4.616412
 5838,0.4535906771,1.0914721282\C,0,-2.5582440616,0.1390603409,-0.00062
 62746\C,0,-2.1023590662,1.4886577929,-0.0008160327\N,0,-0.8234208363,1
 .789255111,-0.0005794325\C,0,0.0411614624,0.7352799248,-0.0002485016\C
 ,0,1.4363412766,0.9741587677,-0.0000334982\C,0,2.2672809239,-0.1171291
 292,0.00024559\Br,0,4.1552760257,0.0810547612,0.0005497948\C,0,1.71967
 27496,-1.430427064,0.0002948946\N,0,0.4290042974,-1.6771482346,0.00010
 50774\C,0,-0.4200501187,-0.6164852675,-0.0001456416\N,0,-1.751117959,-
 0.8940868399,-0.0002523627\H,0,-2.8158950404,2.3085515542,-0.001286369
 7\H,0,1.8024977342,1.9936730181,-0.0001053852\H,0,2.3934008107,-2.2837
 355546,0.0005045612\\Version=ES64L-G16RevC.02\State=1-A\HF=-3344.67055
 73\RMSD=4.429e-09\Dipole=1.0087354,0.9051013,-0.0008011\Quadrupole=-0.
 7458423,-0.5933725,1.3392148,-4.9176053,0.0060532,-0.0005266\PG=C01 [X
 (C8H3Br1F3N3)]\\@
 The archive entry for this job was punched.


 THE PROBLEM WITH THE LADDER OF SUCCESS IS YOU CAN'T
 CLIMB IT WHILE YOU'RE TWIDDLING YOUR THUMBS.
 Job cpu time:       0 days  0 hours 22 minutes 15.8 seconds.
 Elapsed time:       0 days  0 hours 22 minutes 19.5 seconds.
 File lengths (MBytes):  RWF=    312 Int=      0 D2E=      0 Chk=     32 Scr=     16
 Normal termination of Gaussian 16 at Tue Sep 17 11:14:15 2024.
