 Entering Gaussian System, Link 0=g16
 Input=smiles_00047_conf_2.gjf
 Output=smiles_00047_conf_2.log
 Initial command:
 /groups/ReismanLab/Software/Gaussian16_RevC/Linux_Binary_AVX2-enabled-CPU/g16/l1.exe "/central/groups/ReismanLab/DM/dft_final/smiles_00047/Gau-1585514.inp" -scrdir="/central/groups/ReismanLab/DM/dft_final/smiles_00047/"
 Entering Link 1 = /groups/ReismanLab/Software/Gaussian16_RevC/Linux_Binary_AVX2-enabled-CPU/g16/l1.exe PID=   1585515.
  
 Copyright (c) 1988-2021, Gaussian, Inc.  All Rights Reserved.
  
 This is part of the Gaussian(R) 16 program.  It is based on
 the Gaussian(R) 09 system (copyright 2009, Gaussian, Inc.),
 the Gaussian(R) 03 system (copyright 2003, Gaussian, Inc.),
 the Gaussian(R) 98 system (copyright 1998, Gaussian, Inc.),
 the Gaussian(R) 94 system (copyright 1995, Gaussian, Inc.),
 the Gaussian 92(TM) system (copyright 1992, Gaussian, Inc.),
 the Gaussian 90(TM) system (copyright 1990, Gaussian, Inc.),
 the Gaussian 88(TM) system (copyright 1988, Gaussian, Inc.),
 the Gaussian 86(TM) system (copyright 1986, Carnegie Mellon
 University), and the Gaussian 82(TM) system (copyright 1983,
 Carnegie Mellon University). Gaussian is a federally registered
 trademark of Gaussian, Inc.
  
 This software contains proprietary and confidential information,
 including trade secrets, belonging to Gaussian, Inc.
  
 This software is provided under written license and may be
 used, copied, transmitted, or stored only in accord with that
 written license.
  
 The following legend is applicable only to US Government
 contracts under FAR:
  
                    RESTRICTED RIGHTS LEGEND
  
 Use, reproduction and disclosure by the US Government is
 subject to restrictions as set forth in subparagraphs (a)
 and (c) of the Commercial Computer Software - Restricted
 Rights clause in FAR 52.227-19.
  
 Gaussian, Inc.
 340 Quinnipiac St., Bldg. 40, Wallingford CT 06492
  
  
 ---------------------------------------------------------------
 Warning -- This program may not be used in any manner that
 competes with the business of Gaussian, Inc. or will provide
 assistance to any competitor of Gaussian, Inc.  The licensee
 of this program is prohibited from giving any competitor of
 Gaussian, Inc. access to this program.  By using this program,
 the user acknowledges that Gaussian, Inc. is engaged in the
 business of creating and licensing software in the field of
 computational chemistry and represents and warrants to the
 licensee that it is not a competitor of Gaussian, Inc. and that
 it will not use this program in any manner prohibited above.
 ---------------------------------------------------------------
  

 Cite this work as:
 Gaussian 16, Revision C.02,
 M. J. Frisch, G. W. Trucks, H. B. Schlegel, G. E. Scuseria, 
 M. A. Robb, J. R. Cheeseman, G. Scalmani, V. Barone, 
 G. A. Petersson, H. Nakatsuji, X. Li, M. Caricato, A. V. Marenich, 
 J. Bloino, B. G. Janesko, R. Gomperts, B. Mennucci, H. P. Hratchian, 
 J. V. Ortiz, A. F. Izmaylov, J. L. Sonnenberg, D. Williams-Young, 
 F. Ding, F. Lipparini, F. Egidi, J. Goings, B. Peng, A. Petrone, 
 T. Henderson, D. Ranasinghe, V. G. Zakrzewski, J. Gao, N. Rega, 
 G. Zheng, W. Liang, M. Hada, M. Ehara, K. Toyota, R. Fukuda, 
 J. Hasegawa, M. Ishida, T. Nakajima, Y. Honda, O. Kitao, H. Nakai, 
 T. Vreven, K. Throssell, J. A. Montgomery, Jr., J. E. Peralta, 
 F. Ogliaro, M. J. Bearpark, J. J. Heyd, E. N. Brothers, K. N. Kudin, 
 V. N. Staroverov, T. A. Keith, R. Kobayashi, J. Normand, 
 K. Raghavachari, A. P. Rendell, J. C. Burant, S. S. Iyengar, 
 J. Tomasi, M. Cossi, J. M. Millam, M. Klene, C. Adamo, R. Cammi, 
 J. W. Ochterski, R. L. Martin, K. Morokuma, O. Farkas, 
 J. B. Foresman, and D. J. Fox, Gaussian, Inc., Wallingford CT, 2019.
 
 ******************************************
 Gaussian 16:  ES64L-G16RevC.02  7-Dec-2021
                17-Sep-2024 
 ******************************************
 %nprocshared=8
 Will use up to    8 processors via shared memory.
 %Mem=10GB
 %Chk=smiles_00047_conf_2.chk
 ----------------------------------------------------------------------
 #p B3LYP/6-31G(d,p) EmpiricalDispersion=GD3BJ opt freq scf(xqc,tight) 
 integral(grid=ultrafine)
 ----------------------------------------------------------------------
 1/18=20,19=15,26=4,38=1/1,3;
 2/9=110,12=2,17=6,18=5,40=1/2;
 3/5=1,6=6,7=101,11=2,25=1,30=1,71=1,74=-5,75=-5,124=41/1,2,3;
 4//1;
 5/5=2,8=3,13=1,32=2,38=5/2,8;
 6/7=2,8=2,9=2,10=2,28=1/1;
 7//1,2,3,16;
 1/18=20,19=15,26=4/3(2);
 2/9=110/2;
 99//99;
 2/9=110/2;
 3/5=1,6=6,7=101,11=2,25=1,30=1,71=1,74=-5,75=-5,124=41/1,2,3;
 4/5=5,16=3,69=1/1;
 5/5=2,8=3,13=1,32=2,38=5/2,8;
 7//1,2,3,16;
 1/18=20,19=15,26=4/3(-5);
 2/9=110/2;
 6/7=2,8=2,9=2,10=2,19=2,28=1/1;
 99/9=1/99;
 Leave Link    1 at Tue Sep 17 09:41:32 2024, MaxMem=  1342177280 cpu:               0.1 elap:               0.7
 (Enter /groups/ReismanLab/Software/Gaussian16_RevC/Linux_Binary_AVX2-enabled-CPU/g16/l101.exe)
 ----------------------------------
 opt-freq conformers_unique/conf_ac
 ----------------------------------
 Symbolic Z-matrix:
 Charge =  0 Multiplicity = 1
 C                     4.5766   -1.71184   0.68187 
 O                     3.87361  -0.892    -0.24505 
 C                     3.46257   0.30826   0.16859 
 O                     3.65127   0.75733   1.26622 
 C                     2.67494   1.00483  -0.92715 
 C                     1.2202    0.70766  -0.67685 
 C                     0.54629   1.35949   0.35003 
 C                    -0.78003   1.07503   0.61584 
 C                    -1.43274   0.12773  -0.15473 
 Br                   -3.26318  -0.2682    0.19938 
 C                    -0.77959  -0.5392   -1.17616 
 C                     0.54911  -0.24778  -1.42874 
 H                     4.10399  -2.69315   0.68292 
 H                     4.5353   -1.26705   1.67755 
 H                     5.61378  -1.79888   0.35637 
 H                     2.86131   2.07656  -0.8579 
 H                     2.98827   0.6231   -1.89722 
 H                     1.0688    2.08765   0.95136 
 H                    -1.30181   1.58189   1.41282 
 H                    -1.30135  -1.27766  -1.76523 
 H                     1.06511  -0.76921  -2.22108 
 
 ITRead=  0  0  0  0  0  0  0  0  0  0  0  0  0  0  0  0  0  0  0  0
 ITRead=  0
 MicOpt= -1 -1 -1 -1 -1 -1 -1 -1 -1 -1 -1 -1 -1 -1 -1 -1 -1 -1 -1 -1
 MicOpt= -1
 NAtoms=     21 NQM=       21 NQMF=       0 NMMI=      0 NMMIF=      0
                NMic=       0 NMicF=      0.
                    Isotopes and Nuclear Properties:
 (Nuclear quadrupole moments (NQMom) in fm**2, nuclear magnetic moments (NMagM)
  in nuclear magnetons)

  Atom         1           2           3           4           5           6           7           8           9          10
 IAtWgt=          12          16          12          16          12          12          12          12          12          79
 AtmWgt=  12.0000000  15.9949146  12.0000000  15.9949146  12.0000000  12.0000000  12.0000000  12.0000000  12.0000000  78.9183361
 NucSpn=           0           0           0           0           0           0           0           0           0           3
 AtZEff=  -0.0000000  -0.0000000  -0.0000000  -0.0000000  -0.0000000  -0.0000000  -0.0000000  -0.0000000  -0.0000000  -0.0000000
 NQMom=    0.0000000   0.0000000   0.0000000   0.0000000   0.0000000   0.0000000   0.0000000   0.0000000   0.0000000  31.3000000
 NMagM=    0.0000000   0.0000000   0.0000000   0.0000000   0.0000000   0.0000000   0.0000000   0.0000000   0.0000000   2.1063990
 AtZNuc=   6.0000000   8.0000000   6.0000000   8.0000000   6.0000000   6.0000000   6.0000000   6.0000000   6.0000000  35.0000000

  Atom        11          12          13          14          15          16          17          18          19          20
 IAtWgt=          12          12           1           1           1           1           1           1           1           1
 AtmWgt=  12.0000000  12.0000000   1.0078250   1.0078250   1.0078250   1.0078250   1.0078250   1.0078250   1.0078250   1.0078250
 NucSpn=           0           0           1           1           1           1           1           1           1           1
 AtZEff=  -0.0000000  -0.0000000  -0.0000000  -0.0000000  -0.0000000  -0.0000000  -0.0000000  -0.0000000  -0.0000000  -0.0000000
 NQMom=    0.0000000   0.0000000   0.0000000   0.0000000   0.0000000   0.0000000   0.0000000   0.0000000   0.0000000   0.0000000
 NMagM=    0.0000000   0.0000000   2.7928460   2.7928460   2.7928460   2.7928460   2.7928460   2.7928460   2.7928460   2.7928460
 AtZNuc=   6.0000000   6.0000000   1.0000000   1.0000000   1.0000000   1.0000000   1.0000000   1.0000000   1.0000000   1.0000000

  Atom        21
 IAtWgt=           1
 AtmWgt=   1.0078250
 NucSpn=           1
 AtZEff=  -0.0000000
 NQMom=    0.0000000
 NMagM=    2.7928460
 AtZNuc=   1.0000000
 Leave Link  101 at Tue Sep 17 09:41:33 2024, MaxMem=  1342177280 cpu:               0.2 elap:               0.2
 (Enter /groups/ReismanLab/Software/Gaussian16_RevC/Linux_Binary_AVX2-enabled-CPU/g16/l103.exe)

 GradGradGradGradGradGradGradGradGradGradGradGradGradGradGradGradGradGrad
 Berny optimization.
 Initialization pass.
                           ----------------------------
                           !    Initial Parameters    !
                           ! (Angstroms and Degrees)  !
 --------------------------                            --------------------------
 ! Name  Definition              Value          Derivative Info.                !
 --------------------------------------------------------------------------------
 ! R1    R(1,2)                  1.4232         estimate D2E/DX2                !
 ! R2    R(1,13)                 1.0892         estimate D2E/DX2                !
 ! R3    R(1,14)                 1.0913         estimate D2E/DX2                !
 ! R4    R(1,15)                 1.0905         estimate D2E/DX2                !
 ! R5    R(2,3)                  1.3344         estimate D2E/DX2                !
 ! R6    R(3,4)                  1.2008         estimate D2E/DX2                !
 ! R7    R(3,5)                  1.5186         estimate D2E/DX2                !
 ! R8    R(5,6)                  1.5057         estimate D2E/DX2                !
 ! R9    R(5,16)                 1.09           estimate D2E/DX2                !
 ! R10   R(5,17)                 1.0885         estimate D2E/DX2                !
 ! R11   R(6,7)                  1.3905         estimate D2E/DX2                !
 ! R12   R(6,12)                 1.3887         estimate D2E/DX2                !
 ! R13   R(7,8)                  1.3823         estimate D2E/DX2                !
 ! R14   R(7,18)                 1.0793         estimate D2E/DX2                !
 ! R15   R(8,9)                  1.3846         estimate D2E/DX2                !
 ! R16   R(8,19)                 1.079          estimate D2E/DX2                !
 ! R17   R(9,10)                 1.9059         estimate D2E/DX2                !
 ! R18   R(9,11)                 1.3837         estimate D2E/DX2                !
 ! R19   R(11,12)                1.3835         estimate D2E/DX2                !
 ! R20   R(11,20)                1.0791         estimate D2E/DX2                !
 ! R21   R(12,21)                1.0798         estimate D2E/DX2                !
 ! A1    A(2,1,13)             107.7761         estimate D2E/DX2                !
 ! A2    A(2,1,14)             109.9218         estimate D2E/DX2                !
 ! A3    A(2,1,15)             108.7455         estimate D2E/DX2                !
 ! A4    A(13,1,14)            110.4816         estimate D2E/DX2                !
 ! A5    A(13,1,15)            109.9418         estimate D2E/DX2                !
 ! A6    A(14,1,15)            109.9288         estimate D2E/DX2                !
 ! A7    A(1,2,3)              117.9309         estimate D2E/DX2                !
 ! A8    A(2,3,4)              124.8403         estimate D2E/DX2                !
 ! A9    A(2,3,5)              110.4058         estimate D2E/DX2                !
 ! A10   A(4,3,5)              124.714          estimate D2E/DX2                !
 ! A11   A(3,5,6)              106.8952         estimate D2E/DX2                !
 ! A12   A(3,5,16)             108.4495         estimate D2E/DX2                !
 ! A13   A(3,5,17)             109.443          estimate D2E/DX2                !
 ! A14   A(6,5,16)             110.4062         estimate D2E/DX2                !
 ! A15   A(6,5,17)             110.9171         estimate D2E/DX2                !
 ! A16   A(16,5,17)            110.622          estimate D2E/DX2                !
 ! A17   A(5,6,7)              119.8995         estimate D2E/DX2                !
 ! A18   A(5,6,12)             120.8411         estimate D2E/DX2                !
 ! A19   A(7,6,12)             119.2187         estimate D2E/DX2                !
 ! A20   A(6,7,8)              120.7018         estimate D2E/DX2                !
 ! A21   A(6,7,18)             119.5445         estimate D2E/DX2                !
 ! A22   A(8,7,18)             119.7508         estimate D2E/DX2                !
 ! A23   A(7,8,9)              119.0841         estimate D2E/DX2                !
 ! A24   A(7,8,19)             120.6199         estimate D2E/DX2                !
 ! A25   A(9,8,19)             120.2959         estimate D2E/DX2                !
 ! A26   A(8,9,10)             119.436          estimate D2E/DX2                !
 ! A27   A(8,9,11)             121.2011         estimate D2E/DX2                !
 ! A28   A(10,9,11)            119.3628         estimate D2E/DX2                !
 ! A29   A(9,11,12)            119.1141         estimate D2E/DX2                !
 ! A30   A(9,11,20)            120.3012         estimate D2E/DX2                !
 ! A31   A(12,11,20)           120.5847         estimate D2E/DX2                !
 ! A32   A(6,12,11)            120.6747         estimate D2E/DX2                !
 ! A33   A(6,12,21)            119.9074         estimate D2E/DX2                !
 ! A34   A(11,12,21)           119.4177         estimate D2E/DX2                !
 ! D1    D(13,1,2,3)           129.3467         estimate D2E/DX2                !
 ! D2    D(14,1,2,3)             8.8802         estimate D2E/DX2                !
 ! D3    D(15,1,2,3)          -111.5077         estimate D2E/DX2                !
 ! D4    D(1,2,3,4)              0.6703         estimate D2E/DX2                !
 ! D5    D(1,2,3,5)           -177.1168         estimate D2E/DX2                !
 ! D6    D(2,3,5,6)             94.4948         estimate D2E/DX2                !
 ! D7    D(2,3,5,16)          -146.4616         estimate D2E/DX2                !
 ! D8    D(2,3,5,17)           -25.6975         estimate D2E/DX2                !
 ! D9    D(4,3,5,6)            -83.2957         estimate D2E/DX2                !
 ! D10   D(4,3,5,16)            35.7479         estimate D2E/DX2                !
 ! D11   D(4,3,5,17)           156.512          estimate D2E/DX2                !
 ! D12   D(3,5,6,7)             75.2389         estimate D2E/DX2                !
 ! D13   D(3,5,6,12)          -102.4224         estimate D2E/DX2                !
 ! D14   D(16,5,6,7)           -42.5285         estimate D2E/DX2                !
 ! D15   D(16,5,6,12)          139.8101         estimate D2E/DX2                !
 ! D16   D(17,5,6,7)          -165.5179         estimate D2E/DX2                !
 ! D17   D(17,5,6,12)           16.8207         estimate D2E/DX2                !
 ! D18   D(5,6,7,8)           -178.3765         estimate D2E/DX2                !
 ! D19   D(5,6,7,18)             0.996          estimate D2E/DX2                !
 ! D20   D(12,6,7,8)            -0.6771         estimate D2E/DX2                !
 ! D21   D(12,6,7,18)          178.6954         estimate D2E/DX2                !
 ! D22   D(5,6,12,11)          178.5575         estimate D2E/DX2                !
 ! D23   D(5,6,12,21)           -1.5907         estimate D2E/DX2                !
 ! D24   D(7,6,12,11)            0.8804         estimate D2E/DX2                !
 ! D25   D(7,6,12,21)         -179.2678         estimate D2E/DX2                !
 ! D26   D(6,7,8,9)              0.0824         estimate D2E/DX2                !
 ! D27   D(6,7,8,19)          -179.9792         estimate D2E/DX2                !
 ! D28   D(18,7,8,9)          -179.2888         estimate D2E/DX2                !
 ! D29   D(18,7,8,19)            0.6496         estimate D2E/DX2                !
 ! D30   D(7,8,9,10)          -179.8014         estimate D2E/DX2                !
 ! D31   D(7,8,9,11)             0.3251         estimate D2E/DX2                !
 ! D32   D(19,8,9,10)            0.2601         estimate D2E/DX2                !
 ! D33   D(19,8,9,11)         -179.6134         estimate D2E/DX2                !
 ! D34   D(8,9,11,12)           -0.1262         estimate D2E/DX2                !
 ! D35   D(8,9,11,20)          179.7607         estimate D2E/DX2                !
 ! D36   D(10,9,11,12)        -179.9998         estimate D2E/DX2                !
 ! D37   D(10,9,11,20)          -0.1129         estimate D2E/DX2                !
 ! D38   D(9,11,12,6)           -0.484          estimate D2E/DX2                !
 ! D39   D(9,11,12,21)         179.6635         estimate D2E/DX2                !
 ! D40   D(20,11,12,6)         179.6295         estimate D2E/DX2                !
 ! D41   D(20,11,12,21)         -0.2231         estimate D2E/DX2                !
 --------------------------------------------------------------------------------
 Trust Radius=3.00D-01 FncErr=1.00D-07 GrdErr=1.00D-06 EigMax=2.50D+02 EigMin=1.00D-04
 Number of steps in this run=    106 maximum allowed number of steps=    126.
 GradGradGradGradGradGradGradGradGradGradGradGradGradGradGradGradGradGrad

 Leave Link  103 at Tue Sep 17 09:41:33 2024, MaxMem=  1342177280 cpu:               0.1 elap:               0.1
 (Enter /groups/ReismanLab/Software/Gaussian16_RevC/Linux_Binary_AVX2-enabled-CPU/g16/l202.exe)
                          Input orientation:                          
 ---------------------------------------------------------------------
 Center     Atomic      Atomic             Coordinates (Angstroms)
 Number     Number       Type             X           Y           Z
 ---------------------------------------------------------------------
      1          6           0        4.576604   -1.711841    0.681868
      2          8           0        3.873615   -0.891997   -0.245046
      3          6           0        3.462573    0.308264    0.168594
      4          8           0        3.651269    0.757333    1.266215
      5          6           0        2.674943    1.004829   -0.927147
      6          6           0        1.220199    0.707663   -0.676854
      7          6           0        0.546291    1.359487    0.350029
      8          6           0       -0.780033    1.075027    0.615835
      9          6           0       -1.432742    0.127726   -0.154726
     10         35           0       -3.263175   -0.268202    0.199378
     11          6           0       -0.779595   -0.539201   -1.176161
     12          6           0        0.549109   -0.247777   -1.428742
     13          1           0        4.103992   -2.693147    0.682918
     14          1           0        4.535296   -1.267049    1.677552
     15          1           0        5.613778   -1.798878    0.356373
     16          1           0        2.861314    2.076565   -0.857895
     17          1           0        2.988268    0.623098   -1.897217
     18          1           0        1.068797    2.087653    0.951364
     19          1           0       -1.301809    1.581888    1.412821
     20          1           0       -1.301348   -1.277663   -1.765228
     21          1           0        1.065106   -0.769212   -2.221077
 ---------------------------------------------------------------------
                    Distance matrix (angstroms):
                    1          2          3          4          5
     1  C    0.000000
     2  O    1.423203   0.000000
     3  C    2.363332   1.334421   0.000000
     4  O    2.700838   2.248029   1.200850   0.000000
     5  C    3.685857   2.345213   1.518623   2.413567   0.000000
     6  C    4.354948   3.128256   2.429515   3.112569   1.505734
     7  C    5.078050   4.061327   3.105268   3.292852   2.507612
     8  C    6.038588   5.125109   4.334473   4.490029   3.784519
     9  C    6.340042   5.404203   4.909301   5.316262   4.270716
    10  Br   7.986177   7.177772   6.750478   7.071025   6.176643
    11  C    5.789319   4.758550   4.530182   5.222907   3.792080
    12  C    4.776910   3.587269   3.368819   4.230418   2.517894
    13  H    1.089184   2.039199   3.111979   3.528598   4.278962
    14  H    1.091299   2.067575   2.430904   2.246958   3.925149
    15  H    1.090529   2.052391   3.017116   3.348652   4.259689
    16  H    4.434536   3.195731   2.131216   2.622260   1.090022
    17  H    3.824452   2.410191   2.142817   3.234949   1.088543
    18  H    5.178174   4.263415   3.083686   2.921993   2.698336
    19  H    6.777808   5.971067   5.086212   5.023382   4.650054
    20  H    6.381779   5.407396   5.380500   6.152989   4.660798
    21  H    4.652553   3.436203   3.552370   4.602150   2.722692
                    6          7          8          9         10
     6  C    0.000000
     7  C    1.390509   0.000000
     8  C    2.409758   1.382283   0.000000
     9  C    2.765328   2.385075   1.384620   0.000000
    10  Br   4.671268   4.145371   2.853716   1.905947   0.000000
    11  C    2.408973   2.773490   2.411843   1.383735   2.851968
    12  C    1.388727   2.397359   2.774297   2.385760   4.145443
    13  H    4.661625   5.402952   6.169063   6.270119   7.771057
    14  H    4.520241   4.957132   5.904683   6.396883   7.999927
    15  H    5.162736   5.971158   7.014804   7.323009   9.009324
    16  H    2.144743   2.707879   4.053932   4.767739   6.642674
    17  H    2.150001   3.399357   4.551897   4.777760   6.653621
    18  H    2.139717   1.079278   2.134516   3.364883   4.988137
    19  H    3.389917   2.143470   1.079048   2.142180   2.956728
    20  H    3.388846   3.852615   3.387681   2.141518   2.954226
    21  H    2.142391   3.378034   3.854067   3.363562   4.984339
                   11         12         13         14         15
    11  C    0.000000
    12  C    1.383538   0.000000
    13  H    5.651998   4.803763   0.000000
    14  H    6.076306   5.155353   1.791389   0.000000
    15  H    6.694077   5.589582   1.784881   1.786471   0.000000
    16  H    4.494412   3.327871   5.164156   4.517793   4.906075
    17  H    4.008447   2.631993   4.347346   4.329541   4.223499
    18  H    3.852697   3.374790   5.669261   4.878318   6.009658
    19  H    3.387412   3.853317   6.930467   6.500639   7.769878
    20  H    1.079144   2.144313   6.100387   6.776375   7.252022
    21  H    2.132528   1.079788   4.622720   5.243029   5.328590
                   16         17         18         19         20
    16  H    0.000000
    17  H    1.791333   0.000000
    18  H    2.546892   3.734127   0.000000
    19  H    4.767856   5.502762   2.467491   0.000000
    20  H    5.422347   4.693732   4.931816   4.275165   0.000000
    21  H    3.630850   2.396239   4.269200   4.933070   2.463012
                   21
    21  H    0.000000
 Stoichiometry    C9H9BrO2
 Framework group  C1[X(C9H9BrO2)]
 Deg. of freedom    57
 Full point group                 C1      NOp   1
 Largest Abelian subgroup         C1      NOp   1
 Largest concise Abelian subgroup C1      NOp   1
                         Standard orientation:                         
 ---------------------------------------------------------------------
 Center     Atomic      Atomic             Coordinates (Angstroms)
 Number     Number       Type             X           Y           Z
 ---------------------------------------------------------------------
      1          6           0       -4.383462   -1.419356   -1.061826
      2          8           0       -3.655406   -0.891019    0.041035
      3          6           0       -3.233634    0.372638   -0.036159
      4          8           0       -3.432141    1.106563   -0.965668
      5          6           0       -2.420203    0.735420    1.193855
      6          6           0       -0.973638    0.504201    0.845687
      7          6           0       -0.305821    1.405580    0.024071
      8          6           0        1.012302    1.192048   -0.333229
      9          6           0        1.662884    0.063944    0.137192
     10         35           0        3.482139   -0.237453   -0.344583
     11          6           0        1.015531   -0.850669    0.949066
     12          6           0       -0.305067   -0.626799    1.295593
     13          1           0       -3.924792   -2.367412   -1.339555
     14          1           0       -4.350571   -0.719614   -1.898613
     15          1           0       -5.416850   -1.582217   -0.753867
     16          1           0       -2.592454    1.786957    1.423524
     17          1           0       -2.724543    0.105928    2.028147
     18          1           0       -0.826821    2.275390   -0.345834
     19          1           0        1.529364    1.892568   -0.970616
     20          1           0        1.535453   -1.727021    1.304372
     21          1           0       -0.816627   -1.340121    1.924418
 ---------------------------------------------------------------------
 Rotational constants (GHZ):           1.8990094           0.2470061           0.2426087
 Leave Link  202 at Tue Sep 17 09:41:34 2024, MaxMem=  1342177280 cpu:               0.1 elap:               0.1
 (Enter /groups/ReismanLab/Software/Gaussian16_RevC/Linux_Binary_AVX2-enabled-CPU/g16/l301.exe)
 Standard basis: 6-31G(d,p) (6D, 7F)
 Ernie: Thresh=  0.10000D-02 Tol=  0.10000D-05 Strict=F.
 There are   240 symmetry adapted cartesian basis functions of A   symmetry.
 There are   240 symmetry adapted basis functions of A   symmetry.
   240 basis functions,   454 primitive gaussians,   240 cartesian basis functions
    57 alpha electrons       57 beta electrons
       nuclear repulsion energy       904.9674881294 Hartrees.
 IExCor=  402 DFT=T Ex+Corr=B3LYP ExCW=0 ScaHFX=  0.200000
 ScaDFX=  0.800000  0.720000  1.000000  0.810000 ScalE2=  1.000000  1.000000
 IRadAn=      5 IRanWt=     -1 IRanGd=            0 ICorTp=0 IEmpDi=141
 NAtoms=   21 NActive=   21 NUniq=   21 SFac= 1.00D+00 NAtFMM=   60 NAOKFM=F Big=F
 Integral buffers will be    131072 words long.
 Raffenetti 2 integral format.
 Two-electron integral symmetry is turned on.
 R6Disp:  Grimme-D3(BJ) Dispersion energy=       -0.0411191991 Hartrees.
 Nuclear repulsion after empirical dispersion term =      904.9263689302 Hartrees.
 Leave Link  301 at Tue Sep 17 09:41:34 2024, MaxMem=  1342177280 cpu:               0.1 elap:               0.1
 (Enter /groups/ReismanLab/Software/Gaussian16_RevC/Linux_Binary_AVX2-enabled-CPU/g16/l302.exe)
 NPDir=0 NMtPBC=     1 NCelOv=     1 NCel=       1 NClECP=     1 NCelD=      1
         NCelK=      1 NCelE2=     1 NClLst=     1 CellRange=     0.0.
 One-electron integrals computed using PRISM.
 One-electron integral symmetry used in STVInt
 NBasis=   240 RedAO= T EigKep=  4.12D-04  NBF=   240
 NBsUse=   240 1.00D-06 EigRej= -1.00D+00 NBFU=   240
 Precomputing XC quadrature grid using
 IXCGrd= 4 IRadAn=           5 IRanWt=          -1 IRanGd=           0 AccXCQ= 0.00D+00.
 Generated NRdTot=       0 NPtTot=           0 NUsed=           0 NTot=          32
 NSgBfM=   237   237   237   237   237 MxSgAt=    21 MxSgA2=    21.
 Leave Link  302 at Tue Sep 17 09:41:34 2024, MaxMem=  1342177280 cpu:               1.1 elap:               0.2
 (Enter /groups/ReismanLab/Software/Gaussian16_RevC/Linux_Binary_AVX2-enabled-CPU/g16/l303.exe)
 DipDrv:  MaxL=1.
 Leave Link  303 at Tue Sep 17 09:41:35 2024, MaxMem=  1342177280 cpu:               0.1 elap:               0.1
 (Enter /groups/ReismanLab/Software/Gaussian16_RevC/Linux_Binary_AVX2-enabled-CPU/g16/l401.exe)
 ExpMin= 1.43D-01 ExpMax= 5.74D+05 ExpMxC= 5.74D+03 IAcc=3 IRadAn=         5 AccDes= 0.00D+00
 Harris functional with IExCor=  402 and IRadAn=       5 diagonalized for initial guess.
 HarFok:  IExCor=  402 AccDes= 0.00D+00 IRadAn=         5 IDoV= 1 UseB2=F ITyADJ=14
 ICtDFT=  3500011 ScaDFX=  1.000000  1.000000  1.000000  1.000000
 FoFCou: FMM=F IPFlag=           0 FMFlag=      100000 FMFlg1=           0
         NFxFlg=           0 DoJE=T BraDBF=F KetDBF=T FulRan=T
         wScrn=  0.000000 ICntrl=       500 IOpCl=  0 I1Cent=   200000004 NGrid=           0
         NMat0=    1 NMatS0=      1 NMatT0=    0 NMatD0=    1 NMtDS0=    0 NMtDT0=    0
 Petite list used in FoFCou.
 Harris En= -3070.72477120566    
 JPrj=0 DoOrth=F DoCkMO=F.
 Leave Link  401 at Tue Sep 17 09:41:36 2024, MaxMem=  1342177280 cpu:               4.7 elap:               0.8
 (Enter /groups/ReismanLab/Software/Gaussian16_RevC/Linux_Binary_AVX2-enabled-CPU/g16/l502.exe)
 Integral symmetry usage will be decided dynamically.
 Closed shell SCF:
 Using DIIS extrapolation, IDIIS=  1040.
 NGot=  1342177280 LenX=  1342057097 LenY=  1341999056
 Requested convergence on RMS density matrix=1.00D-08 within  32 cycles.
 Requested convergence on MAX density matrix=1.00D-06.
 Requested convergence on             energy=1.00D-06.
 No special actions if energy rises.
 Fock matrices will be formed incrementally for  20 cycles.
 Integral accuracy reduced to 1.0D-05 until final iterations.

 Cycle   1  Pass 0  IDiag  1:
 FoFJK:  IHMeth= 1 ICntrl=       0 DoSepK=F KAlg= 0 I1Cent=           0 FoldK=F
 IRaf= 840000000 NMat=       1 IRICut=       1 DoRegI=T DoRafI=F ISym2E= 0 IDoP0=0 IntGTp=1.
 FoFCou: FMM=F IPFlag=           0 FMFlag=      100000 FMFlg1=           0
         NFxFlg=           0 DoJE=F BraDBF=F KetDBF=F FulRan=T
         wScrn=  0.000000 ICntrl=         0 IOpCl=  0 I1Cent=           0 NGrid=           0
         NMat0=    1 NMatS0=      1 NMatT0=    0 NMatD0=    1 NMtDS0=    0 NMtDT0=    0
 Symmetry not used in FoFCou.
 E= -3070.31881431964    
 DIIS: error= 1.88D-01 at cycle   1 NSaved=   1.
 NSaved= 1 IEnMin= 1 EnMin= -3070.31881431964     IErMin= 1 ErrMin= 1.88D-01
 ErrMax= 1.88D-01  0.00D+00 EMaxC= 1.00D-01 BMatC= 6.40D-01 BMatP= 6.40D-01
 IDIUse=3 WtCom= 0.00D+00 WtEn= 1.00D+00
 Coeff-Com:  0.100D+01
 Coeff-En:   0.100D+01
 Coeff:      0.100D+01
 Gap=     0.293 Goal=   None    Shift=    0.000
 GapD=    0.293 DampG=1.000 DampE=0.250 DampFc=0.2500 IDamp=-1.
 Damping current iteration by 2.50D-01
 RMSDP=5.09D-03 MaxDP=1.89D-01              OVMax= 2.42D-01

 Cycle   2  Pass 0  IDiag  1:
 RMSU=  1.24D-03    CP:  9.92D-01
 E= -3070.41553328342     Delta-E=       -0.096718963785 Rises=F Damp=T
 DIIS: error= 1.39D-01 at cycle   2 NSaved=   2.
 NSaved= 2 IEnMin= 2 EnMin= -3070.41553328342     IErMin= 2 ErrMin= 1.39D-01
 ErrMax= 1.39D-01  0.00D+00 EMaxC= 1.00D-01 BMatC= 2.58D-01 BMatP= 6.40D-01
 IDIUse=3 WtCom= 0.00D+00 WtEn= 1.00D+00
 Coeff-Com: -0.112D+01 0.212D+01
 Coeff-En:   0.000D+00 0.100D+01
 Coeff:      0.000D+00 0.100D+01
 Gap=     0.247 Goal=   None    Shift=    0.000
 RMSDP=2.45D-03 MaxDP=1.11D-01 DE=-9.67D-02 OVMax= 1.27D-01

 Cycle   3  Pass 0  IDiag  1:
 RMSU=  1.13D-03    CP:  9.70D-01  2.61D+00
 E= -3070.53736508598     Delta-E=       -0.121831802558 Rises=F Damp=F
 DIIS: error= 1.31D-02 at cycle   3 NSaved=   3.
 NSaved= 3 IEnMin= 3 EnMin= -3070.53736508598     IErMin= 3 ErrMin= 1.31D-02
 ErrMax= 1.31D-02  0.00D+00 EMaxC= 1.00D-01 BMatC= 5.93D-02 BMatP= 2.58D-01
 IDIUse=3 WtCom= 8.69D-01 WtEn= 1.31D-01
 Coeff-Com:  0.727D+00-0.794D+00 0.107D+01
 Coeff-En:   0.110D+00 0.000D+00 0.890D+00
 Coeff:      0.646D+00-0.690D+00 0.104D+01
 Gap=     0.223 Goal=   None    Shift=    0.000
 RMSDP=1.51D-03 MaxDP=3.92D-02 DE=-1.22D-01 OVMax= 6.41D-02

 Cycle   4  Pass 0  IDiag  1:
 RMSU=  1.08D-03    CP:  9.71D-01  1.76D+00  8.85D-01
 E= -3070.56902148503     Delta-E=       -0.031656399045 Rises=F Damp=F
 DIIS: error= 7.64D-03 at cycle   4 NSaved=   4.
 NSaved= 4 IEnMin= 4 EnMin= -3070.56902148503     IErMin= 4 ErrMin= 7.64D-03
 ErrMax= 7.64D-03  0.00D+00 EMaxC= 1.00D-01 BMatC= 2.63D-02 BMatP= 5.93D-02
 IDIUse=3 WtCom= 9.24D-01 WtEn= 7.64D-02
 Coeff-Com:  0.597D+00-0.771D+00 0.703D+00 0.471D+00
 Coeff-En:   0.000D+00 0.000D+00 0.261D+00 0.739D+00
 Coeff:      0.552D+00-0.712D+00 0.669D+00 0.491D+00
 Gap=     0.224 Goal=   None    Shift=    0.000
 RMSDP=7.37D-04 MaxDP=2.54D-02 DE=-3.17D-02 OVMax= 5.10D-02

 Cycle   5  Pass 0  IDiag  1:
 RMSU=  1.91D-04    CP:  9.71D-01  1.90D+00  1.05D+00  3.83D-01
 E= -3070.59239740415     Delta-E=       -0.023375919128 Rises=F Damp=F
 DIIS: error= 1.42D-03 at cycle   5 NSaved=   5.
 NSaved= 5 IEnMin= 5 EnMin= -3070.59239740415     IErMin= 5 ErrMin= 1.42D-03
 ErrMax= 1.42D-03  0.00D+00 EMaxC= 1.00D-01 BMatC= 8.45D-04 BMatP= 2.63D-02
 IDIUse=3 WtCom= 9.86D-01 WtEn= 1.42D-02
 Coeff-Com:  0.254D+00-0.330D+00 0.303D+00 0.258D+00 0.515D+00
 Coeff-En:   0.000D+00 0.000D+00 0.000D+00 0.000D+00 0.100D+01
 Coeff:      0.250D+00-0.326D+00 0.299D+00 0.254D+00 0.522D+00
 Gap=     0.218 Goal=   None    Shift=    0.000
 RMSDP=1.26D-04 MaxDP=5.20D-03 DE=-2.34D-02 OVMax= 8.63D-03

 Cycle   6  Pass 0  IDiag  1:
 RMSU=  5.18D-05    CP:  9.71D-01  1.91D+00  1.05D+00  4.52D-01  5.46D-01
 E= -3070.59306292699     Delta-E=       -0.000665522839 Rises=F Damp=F
 DIIS: error= 3.85D-04 at cycle   6 NSaved=   6.
 NSaved= 6 IEnMin= 6 EnMin= -3070.59306292699     IErMin= 6 ErrMin= 3.85D-04
 ErrMax= 3.85D-04  0.00D+00 EMaxC= 1.00D-01 BMatC= 5.77D-05 BMatP= 8.45D-04
 IDIUse=3 WtCom= 9.96D-01 WtEn= 3.85D-03
 Coeff-Com:  0.729D-01-0.957D-01 0.811D-01 0.723D-01 0.255D+00 0.615D+00
 Coeff-En:   0.000D+00 0.000D+00 0.000D+00 0.000D+00 0.000D+00 0.100D+01
 Coeff:      0.726D-01-0.953D-01 0.808D-01 0.720D-01 0.254D+00 0.616D+00
 Gap=     0.217 Goal=   None    Shift=    0.000
 RMSDP=3.37D-05 MaxDP=1.32D-03 DE=-6.66D-04 OVMax= 2.05D-03

 Cycle   7  Pass 0  IDiag  1:
 RMSU=  2.11D-05    CP:  9.71D-01  1.91D+00  1.06D+00  4.53D-01  5.70D-01
                    CP:  5.85D-01
 E= -3070.59310760909     Delta-E=       -0.000044682099 Rises=F Damp=F
 DIIS: error= 8.70D-05 at cycle   7 NSaved=   7.
 NSaved= 7 IEnMin= 7 EnMin= -3070.59310760909     IErMin= 7 ErrMin= 8.70D-05
 ErrMax= 8.70D-05  0.00D+00 EMaxC= 1.00D-01 BMatC= 4.99D-06 BMatP= 5.77D-05
 IDIUse=1 WtCom= 1.00D+00 WtEn= 0.00D+00
 Coeff-Com:  0.239D-01-0.317D-01 0.240D-01 0.205D-01 0.957D-01 0.319D+00
 Coeff-Com:  0.549D+00
 Coeff:      0.239D-01-0.317D-01 0.240D-01 0.205D-01 0.957D-01 0.319D+00
 Coeff:      0.549D+00
 Gap=     0.217 Goal=   None    Shift=    0.000
 RMSDP=1.29D-05 MaxDP=3.22D-04 DE=-4.47D-05 OVMax= 9.53D-04

 Cycle   8  Pass 0  IDiag  1:
 RMSU=  6.60D-06    CP:  9.71D-01  1.91D+00  1.06D+00  4.49D-01  5.81D-01
                    CP:  6.56D-01  5.56D-01
 E= -3070.59311175316     Delta-E=       -0.000004144074 Rises=F Damp=F
 DIIS: error= 4.66D-05 at cycle   8 NSaved=   8.
 NSaved= 8 IEnMin= 8 EnMin= -3070.59311175316     IErMin= 8 ErrMin= 4.66D-05
 ErrMax= 4.66D-05  0.00D+00 EMaxC= 1.00D-01 BMatC= 5.50D-07 BMatP= 4.99D-06
 IDIUse=1 WtCom= 1.00D+00 WtEn= 0.00D+00
 Coeff-Com:  0.605D-02-0.810D-02 0.493D-02 0.334D-02 0.250D-01 0.110D+00
 Coeff-Com:  0.300D+00 0.559D+00
 Coeff:      0.605D-02-0.810D-02 0.493D-02 0.334D-02 0.250D-01 0.110D+00
 Coeff:      0.300D+00 0.559D+00
 Gap=     0.217 Goal=   None    Shift=    0.000
 RMSDP=4.01D-06 MaxDP=1.12D-04 DE=-4.14D-06 OVMax= 3.51D-04

 Initial convergence to 1.0D-05 achieved.  Increase integral accuracy.
 Cycle   9  Pass 1  IDiag  1:
 E= -3070.59310911723     Delta-E=        0.000002635932 Rises=F Damp=F
 DIIS: error= 3.56D-05 at cycle   1 NSaved=   1.
 NSaved= 1 IEnMin= 1 EnMin= -3070.59310911723     IErMin= 1 ErrMin= 3.56D-05
 ErrMax= 3.56D-05  0.00D+00 EMaxC= 1.00D-01 BMatC= 2.08D-07 BMatP= 2.08D-07
 IDIUse=1 WtCom= 1.00D+00 WtEn= 0.00D+00
 Coeff-Com:  0.100D+01
 Coeff:      0.100D+01
 Gap=     0.217 Goal=   None    Shift=    0.000
 RMSDP=4.01D-06 MaxDP=1.12D-04 DE= 2.64D-06 OVMax= 2.72D-04

 Cycle  10  Pass 1  IDiag  1:
 RMSU=  2.18D-05    CP:  1.00D+00
 E= -3070.59310908131     Delta-E=        0.000000035918 Rises=F Damp=F
 DIIS: error= 3.07D-05 at cycle   2 NSaved=   2.
 NSaved= 2 IEnMin= 1 EnMin= -3070.59310911723     IErMin= 2 ErrMin= 3.07D-05
 ErrMax= 3.07D-05  0.00D+00 EMaxC= 1.00D-01 BMatC= 1.89D-07 BMatP= 2.08D-07
 IDIUse=1 WtCom= 1.00D+00 WtEn= 0.00D+00
 Coeff-Com:  0.484D+00 0.516D+00
 Coeff:      0.484D+00 0.516D+00
 Gap=     0.217 Goal=   None    Shift=    0.000
 RMSDP=2.91D-06 MaxDP=1.03D-04 DE= 3.59D-08 OVMax= 2.73D-04

 Cycle  11  Pass 1  IDiag  1:
 RMSU=  2.90D-06    CP:  1.00D+00  9.90D-01
 E= -3070.59310923454     Delta-E=       -0.000000153226 Rises=F Damp=F
 DIIS: error= 1.54D-05 at cycle   3 NSaved=   3.
 NSaved= 3 IEnMin= 3 EnMin= -3070.59310923454     IErMin= 3 ErrMin= 1.54D-05
 ErrMax= 1.54D-05  0.00D+00 EMaxC= 1.00D-01 BMatC= 4.98D-08 BMatP= 1.89D-07
 IDIUse=1 WtCom= 1.00D+00 WtEn= 0.00D+00
 Coeff-Com:  0.261D-01 0.337D+00 0.637D+00
 Coeff:      0.261D-01 0.337D+00 0.637D+00
 Gap=     0.217 Goal=   None    Shift=    0.000
 RMSDP=1.10D-06 MaxDP=2.97D-05 DE=-1.53D-07 OVMax= 9.84D-05

 Cycle  12  Pass 1  IDiag  1:
 RMSU=  4.62D-07    CP:  1.00D+00  1.00D+00  6.67D-01
 E= -3070.59310928685     Delta-E=       -0.000000052310 Rises=F Damp=F
 DIIS: error= 2.32D-06 at cycle   4 NSaved=   4.
 NSaved= 4 IEnMin= 4 EnMin= -3070.59310928685     IErMin= 4 ErrMin= 2.32D-06
 ErrMax= 2.32D-06  0.00D+00 EMaxC= 1.00D-01 BMatC= 3.21D-09 BMatP= 4.98D-08
 IDIUse=1 WtCom= 1.00D+00 WtEn= 0.00D+00
 Coeff-Com: -0.157D-02 0.185D+00 0.384D+00 0.433D+00
 Coeff:     -0.157D-02 0.185D+00 0.384D+00 0.433D+00
 Gap=     0.217 Goal=   None    Shift=    0.000
 RMSDP=2.62D-07 MaxDP=1.01D-05 DE=-5.23D-08 OVMax= 2.14D-05

 Cycle  13  Pass 1  IDiag  1:
 RMSU=  9.47D-08    CP:  1.00D+00  1.00D+00  6.76D-01  4.80D-01
 E= -3070.59310928980     Delta-E=       -0.000000002947 Rises=F Damp=F
 DIIS: error= 7.03D-07 at cycle   5 NSaved=   5.
 NSaved= 5 IEnMin= 5 EnMin= -3070.59310928980     IErMin= 5 ErrMin= 7.03D-07
 ErrMax= 7.03D-07  0.00D+00 EMaxC= 1.00D-01 BMatC= 1.24D-10 BMatP= 3.21D-09
 IDIUse=1 WtCom= 1.00D+00 WtEn= 0.00D+00
 Coeff-Com: -0.187D-02 0.102D+00 0.213D+00 0.266D+00 0.421D+00
 Coeff:     -0.187D-02 0.102D+00 0.213D+00 0.266D+00 0.421D+00
 Gap=     0.217 Goal=   None    Shift=    0.000
 RMSDP=5.39D-08 MaxDP=1.52D-06 DE=-2.95D-09 OVMax= 3.82D-06

 Cycle  14  Pass 1  IDiag  1:
 RMSU=  3.23D-08    CP:  1.00D+00  1.00D+00  6.77D-01  4.78D-01  5.48D-01
 E= -3070.59310928992     Delta-E=       -0.000000000118 Rises=F Damp=F
 DIIS: error= 1.58D-07 at cycle   6 NSaved=   6.
 NSaved= 6 IEnMin= 6 EnMin= -3070.59310928992     IErMin= 6 ErrMin= 1.58D-07
 ErrMax= 1.58D-07  0.00D+00 EMaxC= 1.00D-01 BMatC= 6.62D-12 BMatP= 1.24D-10
 IDIUse=1 WtCom= 1.00D+00 WtEn= 0.00D+00
 Coeff-Com: -0.995D-03 0.469D-01 0.986D-01 0.127D+00 0.250D+00 0.479D+00
 Coeff:     -0.995D-03 0.469D-01 0.986D-01 0.127D+00 0.250D+00 0.479D+00
 Gap=     0.217 Goal=   None    Shift=    0.000
 RMSDP=1.17D-08 MaxDP=4.19D-07 DE=-1.18D-10 OVMax= 8.29D-07

 Cycle  15  Pass 1  IDiag  1:
 RMSU=  8.63D-09    CP:  1.00D+00  1.00D+00  6.77D-01  4.77D-01  5.94D-01
                    CP:  8.08D-01
 E= -3070.59310928989     Delta-E=        0.000000000021 Rises=F Damp=F
 DIIS: error= 3.00D-08 at cycle   7 NSaved=   7.
 NSaved= 7 IEnMin= 6 EnMin= -3070.59310928992     IErMin= 7 ErrMin= 3.00D-08
 ErrMax= 3.00D-08  0.00D+00 EMaxC= 1.00D-01 BMatC= 3.49D-13 BMatP= 6.62D-12
 IDIUse=1 WtCom= 1.00D+00 WtEn= 0.00D+00
 Coeff-Com: -0.241D-03 0.100D-01 0.211D-01 0.284D-01 0.708D-01 0.225D+00
 Coeff-Com:  0.645D+00
 Coeff:     -0.241D-03 0.100D-01 0.211D-01 0.284D-01 0.708D-01 0.225D+00
 Coeff:      0.645D+00
 Gap=     0.217 Goal=   None    Shift=    0.000
 RMSDP=3.13D-09 MaxDP=1.32D-07 DE= 2.09D-11 OVMax= 2.68D-07

 SCF Done:  E(RB3LYP) =  -3070.59310929     A.U. after   15 cycles
            NFock= 15  Conv=0.31D-08     -V/T= 2.0066
 KE= 3.050572796284D+03 PE=-9.104973194540D+03 EE= 2.078880920037D+03
 Leave Link  502 at Tue Sep 17 09:41:49 2024, MaxMem=  1342177280 cpu:              94.3 elap:              12.8
 (Enter /groups/ReismanLab/Software/Gaussian16_RevC/Linux_Binary_AVX2-enabled-CPU/g16/l508.exe)
 QCSCF skips out because SCF is already converged.
 Leave Link  508 at Tue Sep 17 09:41:49 2024, MaxMem=  1342177280 cpu:               0.0 elap:               0.0
 (Enter /groups/ReismanLab/Software/Gaussian16_RevC/Linux_Binary_AVX2-enabled-CPU/g16/l601.exe)
 Copying SCF densities to generalized density rwf, IOpCl= 0 IROHF=0.

 **********************************************************************

            Population analysis using the SCF Density.

 **********************************************************************

 Orbital symmetries:
       Occupied  (A) (A) (A) (A) (A) (A) (A) (A) (A) (A) (A) (A)
                 (A) (A) (A) (A) (A) (A) (A) (A) (A) (A) (A) (A)
                 (A) (A) (A) (A) (A) (A) (A) (A) (A) (A) (A) (A)
                 (A) (A) (A) (A) (A) (A) (A) (A) (A) (A) (A) (A)
                 (A) (A) (A) (A) (A) (A) (A) (A) (A)
       Virtual   (A) (A) (A) (A) (A) (A) (A) (A) (A) (A) (A) (A)
                 (A) (A) (A) (A) (A) (A) (A) (A) (A) (A) (A) (A)
                 (A) (A) (A) (A) (A) (A) (A) (A) (A) (A) (A) (A)
                 (A) (A) (A) (A) (A) (A) (A) (A) (A) (A) (A) (A)
                 (A) (A) (A) (A) (A) (A) (A) (A) (A) (A) (A) (A)
                 (A) (A) (A) (A) (A) (A) (A) (A) (A) (A) (A) (A)
                 (A) (A) (A) (A) (A) (A) (A) (A) (A) (A) (A) (A)
                 (A) (A) (A) (A) (A) (A) (A) (A) (A) (A) (A) (A)
                 (A) (A) (A) (A) (A) (A) (A) (A) (A) (A) (A) (A)
                 (A) (A) (A) (A) (A) (A) (A) (A) (A) (A) (A) (A)
                 (A) (A) (A) (A) (A) (A) (A) (A) (A) (A) (A) (A)
                 (A) (A) (A) (A) (A) (A) (A) (A) (A) (A) (A) (A)
                 (A) (A) (A) (A) (A) (A) (A) (A) (A) (A) (A) (A)
                 (A) (A) (A) (A) (A) (A) (A) (A) (A) (A) (A) (A)
                 (A) (A) (A) (A) (A) (A) (A) (A) (A) (A) (A) (A)
                 (A) (A) (A)
 The electronic state is 1-A.
 Alpha  occ. eigenvalues -- -482.90891 -61.87067 -56.39199 -56.38791 -56.38781
 Alpha  occ. eigenvalues --  -19.19857 -19.13793 -10.31907 -10.24523 -10.24174
 Alpha  occ. eigenvalues --  -10.20947 -10.20715 -10.20267 -10.20208 -10.20049
 Alpha  occ. eigenvalues --  -10.19795  -8.58213  -6.53603  -6.52339  -6.52311
 Alpha  occ. eigenvalues --   -2.65178  -2.64816  -2.64796  -2.63786  -2.63786
 Alpha  occ. eigenvalues --   -1.11416  -1.02439  -0.88350  -0.82173  -0.77643
 Alpha  occ. eigenvalues --   -0.76326  -0.73344  -0.68735  -0.62582  -0.59549
 Alpha  occ. eigenvalues --   -0.57136  -0.51943  -0.50634  -0.49113  -0.48272
 Alpha  occ. eigenvalues --   -0.46911  -0.46352  -0.43712  -0.43181  -0.41693
 Alpha  occ. eigenvalues --   -0.40546  -0.38690  -0.38595  -0.35841  -0.35755
 Alpha  occ. eigenvalues --   -0.34903  -0.31115  -0.30504  -0.28515  -0.27916
 Alpha  occ. eigenvalues --   -0.26548  -0.23790
 Alpha virt. eigenvalues --   -0.02047  -0.01319   0.00955   0.02403   0.10713
 Alpha virt. eigenvalues --    0.11714   0.11857   0.12773   0.13297   0.15282
 Alpha virt. eigenvalues --    0.15921   0.16439   0.17267   0.18075   0.18944
 Alpha virt. eigenvalues --    0.21440   0.23323   0.25853   0.28348   0.29778
 Alpha virt. eigenvalues --    0.31672   0.33103   0.34277   0.35654   0.42407
 Alpha virt. eigenvalues --    0.44880   0.46518   0.46578   0.46604   0.47101
 Alpha virt. eigenvalues --    0.47673   0.48970   0.50414   0.52163   0.52511
 Alpha virt. eigenvalues --    0.53502   0.54875   0.57011   0.57061   0.57477
 Alpha virt. eigenvalues --    0.58231   0.59790   0.60801   0.62625   0.64035
 Alpha virt. eigenvalues --    0.64409   0.66855   0.68772   0.71064   0.71948
 Alpha virt. eigenvalues --    0.73276   0.75667   0.78340   0.78589   0.79849
 Alpha virt. eigenvalues --    0.81142   0.81455   0.82325   0.83178   0.84065
 Alpha virt. eigenvalues --    0.85419   0.87157   0.88009   0.89992   0.90318
 Alpha virt. eigenvalues --    0.93999   0.96612   0.97311   0.99000   1.00071
 Alpha virt. eigenvalues --    1.01539   1.05440   1.06975   1.10179   1.14665
 Alpha virt. eigenvalues --    1.15744   1.18267   1.18481   1.23162   1.23969
 Alpha virt. eigenvalues --    1.24897   1.30130   1.31788   1.33529   1.35676
 Alpha virt. eigenvalues --    1.38751   1.40751   1.42252   1.43641   1.49572
 Alpha virt. eigenvalues --    1.54089   1.55811   1.57130   1.58457   1.59667
 Alpha virt. eigenvalues --    1.64953   1.70117   1.76574   1.77208   1.80656
 Alpha virt. eigenvalues --    1.82214   1.83244   1.83738   1.86217   1.89803
 Alpha virt. eigenvalues --    1.90494   1.92303   1.94719   1.95797   1.96248
 Alpha virt. eigenvalues --    1.97540   1.98964   1.99656   2.00548   2.01951
 Alpha virt. eigenvalues --    2.04632   2.06136   2.07039   2.07612   2.08328
 Alpha virt. eigenvalues --    2.11384   2.15516   2.19485   2.20198   2.23157
 Alpha virt. eigenvalues --    2.29524   2.30370   2.32264   2.34626   2.40164
 Alpha virt. eigenvalues --    2.40820   2.41611   2.44009   2.45247   2.47618
 Alpha virt. eigenvalues --    2.48936   2.49058   2.51914   2.53346   2.54607
 Alpha virt. eigenvalues --    2.58638   2.60087   2.64628   2.65689   2.68254
 Alpha virt. eigenvalues --    2.70542   2.72943   2.74283   2.76772   2.79727
 Alpha virt. eigenvalues --    2.83890   2.87201   2.88719   2.89073   2.92052
 Alpha virt. eigenvalues --    2.96098   3.06366   3.07638   3.14421   3.20245
 Alpha virt. eigenvalues --    3.20948   3.25104   3.30151   3.31494   3.36101
 Alpha virt. eigenvalues --    3.40495   3.42872   3.48923   3.52306   3.81679
 Alpha virt. eigenvalues --    4.01570   4.11004   4.14602   4.16486   4.22070
 Alpha virt. eigenvalues --    4.30296   4.41314   4.43965   4.48374   4.65489
 Alpha virt. eigenvalues --    4.83203   8.60884  72.81737
          Condensed to atoms (all electrons):
               1          2          3          4          5          6
     1  C    4.764980   0.217537  -0.025115  -0.012976   0.007045  -0.000245
     2  O    0.217537   8.222017   0.274245  -0.079495  -0.097301  -0.000377
     3  C   -0.025115   0.274245   4.352130   0.565539   0.337604  -0.036123
     4  O   -0.012976  -0.079495   0.565539   8.034911  -0.072711  -0.008163
     5  C    0.007045  -0.097301   0.337604  -0.072711   5.178219   0.363172
     6  C   -0.000245  -0.000377  -0.036123  -0.008163   0.363172   4.709236
     7  C   -0.000023   0.000279  -0.003645   0.003158  -0.068548   0.537669
     8  C   -0.000001   0.000002   0.000172   0.000070   0.006369  -0.028879
     9  C    0.000000  -0.000001   0.000020   0.000003   0.000458  -0.032427
    10  Br  -0.000000  -0.000000   0.000000  -0.000000   0.000004   0.000338
    11  C   -0.000001   0.000012   0.000001   0.000003   0.007101  -0.028105
    12  C   -0.000096   0.001246  -0.002852   0.000023  -0.055461   0.556907
    13  H    0.389671  -0.034386   0.002796   0.000495  -0.000185   0.000055
    14  H    0.374890  -0.032945  -0.009214   0.025679   0.001013  -0.000041
    15  H    0.390893  -0.033864  -0.000149   0.000485  -0.000214  -0.000009
    16  H   -0.000208   0.002788  -0.031677  -0.000240   0.367828  -0.024367
    17  H   -0.000304   0.005465  -0.026605   0.003136   0.351245  -0.027100
    18  H    0.000000   0.000066   0.000656   0.004675  -0.010465  -0.042221
    19  H    0.000000   0.000000  -0.000001  -0.000001  -0.000184   0.003987
    20  H    0.000000   0.000000  -0.000001   0.000000  -0.000182   0.004092
    21  H    0.000006   0.000429   0.000019  -0.000000  -0.010829  -0.040658
               7          8          9         10         11         12
     1  C   -0.000023  -0.000001   0.000000  -0.000000  -0.000001  -0.000096
     2  O    0.000279   0.000002  -0.000001  -0.000000   0.000012   0.001246
     3  C   -0.003645   0.000172   0.000020   0.000000   0.000001  -0.002852
     4  O    0.003158   0.000070   0.000003  -0.000000   0.000003   0.000023
     5  C   -0.068548   0.006369   0.000458   0.000004   0.007101  -0.055461
     6  C    0.537669  -0.028879  -0.032427   0.000338  -0.028105   0.556907
     7  C    4.907526   0.491772  -0.030756   0.005613  -0.050105  -0.034188
     8  C    0.491772   4.894616   0.528424  -0.060557  -0.033379  -0.049898
     9  C   -0.030756   0.528424   4.797621   0.257849   0.532848  -0.030963
    10  Br   0.005613  -0.060557   0.257849  34.993514  -0.060900   0.005688
    11  C   -0.050105  -0.033379   0.532848  -0.060900   4.896668   0.488494
    12  C   -0.034188  -0.049898  -0.030963   0.005688   0.488494   4.897355
    13  H    0.000001   0.000000  -0.000000   0.000000  -0.000000   0.000024
    14  H   -0.000021  -0.000000   0.000000  -0.000000  -0.000000   0.000006
    15  H   -0.000000  -0.000000  -0.000000  -0.000000   0.000000   0.000001
    16  H   -0.006182   0.000113   0.000023  -0.000000  -0.000196   0.003172
    17  H    0.005656  -0.000161   0.000006  -0.000000   0.000244  -0.007494
    18  H    0.369262  -0.037360   0.004512  -0.000150   0.000544   0.005509
    19  H   -0.035462   0.369977  -0.043321  -0.003525   0.005249   0.000627
    20  H    0.000576   0.005300  -0.042914  -0.003550   0.369252  -0.036025
    21  H    0.005892   0.000542   0.004560  -0.000159  -0.040816   0.367713
              13         14         15         16         17         18
     1  C    0.389671   0.374890   0.390893  -0.000208  -0.000304   0.000000
     2  O   -0.034386  -0.032945  -0.033864   0.002788   0.005465   0.000066
     3  C    0.002796  -0.009214  -0.000149  -0.031677  -0.026605   0.000656
     4  O    0.000495   0.025679   0.000485  -0.000240   0.003136   0.004675
     5  C   -0.000185   0.001013  -0.000214   0.367828   0.351245  -0.010465
     6  C    0.000055  -0.000041  -0.000009  -0.024367  -0.027100  -0.042221
     7  C    0.000001  -0.000021  -0.000000  -0.006182   0.005656   0.369262
     8  C    0.000000  -0.000000  -0.000000   0.000113  -0.000161  -0.037360
     9  C   -0.000000   0.000000  -0.000000   0.000023   0.000006   0.004512
    10  Br   0.000000  -0.000000  -0.000000  -0.000000  -0.000000  -0.000150
    11  C   -0.000000  -0.000000   0.000000  -0.000196   0.000244   0.000544
    12  C    0.000024   0.000006   0.000001   0.003172  -0.007494   0.005509
    13  H    0.581692  -0.028454  -0.038009  -0.000000  -0.000031  -0.000000
    14  H   -0.028454   0.550300  -0.031443   0.000004  -0.000022  -0.000004
    15  H   -0.038009  -0.031443   0.587264   0.000018  -0.000017  -0.000000
    16  H   -0.000000   0.000004   0.000018   0.575293  -0.028284   0.003569
    17  H   -0.000031  -0.000022  -0.000017  -0.028284   0.592411   0.000123
    18  H   -0.000000  -0.000004  -0.000000   0.003569   0.000123   0.598326
    19  H   -0.000000   0.000000   0.000000  -0.000005   0.000002  -0.006058
    20  H   -0.000000   0.000000   0.000000   0.000003  -0.000009   0.000018
    21  H   -0.000005   0.000001   0.000001   0.000070   0.005309  -0.000197
              19         20         21
     1  C    0.000000   0.000000   0.000006
     2  O    0.000000   0.000000   0.000429
     3  C   -0.000001  -0.000001   0.000019
     4  O   -0.000001   0.000000  -0.000000
     5  C   -0.000184  -0.000182  -0.010829
     6  C    0.003987   0.004092  -0.040658
     7  C   -0.035462   0.000576   0.005892
     8  C    0.369977   0.005300   0.000542
     9  C   -0.043321  -0.042914   0.004560
    10  Br  -0.003525  -0.003550  -0.000159
    11  C    0.005249   0.369252  -0.040816
    12  C    0.000627  -0.036025   0.367713
    13  H   -0.000000  -0.000000  -0.000005
    14  H    0.000000   0.000000   0.000001
    15  H    0.000000   0.000000   0.000001
    16  H   -0.000005   0.000003   0.000070
    17  H    0.000002  -0.000009   0.005309
    18  H   -0.006058   0.000018  -0.000197
    19  H    0.598739  -0.000173   0.000018
    20  H   -0.000173   0.602061  -0.006273
    21  H    0.000018  -0.006273   0.620583
 Mulliken charges:
               1
     1  C   -0.106055
     2  O   -0.445717
     3  C    0.602200
     4  O   -0.464593
     5  C   -0.303980
     6  C    0.093261
     7  C   -0.098475
     8  C   -0.087122
     9  C    0.054059
    10  Br  -0.134164
    11  C   -0.086913
    12  C   -0.109789
    13  H    0.126337
    14  H    0.150251
    15  H    0.125044
    16  H    0.138279
    17  H    0.126430
    18  H    0.109196
    19  H    0.110131
    20  H    0.107827
    21  H    0.093794
 Sum of Mulliken charges =  -0.00000
 Mulliken charges with hydrogens summed into heavy atoms:
               1
     1  C    0.295577
     2  O   -0.445717
     3  C    0.602200
     4  O   -0.464593
     5  C   -0.039270
     6  C    0.093261
     7  C    0.010721
     8  C    0.023008
     9  C    0.054059
    10  Br  -0.134164
    11  C    0.020914
    12  C   -0.015995
 Electronic spatial extent (au):  <R**2>=           4150.8013
 Charge=             -0.0000 electrons
 Dipole moment (field-independent basis, Debye):
    X=             -1.8221    Y=             -1.2457    Z=              1.1422  Tot=              2.4852
 Quadrupole moment (field-independent basis, Debye-Ang):
   XX=            -80.1979   YY=            -78.0040   ZZ=            -80.4886
   XY=              6.5358   XZ=             -2.3821   YZ=              1.5349
 Traceless Quadrupole moment (field-independent basis, Debye-Ang):
   XX=             -0.6344   YY=              1.5595   ZZ=             -0.9251
   XY=              6.5358   XZ=             -2.3821   YZ=              1.5349
 Octapole moment (field-independent basis, Debye-Ang**2):
  XXX=             39.6585  YYY=             -9.9252  ZZZ=            -14.2214  XYY=             25.2939
  XXY=            -34.6924  XXZ=             -6.8267  XZZ=             21.2907  YZZ=             -9.2317
  YYZ=             -4.9471  XYZ=            -19.6132
 Hexadecapole moment (field-independent basis, Debye-Ang**3):
 XXXX=          -3574.2675 YYYY=           -462.8066 ZZZZ=           -385.1224 XXXY=            107.9308
 XXXZ=            -16.3497 YYYX=             -6.0174 YYYZ=             -1.0116 ZZZX=            -28.9205
 ZZZY=             -3.1662 XXYY=           -703.3311 XXZZ=           -686.7894 YYZZ=           -138.0270
 XXYZ=             61.9641 YYXZ=             -7.9054 ZZXY=              7.0133
 N-N= 9.049263689302D+02 E-N=-9.104973194572D+03  KE= 3.050572796284D+03
 No NMR shielding tensors so no spin-rotation constants.
 Leave Link  601 at Tue Sep 17 09:41:49 2024, MaxMem=  1342177280 cpu:               0.5 elap:               0.1
 (Enter /groups/ReismanLab/Software/Gaussian16_RevC/Linux_Binary_AVX2-enabled-CPU/g16/l701.exe)
 ... and contract with generalized density number  0.
 Compute integral first derivatives.
 R6Disp: Adding Grimme-D3(BJ) dispersion energy 1st derivatives to the gradient.
 Leave Link  701 at Tue Sep 17 09:41:49 2024, MaxMem=  1342177280 cpu:               0.5 elap:               0.1
 (Enter /groups/ReismanLab/Software/Gaussian16_RevC/Linux_Binary_AVX2-enabled-CPU/g16/l702.exe)
 L702 exits ... SP integral derivatives will be done elsewhere.
 Leave Link  702 at Tue Sep 17 09:41:49 2024, MaxMem=  1342177280 cpu:               0.1 elap:               0.0
 (Enter /groups/ReismanLab/Software/Gaussian16_RevC/Linux_Binary_AVX2-enabled-CPU/g16/l703.exe)
 Integral derivatives from FoFJK, PRISM(SPDF).
 Compute integral first derivatives, UseDBF=F ICtDFT=           0.
 Calling FoFJK, ICntrl=      2127 FMM=F ISym2X=0 I1Cent= 0 IOpClX= 0 NMat=1 NMatS=1 NMatT=0.
 FoFJK:  IHMeth= 1 ICntrl=    2127 DoSepK=F KAlg= 0 I1Cent=           0 FoldK=F
 IRaf=         0 NMat=       1 IRICut=       1 DoRegI=T DoRafI=F ISym2E= 0 IDoP0=0 IntGTp=1.
 FoFCou: FMM=F IPFlag=           0 FMFlag=      100000 FMFlg1=         800
         NFxFlg=           0 DoJE=F BraDBF=F KetDBF=F FulRan=T
         wScrn=  0.000000 ICntrl=      2127 IOpCl=  0 I1Cent=           0 NGrid=           0
         NMat0=    1 NMatS0=      1 NMatT0=    0 NMatD0=    1 NMtDS0=    0 NMtDT0=    0
 Symmetry not used in FoFCou.
 Leave Link  703 at Tue Sep 17 09:41:53 2024, MaxMem=  1342177280 cpu:              27.9 elap:               3.6
 (Enter /groups/ReismanLab/Software/Gaussian16_RevC/Linux_Binary_AVX2-enabled-CPU/g16/l716.exe)
 Dipole        =-7.16862385D-01-4.90098679D-01 4.49362336D-01
 ***** Axes restored to original set *****
 -------------------------------------------------------------------
 Center     Atomic                   Forces (Hartrees/Bohr)
 Number     Number              X              Y              Z
 -------------------------------------------------------------------
      1        6           0.002482218   -0.001686702    0.008160557
      2        8          -0.000147803   -0.009222597   -0.012021696
      3        6          -0.000900296    0.006223345   -0.011974544
      4        8           0.002114047    0.008555180    0.017479699
      5        6           0.001318921   -0.002896665    0.003527055
      6        6           0.002895933    0.002435410   -0.003912341
      7        6           0.002174528    0.002719991    0.001602317
      8        6          -0.004036762    0.002563001    0.004728599
      9        6          -0.006183171   -0.001763877    0.001035568
     10       35          -0.002421614   -0.000446949    0.000473618
     11        6          -0.004572154   -0.004763565   -0.002869732
     12        6           0.002430098   -0.000942720   -0.002552311
     13        1          -0.000400993   -0.001702758   -0.000541720
     14        1           0.000529946   -0.000946330   -0.000035091
     15        1           0.001495856   -0.000509117   -0.000617353
     16        1           0.001987935    0.000944356   -0.000497102
     17        1           0.000566285    0.001284966   -0.002052222
     18        1           0.002241962    0.002711990    0.002487055
     19        1          -0.001938896    0.001473797    0.002316568
     20        1          -0.001964526   -0.002166447   -0.001605316
     21        1           0.002328485   -0.001864310   -0.003131608
 -------------------------------------------------------------------
 Cartesian Forces:  Max     0.017479699 RMS     0.004319887
 Leave Link  716 at Tue Sep 17 09:41:53 2024, MaxMem=  1342177280 cpu:               0.1 elap:               0.0
 (Enter /groups/ReismanLab/Software/Gaussian16_RevC/Linux_Binary_AVX2-enabled-CPU/g16/l103.exe)

 GradGradGradGradGradGradGradGradGradGradGradGradGradGradGradGradGradGrad
 Berny optimization.
 FormGI is forming the generalized inverse of G from B-inverse, IUseBI=4.
 GSVD:  received Info=                   1 from GESDD.
 Internal  Forces:  Max     0.019508502 RMS     0.003984121
 Search for a local minimum.
 Step number   1 out of a maximum of  106
 All quantities printed in internal units (Hartrees-Bohrs-Radians)
 RMS Force = .39841D-02 SwitMx=.10000D-02 MixMth= 1
 Mixed Optimization -- RFO/linear search
 Second derivative matrix not updated -- first step.
 ITU=  0
     Eigenvalues ---    0.00520   0.00690   0.01036   0.01385   0.01612
     Eigenvalues ---    0.02235   0.02266   0.02274   0.02292   0.02298
     Eigenvalues ---    0.02303   0.02305   0.02310   0.02559   0.05688
     Eigenvalues ---    0.06699   0.08981   0.10395   0.10591   0.12632
     Eigenvalues ---    0.15999   0.16000   0.16000   0.16000   0.16000
     Eigenvalues ---    0.16000   0.16000   0.17963   0.22000   0.22011
     Eigenvalues ---    0.22980   0.23995   0.24979   0.24988   0.25000
     Eigenvalues ---    0.25000   0.25000   0.30500   0.31783   0.34663
     Eigenvalues ---    0.34752   0.34810   0.34907   0.34982   0.36020
     Eigenvalues ---    0.36082   0.36098   0.36110   0.41982   0.43515
     Eigenvalues ---    0.43606   0.47600   0.47916   0.48386   0.48593
     Eigenvalues ---    0.58474   1.04397
 RFO step:  Lambda=-3.33830072D-03 EMin= 5.19607167D-03
 Linear search not attempted -- first point.
 Iteration  1 RMS(Cart)=  0.03121619 RMS(Int)=  0.00032033
 Iteration  2 RMS(Cart)=  0.00083612 RMS(Int)=  0.00009982
 Iteration  3 RMS(Cart)=  0.00000050 RMS(Int)=  0.00009982
 ITry= 1 IFail=0 DXMaxC= 1.22D-01 DCOld= 1.00D+10 DXMaxT= 3.00D-01 DXLimC= 3.00D+00 Rises=F
 Variable       Old X    -DE/DX   Delta X   Delta X   Delta X     New X
                                 (Linear)    (Quad)   (Total)
    R1        2.68946   0.00936   0.00000   0.02211   0.02211   2.71158
    R2        2.05826   0.00171   0.00000   0.00485   0.00485   2.06311
    R3        2.06226  -0.00044   0.00000  -0.00125  -0.00125   2.06101
    R4        2.06080   0.00165   0.00000   0.00470   0.00470   2.06550
    R5        2.52169   0.01544   0.00000   0.02625   0.02625   2.54794
    R6        2.26928   0.01951   0.00000   0.01863   0.01863   2.28790
    R7        2.86978   0.00268   0.00000   0.00870   0.00870   2.87848
    R8        2.84542   0.00851   0.00000   0.02650   0.02650   2.87192
    R9        2.05984   0.00124   0.00000   0.00352   0.00352   2.06336
   R10        2.05705   0.00154   0.00000   0.00436   0.00436   2.06141
   R11        2.62768   0.00939   0.00000   0.01975   0.01975   2.64743
   R12        2.62431   0.00917   0.00000   0.01916   0.01917   2.64348
   R13        2.61214   0.01088   0.00000   0.02220   0.02220   2.63434
   R14        2.03954   0.00430   0.00000   0.01181   0.01181   2.05135
   R15        2.61655   0.00875   0.00000   0.01798   0.01798   2.63453
   R16        2.03911   0.00334   0.00000   0.00917   0.00917   2.04827
   R17        3.60172   0.00251   0.00000   0.01370   0.01370   3.61542
   R18        2.61488   0.00828   0.00000   0.01696   0.01695   2.63184
   R19        2.61451   0.01122   0.00000   0.02300   0.02300   2.63751
   R20        2.03929   0.00331   0.00000   0.00908   0.00908   2.04837
   R21        2.04050   0.00431   0.00000   0.01186   0.01186   2.05236
    A1        1.88105  -0.00057   0.00000  -0.00409  -0.00410   1.87694
    A2        1.91850   0.00186   0.00000   0.01259   0.01258   1.93107
    A3        1.89797  -0.00024   0.00000  -0.00201  -0.00203   1.89594
    A4        1.92827  -0.00010   0.00000   0.00060   0.00059   1.92885
    A5        1.91885  -0.00067   0.00000  -0.00669  -0.00671   1.91214
    A6        1.91862  -0.00028   0.00000  -0.00046  -0.00048   1.91814
    A7        2.05828  -0.00017   0.00000  -0.00067  -0.00067   2.05761
    A8        2.17887   0.00163   0.00000   0.00582   0.00539   2.18426
    A9        1.92694   0.00038   0.00000   0.00091   0.00048   1.92743
   A10        2.17667  -0.00204   0.00000  -0.00861  -0.00902   2.16765
   A11        1.86567   0.00686   0.00000   0.03627   0.03610   1.90177
   A12        1.89280  -0.00318   0.00000  -0.01860  -0.01875   1.87405
   A13        1.91014  -0.00080   0.00000   0.00402   0.00380   1.91394
   A14        1.92695  -0.00032   0.00000   0.00441   0.00451   1.93146
   A15        1.93587  -0.00203   0.00000  -0.00446  -0.00472   1.93114
   A16        1.93072  -0.00035   0.00000  -0.02009  -0.02017   1.91055
   A17        2.09264   0.00133   0.00000   0.00527   0.00527   2.09791
   A18        2.10907   0.00054   0.00000   0.00217   0.00217   2.11124
   A19        2.08076  -0.00187   0.00000  -0.00753  -0.00752   2.07324
   A20        2.10664   0.00088   0.00000   0.00379   0.00379   2.11043
   A21        2.08644  -0.00056   0.00000  -0.00262  -0.00262   2.08382
   A22        2.09005  -0.00033   0.00000  -0.00122  -0.00122   2.08883
   A23        2.07841   0.00023   0.00000   0.00079   0.00079   2.07920
   A24        2.10521   0.00024   0.00000   0.00179   0.00179   2.10700
   A25        2.09956  -0.00047   0.00000  -0.00258  -0.00258   2.09698
   A26        2.08455   0.00008   0.00000   0.00041   0.00041   2.08496
   A27        2.11536  -0.00035   0.00000  -0.00160  -0.00161   2.11375
   A28        2.08327   0.00028   0.00000   0.00120   0.00120   2.08447
   A29        2.07893  -0.00016   0.00000  -0.00092  -0.00093   2.07800
   A30        2.09965  -0.00036   0.00000  -0.00219  -0.00219   2.09746
   A31        2.10460   0.00051   0.00000   0.00312   0.00312   2.10772
   A32        2.10617   0.00127   0.00000   0.00553   0.00553   2.11170
   A33        2.09278  -0.00098   0.00000  -0.00490  -0.00490   2.08788
   A34        2.08423  -0.00029   0.00000  -0.00063  -0.00063   2.08360
    D1        2.25753   0.00081   0.00000   0.01676   0.01675   2.27428
    D2        0.15499   0.00020   0.00000   0.01116   0.01117   0.16616
    D3       -1.94618  -0.00044   0.00000   0.00535   0.00535  -1.94083
    D4        0.01170   0.00028   0.00000  -0.00294  -0.00312   0.00858
    D5       -3.09127   0.00106   0.00000   0.04917   0.04936  -3.04191
    D6        1.64925  -0.00068   0.00000  -0.04240  -0.04215   1.60710
    D7       -2.55624   0.00102   0.00000  -0.02713  -0.02718  -2.58341
    D8       -0.44851  -0.00182   0.00000  -0.06052  -0.06050  -0.50901
    D9       -1.45378   0.00001   0.00000   0.00925   0.00935  -1.44443
   D10        0.62392   0.00171   0.00000   0.02451   0.02432   0.64824
   D11        2.73165  -0.00113   0.00000  -0.00887  -0.00900   2.72265
   D12        1.31317  -0.00082   0.00000  -0.01808  -0.01803   1.29514
   D13       -1.78761  -0.00074   0.00000  -0.01553  -0.01547  -1.80308
   D14       -0.74226  -0.00083   0.00000  -0.01928  -0.01937  -0.76163
   D15        2.44015  -0.00074   0.00000  -0.01673  -0.01681   2.42333
   D16       -2.88883   0.00125   0.00000   0.00633   0.00636  -2.88247
   D17        0.29358   0.00133   0.00000   0.00888   0.00892   0.30249
   D18       -3.11326   0.00009   0.00000   0.00406   0.00405  -3.10920
   D19        0.01738  -0.00003   0.00000  -0.00067  -0.00067   0.01671
   D20       -0.01182   0.00007   0.00000   0.00177   0.00177  -0.01005
   D21        3.11882  -0.00006   0.00000  -0.00295  -0.00295   3.11587
   D22        3.11642  -0.00014   0.00000  -0.00671  -0.00670   3.10971
   D23       -0.02776  -0.00007   0.00000  -0.00374  -0.00373  -0.03150
   D24        0.01537  -0.00014   0.00000  -0.00447  -0.00447   0.01090
   D25       -3.12881  -0.00006   0.00000  -0.00150  -0.00150  -3.13032
   D26        0.00144   0.00004   0.00000   0.00164   0.00164   0.00307
   D27       -3.14123   0.00003   0.00000   0.00121   0.00121  -3.14002
   D28       -3.12918   0.00017   0.00000   0.00638   0.00638  -3.12280
   D29        0.01134   0.00016   0.00000   0.00595   0.00595   0.01729
   D30       -3.13813   0.00002   0.00000   0.00078   0.00078  -3.13734
   D31        0.00567  -0.00007   0.00000  -0.00237  -0.00236   0.00331
   D32        0.00454   0.00003   0.00000   0.00120   0.00120   0.00574
   D33       -3.13485  -0.00005   0.00000  -0.00194  -0.00194  -3.13679
   D34       -0.00220  -0.00001   0.00000  -0.00030  -0.00029  -0.00249
   D35        3.13742   0.00007   0.00000   0.00244   0.00245   3.13987
   D36       -3.14159  -0.00009   0.00000  -0.00344  -0.00343   3.13816
   D37       -0.00197  -0.00002   0.00000  -0.00069  -0.00069  -0.00266
   D38       -0.00845   0.00010   0.00000   0.00370   0.00371  -0.00474
   D39        3.13572   0.00002   0.00000   0.00075   0.00076   3.13648
   D40        3.13513   0.00002   0.00000   0.00095   0.00096   3.13608
   D41       -0.00389  -0.00005   0.00000  -0.00199  -0.00200  -0.00589
         Item               Value     Threshold  Converged?
 Maximum Force            0.019509     0.000450     NO 
 RMS     Force            0.003984     0.000300     NO 
 Maximum Displacement     0.122427     0.001800     NO 
 RMS     Displacement     0.031183     0.001200     NO 
 Predicted change in Energy=-1.701735D-03
 Lowest energy point so far.  Saving SCF results.
 GradGradGradGradGradGradGradGradGradGradGradGradGradGradGradGradGradGrad

 Leave Link  103 at Tue Sep 17 09:41:53 2024, MaxMem=  1342177280 cpu:               0.1 elap:               0.0
 (Enter /groups/ReismanLab/Software/Gaussian16_RevC/Linux_Binary_AVX2-enabled-CPU/g16/l202.exe)
                          Input orientation:                          
 ---------------------------------------------------------------------
 Center     Atomic      Atomic             Coordinates (Angstroms)
 Number     Number       Type             X           Y           Z
 ---------------------------------------------------------------------
      1          6           0        4.589054   -1.724306    0.703540
      2          8           0        3.901023   -0.896690   -0.245467
      3          6           0        3.518222    0.333728    0.151379
      4          8           0        3.716054    0.805095    1.248870
      5          6           0        2.685851    1.006987   -0.932176
      6          6           0        1.216381    0.711400   -0.681279
      7          6           0        0.535337    1.356784    0.359081
      8          6           0       -0.802053    1.068683    0.626873
      9          6           0       -1.461737    0.121055   -0.154426
     10         35           0       -3.299227   -0.276559    0.200331
     11          6           0       -0.805940   -0.540444   -1.189793
     12          6           0        0.533350   -0.241392   -1.444489
     13          1           0        4.097656   -2.699206    0.707118
     14          1           0        4.557848   -1.276895    1.697692
     15          1           0        5.626619   -1.838738    0.379434
     16          1           0        2.878787    2.080006   -0.872041
     17          1           0        2.990727    0.637167   -1.912097
     18          1           0        1.062690    2.080262    0.972961
     19          1           0       -1.326304    1.570979    1.431670
     20          1           0       -1.333080   -1.275744   -1.786789
     21          1           0        1.051195   -0.757607   -2.247542
 ---------------------------------------------------------------------
                    Distance matrix (angstroms):
                    1          2          3          4          5
     1  C    0.000000
     2  O    1.434904   0.000000
     3  C    2.384757   1.348314   0.000000
     4  O    2.730821   2.272296   1.210707   0.000000
     5  C    3.709139   2.360550   1.523224   2.420546   0.000000
     6  C    4.384667   3.159618   2.476778   3.159528   1.519757
     7  C    5.103371   4.095298   3.160283   3.348589   2.532670
     8  C    6.072125   5.171324   4.408064   4.568331   3.820983
     9  C    6.383849   5.459238   4.993870   5.408019   4.311874
    10  Br   8.035806   7.240642   6.844886   7.175206   6.225048
    11  C    5.838853   4.813955   4.610998   5.310931   3.827991
    12  C    4.823048   3.634320   3.433223   4.298712   2.540507
    13  H    1.091749   2.048206   3.137400   3.566404   4.291427
    14  H    1.090637   2.086107   2.462927   2.290139   3.954326
    15  H    1.093014   2.062920   3.035943   3.375800   4.297277
    16  H    4.458728   3.209093   2.122676   2.612409   1.091884
    17  H    3.869465   2.441108   2.151339   3.247462   1.090853
    18  H    5.194475   4.289866   3.123303   2.956776   2.723255
    19  H    6.810325   6.018897   5.161334   5.103466   4.690761
    20  H    6.440079   5.469478   5.466446   6.248110   4.700323
    21  H    4.707423   3.485565   3.609994   4.665663   2.741547
                    6          7          8          9         10
     6  C    0.000000
     7  C    1.400961   0.000000
     8  C    2.431664   1.394032   0.000000
     9  C    2.792561   2.403959   1.394134   0.000000
    10  Br   4.705743   4.170958   2.868361   1.913197   0.000000
    11  C    2.432177   2.792402   2.426845   1.392707   2.866803
    12  C    1.398869   2.409780   2.791082   2.403332   4.170770
    13  H    4.675641   5.409464   6.181470   6.293089   7.799995
    14  H    4.558313   4.990866   5.947851   6.451357   8.060794
    15  H    5.203702   6.011067   7.059896   7.373641   9.063289
    16  H    2.161727   2.744171   4.100988   4.815870   6.698600
    17  H    2.160723   3.421263   4.584512   4.814583   6.697818
    18  H    2.152653   1.085527   2.149496   3.388543   5.017757
    19  H    3.415944   2.159173   1.083899   2.153212   2.970188
    20  H    3.416233   3.876332   3.406478   2.152257   2.968628
    21  H    2.153706   3.395769   3.877128   3.386445   5.014944
                   11         12         13         14         15
    11  C    0.000000
    12  C    1.395708   0.000000
    13  H    5.683641   4.834722   0.000000
    14  H    6.135972   5.209813   1.793316   0.000000
    15  H    6.747285   5.640886   1.784799   1.787663   0.000000
    16  H    4.532653   3.349278   5.178827   4.548797   4.947052
    17  H    4.040194   2.651268   4.383716   4.376080   4.281255
    18  H    3.877806   3.393280   5.667893   4.900191   6.044856
    19  H    3.406016   3.874957   6.941094   6.542507   7.815145
    20  H    1.083950   2.161161   6.143184   6.844315   7.310738
    21  H    2.148242   1.086063   4.666985   5.303880   5.385569
                   16         17         18         19         20
    16  H    0.000000
    17  H    1.782142   0.000000
    18  H    2.588869   3.758112   0.000000
    19  H    4.821720   5.539813   2.485372   0.000000
    20  H    5.462385   4.729719   4.961725   4.296784   0.000000
    21  H    3.644742   2.412406   4.292467   4.960989   2.483048
                   21
    21  H    0.000000
 Stoichiometry    C9H9BrO2
 Framework group  C1[X(C9H9BrO2)]
 Deg. of freedom    57
 Full point group                 C1      NOp   1
 RotChk:  IX=0 Diff= 1.23D-02
 Largest Abelian subgroup         C1      NOp   1
 Largest concise Abelian subgroup C1      NOp   1
                         Standard orientation:                         
 ---------------------------------------------------------------------
 Center     Atomic      Atomic             Coordinates (Angstroms)
 Number     Number       Type             X           Y           Z
 ---------------------------------------------------------------------
      1          6           0       -4.397229   -1.448712   -1.078835
      2          8           0       -3.686267   -0.907438    0.043887
      3          6           0       -3.296329    0.381754   -0.018421
      4          8           0       -3.505522    1.129086   -0.947693
      5          6           0       -2.440686    0.737555    1.190501
      6          6           0       -0.978378    0.509997    0.844762
      7          6           0       -0.306129    1.404346    0.001606
      8          6           0        1.023948    1.189328   -0.356148
      9          6           0        1.685094    0.063987    0.133856
     10         35           0        3.512716   -0.236650   -0.345453
     11          6           0        1.037841   -0.844729    0.967482
     12          6           0       -0.294216   -0.615663    1.315555
     13          1           0       -3.916381   -2.390687   -1.349730
     14          1           0       -4.376132   -0.753386   -1.918814
     15          1           0       -5.430989   -1.638605   -0.778900
     16          1           0       -2.623028    1.789165    1.420889
     17          1           0       -2.734792    0.122540    2.042099
     18          1           0       -0.834854    2.268272   -0.388844
     19          1           0        1.541428    1.884124   -1.007540
     20          1           0        1.565974   -1.715564    1.338521
     21          1           0       -0.805465   -1.323454    1.961458
 ---------------------------------------------------------------------
 Rotational constants (GHZ):           1.8722057           0.2422616           0.2379536
 Leave Link  202 at Tue Sep 17 09:41:53 2024, MaxMem=  1342177280 cpu:               0.1 elap:               0.0
 (Enter /groups/ReismanLab/Software/Gaussian16_RevC/Linux_Binary_AVX2-enabled-CPU/g16/l301.exe)
 Standard basis: 6-31G(d,p) (6D, 7F)
 Ernie: Thresh=  0.10000D-02 Tol=  0.10000D-05 Strict=F.
 There are   240 symmetry adapted cartesian basis functions of A   symmetry.
 There are   240 symmetry adapted basis functions of A   symmetry.
   240 basis functions,   454 primitive gaussians,   240 cartesian basis functions
    57 alpha electrons       57 beta electrons
       nuclear repulsion energy       897.6844857717 Hartrees.
 IExCor=  402 DFT=T Ex+Corr=B3LYP ExCW=0 ScaHFX=  0.200000
 ScaDFX=  0.800000  0.720000  1.000000  0.810000 ScalE2=  1.000000  1.000000
 IRadAn=      5 IRanWt=     -1 IRanGd=            0 ICorTp=0 IEmpDi=141
 NAtoms=   21 NActive=   21 NUniq=   21 SFac= 1.00D+00 NAtFMM=   60 NAOKFM=F Big=F
 Integral buffers will be    131072 words long.
 Raffenetti 2 integral format.
 Two-electron integral symmetry is turned on.
 R6Disp:  Grimme-D3(BJ) Dispersion energy=       -0.0407316181 Hartrees.
 Nuclear repulsion after empirical dispersion term =      897.6437541536 Hartrees.
 Leave Link  301 at Tue Sep 17 09:41:53 2024, MaxMem=  1342177280 cpu:               0.1 elap:               0.1
 (Enter /groups/ReismanLab/Software/Gaussian16_RevC/Linux_Binary_AVX2-enabled-CPU/g16/l302.exe)
 NPDir=0 NMtPBC=     1 NCelOv=     1 NCel=       1 NClECP=     1 NCelD=      1
         NCelK=      1 NCelE2=     1 NClLst=     1 CellRange=     0.0.
 One-electron integrals computed using PRISM.
 One-electron integral symmetry used in STVInt
 NBasis=   240 RedAO= T EigKep=  4.44D-04  NBF=   240
 NBsUse=   240 1.00D-06 EigRej= -1.00D+00 NBFU=   240
 Precomputing XC quadrature grid using
 IXCGrd= 4 IRadAn=           5 IRanWt=          -1 IRanGd=           0 AccXCQ= 0.00D+00.
 Generated NRdTot=       0 NPtTot=           0 NUsed=           0 NTot=          32
 NSgBfM=   237   237   237   237   237 MxSgAt=    21 MxSgA2=    21.
 Leave Link  302 at Tue Sep 17 09:41:53 2024, MaxMem=  1342177280 cpu:               1.1 elap:               0.2
 (Enter /groups/ReismanLab/Software/Gaussian16_RevC/Linux_Binary_AVX2-enabled-CPU/g16/l303.exe)
 DipDrv:  MaxL=1.
 Leave Link  303 at Tue Sep 17 09:41:53 2024, MaxMem=  1342177280 cpu:               0.1 elap:               0.0
 (Enter /groups/ReismanLab/Software/Gaussian16_RevC/Linux_Binary_AVX2-enabled-CPU/g16/l401.exe)
 Initial guess from the checkpoint file:  "smiles_00047_conf_2.chk"
 B after Tr=    -0.000000   -0.000000   -0.000000
         Rot=    0.999996    0.002608   -0.000343   -0.000926 Ang=   0.32 deg.
 Guess basis will be translated and rotated to current coordinates.
 JPrj=2 DoOrth=T DoCkMO=T.
 Generating alternative initial guess.
 ExpMin= 1.43D-01 ExpMax= 5.74D+05 ExpMxC= 5.74D+03 IAcc=3 IRadAn=         5 AccDes= 0.00D+00
 Harris functional with IExCor=  402 and IRadAn=       5 diagonalized for initial guess.
 HarFok:  IExCor=  402 AccDes= 0.00D+00 IRadAn=         5 IDoV= 1 UseB2=F ITyADJ=14
 ICtDFT=  3500011 ScaDFX=  1.000000  1.000000  1.000000  1.000000
 FoFCou: FMM=F IPFlag=           0 FMFlag=      100000 FMFlg1=           0
         NFxFlg=           0 DoJE=T BraDBF=F KetDBF=T FulRan=T
         wScrn=  0.000000 ICntrl=       500 IOpCl=  0 I1Cent=   200000004 NGrid=           0
         NMat0=    1 NMatS0=      1 NMatT0=    0 NMatD0=    1 NMtDS0=    0 NMtDT0=    0
 Petite list used in FoFCou.
 Harris En= -3070.71914417172    
 Leave Link  401 at Tue Sep 17 09:41:54 2024, MaxMem=  1342177280 cpu:               5.0 elap:               0.7
 (Enter /groups/ReismanLab/Software/Gaussian16_RevC/Linux_Binary_AVX2-enabled-CPU/g16/l502.exe)
 Integral symmetry usage will be decided dynamically.
 Closed shell SCF:
 Using DIIS extrapolation, IDIIS=  1040.
 NGot=  1342177280 LenX=  1342057097 LenY=  1341999056
 Requested convergence on RMS density matrix=1.00D-08 within  32 cycles.
 Requested convergence on MAX density matrix=1.00D-06.
 Requested convergence on             energy=1.00D-06.
 No special actions if energy rises.
 Fock matrices will be formed incrementally for  20 cycles.
 Integral accuracy reduced to 1.0D-05 until final iterations.

[...]
                 (A) (A) (A) (A) (A) (A) (A) (A) (A)
       Virtual   (A) (A) (A) (A) (A) (A) (A) (A) (A) (A) (A) (A)
                 (A) (A) (A) (A) (A) (A) (A) (A) (A) (A) (A) (A)
                 (A) (A) (A) (A) (A) (A) (A) (A) (A) (A) (A) (A)
                 (A) (A) (A) (A) (A) (A) (A) (A) (A) (A) (A) (A)
                 (A) (A) (A) (A) (A) (A) (A) (A) (A) (A) (A) (A)
                 (A) (A) (A) (A) (A) (A) (A) (A) (A) (A) (A) (A)
                 (A) (A) (A) (A) (A) (A) (A) (A) (A) (A) (A) (A)
                 (A) (A) (A) (A) (A) (A) (A) (A) (A) (A) (A) (A)
                 (A) (A) (A) (A) (A) (A) (A) (A) (A) (A) (A) (A)
                 (A) (A) (A) (A) (A) (A) (A) (A) (A) (A) (A) (A)
                 (A) (A) (A) (A) (A) (A) (A) (A) (A) (A) (A) (A)
                 (A) (A) (A) (A) (A) (A) (A) (A) (A) (A) (A) (A)
                 (A) (A) (A) (A) (A) (A) (A) (A) (A) (A) (A) (A)
                 (A) (A) (A) (A) (A) (A) (A) (A) (A) (A) (A) (A)
                 (A) (A) (A) (A) (A) (A) (A) (A) (A) (A) (A) (A)
                 (A) (A) (A) (A) (A) (A) (A) (A) (A) (A) (A) (A)
                 (A) (A) (A) (A) (A) (A) (A) (A) (A) (A) (A) (A)
                 (A) (A) (A) (A) (A) (A) (A) (A) (A) (A) (A) (A)
                 (A) (A) (A) (A) (A) (A) (A) (A) (A) (A) (A) (A)
                 (A) (A) (A) (A) (A) (A) (A) (A) (A) (A) (A) (A)
                 (A) (A) (A) (A) (A) (A) (A) (A) (A) (A) (A) (A)
                 (A) (A) (A) (A) (A) (A) (A) (A) (A) (A) (A) (A)
                 (A) (A) (A) (A) (A) (A) (A) (A) (A) (A) (A) (A)
                 (A) (A) (A) (A) (A) (A) (A) (A) (A) (A) (A) (A)
                 (A) (A) (A) (A) (A) (A) (A) (A) (A) (A) (A) (A)
                 (A) (A) (A) (A) (A) (A) (A) (A) (A) (A) (A) (A)
                 (A) (A) (A) (A) (A) (A) (A) (A) (A) (A) (A) (A)
                 (A) (A) (A) (A) (A) (A) (A) (A) (A) (A) (A) (A)
                 (A) (A) (A) (A) (A) (A) (A) (A) (A) (A) (A) (A)
                 (A) (A) (A) (A) (A) (A) (A) (A) (A) (A) (A) (A)
                 (A) (A) (A) (A) (A) (A) (A) (A) (A) (A) (A) (A)
                 (A) (A) (A) (A) (A) (A) (A) (A) (A) (A) (A) (A)
                 (A) (A)
 The electronic state is 1-A.
 Alpha  occ. eigenvalues -- -485.37515 -63.35996 -57.17940 -57.17705 -57.17699
 Alpha  occ. eigenvalues --  -19.67753 -19.62171 -10.67879 -10.60403 -10.58870
 Alpha  occ. eigenvalues --  -10.56743 -10.55947 -10.55798 -10.55745 -10.55545
 Alpha  occ. eigenvalues --  -10.55272  -9.02641  -6.85045  -6.84175  -6.84156
 Alpha  occ. eigenvalues --   -2.88421  -2.88106  -2.88082  -2.87272  -2.87272
 Alpha  occ. eigenvalues --   -1.23633  -1.14384  -0.98518  -0.91844  -0.87002
 Alpha  occ. eigenvalues --   -0.85707  -0.82224  -0.77615  -0.70805  -0.67580
 Alpha  occ. eigenvalues --   -0.65270  -0.59609  -0.58490  -0.57204  -0.55701
 Alpha  occ. eigenvalues --   -0.54397  -0.53249  -0.50182  -0.49533  -0.48448
 Alpha  occ. eigenvalues --   -0.47260  -0.45534  -0.44844  -0.43575  -0.41802
 Alpha  occ. eigenvalues --   -0.40885  -0.38186  -0.37839  -0.35891  -0.35163
 Alpha  occ. eigenvalues --   -0.32180  -0.29512
 Alpha virt. eigenvalues --    0.00275   0.00692   0.03583   0.04904   0.07720
 Alpha virt. eigenvalues --    0.09766   0.10464   0.10877   0.12311   0.13347
 Alpha virt. eigenvalues --    0.14137   0.14469   0.15516   0.16185   0.16540
 Alpha virt. eigenvalues --    0.17635   0.18019   0.19828   0.20807   0.21647
 Alpha virt. eigenvalues --    0.22964   0.23660   0.24257   0.24665   0.24804
 Alpha virt. eigenvalues --    0.26315   0.26815   0.27284   0.27844   0.29262
 Alpha virt. eigenvalues --    0.30419   0.31093   0.31387   0.32362   0.32826
 Alpha virt. eigenvalues --    0.33288   0.34457   0.34939   0.35288   0.36178
 Alpha virt. eigenvalues --    0.36871   0.38087   0.38301   0.40008   0.40542
 Alpha virt. eigenvalues --    0.40935   0.41124   0.42186   0.43581   0.44373
 Alpha virt. eigenvalues --    0.44741   0.45978   0.46671   0.47056   0.47665
 Alpha virt. eigenvalues --    0.48638   0.49379   0.49445   0.49690   0.50652
 Alpha virt. eigenvalues --    0.52950   0.53684   0.54197   0.55227   0.56688
 Alpha virt. eigenvalues --    0.57491   0.58005   0.58759   0.59421   0.60421
 Alpha virt. eigenvalues --    0.62549   0.63623   0.65148   0.66699   0.66982
 Alpha virt. eigenvalues --    0.69136   0.69425   0.71553   0.71982   0.72818
 Alpha virt. eigenvalues --    0.73920   0.75871   0.76674   0.77720   0.78799
 Alpha virt. eigenvalues --    0.80332   0.81042   0.84089   0.84548   0.86650
 Alpha virt. eigenvalues --    0.88296   0.89520   0.89684   0.90400   0.91993
 Alpha virt. eigenvalues --    0.93087   0.94002   0.96977   0.98453   0.99889
 Alpha virt. eigenvalues --    1.00183   1.02079   1.03317   1.04341   1.06396
 Alpha virt. eigenvalues --    1.06923   1.08717   1.09399   1.10788   1.11364
 Alpha virt. eigenvalues --    1.12998   1.15241   1.18536   1.19342   1.21524
 Alpha virt. eigenvalues --    1.23078   1.23662   1.25082   1.25407   1.26262
 Alpha virt. eigenvalues --    1.27303   1.29428   1.30234   1.33122   1.36371
 Alpha virt. eigenvalues --    1.38333   1.39192   1.39891   1.42196   1.42640
 Alpha virt. eigenvalues --    1.45023   1.45212   1.47435   1.48268   1.49425
 Alpha virt. eigenvalues --    1.50422   1.50932   1.51672   1.52981   1.53959
 Alpha virt. eigenvalues --    1.54824   1.56890   1.57073   1.57769   1.58052
 Alpha virt. eigenvalues --    1.58822   1.59759   1.60632   1.61805   1.63334
 Alpha virt. eigenvalues --    1.63825   1.65504   1.66364   1.66770   1.67099
 Alpha virt. eigenvalues --    1.67714   1.69085   1.71965   1.73378   1.73923
 Alpha virt. eigenvalues --    1.74804   1.75306   1.76575   1.77944   1.79305
 Alpha virt. eigenvalues --    1.82500   1.83265   1.85184   1.86091   1.88036
 Alpha virt. eigenvalues --    1.89027   1.92629   1.93029   1.93865   1.94021
 Alpha virt. eigenvalues --    1.94943   1.95868   1.99985   2.00124   2.04177
 Alpha virt. eigenvalues --    2.05941   2.06659   2.08145   2.10234   2.11220
 Alpha virt. eigenvalues --    2.13860   2.15820   2.17101   2.17660   2.18648
 Alpha virt. eigenvalues --    2.20129   2.21648   2.25656   2.26476   2.27930
 Alpha virt. eigenvalues --    2.28441   2.29717   2.33380   2.34021   2.36371
 Alpha virt. eigenvalues --    2.38268   2.40888   2.42708   2.43518   2.45154
 Alpha virt. eigenvalues --    2.47653   2.48754   2.51975   2.54473   2.55014
 Alpha virt. eigenvalues --    2.56278   2.57306   2.59248   2.60799   2.61092
 Alpha virt. eigenvalues --    2.62814   2.63073   2.64139   2.66671   2.68773
 Alpha virt. eigenvalues --    2.69144   2.71048   2.72029   2.72541   2.75847
 Alpha virt. eigenvalues --    2.77162   2.78047   2.78113   2.80780   2.81107
 Alpha virt. eigenvalues --    2.81762   2.83551   2.83769   2.84875   2.85916
 Alpha virt. eigenvalues --    2.87593   2.89653   2.91839   2.93540   2.96542
 Alpha virt. eigenvalues --    2.96649   2.97414   3.01380   3.02838   3.04309
 Alpha virt. eigenvalues --    3.05340   3.05714   3.06701   3.09428   3.10238
 Alpha virt. eigenvalues --    3.11096   3.12314   3.14102   3.15174   3.15373
 Alpha virt. eigenvalues --    3.16086   3.17615   3.20061   3.20502   3.22544
 Alpha virt. eigenvalues --    3.23460   3.23950   3.26101   3.26740   3.28057
 Alpha virt. eigenvalues --    3.29713   3.30223   3.32116   3.32846   3.34771
 Alpha virt. eigenvalues --    3.35089   3.37567   3.38644   3.39102   3.40297
 Alpha virt. eigenvalues --    3.41364   3.41988   3.43386   3.44672   3.45146
 Alpha virt. eigenvalues --    3.45887   3.46640   3.47701   3.49332   3.50834
 Alpha virt. eigenvalues --    3.52304   3.53821   3.55350   3.57019   3.58278
 Alpha virt. eigenvalues --    3.58988   3.60212   3.62460   3.66621   3.66979
 Alpha virt. eigenvalues --    3.74466   3.75185   3.76182   3.78625   3.80941
 Alpha virt. eigenvalues --    3.84566   3.86507   3.87737   3.92650   3.97649
 Alpha virt. eigenvalues --    3.98750   4.01927   4.03160   4.05642   4.07104
 Alpha virt. eigenvalues --    4.09133   4.11488   4.13805   4.15185   4.16505
 Alpha virt. eigenvalues --    4.17332   4.17994   4.19520   4.21967   4.22470
 Alpha virt. eigenvalues --    4.22924   4.25805   4.27130   4.30286   4.34449
 Alpha virt. eigenvalues --    4.37060   4.38542   4.39460   4.42703   4.46235
 Alpha virt. eigenvalues --    4.48560   4.50933   4.53106   4.56540   4.60452
 Alpha virt. eigenvalues --    4.61755   4.63990   4.72445   4.77027   4.81174
 Alpha virt. eigenvalues --    4.82582   4.85208   4.91509   4.92794   5.09672
 Alpha virt. eigenvalues --    5.13183   5.18806   5.22773   5.28583   5.30647
 Alpha virt. eigenvalues --    5.33623   5.41561   5.41916   5.49762   5.53163
 Alpha virt. eigenvalues --    5.61823   5.66639   5.81070   5.95752   6.02031
 Alpha virt. eigenvalues --    6.10681   6.16683   6.36030   6.37123   6.49882
 Alpha virt. eigenvalues --    6.63351   6.64255   6.76295   6.79550   6.87084
 Alpha virt. eigenvalues --    6.97702   7.09654   7.21390   7.34639   7.85121
 Alpha virt. eigenvalues --   22.08931  22.41247  22.60998  22.72878  22.76159
 Alpha virt. eigenvalues --   22.80851  22.88321  23.27323  23.39878  44.03766
 Alpha virt. eigenvalues --   44.23878
          Condensed to atoms (all electrons):
               1          2          3          4          5          6
     1  C    4.876082   0.203159  -0.053880   0.001494   0.008479  -0.000405
     2  O    0.203159   7.977225   0.350483  -0.084567  -0.091050   0.001280
     3  C   -0.053880   0.350483   4.482256   0.623416   0.301982  -0.007852
     4  O    0.001494  -0.084567   0.623416   7.885845  -0.073719  -0.029586
     5  C    0.008479  -0.091050   0.301982  -0.073719   5.223371   0.282457
     6  C   -0.000405   0.001280  -0.007852  -0.029586   0.282457   5.060894
     7  C   -0.000022   0.000449  -0.004069   0.012315  -0.079845   0.403651
     8  C   -0.000028   0.000099   0.002288   0.000363   0.007465  -0.016494
     9  C    0.000009   0.000053   0.000183   0.000190  -0.004133  -0.071065
    10  Br  -0.000000  -0.000000   0.000007   0.000000  -0.000071  -0.005925
    11  C   -0.000003  -0.000316  -0.001197  -0.000077   0.015936  -0.012287
    12  C   -0.000055   0.002395   0.001979   0.000790  -0.067823   0.457532
    13  H    0.394835  -0.029361   0.005296   0.001871   0.000692   0.000241
    14  H    0.417337  -0.035533  -0.005666   0.004632  -0.001023  -0.000396
    15  H    0.421243  -0.033216  -0.009502   0.003302   0.000105  -0.000074
    16  H   -0.000514   0.003187  -0.045473   0.000499   0.423408  -0.037473
    17  H   -0.000134   0.006593  -0.032677   0.004795   0.421971  -0.055347
    18  H   -0.000087   0.000667  -0.004395   0.015098   0.001027  -0.032764
    19  H    0.000000  -0.000001   0.000002  -0.000047   0.000025   0.007667
    20  H    0.000000  -0.000005  -0.000006  -0.000000   0.000072   0.006896
    21  H   -0.000003  -0.000026  -0.000483   0.000007  -0.004885  -0.031713
               7          8          9         10         11         12
     1  C   -0.000022  -0.000028   0.000009  -0.000000  -0.000003  -0.000055
     2  O    0.000449   0.000099   0.000053  -0.000000  -0.000316   0.002395
     3  C   -0.004069   0.002288   0.000183   0.000007  -0.001197   0.001979
     4  O    0.012315   0.000363   0.000190   0.000000  -0.000077   0.000790
     5  C   -0.079845   0.007465  -0.004133  -0.000071   0.015936  -0.067823
     6  C    0.403651  -0.016494  -0.071065  -0.005925  -0.012287   0.457532
     7  C    5.137924   0.394981   0.029090   0.023590  -0.098466   0.000956
     8  C    0.394981   5.131581   0.394502  -0.103621   0.030155  -0.098579
     9  C    0.029090   0.394502   4.911317   0.366688   0.400500   0.029978
    10  Br   0.023590  -0.103621   0.366688  34.930705  -0.101309   0.022673
    11  C   -0.098466   0.030155   0.400500  -0.101309   5.135790   0.380752
    12  C    0.000956  -0.098579   0.029978   0.022673   0.380752   5.090299
    13  H   -0.000063   0.000000  -0.000001  -0.000000  -0.000000  -0.000010
    14  H    0.000485  -0.000051   0.000012   0.000000  -0.000020   0.000131
    15  H   -0.000081   0.000002  -0.000000  -0.000000  -0.000001   0.000003
    16  H   -0.010642  -0.000670   0.000468  -0.000002  -0.001180   0.006158
    17  H    0.013183  -0.000450   0.000059   0.000001   0.001575  -0.008873
    18  H    0.393023  -0.018040   0.002308  -0.000221  -0.000646   0.005998
    19  H   -0.033227   0.419763  -0.047785  -0.007946   0.011740  -0.003181
    20  H   -0.003802   0.012613  -0.046225  -0.007392   0.420389  -0.035551
    21  H    0.007987  -0.000623   0.002105  -0.000293  -0.025741   0.402646
              13         14         15         16         17         18
     1  C    0.394835   0.417337   0.421243  -0.000514  -0.000134  -0.000087
     2  O   -0.029361  -0.035533  -0.033216   0.003187   0.006593   0.000667
     3  C    0.005296  -0.005666  -0.009502  -0.045473  -0.032677  -0.004395
     4  O    0.001871   0.004632   0.003302   0.000499   0.004795   0.015098
     5  C    0.000692  -0.001023   0.000105   0.423408   0.421971   0.001027
     6  C    0.000241  -0.000396  -0.000074  -0.037473  -0.055347  -0.032764
     7  C   -0.000063   0.000485  -0.000081  -0.010642   0.013183   0.393023
     8  C    0.000000  -0.000051   0.000002  -0.000670  -0.000450  -0.018040
     9  C   -0.000001   0.000012  -0.000000   0.000468   0.000059   0.002308
    10  Br  -0.000000   0.000000  -0.000000  -0.000002   0.000001  -0.000221
    11  C   -0.000000  -0.000020  -0.000001  -0.001180   0.001575  -0.000646
    12  C   -0.000010   0.000131   0.000003   0.006158  -0.008873   0.005998
    13  H    0.516786  -0.022220  -0.024352  -0.000003  -0.000307  -0.000003
    14  H   -0.022220   0.521843  -0.040942  -0.000039   0.000112   0.000043
    15  H   -0.024352  -0.040942   0.523377   0.000127  -0.000070  -0.000024
    16  H   -0.000003  -0.000039   0.000127   0.485157  -0.016889   0.000640
    17  H   -0.000307   0.000112  -0.000070  -0.016889   0.493584   0.000344
    18  H   -0.000003   0.000043  -0.000024   0.000640   0.000344   0.450096
    19  H    0.000000  -0.000001   0.000000  -0.000022   0.000001  -0.002778
    20  H    0.000000   0.000000  -0.000000  -0.000000  -0.000049   0.000038
    21  H    0.000003   0.000003  -0.000001   0.000309   0.000667  -0.000163
              19         20         21
     1  C    0.000000   0.000000  -0.000003
     2  O   -0.000001  -0.000005  -0.000026
     3  C    0.000002  -0.000006  -0.000483
     4  O   -0.000047  -0.000000   0.000007
     5  C    0.000025   0.000072  -0.004885
     6  C    0.007667   0.006896  -0.031713
     7  C   -0.033227  -0.003802   0.007987
     8  C    0.419763   0.012613  -0.000623
     9  C   -0.047785  -0.046225   0.002105
    10  Br  -0.007946  -0.007392  -0.000293
    11  C    0.011740   0.420389  -0.025741
    12  C   -0.003181  -0.035551   0.402646
    13  H    0.000000   0.000000   0.000003
    14  H   -0.000001   0.000000   0.000003
    15  H    0.000000  -0.000000  -0.000001
    16  H   -0.000022  -0.000000   0.000309
    17  H    0.000001  -0.000049   0.000667
    18  H   -0.002778   0.000038  -0.000163
    19  H    0.473677   0.000051   0.000056
    20  H    0.000051   0.475508  -0.002663
    21  H    0.000056  -0.002663   0.483998
 Mulliken charges:
               1
     1  C   -0.267507
     2  O   -0.271517
     3  C    0.397306
     4  O   -0.366620
     5  C   -0.364443
     6  C    0.080764
     7  C   -0.187417
     8  C   -0.155255
     9  C    0.031747
    10  Br  -0.116885
    11  C   -0.155593
    12  C   -0.188218
    13  H    0.156594
    14  H    0.161292
    15  H    0.160103
    16  H    0.192954
    17  H    0.171911
    18  H    0.189839
    19  H    0.182004
    20  H    0.180126
    21  H    0.168814
 Sum of Mulliken charges =   0.00000
 Mulliken charges with hydrogens summed into heavy atoms:
               1
     1  C    0.210482
     2  O   -0.271517
     3  C    0.397306
     4  O   -0.366620
     5  C    0.000422
     6  C    0.080764
     7  C    0.002423
     8  C    0.026749
     9  C    0.031747
    10  Br  -0.116885
    11  C    0.024534
    12  C   -0.019403
 Electronic spatial extent (au):  <R**2>=           4326.6830
 Charge=              0.0000 electrons
 Dipole moment (field-independent basis, Debye):
    X=             -2.2319    Y=             -2.0012    Z=             -0.3543  Tot=              3.0185
 Quadrupole moment (field-independent basis, Debye-Ang):
   XX=            -81.6241   YY=            -80.6667   ZZ=            -80.5200
   XY=              5.6713   XZ=              4.4778   YZ=             -1.1943
 Traceless Quadrupole moment (field-independent basis, Debye-Ang):
   XX=             -0.6872   YY=              0.2702   ZZ=              0.4169
   XY=              5.6713   XZ=              4.4778   YZ=             -1.1943
 Octapole moment (field-independent basis, Debye-Ang**2):
  XXX=             26.0184  YYY=             -3.5878  ZZZ=            -21.1761  XYY=             43.1449
  XXY=            -16.0822  XXZ=            -37.1060  XZZ=              3.3772  YZZ=              4.2773
  YYZ=             -4.9272  XYZ=             10.6235
 Hexadecapole moment (field-independent basis, Debye-Ang**3):
 XXXX=          -3842.2730 YYYY=           -430.6462 ZZZZ=           -385.1507 XXXY=             71.7071
 XXXZ=            116.5567 YYYX=             39.3712 YYYZ=              4.3456 ZZZX=             -8.4255
 ZZZY=              2.0359 XXYY=           -810.0319 XXZZ=           -674.3009 YYZZ=           -145.6333
 XXYZ=            -28.5088 YYXZ=             -6.1958 ZZXY=              8.3199
 N-N= 8.955860678709D+02 E-N=-9.106856578451D+03  KE= 3.067091916210D+03
 Calculating spin-rotation constants.
 Leave Link  601 at Tue Sep 17 10:47:00 2024, MaxMem=  1342177280 cpu:               5.0 elap:               5.0
 (Enter /groups/ReismanLab/Software/Gaussian16_RevC/Linux_Binary_AVX2-enabled-CPU/g16/l9999.exe)
 Unable to Open any file for archive entry.
 1\1\GINC-HPC-93-07\SP\RM062X\def2TZVP\C9H9Br1O2\MANTIND\17-Sep-2024\0\
 \#p M062X/def2tzvp geom=check guess=read scf(xqc,tight) integral(grid=
 ultrafine) scrf(SMD, solvent=1,4-Dioxane) nmr=giao\\spe\\0,1\C,0,4.699
 9592347,-1.6387887803,0.8719724644\O,0,3.9495558405,-1.0094562918,-0.1
 815543287\C,0,3.5127441617,0.2354282097,0.0944819403\O,0,3.7383554376,
 0.81521124,1.1351346176\C,0,2.6652649924,0.7885774627,-1.036176237\C,0
 ,1.1901453967,0.6030979288,-0.7308294808\C,0,0.6247369658,1.1942575493
 ,0.4059510952\C,0,-0.7265905247,1.0295130954,0.6980872184\C,0,-1.51692
 15697,0.2637945121,-0.1570508637\Br,0,-3.3735172775,0.0357099195,0.234
 8201447\C,0,-0.9787774547,-0.3384471238,-1.2898752468\C,0,0.3773250705
 ,-0.1655340368,-1.5674202159\H,0,4.972308589,-2.6224143842,0.491548545
 3\H,0,4.0890781733,-1.72872872,1.7730928851\H,0,5.5926496338,-1.055053
 0519,1.1076156763\H,0,2.9025666478,1.8529960144,-1.1239853654\H,0,2.92
 51257992,0.2910489153,-1.972035858\H,0,1.2545905877,1.7747568103,1.072
 2752118\H,0,-1.162893687,1.4878778149,1.577703912\H,0,-1.6069212101,-0
 .9332149572,-1.9423931744\H,0,0.8036685292,-0.6360657817,-2.4485103725
 \\Version=ES64L-G16RevC.02\State=1-A\HF=-3073.0246393\RMSD=5.086e-09\D
 ipole=0.8619512,-0.4898223,-0.6538173\Quadrupole=-0.9852228,0.220375,0
 .7648478,-4.6640297,-2.6375197,-0.5808731\PG=C01 [X(C9H9Br1O2)]\\@
 The archive entry for this job was punched.


 THE RARE EARTHS PERPLEX US IN OUR RESEARCHES,
 BAFFLE US IN OUR SPECULATIONS, AND HAUNT US IN OUR
 VERY DREAMS.  THEY STRETCH LIKE AN UNKNOWN BEFORE US,
 MOCKING, MYSTIFYING, AND MURMURING STRANGE REVELATIONS
 AND POSSIBILITIES.  -- SIR WILLIAM CROOKE, 1832-1919
 Job cpu time:       0 days  0 hours 15 minutes 37.2 seconds.
 Elapsed time:       0 days  0 hours 15 minutes 42.0 seconds.
 File lengths (MBytes):  RWF=    288 Int=      0 D2E=      0 Chk=     32 Scr=     16
 Normal termination of Gaussian 16 at Tue Sep 17 10:47:01 2024.
