 Entering Gaussian System, Link 0=g16
 Input=smiles_00001_conf_0.gjf
 Output=smiles_00001_conf_0.log
 Initial command:
 /groups/ReismanLab/Software/Gaussian16_RevC/Linux_Binary_AVX2-enabled-CPU/g16/l1.exe "/central/groups/ReismanLab/DM/dft_final/smiles_00001/Gau-1075879.inp" -scrdir="/central/groups/ReismanLab/DM/dft_final/smiles_00001/"
 Entering Link 1 = /groups/ReismanLab/Software/Gaussian16_RevC/Linux_Binary_AVX2-enabled-CPU/g16/l1.exe PID=   1075881.
  
 Copyright (c) 1988-2021, Gaussian, Inc.  All Rights Reserved.
  
 This is part of the Gaussian(R) 16 program.  It is based on
 the Gaussian(R) 09 system (copyright 2009, Gaussian, Inc.),
 the Gaussian(R) 03 system (copyright 2003, Gaussian, Inc.),
 the Gaussian(R) 98 system (copyright 1998, Gaussian, Inc.),
 the Gaussian(R) 94 system (copyright 1995, Gaussian, Inc.),
 the Gaussian 92(TM) system (copyright 1992, Gaussian, Inc.),
 the Gaussian 90(TM) system (copyright 1990, Gaussian, Inc.),
 the Gaussian 88(TM) system (copyright 1988, Gaussian, Inc.),
 the Gaussian 86(TM) system (copyright 1986, Carnegie Mellon
 University), and the Gaussian 82(TM) system (copyright 1983,
 Carnegie Mellon University). Gaussian is a federally registered
 trademark of Gaussian, Inc.
  
 This software contains proprietary and confidential information,
 including trade secrets, belonging to Gaussian, Inc.
  
 This software is provided under written license and may be
 used, copied, transmitted, or stored only in accord with that
 written license.
  
 The following legend is applicable only to US Government
 contracts under FAR:
  
                    RESTRICTED RIGHTS LEGEND
  
 Use, reproduction and disclosure by the US Government is
 subject to restrictions as set forth in subparagraphs (a)
 and (c) of the Commercial Computer Software - Restricted
 Rights clause in FAR 52.227-19.
  
 Gaussian, Inc.
 340 Quinnipiac St., Bldg. 40, Wallingford CT 06492
  
  
 ---------------------------------------------------------------
 Warning -- This program may not be used in any manner that
 competes with the business of Gaussian, Inc. or will provide
 assistance to any competitor of Gaussian, Inc.  The licensee
 of this program is prohibited from giving any competitor of
 Gaussian, Inc. access to this program.  By using this program,
 the user acknowledges that Gaussian, Inc. is engaged in the
 business of creating and licensing software in the field of
 computational chemistry and represents and warrants to the
 licensee that it is not a competitor of Gaussian, Inc. and that
 it will not use this program in any manner prohibited above.
 ---------------------------------------------------------------
  

 Cite this work as:
 Gaussian 16, Revision C.02,
 M. J. Frisch, G. W. Trucks, H. B. Schlegel, G. E. Scuseria, 
 M. A. Robb, J. R. Cheeseman, G. Scalmani, V. Barone, 
 G. A. Petersson, H. Nakatsuji, X. Li, M. Caricato, A. V. Marenich, 
 J. Bloino, B. G. Janesko, R. Gomperts, B. Mennucci, H. P. Hratchian, 
 J. V. Ortiz, A. F. Izmaylov, J. L. Sonnenberg, D. Williams-Young, 
 F. Ding, F. Lipparini, F. Egidi, J. Goings, B. Peng, A. Petrone, 
 T. Henderson, D. Ranasinghe, V. G. Zakrzewski, J. Gao, N. Rega, 
 G. Zheng, W. Liang, M. Hada, M. Ehara, K. Toyota, R. Fukuda, 
 J. Hasegawa, M. Ishida, T. Nakajima, Y. Honda, O. Kitao, H. Nakai, 
 T. Vreven, K. Throssell, J. A. Montgomery, Jr., J. E. Peralta, 
 F. Ogliaro, M. J. Bearpark, J. J. Heyd, E. N. Brothers, K. N. Kudin, 
 V. N. Staroverov, T. A. Keith, R. Kobayashi, J. Normand, 
 K. Raghavachari, A. P. Rendell, J. C. Burant, S. S. Iyengar, 
 J. Tomasi, M. Cossi, J. M. Millam, M. Klene, C. Adamo, R. Cammi, 
 J. W. Ochterski, R. L. Martin, K. Morokuma, O. Farkas, 
 J. B. Foresman, and D. J. Fox, Gaussian, Inc., Wallingford CT, 2019.
 
 ******************************************
 Gaussian 16:  ES64L-G16RevC.02  7-Dec-2021
                17-Sep-2024 
 ******************************************
 %nprocshared=8
 Will use up to    8 processors via shared memory.
 %Mem=10GB
 %Chk=smiles_00001_conf_0.chk
 ----------------------------------------------------------------------
 #p B3LYP/6-31G(d,p) EmpiricalDispersion=GD3BJ opt freq scf(xqc,tight) 
 integral(grid=ultrafine)
 ----------------------------------------------------------------------
 1/18=20,19=15,26=4,38=1/1,3;
 2/9=110,12=2,17=6,18=5,40=1/2;
 3/5=1,6=6,7=101,11=2,25=1,30=1,71=1,74=-5,75=-5,124=41/1,2,3;
 4//1;
 5/5=2,8=3,13=1,32=2,38=5/2,8;
 6/7=2,8=2,9=2,10=2,28=1/1;
 7//1,2,3,16;
 1/18=20,19=15,26=4/3(2);
 2/9=110/2;
 99//99;
 2/9=110/2;
 3/5=1,6=6,7=101,11=2,25=1,30=1,71=1,74=-5,75=-5,124=41/1,2,3;
 4/5=5,16=3,69=1/1;
 5/5=2,8=3,13=1,32=2,38=5/2,8;
 7//1,2,3,16;
 1/18=20,19=15,26=4/3(-5);
 2/9=110/2;
 6/7=2,8=2,9=2,10=2,19=2,28=1/1;
 99/9=1/99;
 Leave Link    1 at Tue Sep 17 09:54:18 2024, MaxMem=  1342177280 cpu:               0.1 elap:               1.0
 (Enter /groups/ReismanLab/Software/Gaussian16_RevC/Linux_Binary_AVX2-enabled-CPU/g16/l101.exe)
 ----------------------------------
 opt-freq conformers_unique/conf_aa
 ----------------------------------
 Symbolic Z-matrix:
 Charge =  0 Multiplicity = 1
 Cl                    3.7688   -0.00005  -0.0003 
 C                     2.07299   0.00004   0.00009 
 N                     1.47589  -1.17974   0.00031 
 C                     0.15815  -1.18696   0.00034 
 C                    -0.56809   0.0001    0.00018 
 Br                   -2.45531  -0.00003  -0.00013 
 C                     0.1581    1.1871    0.00044 
 N                     1.47593   1.17977   0.00026 
 H                    -0.32019  -2.15697   0.0005 
 H                    -0.32001   2.15731   0.00027 
 
 ITRead=  0  0  0  0  0  0  0  0  0  0
 MicOpt= -1 -1 -1 -1 -1 -1 -1 -1 -1 -1
 NAtoms=     10 NQM=       10 NQMF=       0 NMMI=      0 NMMIF=      0
                NMic=       0 NMicF=      0.
                    Isotopes and Nuclear Properties:
 (Nuclear quadrupole moments (NQMom) in fm**2, nuclear magnetic moments (NMagM)
  in nuclear magnetons)

  Atom         1           2           3           4           5           6           7           8           9          10
 IAtWgt=          35          12          14          12          12          79          12          14           1           1
 AtmWgt=  34.9688527  12.0000000  14.0030740  12.0000000  12.0000000  78.9183361  12.0000000  14.0030740   1.0078250   1.0078250
 NucSpn=           3           0           2           0           0           3           0           2           1           1
 AtZEff=  -0.0000000  -0.0000000  -0.0000000  -0.0000000  -0.0000000  -0.0000000  -0.0000000  -0.0000000  -0.0000000  -0.0000000
 NQMom=   -8.1650000   0.0000000   2.0440000   0.0000000   0.0000000  31.3000000   0.0000000   2.0440000   0.0000000   0.0000000
 NMagM=    0.8218740   0.0000000   0.4037610   0.0000000   0.0000000   2.1063990   0.0000000   0.4037610   2.7928460   2.7928460
 AtZNuc=  17.0000000   6.0000000   7.0000000   6.0000000   6.0000000  35.0000000   6.0000000   7.0000000   1.0000000   1.0000000
 Leave Link  101 at Tue Sep 17 09:54:19 2024, MaxMem=  1342177280 cpu:               0.5 elap:               0.4
 (Enter /groups/ReismanLab/Software/Gaussian16_RevC/Linux_Binary_AVX2-enabled-CPU/g16/l103.exe)

 GradGradGradGradGradGradGradGradGradGradGradGradGradGradGradGradGradGrad
 Berny optimization.
 Initialization pass.
                           ----------------------------
                           !    Initial Parameters    !
                           ! (Angstroms and Degrees)  !
 --------------------------                            --------------------------
 ! Name  Definition              Value          Derivative Info.                !
 --------------------------------------------------------------------------------
 ! R1    R(1,2)                  1.6958         estimate D2E/DX2                !
 ! R2    R(2,3)                  1.3223         estimate D2E/DX2                !
 ! R3    R(2,8)                  1.3222         estimate D2E/DX2                !
 ! R4    R(3,4)                  1.3178         estimate D2E/DX2                !
 ! R5    R(4,5)                  1.3916         estimate D2E/DX2                !
 ! R6    R(4,9)                  1.0815         estimate D2E/DX2                !
 ! R7    R(5,6)                  1.8872         estimate D2E/DX2                !
 ! R8    R(5,7)                  1.3915         estimate D2E/DX2                !
 ! R9    R(7,8)                  1.3178         estimate D2E/DX2                !
 ! R10   R(7,10)                 1.0816         estimate D2E/DX2                !
 ! A1    A(1,2,3)              116.8409         estimate D2E/DX2                !
 ! A2    A(1,2,8)              116.8473         estimate D2E/DX2                !
 ! A3    A(3,2,8)              126.3118         estimate D2E/DX2                !
 ! A4    A(2,3,4)              117.1578         estimate D2E/DX2                !
 ! A5    A(3,4,5)              121.1447         estimate D2E/DX2                !
 ! A6    A(3,4,9)              116.5626         estimate D2E/DX2                !
 ! A7    A(5,4,9)              122.2927         estimate D2E/DX2                !
 ! A8    A(4,5,6)              121.4542         estimate D2E/DX2                !
 ! A9    A(4,5,7)              117.0836         estimate D2E/DX2                !
 ! A10   A(6,5,7)              121.4622         estimate D2E/DX2                !
 ! A11   A(5,7,8)              121.1395         estimate D2E/DX2                !
 ! A12   A(5,7,10)             122.3079         estimate D2E/DX2                !
 ! A13   A(8,7,10)             116.5526         estimate D2E/DX2                !
 ! A14   A(2,8,7)              117.1626         estimate D2E/DX2                !
 ! D1    D(1,2,3,4)           -179.9863         estimate D2E/DX2                !
 ! D2    D(8,2,3,4)              0.0195         estimate D2E/DX2                !
 ! D3    D(1,2,8,7)            179.9943         estimate D2E/DX2                !
 ! D4    D(3,2,8,7)             -0.0115         estimate D2E/DX2                !
 ! D5    D(2,3,4,5)             -0.0016         estimate D2E/DX2                !
 ! D6    D(2,3,4,9)            179.9983         estimate D2E/DX2                !
 ! D7    D(3,4,5,6)            179.9876         estimate D2E/DX2                !
 ! D8    D(3,4,5,7)             -0.0212         estimate D2E/DX2                !
 ! D9    D(9,4,5,6)             -0.0123         estimate D2E/DX2                !
 ! D10   D(9,4,5,7)            179.9788         estimate D2E/DX2                !
 ! D11   D(4,5,7,8)              0.0294         estimate D2E/DX2                !
 ! D12   D(4,5,7,10)           179.9953         estimate D2E/DX2                !
 ! D13   D(6,5,7,8)           -179.9794         estimate D2E/DX2                !
 ! D14   D(6,5,7,10)            -0.0136         estimate D2E/DX2                !
 ! D15   D(5,7,8,2)             -0.0141         estimate D2E/DX2                !
 ! D16   D(10,7,8,2)          -179.9818         estimate D2E/DX2                !
 --------------------------------------------------------------------------------
 Trust Radius=3.00D-01 FncErr=1.00D-07 GrdErr=1.00D-06 EigMax=2.50D+02 EigMin=1.00D-04
 Number of steps in this run=     50 maximum allowed number of steps=    100.
 GradGradGradGradGradGradGradGradGradGradGradGradGradGradGradGradGradGrad

 Leave Link  103 at Tue Sep 17 09:54:19 2024, MaxMem=  1342177280 cpu:               0.0 elap:               0.0
 (Enter /groups/ReismanLab/Software/Gaussian16_RevC/Linux_Binary_AVX2-enabled-CPU/g16/l202.exe)
                          Input orientation:                          
 ---------------------------------------------------------------------
 Center     Atomic      Atomic             Coordinates (Angstroms)
 Number     Number       Type             X           Y           Z
 ---------------------------------------------------------------------
      1         17           0        3.768805   -0.000054   -0.000302
      2          6           0        2.072990    0.000044    0.000092
      3          7           0        1.475894   -1.179744    0.000314
      4          6           0        0.158149   -1.186956    0.000341
      5          6           0       -0.568095    0.000105    0.000177
      6         35           0       -2.455313   -0.000029   -0.000134
      7          6           0        0.158104    1.187101    0.000444
      8          7           0        1.475929    1.179773    0.000255
      9          1           0       -0.320188   -2.156970    0.000495
     10          1           0       -0.320014    2.157312    0.000269
 ---------------------------------------------------------------------
                    Distance matrix (angstroms):
                    1          2          3          4          5
     1  Cl   0.000000
     2  C    1.695815   0.000000
     3  N    2.578587   1.322280   0.000000
     4  C    3.800733   2.252906   1.317765   0.000000
     5  C    4.336900   2.641085   2.360071   1.391597   0.000000
     6  Br   6.224117   4.528303   4.104401   2.870362   1.887218
     7  C    3.800855   2.252974   2.708971   2.374056   1.391519
     8  N    2.578618   1.322211   2.359517   2.708865   2.360011
     9  H    4.623003   3.221803   2.044721   1.081543   2.171274
    10  H    4.623058   3.221843   3.789621   3.378279   2.171425
                    6          7          8          9         10
     6  Br   0.000000
     7  C    2.870405   0.000000
     8  N    4.104460   1.317845   0.000000
     9  H    3.034988   3.378102   3.789445   0.000000
    10  H    3.035395   1.081622   2.044748   4.314282   0.000000
 Stoichiometry    C4H2BrClN2
 Framework group  C1[X(C4H2BrClN2)]
 Deg. of freedom    24
 Full point group                 C1      NOp   1
 Largest Abelian subgroup         C1      NOp   1
 Largest concise Abelian subgroup C1      NOp   1
                         Standard orientation:                         
 ---------------------------------------------------------------------
 Center     Atomic      Atomic             Coordinates (Angstroms)
 Number     Number       Type             X           Y           Z
 ---------------------------------------------------------------------
      1         17           0        3.670075   -0.000057   -0.000316
      2          6           0        1.974260    0.000041    0.000079
      3          7           0        1.377164   -1.179748    0.000301
      4          6           0        0.059419   -1.186960    0.000328
      5          6           0       -0.666825    0.000101    0.000164
      6         35           0       -2.554043   -0.000034   -0.000148
      7          6           0        0.059374    1.187097    0.000431
      8          7           0        1.377198    1.179770    0.000242
      9          1           0       -0.418918   -2.156974    0.000482
     10          1           0       -0.418745    2.157308    0.000255
 ---------------------------------------------------------------------
 Rotational constants (GHZ):           6.1499573           0.4637743           0.4312531
 Leave Link  202 at Tue Sep 17 09:54:19 2024, MaxMem=  1342177280 cpu:               0.0 elap:               0.0
 (Enter /groups/ReismanLab/Software/Gaussian16_RevC/Linux_Binary_AVX2-enabled-CPU/g16/l301.exe)
 Standard basis: 6-31G(d,p) (6D, 7F)
 Ernie: Thresh=  0.10000D-02 Tol=  0.10000D-05 Strict=F.
 There are   149 symmetry adapted cartesian basis functions of A   symmetry.
 There are   149 symmetry adapted basis functions of A   symmetry.
   149 basis functions,   317 primitive gaussians,   149 cartesian basis functions
    46 alpha electrons       46 beta electrons
       nuclear repulsion energy       603.6906641609 Hartrees.
 IExCor=  402 DFT=T Ex+Corr=B3LYP ExCW=0 ScaHFX=  0.200000
 ScaDFX=  0.800000  0.720000  1.000000  0.810000 ScalE2=  1.000000  1.000000
 IRadAn=      5 IRanWt=     -1 IRanGd=            0 ICorTp=0 IEmpDi=141
 NAtoms=   10 NActive=   10 NUniq=   10 SFac= 1.00D+00 NAtFMM=   60 NAOKFM=F Big=F
 Integral buffers will be    131072 words long.
 Raffenetti 2 integral format.
 Two-electron integral symmetry is turned on.
 R6Disp:  Grimme-D3(BJ) Dispersion energy=       -0.0230877830 Hartrees.
 Nuclear repulsion after empirical dispersion term =      603.6675763778 Hartrees.
 Leave Link  301 at Tue Sep 17 09:54:19 2024, MaxMem=  1342177280 cpu:               0.1 elap:               0.0
 (Enter /groups/ReismanLab/Software/Gaussian16_RevC/Linux_Binary_AVX2-enabled-CPU/g16/l302.exe)
 NPDir=0 NMtPBC=     1 NCelOv=     1 NCel=       1 NClECP=     1 NCelD=      1
         NCelK=      1 NCelE2=     1 NClLst=     1 CellRange=     0.0.
 One-electron integrals computed using PRISM.
 One-electron integral symmetry used in STVInt
 NBasis=   149 RedAO= T EigKep=  7.53D-04  NBF=   149
 NBsUse=   149 1.00D-06 EigRej= -1.00D+00 NBFU=   149
 Precomputing XC quadrature grid using
 IXCGrd= 4 IRadAn=           5 IRanWt=          -1 IRanGd=           0 AccXCQ= 0.00D+00.
 Generated NRdTot=       0 NPtTot=           0 NUsed=           0 NTot=          32
 NSgBfM=   148   148   148   148   148 MxSgAt=    10 MxSgA2=    10.
 Leave Link  302 at Tue Sep 17 09:54:19 2024, MaxMem=  1342177280 cpu:               0.8 elap:               0.2
 (Enter /groups/ReismanLab/Software/Gaussian16_RevC/Linux_Binary_AVX2-enabled-CPU/g16/l303.exe)
 DipDrv:  MaxL=1.
 Leave Link  303 at Tue Sep 17 09:54:19 2024, MaxMem=  1342177280 cpu:               0.1 elap:               0.0
 (Enter /groups/ReismanLab/Software/Gaussian16_RevC/Linux_Binary_AVX2-enabled-CPU/g16/l401.exe)
 ExpMin= 1.43D-01 ExpMax= 5.74D+05 ExpMxC= 5.74D+03 IAcc=3 IRadAn=         5 AccDes= 0.00D+00
 Harris functional with IExCor=  402 and IRadAn=       5 diagonalized for initial guess.
 HarFok:  IExCor=  402 AccDes= 0.00D+00 IRadAn=         5 IDoV= 1 UseB2=F ITyADJ=14
 ICtDFT=  3500011 ScaDFX=  1.000000  1.000000  1.000000  1.000000
 FoFCou: FMM=F IPFlag=           0 FMFlag=      100000 FMFlg1=           0
         NFxFlg=           0 DoJE=T BraDBF=F KetDBF=T FulRan=T
         wScrn=  0.000000 ICntrl=       500 IOpCl=  0 I1Cent=   200000004 NGrid=           0
         NMat0=    1 NMatS0=      1 NMatT0=    0 NMatD0=    1 NMtDS0=    0 NMtDT0=    0
 Petite list used in FoFCou.
 Harris En= -3295.04523361349    
 JPrj=0 DoOrth=F DoCkMO=F.
 Leave Link  401 at Tue Sep 17 09:54:19 2024, MaxMem=  1342177280 cpu:               2.5 elap:               0.4
 (Enter /groups/ReismanLab/Software/Gaussian16_RevC/Linux_Binary_AVX2-enabled-CPU/g16/l502.exe)
 Keep R1 ints in memory in canonical form, NReq=70257700.
 FoFCou: FMM=F IPFlag=           0 FMFlag=           0 FMFlg1=           0
         NFxFlg=           0 DoJE=F BraDBF=F KetDBF=F FulRan=T
         wScrn=  0.000000 ICntrl=       600 IOpCl=  0 I1Cent=           0 NGrid=           0
         NMat0=    1 NMatS0=  11175 NMatT0=    0 NMatD0=    1 NMtDS0=    0 NMtDT0=    0
 Symmetry not used in FoFCou.
 Two-electron integral symmetry not used.
 Closed shell SCF:
 Using DIIS extrapolation, IDIIS=  1040.
 NGot=  1342177280 LenX=  1279684010 LenY=  1279661368
 Requested convergence on RMS density matrix=1.00D-08 within  32 cycles.
 Requested convergence on MAX density matrix=1.00D-06.
 Requested convergence on             energy=1.00D-06.
 No special actions if energy rises.
 Integral accuracy reduced to 1.0D-05 until final iterations.

 Cycle   1  Pass 0  IDiag  1:
 E= -3294.92267912298    
 DIIS: error= 2.14D-01 at cycle   1 NSaved=   1.
 NSaved= 1 IEnMin= 1 EnMin= -3294.92267912298     IErMin= 1 ErrMin= 2.14D-01
 ErrMax= 2.14D-01  0.00D+00 EMaxC= 1.00D-01 BMatC= 4.83D-01 BMatP= 4.83D-01
 IDIUse=3 WtCom= 0.00D+00 WtEn= 1.00D+00
 Coeff-Com:  0.100D+01
 Coeff-En:   0.100D+01
 Coeff:      0.100D+01
 Gap=     0.324 Goal=   None    Shift=    0.000
 GapD=    0.324 DampG=1.000 DampE=0.250 DampFc=0.2500 IDamp=-1.
 Damping current iteration by 2.50D-01
 RMSDP=6.30D-03 MaxDP=1.44D-01              OVMax= 2.43D-01

 Cycle   2  Pass 0  IDiag  1:
 E= -3294.96593692804     Delta-E=       -0.043257805059 Rises=F Damp=T
 DIIS: error= 1.58D-01 at cycle   2 NSaved=   2.
 NSaved= 2 IEnMin= 2 EnMin= -3294.96593692804     IErMin= 2 ErrMin= 1.58D-01
 ErrMax= 1.58D-01  0.00D+00 EMaxC= 1.00D-01 BMatC= 2.23D-01 BMatP= 4.83D-01
 IDIUse=3 WtCom= 0.00D+00 WtEn= 1.00D+00
 Coeff-Com: -0.149D+01 0.249D+01
 Coeff-En:   0.000D+00 0.100D+01
 Coeff:      0.000D+00 0.100D+01
 Gap=     0.197 Goal=   None    Shift=    0.000
 RMSDP=3.21D-03 MaxDP=1.09D-01 DE=-4.33D-02 OVMax= 9.62D-02

 Cycle   3  Pass 0  IDiag  1:
 E= -3295.01748917398     Delta-E=       -0.051552245947 Rises=F Damp=F
 DIIS: error= 1.36D-02 at cycle   3 NSaved=   3.
 NSaved= 3 IEnMin= 3 EnMin= -3295.01748917398     IErMin= 3 ErrMin= 1.36D-02
 ErrMax= 1.36D-02  0.00D+00 EMaxC= 1.00D-01 BMatC= 2.88D-02 BMatP= 2.23D-01
 IDIUse=3 WtCom= 8.64D-01 WtEn= 1.36D-01
 Coeff-Com:  0.138D+01-0.178D+01 0.140D+01
 Coeff-En:   0.142D+00 0.000D+00 0.858D+00
 Coeff:      0.121D+01-0.154D+01 0.133D+01
 Gap=     0.227 Goal=   None    Shift=    0.000
 RMSDP=1.66D-03 MaxDP=3.78D-02 DE=-5.16D-02 OVMax= 4.80D-02

 Cycle   4  Pass 0  IDiag  1:
 E= -3295.03962272006     Delta-E=       -0.022133546079 Rises=F Damp=F
 DIIS: error= 5.82D-03 at cycle   4 NSaved=   4.
 NSaved= 4 IEnMin= 4 EnMin= -3295.03962272006     IErMin= 4 ErrMin= 5.82D-03
 ErrMax= 5.82D-03  0.00D+00 EMaxC= 1.00D-01 BMatC= 4.53D-03 BMatP= 2.88D-02
 IDIUse=3 WtCom= 9.42D-01 WtEn= 5.82D-02
 Coeff-Com:  0.787D+00-0.103D+01 0.820D+00 0.422D+00
 Coeff-En:   0.000D+00 0.000D+00 0.274D-01 0.973D+00
 Coeff:      0.741D+00-0.968D+00 0.774D+00 0.454D+00
 Gap=     0.207 Goal=   None    Shift=    0.000
 RMSDP=6.95D-04 MaxDP=1.61D-02 DE=-2.21D-02 OVMax= 2.92D-02

 Cycle   5  Pass 0  IDiag  1:
 E= -3295.04383565566     Delta-E=       -0.004212935597 Rises=F Damp=F
 DIIS: error= 2.21D-03 at cycle   5 NSaved=   5.
 NSaved= 5 IEnMin= 5 EnMin= -3295.04383565566     IErMin= 5 ErrMin= 2.21D-03
 ErrMax= 2.21D-03  0.00D+00 EMaxC= 1.00D-01 BMatC= 4.17D-04 BMatP= 4.53D-03
 IDIUse=3 WtCom= 9.78D-01 WtEn= 2.21D-02
 Coeff-Com:  0.228D+00-0.300D+00 0.241D+00 0.261D+00 0.571D+00
 Coeff-En:   0.000D+00 0.000D+00 0.000D+00 0.666D-01 0.933D+00
 Coeff:      0.223D+00-0.293D+00 0.235D+00 0.257D+00 0.579D+00
 Gap=     0.209 Goal=   None    Shift=    0.000
 RMSDP=1.63D-04 MaxDP=3.53D-03 DE=-4.21D-03 OVMax= 1.08D-02

 Cycle   6  Pass 0  IDiag  1:
 E= -3295.04421544110     Delta-E=       -0.000379785442 Rises=F Damp=F
 DIIS: error= 5.31D-04 at cycle   6 NSaved=   6.
 NSaved= 6 IEnMin= 6 EnMin= -3295.04421544110     IErMin= 6 ErrMin= 5.31D-04
 ErrMax= 5.31D-04  0.00D+00 EMaxC= 1.00D-01 BMatC= 3.57D-05 BMatP= 4.17D-04
 IDIUse=3 WtCom= 9.95D-01 WtEn= 5.31D-03
 Coeff-Com:  0.664D-01-0.879D-01 0.695D-01 0.110D+00 0.341D+00 0.500D+00
 Coeff-En:   0.000D+00 0.000D+00 0.000D+00 0.000D+00 0.134D-01 0.987D+00
 Coeff:      0.661D-01-0.875D-01 0.692D-01 0.110D+00 0.339D+00 0.503D+00
 Gap=     0.205 Goal=   None    Shift=    0.000
 RMSDP=4.69D-05 MaxDP=1.01D-03 DE=-3.80D-04 OVMax= 2.13D-03

 Cycle   7  Pass 0  IDiag  1:
 E= -3295.04424999238     Delta-E=       -0.000034551275 Rises=F Damp=F
 DIIS: error= 7.36D-05 at cycle   7 NSaved=   7.
 NSaved= 7 IEnMin= 7 EnMin= -3295.04424999238     IErMin= 7 ErrMin= 7.36D-05
 ErrMax= 7.36D-05  0.00D+00 EMaxC= 1.00D-01 BMatC= 8.45D-07 BMatP= 3.57D-05
 IDIUse=1 WtCom= 1.00D+00 WtEn= 0.00D+00
 Coeff-Com:  0.814D-02-0.109D-01 0.779D-02 0.187D-01 0.838D-01 0.191D+00
 Coeff-Com:  0.701D+00
 Coeff:      0.814D-02-0.109D-01 0.779D-02 0.187D-01 0.838D-01 0.191D+00
 Coeff:      0.701D+00
 Gap=     0.205 Goal=   None    Shift=    0.000
 RMSDP=8.61D-06 MaxDP=1.78D-04 DE=-3.46D-05 OVMax= 3.17D-04

 Initial convergence to 1.0D-05 achieved.  Increase integral accuracy.
 Cycle   8  Pass 1  IDiag  1:
 E= -3295.04428463264     Delta-E=       -0.000034640264 Rises=F Damp=F
 DIIS: error= 3.14D-05 at cycle   1 NSaved=   1.
 NSaved= 1 IEnMin= 1 EnMin= -3295.04428463264     IErMin= 1 ErrMin= 3.14D-05
 ErrMax= 3.14D-05  0.00D+00 EMaxC= 1.00D-01 BMatC= 1.46D-07 BMatP= 1.46D-07
 IDIUse=1 WtCom= 1.00D+00 WtEn= 0.00D+00
 Coeff-Com:  0.100D+01
 Coeff:      0.100D+01
 Gap=     0.205 Goal=   None    Shift=    0.000
 RMSDP=8.61D-06 MaxDP=1.78D-04 DE=-3.46D-05 OVMax= 2.31D-04

 Cycle   9  Pass 1  IDiag  1:
 E= -3295.04428443828     Delta-E=        0.000000194365 Rises=F Damp=F
 DIIS: error= 5.18D-05 at cycle   2 NSaved=   2.
 NSaved= 2 IEnMin= 1 EnMin= -3295.04428463264     IErMin= 1 ErrMin= 3.14D-05
 ErrMax= 5.18D-05  0.00D+00 EMaxC= 1.00D-01 BMatC= 3.48D-07 BMatP= 1.46D-07
 IDIUse=1 WtCom= 1.00D+00 WtEn= 0.00D+00
 Coeff-Com:  0.610D+00 0.390D+00
 Coeff:      0.610D+00 0.390D+00
 Gap=     0.205 Goal=   None    Shift=    0.000
 RMSDP=3.73D-06 MaxDP=1.49D-04 DE= 1.94D-07 OVMax= 1.59D-04

 Cycle  10  Pass 1  IDiag  1:
 E= -3295.04428477421     Delta-E=       -0.000000335934 Rises=F Damp=F
 DIIS: error= 7.03D-06 at cycle   3 NSaved=   3.
 NSaved= 3 IEnMin= 3 EnMin= -3295.04428477421     IErMin= 3 ErrMin= 7.03D-06
 ErrMax= 7.03D-06  0.00D+00 EMaxC= 1.00D-01 BMatC= 4.65D-09 BMatP= 1.46D-07
 IDIUse=1 WtCom= 1.00D+00 WtEn= 0.00D+00
 Coeff-Com:  0.259D+00 0.185D+00 0.556D+00
 Coeff:      0.259D+00 0.185D+00 0.556D+00
 Gap=     0.205 Goal=   None    Shift=    0.000
 RMSDP=7.14D-07 MaxDP=1.57D-05 DE=-3.36D-07 OVMax= 4.24D-05

 Cycle  11  Pass 1  IDiag  1:
 E= -3295.04428477731     Delta-E=       -0.000000003096 Rises=F Damp=F
 DIIS: error= 5.30D-06 at cycle   4 NSaved=   4.
 NSaved= 4 IEnMin= 4 EnMin= -3295.04428477731     IErMin= 4 ErrMin= 5.30D-06
 ErrMax= 5.30D-06  0.00D+00 EMaxC= 1.00D-01 BMatC= 1.70D-09 BMatP= 4.65D-09
 IDIUse=1 WtCom= 1.00D+00 WtEn= 0.00D+00
 Coeff-Com:  0.314D-01 0.329D-01 0.381D+00 0.555D+00
 Coeff:      0.314D-01 0.329D-01 0.381D+00 0.555D+00
 Gap=     0.205 Goal=   None    Shift=    0.000
 RMSDP=3.40D-07 MaxDP=7.32D-06 DE=-3.10D-09 OVMax= 1.94D-05

 Cycle  12  Pass 1  IDiag  1:
 E= -3295.04428477898     Delta-E=       -0.000000001669 Rises=F Damp=F
 DIIS: error= 6.85D-07 at cycle   5 NSaved=   5.
 NSaved= 5 IEnMin= 5 EnMin= -3295.04428477898     IErMin= 5 ErrMin= 6.85D-07
 ErrMax= 6.85D-07  0.00D+00 EMaxC= 1.00D-01 BMatC= 8.28D-11 BMatP= 1.70D-09
 IDIUse=1 WtCom= 1.00D+00 WtEn= 0.00D+00
 Coeff-Com: -0.364D-02 0.285D-02 0.151D+00 0.289D+00 0.561D+00
 Coeff:     -0.364D-02 0.285D-02 0.151D+00 0.289D+00 0.561D+00
 Gap=     0.205 Goal=   None    Shift=    0.000
 RMSDP=1.04D-07 MaxDP=3.22D-06 DE=-1.67D-09 OVMax= 2.44D-06

 Cycle  13  Pass 1  IDiag  1:
 E= -3295.04428477906     Delta-E=       -0.000000000083 Rises=F Damp=F
 DIIS: error= 1.50D-07 at cycle   6 NSaved=   6.
 NSaved= 6 IEnMin= 6 EnMin= -3295.04428477906     IErMin= 6 ErrMin= 1.50D-07
 ErrMax= 1.50D-07  0.00D+00 EMaxC= 1.00D-01 BMatC= 4.16D-12 BMatP= 8.28D-11
 IDIUse=1 WtCom= 1.00D+00 WtEn= 0.00D+00
 Coeff-Com: -0.317D-02-0.534D-04 0.561D-01 0.118D+00 0.281D+00 0.548D+00
 Coeff:     -0.317D-02-0.534D-04 0.561D-01 0.118D+00 0.281D+00 0.548D+00
 Gap=     0.205 Goal=   None    Shift=    0.000
 RMSDP=1.94D-08 MaxDP=5.76D-07 DE=-8.28D-11 OVMax= 6.33D-07

 Cycle  14  Pass 1  IDiag  1:
 E= -3295.04428477904     Delta-E=        0.000000000019 Rises=F Damp=F
 DIIS: error= 2.15D-08 at cycle   7 NSaved=   7.
 NSaved= 7 IEnMin= 6 EnMin= -3295.04428477906     IErMin= 7 ErrMin= 2.15D-08
 ErrMax= 2.15D-08  0.00D+00 EMaxC= 1.00D-01 BMatC= 8.30D-14 BMatP= 4.16D-12
 IDIUse=1 WtCom= 1.00D+00 WtEn= 0.00D+00
 Coeff-Com: -0.690D-03-0.199D-03 0.774D-02 0.184D-01 0.487D-01 0.172D+00
 Coeff-Com:  0.754D+00
 Coeff:     -0.690D-03-0.199D-03 0.774D-02 0.184D-01 0.487D-01 0.172D+00
 Coeff:      0.754D+00
 Gap=     0.205 Goal=   None    Shift=    0.000
 RMSDP=3.81D-09 MaxDP=8.87D-08 DE= 1.91D-11 OVMax= 1.79D-07

 SCF Done:  E(RB3LYP) =  -3295.04428478     A.U. after   14 cycles
            NFock= 14  Conv=0.38D-08     -V/T= 2.0059
 KE= 3.275740397978D+03 PE=-9.044976672388D+03 EE= 1.870524413253D+03
 Leave Link  502 at Tue Sep 17 09:54:24 2024, MaxMem=  1342177280 cpu:              24.0 elap:               4.2
 (Enter /groups/ReismanLab/Software/Gaussian16_RevC/Linux_Binary_AVX2-enabled-CPU/g16/l508.exe)
 QCSCF skips out because SCF is already converged.
 Leave Link  508 at Tue Sep 17 09:54:24 2024, MaxMem=  1342177280 cpu:               0.0 elap:               0.0
 (Enter /groups/ReismanLab/Software/Gaussian16_RevC/Linux_Binary_AVX2-enabled-CPU/g16/l601.exe)
 Copying SCF densities to generalized density rwf, IOpCl= 0 IROHF=0.

 **********************************************************************

            Population analysis using the SCF Density.

 **********************************************************************

 Orbital symmetries:
       Occupied  (A) (A) (A) (A) (A) (A) (A) (A) (A) (A) (A) (A)
                 (A) (A) (A) (A) (A) (A) (A) (A) (A) (A) (A) (A)
                 (A) (A) (A) (A) (A) (A) (A) (A) (A) (A) (A) (A)
                 (A) (A) (A) (A) (A) (A) (A) (A) (A) (A)
       Virtual   (A) (A) (A) (A) (A) (A) (A) (A) (A) (A) (A) (A)
                 (A) (A) (A) (A) (A) (A) (A) (A) (A) (A) (A) (A)
                 (A) (A) (A) (A) (A) (A) (A) (A) (A) (A) (A) (A)
                 (A) (A) (A) (A) (A) (A) (A) (A) (A) (A) (A) (A)
                 (A) (A) (A) (A) (A) (A) (A) (A) (A) (A) (A) (A)
                 (A) (A) (A) (A) (A) (A) (A) (A) (A) (A) (A) (A)
                 (A) (A) (A) (A) (A) (A) (A) (A) (A) (A) (A) (A)
                 (A) (A) (A) (A) (A) (A) (A) (A) (A) (A) (A) (A)
                 (A) (A) (A) (A) (A) (A) (A)
 The electronic state is 1-A.
 Alpha  occ. eigenvalues -- -482.93947-101.56180 -61.90115 -56.42265 -56.41833
 Alpha  occ. eigenvalues --  -56.41826 -14.36870 -14.36869 -10.32756 -10.27686
 Alpha  occ. eigenvalues --  -10.27125 -10.27122  -9.47987  -8.61266  -7.24379
 Alpha  occ. eigenvalues --   -7.23437  -7.23313  -6.56698  -6.55370  -6.55340
 Alpha  occ. eigenvalues --   -2.68266  -2.67885  -2.67862  -2.66802  -2.66802
 Alpha  occ. eigenvalues --   -1.03796  -0.93095  -0.89507  -0.84578  -0.75917
 Alpha  occ. eigenvalues --   -0.69945  -0.65921  -0.56258  -0.55029  -0.47564
 Alpha  occ. eigenvalues --   -0.46335  -0.45768  -0.44171  -0.38254  -0.35038
 Alpha  occ. eigenvalues --   -0.33785  -0.33044  -0.33043  -0.31859  -0.27353
 Alpha  occ. eigenvalues --   -0.27019
 Alpha virt. eigenvalues --   -0.06516  -0.05346  -0.01224   0.04610   0.10348
 Alpha virt. eigenvalues --    0.12425   0.13964   0.18593   0.21743   0.25420
 Alpha virt. eigenvalues --    0.28603   0.31314   0.32378   0.35455   0.38884
 Alpha virt. eigenvalues --    0.41619   0.42851   0.43769   0.43852   0.43928
 Alpha virt. eigenvalues --    0.44542   0.45681   0.46577   0.47866   0.51955
 Alpha virt. eigenvalues --    0.52613   0.57008   0.57241   0.57297   0.60156
 Alpha virt. eigenvalues --    0.62210   0.65221   0.71357   0.72267   0.76012
 Alpha virt. eigenvalues --    0.76056   0.77279   0.77345   0.81491   0.81695
 Alpha virt. eigenvalues --    0.82094   0.86210   0.86566   0.88052   0.90009
 Alpha virt. eigenvalues --    0.95034   0.99671   1.00455   1.08871   1.10756
 Alpha virt. eigenvalues --    1.13162   1.15917   1.18940   1.20449   1.21718
 Alpha virt. eigenvalues --    1.34799   1.37100   1.40417   1.47137   1.50083
 Alpha virt. eigenvalues --    1.52966   1.55953   1.59413   1.59987   1.74978
 Alpha virt. eigenvalues --    1.78236   1.82445   1.83952   1.85300   2.01794
 Alpha virt. eigenvalues --    2.02642   2.05967   2.06363   2.16364   2.21581
 Alpha virt. eigenvalues --    2.23634   2.29155   2.34439   2.38030   2.40509
 Alpha virt. eigenvalues --    2.48614   2.50895   2.53947   2.55709   2.57969
 Alpha virt. eigenvalues --    2.67442   2.71283   2.71405   2.92735   2.93340
 Alpha virt. eigenvalues --    3.13861   3.20228   3.35692   3.57822   3.96836
 Alpha virt. eigenvalues --    3.98233   4.12034   4.24458   4.25066   4.35214
 Alpha virt. eigenvalues --    4.53232   8.57771  72.76969
          Condensed to atoms (all electrons):
               1          2          3          4          5          6
     1  Cl  16.806312   0.301927  -0.090934   0.005025   0.000464   0.000012
     2  C    0.301927   4.791237   0.411896  -0.066460  -0.040121   0.000675
     3  N   -0.090934   0.411896   6.757587   0.466863  -0.022965   0.004184
     4  C    0.005025  -0.066460   0.466863   4.763061   0.447498  -0.051001
     5  C    0.000464  -0.040121  -0.022965   0.447498   5.061596   0.247554
     6  Br   0.000012   0.000675   0.004184  -0.051001   0.247554  34.927255
     7  C    0.005023  -0.066462  -0.038909  -0.045211   0.447538  -0.051001
     8  N   -0.090925   0.411973  -0.059052  -0.038906  -0.022964   0.004183
     9  H   -0.000196   0.005807  -0.049760   0.396255  -0.068521   0.001671
    10  H   -0.000195   0.005806  -0.000465   0.003649  -0.068502   0.001668
               7          8          9         10
     1  Cl   0.005023  -0.090925  -0.000196  -0.000195
     2  C   -0.066462   0.411973   0.005807   0.005806
     3  N   -0.038909  -0.059052  -0.049760  -0.000465
     4  C   -0.045211  -0.038906   0.396255   0.003649
     5  C    0.447538  -0.022964  -0.068521  -0.068502
     6  Br  -0.051001   0.004183   0.001671   0.001668
     7  C    4.763138   0.466806   0.003652   0.396250
     8  N    0.466806   6.757562  -0.000464  -0.049766
     9  H    0.003652  -0.000464   0.572681  -0.000148
    10  H    0.396250  -0.049766  -0.000148   0.572668
 Mulliken charges:
               1
     1  Cl   0.063487
     2  C    0.243719
     3  N   -0.378446
     4  C    0.119227
     5  C    0.018424
     6  Br  -0.085199
     7  C    0.119175
     8  N   -0.378446
     9  H    0.139024
    10  H    0.139035
 Sum of Mulliken charges =  -0.00000
 Mulliken charges with hydrogens summed into heavy atoms:
               1
     1  Cl   0.063487
     2  C    0.243719
     3  N   -0.378446
     4  C    0.258251
     5  C    0.018424
     6  Br  -0.085199
     7  C    0.258210
     8  N   -0.378446
 Electronic spatial extent (au):  <R**2>=           2130.6383
 Charge=             -0.0000 electrons
 Dipole moment (field-independent basis, Debye):
    X=             -2.1441    Y=              0.0002    Z=              0.0002  Tot=              2.1441
 Quadrupole moment (field-independent basis, Debye-Ang):
   XX=            -67.7879   YY=            -63.7346   ZZ=            -63.7205
   XY=              0.0001   XZ=             -0.0004   YZ=             -0.0001
 Traceless Quadrupole moment (field-independent basis, Debye-Ang):
   XX=             -2.7069   YY=              1.3464   ZZ=              1.3605
   XY=              0.0001   XZ=             -0.0004   YZ=             -0.0001
 Octapole moment (field-independent basis, Debye-Ang**2):
  XXX=            -76.3085  YYY=              0.0020  ZZZ=             -0.0059  XYY=            -34.1382
  XXY=             -0.0029  XXZ=             -0.0064  XZZ=            -19.9731  YZZ=             -0.0008
  YYZ=             -0.0013  XYZ=              0.0006
 Hexadecapole moment (field-independent basis, Debye-Ang**3):
 XXXX=          -1935.0053 YYYY=           -270.2669 ZZZZ=            -65.1285 XXXY=              0.0007
 XXXZ=              0.0072 YYYX=              0.0016 YYYZ=             -0.0018 ZZZX=              0.0109
 ZZZY=              0.0003 XXYY=           -410.4981 XXZZ=           -354.1902 YYZZ=            -58.9155
 XXYZ=              0.0005 YYXZ=             -0.0002 ZZXY=              0.0007
 N-N= 6.036675763778D+02 E-N=-9.044976672176D+03  KE= 3.275740397978D+03
 No NMR shielding tensors so no spin-rotation constants.
 Leave Link  601 at Tue Sep 17 09:54:24 2024, MaxMem=  1342177280 cpu:               0.6 elap:               0.1
 (Enter /groups/ReismanLab/Software/Gaussian16_RevC/Linux_Binary_AVX2-enabled-CPU/g16/l701.exe)
 ... and contract with generalized density number  0.
 Compute integral first derivatives.
 R6Disp: Adding Grimme-D3(BJ) dispersion energy 1st derivatives to the gradient.
 Leave Link  701 at Tue Sep 17 09:54:24 2024, MaxMem=  1342177280 cpu:               0.6 elap:               0.1
 (Enter /groups/ReismanLab/Software/Gaussian16_RevC/Linux_Binary_AVX2-enabled-CPU/g16/l702.exe)
 L702 exits ... SP integral derivatives will be done elsewhere.
 Leave Link  702 at Tue Sep 17 09:54:24 2024, MaxMem=  1342177280 cpu:               0.1 elap:               0.0
 (Enter /groups/ReismanLab/Software/Gaussian16_RevC/Linux_Binary_AVX2-enabled-CPU/g16/l703.exe)
 Integral derivatives from FoFJK, PRISM(SPDF).
 Compute integral first derivatives, UseDBF=F ICtDFT=           0.
 Calling FoFJK, ICntrl=      2127 FMM=F ISym2X=0 I1Cent= 0 IOpClX= 0 NMat=1 NMatS=1 NMatT=0.
 FoFJK:  IHMeth= 1 ICntrl=    2127 DoSepK=F KAlg= 0 I1Cent=           0 FoldK=F
 IRaf=         0 NMat=       1 IRICut=       1 DoRegI=T DoRafI=F ISym2E= 0 IDoP0=0 IntGTp=1.
 FoFCou: FMM=F IPFlag=           0 FMFlag=      100000 FMFlg1=         800
         NFxFlg=           0 DoJE=F BraDBF=F KetDBF=F FulRan=T
         wScrn=  0.000000 ICntrl=      2127 IOpCl=  0 I1Cent=           0 NGrid=           0
         NMat0=    1 NMatS0=      1 NMatT0=    0 NMatD0=    1 NMtDS0=    0 NMtDT0=    0
 Symmetry not used in FoFCou.
 Leave Link  703 at Tue Sep 17 09:54:26 2024, MaxMem=  1342177280 cpu:              10.9 elap:               1.5
 (Enter /groups/ReismanLab/Software/Gaussian16_RevC/Linux_Binary_AVX2-enabled-CPU/g16/l716.exe)
 Dipole        =-8.43564642D-01 7.21887819D-05 6.81913593D-05
 ***** Axes restored to original set *****
 -------------------------------------------------------------------
 Center     Atomic                   Forces (Hartrees/Bohr)
 Number     Number              X              Y              Z
 -------------------------------------------------------------------
      1       17           0.024564776    0.000004028   -0.000006615
      2        6          -0.017474128   -0.000026308    0.000021264
      3        7           0.015100935   -0.012051608   -0.000006810
      4        6          -0.011248277    0.000786059   -0.000002427
      5        6          -0.003913358   -0.000023073    0.000026147
      6       35          -0.002577144    0.000003862    0.000002217
      7        6          -0.011185236   -0.000710259   -0.000058701
      8        7           0.015058385    0.012078402    0.000008916
      9        1          -0.004166827   -0.002117327   -0.000002888
     10        1          -0.004159126    0.002056224    0.000018897
 -------------------------------------------------------------------
 Cartesian Forces:  Max     0.024564776 RMS     0.008109224
 Leave Link  716 at Tue Sep 17 09:54:26 2024, MaxMem=  1342177280 cpu:               0.0 elap:               0.0
 (Enter /groups/ReismanLab/Software/Gaussian16_RevC/Linux_Binary_AVX2-enabled-CPU/g16/l103.exe)

 GradGradGradGradGradGradGradGradGradGradGradGradGradGradGradGradGradGrad
 Berny optimization.
 FormGI is forming the generalized inverse of G from B-inverse, IUseBI=4.
 Internal  Forces:  Max     0.024564777 RMS     0.006488783
 Search for a local minimum.
 Step number   1 out of a maximum of   50
 All quantities printed in internal units (Hartrees-Bohrs-Radians)
 RMS Force = .64888D-02 SwitMx=.10000D-02 MixMth= 1
 Mixed Optimization -- RFO/linear search
 Second derivative matrix not updated -- first step.
 ITU=  0
     Eigenvalues ---    0.02200   0.02278   0.02357   0.02403   0.02633
     Eigenvalues ---    0.02720   0.02738   0.16000   0.16000   0.18890
     Eigenvalues ---    0.23198   0.23426   0.25000   0.25000   0.25000
     Eigenvalues ---    0.35799   0.35809   0.36399   0.44513   0.46139
     Eigenvalues ---    0.57799   0.58338   0.61602   0.62481
 RFO step:  Lambda=-3.65100008D-03 EMin= 2.20042642D-02
 Linear search not attempted -- first point.
 Iteration  1 RMS(Cart)=  0.02023395 RMS(Int)=  0.00010500
 Iteration  2 RMS(Cart)=  0.00011588 RMS(Int)=  0.00001294
 Iteration  3 RMS(Cart)=  0.00000001 RMS(Int)=  0.00001294
 ITry= 1 IFail=0 DXMaxC= 8.90D-02 DCOld= 1.00D+10 DXMaxT= 3.00D-01 DXLimC= 3.00D+00 Rises=F
 Variable       Old X    -DE/DX   Delta X   Delta X   Delta X     New X
                                 (Linear)    (Quad)   (Total)
    R1        3.20463   0.02456   0.00000   0.06682   0.06682   3.27144
    R2        2.49875   0.01132   0.00000   0.01926   0.01928   2.51803
    R3        2.49862   0.01134   0.00000   0.01929   0.01930   2.51792
    R4        2.49021   0.01864   0.00000   0.02966   0.02966   2.51988
    R5        2.62974   0.00381   0.00000   0.00689   0.00687   2.63661
    R6        2.04382   0.00374   0.00000   0.01034   0.01034   2.05416
    R7        3.56632   0.00258   0.00000   0.01338   0.01338   3.57971
    R8        2.62959   0.00384   0.00000   0.00695   0.00693   2.63652
    R9        2.49037   0.01860   0.00000   0.02960   0.02960   2.51996
   R10        2.04397   0.00368   0.00000   0.01018   0.01018   2.05415
    A1        2.03926  -0.00043   0.00000  -0.00349  -0.00350   2.03576
    A2        2.03937  -0.00045   0.00000  -0.00356  -0.00357   2.03580
    A3        2.20456   0.00089   0.00000   0.00704   0.00707   2.21163
    A4        2.04479  -0.00306   0.00000  -0.00959  -0.00957   2.03522
    A5        2.11437   0.00196   0.00000   0.00589   0.00587   2.12025
    A6        2.03440   0.00188   0.00000   0.01454   0.01455   2.04895
    A7        2.13441  -0.00384   0.00000  -0.02043  -0.02043   2.11398
    A8        2.11978  -0.00065   0.00000  -0.00015  -0.00013   2.11965
    A9        2.04349   0.00132   0.00000   0.00035   0.00032   2.04381
   A10        2.11992  -0.00067   0.00000  -0.00020  -0.00019   2.11973
   A11        2.11428   0.00198   0.00000   0.00596   0.00594   2.12022
   A12        2.13468  -0.00387   0.00000  -0.02060  -0.02059   2.11408
   A13        2.03423   0.00190   0.00000   0.01464   0.01465   2.04888
   A14        2.04487  -0.00307   0.00000  -0.00965  -0.00963   2.03524
    D1       -3.14135  -0.00000   0.00000  -0.00006  -0.00006  -3.14142
    D2        0.00034  -0.00001   0.00000  -0.00032  -0.00032   0.00002
    D3        3.14149  -0.00000   0.00000  -0.00015  -0.00015   3.14134
    D4       -0.00020   0.00000   0.00000   0.00011   0.00011  -0.00010
    D5       -0.00003   0.00000   0.00000   0.00005   0.00005   0.00003
    D6        3.14156   0.00000   0.00000   0.00015   0.00015  -3.14147
    D7        3.14138   0.00001   0.00000   0.00022   0.00022  -3.14159
    D8       -0.00037   0.00001   0.00000   0.00038   0.00037   0.00000
    D9       -0.00022   0.00000   0.00000   0.00012   0.00012  -0.00010
   D10        3.14122   0.00001   0.00000   0.00028   0.00028   3.14150
   D11        0.00051  -0.00002   0.00000  -0.00059  -0.00060  -0.00008
   D12        3.14151   0.00001   0.00000   0.00031   0.00030  -3.14137
   D13       -3.14123  -0.00001   0.00000  -0.00044  -0.00044   3.14151
   D14       -0.00024   0.00001   0.00000   0.00047   0.00046   0.00023
   D15       -0.00025   0.00001   0.00000   0.00037   0.00037   0.00012
   D16       -3.14127  -0.00001   0.00000  -0.00048  -0.00049   3.14142
         Item               Value     Threshold  Converged?
 Maximum Force            0.024565     0.000450     NO 
 RMS     Force            0.006489     0.000300     NO 
 Maximum Displacement     0.089016     0.001800     NO 
 RMS     Displacement     0.020222     0.001200     NO 
 Predicted change in Energy=-1.841807D-03
 Lowest energy point so far.  Saving SCF results.
 GradGradGradGradGradGradGradGradGradGradGradGradGradGradGradGradGradGrad

 Leave Link  103 at Tue Sep 17 09:54:26 2024, MaxMem=  1342177280 cpu:               0.1 elap:               0.0
 (Enter /groups/ReismanLab/Software/Gaussian16_RevC/Linux_Binary_AVX2-enabled-CPU/g16/l202.exe)
                          Input orientation:                          
 ---------------------------------------------------------------------
 Center     Atomic      Atomic             Coordinates (Angstroms)
 Number     Number       Type             X           Y           Z
 ---------------------------------------------------------------------
      1         17           0        3.815910   -0.000018   -0.000084
      2          6           0        2.084737    0.000046    0.000199
      3          7           0        1.487225   -1.190958    0.000234
      4          6           0        0.153764   -1.190190    0.000243
      5          6           0       -0.574168    0.000101    0.000187
      6         35           0       -2.468469    0.000054    0.000201
      7          6           0        0.153779    1.190328    0.000116
      8          7           0        1.487287    1.191018    0.000195
      9          1           0       -0.346975   -2.155003    0.000387
     10          1           0       -0.346830    2.155203    0.000276
 ---------------------------------------------------------------------
                    Distance matrix (angstroms):
                    1          2          3          4          5
     1  Cl   0.000000
     2  C    1.731173   0.000000
     3  N    2.615551   1.332483   0.000000
     4  C    3.850691   2.268329   1.333461   0.000000
     5  C    4.390078   2.658905   2.380748   1.395234   0.000000
     6  Br   6.284379   4.553206   4.131104   2.879720   1.894300
     7  C    3.850731   2.268341   2.729212   2.380517   1.395187
     8  N    2.615541   1.332427   2.381976   2.729182   2.380732
     9  H    4.687598   3.249225   2.072119   1.087017   2.167046
    10  H    4.687578   3.249188   3.815829   3.382639   2.167060
                    6          7          8          9         10
     6  Br   0.000000
     7  C    2.879746   0.000000
     8  N    4.131150   1.333508   0.000000
     9  H    3.024071   3.382602   3.815806   0.000000
    10  H    3.024238   1.087011   2.072109   4.310206   0.000000
 Stoichiometry    C4H2BrClN2
 Framework group  C1[X(C4H2BrClN2)]
 Deg. of freedom    24
 Full point group                 C1      NOp   1
 RotChk:  IX=0 Diff= 1.29D-05
 Largest Abelian subgroup         C1      NOp   1
 Largest concise Abelian subgroup C1      NOp   1
                         Standard orientation:                         
 ---------------------------------------------------------------------
 Center     Atomic      Atomic             Coordinates (Angstroms)
 Number     Number       Type             X           Y           Z
 ---------------------------------------------------------------------
      1         17           0        3.712535   -0.000026   -0.000234
      2          6           0        1.981362    0.000022    0.000049
      3          7           0        1.383861   -1.190987    0.000084
      4          6           0        0.050400   -1.190232    0.000093
      5          6           0       -0.677544    0.000052    0.000037
      6         35           0       -2.571844   -0.000012    0.000052
      7          6           0        0.050393    1.190286   -0.000034
      8          7           0        1.383901    1.190989    0.000046
      9          1           0       -0.450330   -2.155050    0.000238
     10          1           0       -0.450226    2.155156    0.000127
 ---------------------------------------------------------------------
 Rotational constants (GHZ):           6.0824416           0.4557396           0.4239726
 Leave Link  202 at Tue Sep 17 09:54:26 2024, MaxMem=  1342177280 cpu:               0.0 elap:               0.0
 (Enter /groups/ReismanLab/Software/Gaussian16_RevC/Linux_Binary_AVX2-enabled-CPU/g16/l301.exe)
 Standard basis: 6-31G(d,p) (6D, 7F)
 Ernie: Thresh=  0.10000D-02 Tol=  0.10000D-05 Strict=F.
 There are   149 symmetry adapted cartesian basis functions of A   symmetry.
 There are   149 symmetry adapted basis functions of A   symmetry.
   149 basis functions,   317 primitive gaussians,   149 cartesian basis functions
    46 alpha electrons       46 beta electrons
       nuclear repulsion energy       598.9196836946 Hartrees.
 IExCor=  402 DFT=T Ex+Corr=B3LYP ExCW=0 ScaHFX=  0.200000
 ScaDFX=  0.800000  0.720000  1.000000  0.810000 ScalE2=  1.000000  1.000000
 IRadAn=      5 IRanWt=     -1 IRanGd=            0 ICorTp=0 IEmpDi=141
 NAtoms=   10 NActive=   10 NUniq=   10 SFac= 1.00D+00 NAtFMM=   60 NAOKFM=F Big=F
 Integral buffers will be    131072 words long.
 Raffenetti 2 integral format.
 Two-electron integral symmetry is turned on.
 R6Disp:  Grimme-D3(BJ) Dispersion energy=       -0.0230098414 Hartrees.
 Nuclear repulsion after empirical dispersion term =      598.8966738532 Hartrees.
 Leave Link  301 at Tue Sep 17 09:54:26 2024, MaxMem=  1342177280 cpu:               0.1 elap:               0.0
 (Enter /groups/ReismanLab/Software/Gaussian16_RevC/Linux_Binary_AVX2-enabled-CPU/g16/l302.exe)
 NPDir=0 NMtPBC=     1 NCelOv=     1 NCel=       1 NClECP=     1 NCelD=      1
         NCelK=      1 NCelE2=     1 NClLst=     1 CellRange=     0.0.
 One-electron integrals computed using PRISM.
 One-electron integral symmetry used in STVInt
 NBasis=   149 RedAO= T EigKep=  7.53D-04  NBF=   149
 NBsUse=   149 1.00D-06 EigRej= -1.00D+00 NBFU=   149
 Precomputing XC quadrature grid using
 IXCGrd= 4 IRadAn=           5 IRanWt=          -1 IRanGd=           0 AccXCQ= 0.00D+00.
 Generated NRdTot=       0 NPtTot=           0 NUsed=           0 NTot=          32
 NSgBfM=   148   148   148   148   148 MxSgAt=    10 MxSgA2=    10.
 Leave Link  302 at Tue Sep 17 09:54:26 2024, MaxMem=  1342177280 cpu:               0.7 elap:               0.1
 (Enter /groups/ReismanLab/Software/Gaussian16_RevC/Linux_Binary_AVX2-enabled-CPU/g16/l303.exe)
 DipDrv:  MaxL=1.
 Leave Link  303 at Tue Sep 17 09:54:26 2024, MaxMem=  1342177280 cpu:               0.0 elap:               0.0
 (Enter /groups/ReismanLab/Software/Gaussian16_RevC/Linux_Binary_AVX2-enabled-CPU/g16/l401.exe)
 Initial guess from the checkpoint file:  "smiles_00001_conf_0.chk"
 B after Tr=     0.000000    0.000000    0.000000
         Rot=    1.000000    0.000013   -0.000016    0.000000 Ang=   0.00 deg.
 Guess basis will be translated and rotated to current coordinates.
 JPrj=2 DoOrth=T DoCkMO=T.
 Generating alternative initial guess.
 ExpMin= 1.43D-01 ExpMax= 5.74D+05 ExpMxC= 5.74D+03 IAcc=3 IRadAn=         5 AccDes= 0.00D+00
 Harris functional with IExCor=  402 and IRadAn=       5 diagonalized for initial guess.
 HarFok:  IExCor=  402 AccDes= 0.00D+00 IRadAn=         5 IDoV= 1 UseB2=F ITyADJ=14
 ICtDFT=  3500011 ScaDFX=  1.000000  1.000000  1.000000  1.000000
 FoFCou: FMM=F IPFlag=           0 FMFlag=      100000 FMFlg1=           0
         NFxFlg=           0 DoJE=T BraDBF=F KetDBF=T FulRan=T
         wScrn=  0.000000 ICntrl=       500 IOpCl=  0 I1Cent=   200000004 NGrid=           0
         NMat0=    1 NMatS0=      1 NMatT0=    0 NMatD0=    1 NMtDS0=    0 NMtDT0=    0
 Petite list used in FoFCou.
 Harris En= -3295.04499551865    
 Leave Link  401 at Tue Sep 17 09:54:26 2024, MaxMem=  1342177280 cpu:               2.4 elap:               0.3
 (Enter /groups/ReismanLab/Software/Gaussian16_RevC/Linux_Binary_AVX2-enabled-CPU/g16/l502.exe)
 Keep R1 ints in memory in canonical form, NReq=70257700.
 FoFCou: FMM=F IPFlag=           0 FMFlag=           0 FMFlg1=           0
         NFxFlg=           0 DoJE=F BraDBF=F KetDBF=F FulRan=T
         wScrn=  0.000000 ICntrl=       600 IOpCl=  0 I1Cent=           0 NGrid=           0
         NMat0=    1 NMatS0=  11175 NMatT0=    0 NMatD0=    1 NMtDS0=    0 NMtDT0=    0
 Symmetry not used in FoFCou.
 Two-electron integral symmetry not used.
 Closed shell SCF:
 Using DIIS extrapolation, IDIIS=  1040.
 NGot=  1342177280 LenX=  1279684010 LenY=  1279661368
 Requested convergence on RMS density matrix=1.00D-08 within  32 cycles.
 Requested convergence on MAX density matrix=1.00D-06.
 Requested convergence on             energy=1.00D-06.
 No special actions if energy rises.
 Integral accuracy reduced to 1.0D-05 until final iterations.

 Cycle   1  Pass 0  IDiag  1:
 E= -3295.04554505344    
 DIIS: error= 1.45D-03 at cycle   1 NSaved=   1.
 NSaved= 1 IEnMin= 1 EnMin= -3295.04554505344     IErMin= 1 ErrMin= 1.45D-03
 ErrMax= 1.45D-03  0.00D+00 EMaxC= 1.00D-01 BMatC= 7.35D-04 BMatP= 7.35D-04
 IDIUse=3 WtCom= 9.86D-01 WtEn= 1.45D-02
 Coeff-Com:  0.100D+01
 Coeff-En:   0.100D+01
 Coeff:      0.100D+01
 Gap=     1.497 Goal=   None    Shift=    0.000
 GapD=    1.497 DampG=2.000 DampE=1.000 DampFc=2.0000 IDamp=-1.
 RMSDP=3.52D-04 MaxDP=7.06D-03              OVMax= 7.03D-03

 Cycle   2  Pass 0  IDiag  1:
 E= -3295.04605509314     Delta-E=       -0.000510039695 Rises=F Damp=F
 DIIS: error= 8.54D-04 at cycle   2 NSaved=   2.
 NSaved= 2 IEnMin= 2 EnMin= -3295.04605509314     IErMin= 2 ErrMin= 8.54D-04
 ErrMax= 8.54D-04  0.00D+00 EMaxC= 1.00D-01 BMatC= 1.35D-04 BMatP= 7.35D-04
 IDIUse=3 WtCom= 9.91D-01 WtEn= 8.54D-03
 Coeff-Com:  0.215D+00 0.785D+00
 Coeff-En:   0.000D+00 0.100D+01
 Coeff:      0.213D+00 0.787D+00
 Gap=     0.202 Goal=   None    Shift=    0.000
 RMSDP=2.10D-04 MaxDP=6.41D-03 DE=-5.10D-04 OVMax= 5.50D-03

 Cycle   3  Pass 0  IDiag  1:
 E= -3295.04602993183     Delta-E=        0.000025161306 Rises=F Damp=F
 DIIS: error= 1.23D-03 at cycle   3 NSaved=   3.
 NSaved= 3 IEnMin= 2 EnMin= -3295.04605509314     IErMin= 2 ErrMin= 8.54D-04
 ErrMax= 1.23D-03  0.00D+00 EMaxC= 1.00D-01 BMatC= 1.55D-04 BMatP= 1.35D-04
 IDIUse=3 WtCom= 2.22D-01 WtEn= 7.78D-01
 Coeff-Com:  0.852D-02 0.516D+00 0.475D+00
 Coeff-En:   0.000D+00 0.534D+00 0.466D+00
 Coeff:      0.189D-02 0.530D+00 0.468D+00
 Gap=     0.203 Goal=   None    Shift=    0.000
 RMSDP=1.11D-04 MaxDP=3.03D-03 DE= 2.52D-05 OVMax= 3.91D-03

 Cycle   4  Pass 0  IDiag  1:
 E= -3295.04618789594     Delta-E=       -0.000157964111 Rises=F Damp=F
 DIIS: error= 3.01D-04 at cycle   4 NSaved=   4.
 NSaved= 4 IEnMin= 4 EnMin= -3295.04618789594     IErMin= 4 ErrMin= 3.01D-04
 ErrMax= 3.01D-04  0.00D+00 EMaxC= 1.00D-01 BMatC= 6.79D-06 BMatP= 1.35D-04
 IDIUse=3 WtCom= 9.97D-01 WtEn= 3.01D-03
 Coeff-Com: -0.453D-02 0.270D+00 0.276D+00 0.459D+00
 Coeff-En:   0.000D+00 0.000D+00 0.000D+00 0.100D+01
 Coeff:     -0.452D-02 0.269D+00 0.275D+00 0.461D+00
 Gap=     0.203 Goal=   None    Shift=    0.000
 RMSDP=2.32D-05 MaxDP=4.75D-04 DE=-1.58D-04 OVMax= 1.20D-03

 Cycle   5  Pass 0  IDiag  1:
 E= -3295.04619470598     Delta-E=       -0.000006810033 Rises=F Damp=F
 DIIS: error= 4.94D-05 at cycle   5 NSaved=   5.
 NSaved= 5 IEnMin= 5 EnMin= -3295.04619470598     IErMin= 5 ErrMin= 4.94D-05
 ErrMax= 4.94D-05  0.00D+00 EMaxC= 1.00D-01 BMatC= 6.37D-07 BMatP= 6.79D-06
 IDIUse=1 WtCom= 1.00D+00 WtEn= 0.00D+00
 Coeff-Com: -0.357D-02 0.862D-01 0.101D+00 0.263D+00 0.554D+00
 Coeff:     -0.357D-02 0.862D-01 0.101D+00 0.263D+00 0.554D+00
 Gap=     0.203 Goal=   None    Shift=    0.000
 RMSDP=6.52D-06 MaxDP=1.79D-04 DE=-6.81D-06 OVMax= 2.44D-04

 Initial convergence to 1.0D-05 achieved.  Increase integral accuracy.
 Cycle   6  Pass 1  IDiag  1:
 E= -3295.04623330453     Delta-E=       -0.000038598551 Rises=F Damp=F
 DIIS: error= 1.40D-05 at cycle   1 NSaved=   1.
 NSaved= 1 IEnMin= 1 EnMin= -3295.04623330453     IErMin= 1 ErrMin= 1.40D-05
 ErrMax= 1.40D-05  0.00D+00 EMaxC= 1.00D-01 BMatC= 4.37D-08 BMatP= 4.37D-08
 IDIUse=1 WtCom= 1.00D+00 WtEn= 0.00D+00
 Coeff-Com:  0.100D+01
 Coeff:      0.100D+01
 Gap=     0.203 Goal=   None    Shift=    0.000
 RMSDP=6.52D-06 MaxDP=1.79D-04 DE=-3.86D-05 OVMax= 1.05D-04

 Cycle   7  Pass 1  IDiag  1:
 E= -3295.04623326847     Delta-E=        0.000000036054 Rises=F Damp=F
 DIIS: error= 2.36D-05 at cycle   2 NSaved=   2.
 NSaved= 2 IEnMin= 1 EnMin= -3295.04623330453     IErMin= 1 ErrMin= 1.40D-05
 ErrMax= 2.36D-05  0.00D+00 EMaxC= 1.00D-01 BMatC= 8.43D-08 BMatP= 4.37D-08
 IDIUse=1 WtCom= 1.00D+00 WtEn= 0.00D+00
 Coeff-Com:  0.588D+00 0.412D+00
 Coeff:      0.588D+00 0.412D+00
 Gap=     0.203 Goal=   None    Shift=    0.000
 RMSDP=2.03D-06 MaxDP=6.58D-05 DE= 3.61D-08 OVMax= 7.77D-05

 Cycle   8  Pass 1  IDiag  1:
 E= -3295.04623334338     Delta-E=       -0.000000074903 Rises=F Damp=F
 DIIS: error= 5.56D-06 at cycle   3 NSaved=   3.
 NSaved= 3 IEnMin= 3 EnMin= -3295.04623334338     IErMin= 3 ErrMin= 5.56D-06
 ErrMax= 5.56D-06  0.00D+00 EMaxC= 1.00D-01 BMatC= 3.61D-09 BMatP= 4.37D-08
 IDIUse=1 WtCom= 1.00D+00 WtEn= 0.00D+00
 Coeff-Com:  0.187D+00 0.204D+00 0.609D+00
 Coeff:      0.187D+00 0.204D+00 0.609D+00
 Gap=     0.203 Goal=   None    Shift=    0.000
 RMSDP=5.97D-07 MaxDP=1.38D-05 DE=-7.49D-08 OVMax= 3.50D-05

 Cycle   9  Pass 1  IDiag  1:
 E= -3295.04623334593     Delta-E=       -0.000000002557 Rises=F Damp=F
 DIIS: error= 4.38D-06 at cycle   4 NSaved=   4.
 NSaved= 4 IEnMin= 4 EnMin= -3295.04623334593     IErMin= 4 ErrMin= 4.38D-06
 ErrMax= 4.38D-06  0.00D+00 EMaxC= 1.00D-01 BMatC= 1.12D-09 BMatP= 3.61D-09
 IDIUse=1 WtCom= 1.00D+00 WtEn= 0.00D+00
 Coeff-Com:  0.184D-01 0.596D-01 0.399D+00 0.524D+00
 Coeff:      0.184D-01 0.596D-01 0.399D+00 0.524D+00
 Gap=     0.203 Goal=   None    Shift=    0.000
 RMSDP=2.52D-07 MaxDP=6.77D-06 DE=-2.56D-09 OVMax= 1.48D-05

 Cycle  10  Pass 1  IDiag  1:
 E= -3295.04623334702     Delta-E=       -0.000000001083 Rises=F Damp=F
 DIIS: error= 7.83D-07 at cycle   5 NSaved=   5.
 NSaved= 5 IEnMin= 5 EnMin= -3295.04623334702     IErMin= 5 ErrMin= 7.83D-07
 ErrMax= 7.83D-07  0.00D+00 EMaxC= 1.00D-01 BMatC= 6.47D-11 BMatP= 1.12D-09
 IDIUse=1 WtCom= 1.00D+00 WtEn= 0.00D+00
 Coeff-Com: -0.509D-02 0.151D-01 0.163D+00 0.283D+00 0.543D+00
 Coeff:     -0.509D-02 0.151D-01 0.163D+00 0.283D+00 0.543D+00
 Gap=     0.203 Goal=   None    Shift=    0.000
 RMSDP=8.20D-08 MaxDP=2.77D-06 DE=-1.08D-09 OVMax= 1.67D-06

 Cycle  11  Pass 1  IDiag  1:
 E= -3295.04623334710     Delta-E=       -0.000000000083 Rises=F Damp=F
 DIIS: error= 1.17D-07 at cycle   6 NSaved=   6.
 NSaved= 6 IEnMin= 6 EnMin= -3295.04623334710     IErMin= 6 ErrMin= 1.17D-07
 ErrMax= 1.17D-07  0.00D+00 EMaxC= 1.00D-01 BMatC= 2.53D-12 BMatP= 6.47D-11
 IDIUse=1 WtCom= 1.00D+00 WtEn= 0.00D+00
 Coeff-Com: -0.326D-02 0.652D-02 0.760D-01 0.136D+00 0.290D+00 0.494D+00
 Coeff:     -0.326D-02 0.652D-02 0.760D-01 0.136D+00 0.290D+00 0.494D+00
 Gap=     0.203 Goal=   None    Shift=    0.000
 RMSDP=1.47D-08 MaxDP=4.55D-07 DE=-8.28D-11 OVMax= 5.14D-07

 Cycle  12  Pass 1  IDiag  1:
 E= -3295.04623334711     Delta-E=       -0.000000000013 Rises=F Damp=F
 DIIS: error= 1.60D-08 at cycle   7 NSaved=   7.
 NSaved= 7 IEnMin= 7 EnMin= -3295.04623334711     IErMin= 7 ErrMin= 1.60D-08
 ErrMax= 1.60D-08  0.00D+00 EMaxC= 1.00D-01 BMatC= 6.73D-14 BMatP= 2.53D-12
 IDIUse=1 WtCom= 1.00D+00 WtEn= 0.00D+00
 Coeff-Com: -0.217D-03 0.585D-04 0.302D-03 0.167D-02 0.102D-01 0.144D+00
 Coeff-Com:  0.844D+00
 Coeff:     -0.217D-03 0.585D-04 0.302D-03 0.167D-02 0.102D-01 0.144D+00
 Coeff:      0.844D+00
 Gap=     0.203 Goal=   None    Shift=    0.000
 RMSDP=2.08D-09 MaxDP=6.17D-08 DE=-1.27D-11 OVMax= 9.64D-08

 SCF Done:  E(RB3LYP) =  -3295.04623335     A.U. after   12 cycles
            NFock= 12  Conv=0.21D-08     -V/T= 2.0060
 KE= 3.275482273212D+03 PE=-9.035189706113D+03 EE= 1.865764525701D+03
 Leave Link  502 at Tue Sep 17 09:54:30 2024, MaxMem=  1342177280 cpu:              21.5 elap:               3.8
 (Enter /groups/ReismanLab/Software/Gaussian16_RevC/Linux_Binary_AVX2-enabled-CPU/g16/l508.exe)
 QCSCF skips out because SCF is already converged.
 Leave Link  508 at Tue Sep 17 09:54:30 2024, MaxMem=  1342177280 cpu:               0.0 elap:               0.0
 (Enter /groups/ReismanLab/Software/Gaussian16_RevC/Linux_Binary_AVX2-enabled-CPU/g16/l701.exe)
 ... and contract with generalized density number  0.
 Compute integral first derivatives.
 R6Disp: Adding Grimme-D3(BJ) dispersion energy 1st derivatives to the gradient.
 Leave Link  701 at Tue Sep 17 09:54:30 2024, MaxMem=  1342177280 cpu:               0.6 elap:               0.1
 (Enter /groups/ReismanLab/Software/Gaussian16_RevC/Linux_Binary_AVX2-enabled-CPU/g16/l702.exe)
 L702 exits ... SP integral derivatives will be done elsewhere.
 Leave Link  702 at Tue Sep 17 09:54:30 2024, MaxMem=  1342177280 cpu:               0.0 elap:               0.0
 (Enter /groups/ReismanLab/Software/Gaussian16_RevC/Linux_Binary_AVX2-enabled-CPU/g16/l703.exe)
 Integral derivatives from FoFJK, PRISM(SPDF).
 Compute integral first derivatives, UseDBF=F ICtDFT=           0.
 Calling FoFJK, ICntrl=      2127 FMM=F ISym2X=0 I1Cent= 0 IOpClX= 0 NMat=1 NMatS=1 NMatT=0.
 FoFJK:  IHMeth= 1 ICntrl=    2127 DoSepK=F KAlg= 0 I1Cent=           0 FoldK=F
 IRaf=         0 NMat=       1 IRICut=       1 DoRegI=T DoRafI=F ISym2E= 0 IDoP0=0 IntGTp=1.
 FoFCou: FMM=F IPFlag=           0 FMFlag=      100000 FMFlg1=         800
         NFxFlg=           0 DoJE=F BraDBF=F KetDBF=F FulRan=T
         wScrn=  0.000000 ICntrl=      2127 IOpCl=  0 I1Cent=           0 NGrid=           0
         NMat0=    1 NMatS0=      1 NMatT0=    0 NMatD0=    1 NMtDS0=    0 NMtDT0=    0
 Symmetry not used in FoFCou.
 Leave Link  703 at Tue Sep 17 09:54:32 2024, MaxMem=  1342177280 cpu:              10.8 elap:               1.4
 (Enter /groups/ReismanLab/Software/Gaussian16_RevC/Linux_Binary_AVX2-enabled-CPU/g16/l716.exe)
 Dipole        =-9.22336065D-01 3.24893713D-05 5.97721642D-05
 ***** Axes restored to original set *****
 -------------------------------------------------------------------
 Center     Atomic                   Forces (Hartrees/Bohr)
 Number     Number              X              Y              Z
 -------------------------------------------------------------------
      1       17           0.004652123    0.000000481    0.000005816
      2        6          -0.013764398   -0.000022760   -0.000016348
      3        7           0.005046560   -0.001213005    0.000002538
      4        6          -0.002123805    0.001691828    0.000008643
      5        6           0.001667593   -0.000015924   -0.000008946
      6       35           0.000723912    0.000002662   -0.000000253
      7        6          -0.002087814   -0.001675173    0.000029713
      8        7           0.005017029    0.001233644   -0.000006460
      9        1           0.000438205    0.000187856   -0.000004062
     10        1           0.000430594   -0.000189609   -0.000010642
 -------------------------------------------------------------------
 Cartesian Forces:  Max     0.013764398 RMS     0.003071517
 Leave Link  716 at Tue Sep 17 09:54:32 2024, MaxMem=  1342177280 cpu:               0.0 elap:               0.0
 (Enter /groups/ReismanLab/Software/Gaussian16_RevC/Linux_Binary_AVX2-enabled-CPU/g16/l103.exe)

 GradGradGradGradGradGradGradGradGradGradGradGradGradGradGradGradGradGrad
 Berny optimization.
 Using GEDIIS/GDIIS optimizer.
 FormGI is forming the generalized inverse of G from B-inverse, IUseBI=4.
 Internal  Forces:  Max     0.004871426 RMS     0.001487468
 Search for a local minimum.
 Step number   2 out of a maximum of   50
 All quantities printed in internal units (Hartrees-Bohrs-Radians)
 RMS Force = .14875D-02 SwitMx=.10000D-02 MixMth= 1
 Mixed Optimization -- RFO/linear search
 Update second derivatives using D2CorX and points    1    2
 DE= -1.95D-03 DEPred=-1.84D-03 R= 1.06D+00
 TightC=F SS=  1.41D+00  RLast= 9.51D-02 DXNew= 5.0454D-01 2.8537D-01
 Trust test= 1.06D+00 RLast= 9.51D-02 DXMaxT set to 3.00D-01
 ITU=  1  0
 Use linear search instead of GDIIS.
     Eigenvalues ---    0.02200   0.02278   0.02362   0.02409   0.02630
     Eigenvalues ---    0.02720   0.02738   0.16000   0.16113   0.18971
     Eigenvalues ---    0.21628   0.23188   0.23588   0.25000   0.25000
     Eigenvalues ---    0.33983   0.35804   0.36107   0.44634   0.46155
     Eigenvalues ---    0.57857   0.59854   0.61600   0.67656
 RFO step:  Lambda=-3.32260789D-04 EMin= 2.20042655D-02
 Quartic linear search produced a step of  0.09980.
 Iteration  1 RMS(Cart)=  0.00471041 RMS(Int)=  0.00003365
 Iteration  2 RMS(Cart)=  0.00003459 RMS(Int)=  0.00001236
 Iteration  3 RMS(Cart)=  0.00000000 RMS(Int)=  0.00001236
 ITry= 1 IFail=0 DXMaxC= 2.08D-02 DCOld= 1.00D+10 DXMaxT= 3.00D-01 DXLimC= 3.00D+00 Rises=F
 Variable       Old X    -DE/DX   Delta X   Delta X   Delta X     New X
                                 (Linear)    (Quad)   (Total)
    R1        3.27144   0.00465   0.00667   0.01376   0.02043   3.29188
    R2        2.51803  -0.00209   0.00192  -0.00399  -0.00205   2.51598
    R3        2.51792  -0.00206   0.00193  -0.00395  -0.00200   2.51592
    R4        2.51988   0.00049   0.00296   0.00067   0.00363   2.52350
    R5        2.63661  -0.00115   0.00069  -0.00257  -0.00190   2.63471
    R6        2.05416  -0.00037   0.00103  -0.00117  -0.00014   2.05402
    R7        3.57971  -0.00072   0.00134  -0.00419  -0.00286   3.57685
    R8        2.63652  -0.00114   0.00069  -0.00254  -0.00186   2.63466
    R9        2.51996   0.00047   0.00295   0.00063   0.00358   2.52355
   R10        2.05415  -0.00037   0.00102  -0.00117  -0.00015   2.05400
    A1        2.03576  -0.00243  -0.00035  -0.01042  -0.01078   2.02498
    A2        2.03580  -0.00244  -0.00036  -0.01043  -0.01080   2.02500
    A3        2.21163   0.00487   0.00071   0.02084   0.02158   2.23321
    A4        2.03522  -0.00291  -0.00096  -0.01317  -0.01410   2.02112
    A5        2.12025  -0.00003   0.00059   0.00023   0.00080   2.12104
    A6        2.04895  -0.00030   0.00145  -0.00219  -0.00073   2.04822
    A7        2.11398   0.00032  -0.00204   0.00197  -0.00006   2.11392
    A8        2.11965  -0.00049  -0.00001  -0.00250  -0.00249   2.11715
    A9        2.04381   0.00100   0.00003   0.00504   0.00504   2.04885
   A10        2.11973  -0.00050  -0.00002  -0.00254  -0.00254   2.11719
   A11        2.12022  -0.00003   0.00059   0.00023   0.00081   2.12103
   A12        2.11408   0.00032  -0.00205   0.00191  -0.00014   2.11395
   A13        2.04888  -0.00029   0.00146  -0.00214  -0.00067   2.04821
   A14        2.03524  -0.00291  -0.00096  -0.01318  -0.01411   2.02113
    D1       -3.14142  -0.00001  -0.00001  -0.00034  -0.00034   3.14143
    D2        0.00002   0.00000  -0.00003   0.00016   0.00013   0.00015
    D3        3.14134   0.00001  -0.00001   0.00044   0.00042  -3.14142
    D4       -0.00010  -0.00000   0.00001  -0.00005  -0.00004  -0.00014
    D5        0.00003  -0.00000   0.00001  -0.00006  -0.00006  -0.00003
    D6       -3.14147  -0.00001   0.00001  -0.00022  -0.00020   3.14151
    D7       -3.14159  -0.00000   0.00002  -0.00010  -0.00008   3.14151
    D8        0.00000  -0.00000   0.00004  -0.00011  -0.00008  -0.00007
    D9       -0.00010   0.00000   0.00001   0.00006   0.00007  -0.00003
   D10        3.14150   0.00000   0.00003   0.00005   0.00007   3.14157
   D11       -0.00008   0.00001  -0.00006   0.00022   0.00016   0.00008
   D12       -3.14137  -0.00001   0.00003  -0.00023  -0.00020  -3.14157
   D13        3.14151   0.00001  -0.00004   0.00021   0.00017  -3.14151
   D14        0.00023  -0.00001   0.00005  -0.00024  -0.00019   0.00003
   D15        0.00012  -0.00000   0.00004  -0.00014  -0.00011   0.00002
   D16        3.14142   0.00001  -0.00005   0.00029   0.00024  -3.14152
         Item               Value     Threshold  Converged?
 Maximum Force            0.004871     0.000450     NO 
 RMS     Force            0.001487     0.000300     NO 
 Maximum Displacement     0.020754     0.001800     NO 
 RMS     Displacement     0.004702     0.001200     NO 
 Predicted change in Energy=-1.784691D-04
 Lowest energy point so far.  Saving SCF results.
 GradGradGradGradGradGradGradGradGradGradGradGradGradGradGradGradGradGrad

 Leave Link  103 at Tue Sep 17 09:54:32 2024, MaxMem=  1342177280 cpu:               0.0 elap:               0.0
 (Enter /groups/ReismanLab/Software/Gaussian16_RevC/Linux_Binary_AVX2-enabled-CPU/g16/l202.exe)
                          Input orientation:                          
 ---------------------------------------------------------------------
 Center     Atomic      Atomic             Coordinates (Angstroms)
 Number     Number       Type             X           Y           Z
 ---------------------------------------------------------------------
      1         17           0        3.815741   -0.000018    0.000129
      2          6           0        2.073755    0.000039    0.000007
      3          7           0        1.489598   -1.196365    0.000170
      4          6           0        0.154229   -1.191168    0.000276
      5          6           0       -0.570178    0.000093    0.000254
      6         35           0       -2.462965    0.000096    0.000278
      7          6           0        0.154261    1.191306    0.000207
      8          7           0        1.489656    1.196436    0.000091
      9          1           0       -0.348967   -2.154619    0.000331
     10          1           0       -0.348868    2.154780    0.000210
 ---------------------------------------------------------------------
                    Distance matrix (angstroms):
                    1          2          3          4          5
     1  Cl   0.000000
     2  C    1.741986   0.000000
     3  N    2.615757   1.331398   0.000000
     4  C    3.850391   2.259105   1.335379   0.000000
     5  C    4.385918   2.643933   2.382055   1.394226   0.000000
     6  Br   6.278706   4.536720   4.129682   2.875554   1.892787
     7  C    3.850413   2.259109   2.735708   2.382474   1.394202
     8  N    2.615755   1.331367   2.392801   2.735693   2.382048
     9  H    4.689040   3.242242   2.073300   1.086942   2.166037
    10  H    4.689042   3.242223   3.822320   3.383559   2.166023
                    6          7          8          9         10
     6  Br   0.000000
     7  C    2.875562   0.000000
     8  N    4.129702   1.335405   0.000000
     9  H    3.018573   3.383556   3.822317   0.000000
    10  H    3.018621   1.086932   2.073304   4.309399   0.000000
 Stoichiometry    C4H2BrClN2
 Framework group  C1[X(C4H2BrClN2)]
 Deg. of freedom    24
 Full point group                 C1      NOp   1
 RotChk:  IX=2 Diff= 1.09D-05
 Largest Abelian subgroup         C1      NOp   1
 Largest concise Abelian subgroup C1      NOp   1
                         Standard orientation:                         
 ---------------------------------------------------------------------
 Center     Atomic      Atomic             Coordinates (Angstroms)
 Number     Number       Type             X           Y           Z
 ---------------------------------------------------------------------
      1         17           0        3.710380   -0.000012   -0.000075
      2          6           0        1.968395    0.000014   -0.000197
      3          7           0        1.384258   -1.196399   -0.000034
      4          6           0        0.048889   -1.191225    0.000072
      5          6           0       -0.675538    0.000023    0.000051
      6         35           0       -2.568325   -0.000006    0.000074
      7          6           0        0.048880    1.191249    0.000003
      8          7           0        1.384275    1.196402   -0.000112
      9          1           0       -0.454291   -2.154685    0.000127
     10          1           0       -0.454265    2.154715    0.000006
 ---------------------------------------------------------------------
 Rotational constants (GHZ):           6.0522626           0.4568078           0.4247489
 Leave Link  202 at Tue Sep 17 09:54:32 2024, MaxMem=  1342177280 cpu:               0.0 elap:               0.0
 (Enter /groups/ReismanLab/Software/Gaussian16_RevC/Linux_Binary_AVX2-enabled-CPU/g16/l301.exe)
 Standard basis: 6-31G(d,p) (6D, 7F)
 Ernie: Thresh=  0.10000D-02 Tol=  0.10000D-05 Strict=F.
 There are   149 symmetry adapted cartesian basis functions of A   symmetry.
 There are   149 symmetry adapted basis functions of A   symmetry.
   149 basis functions,   317 primitive gaussians,   149 cartesian basis functions
    46 alpha electrons       46 beta electrons
       nuclear repulsion energy       599.0755385507 Hartrees.
 IExCor=  402 DFT=T Ex+Corr=B3LYP ExCW=0 ScaHFX=  0.200000
 ScaDFX=  0.800000  0.720000  1.000000  0.810000 ScalE2=  1.000000  1.000000
 IRadAn=      5 IRanWt=     -1 IRanGd=            0 ICorTp=0 IEmpDi=141
 NAtoms=   10 NActive=   10 NUniq=   10 SFac= 1.00D+00 NAtFMM=   60 NAOKFM=F Big=F
 Integral buffers will be    131072 words long.
 Raffenetti 2 integral format.
 Two-electron integral symmetry is turned on.
 R6Disp:  Grimme-D3(BJ) Dispersion energy=       -0.0229952574 Hartrees.
 Nuclear repulsion after empirical dispersion term =      599.0525432933 Hartrees.
 Leave Link  301 at Tue Sep 17 09:54:32 2024, MaxMem=  1342177280 cpu:               0.1 elap:               0.0
 (Enter /groups/ReismanLab/Software/Gaussian16_RevC/Linux_Binary_AVX2-enabled-CPU/g16/l302.exe)
 NPDir=0 NMtPBC=     1 NCelOv=     1 NCel=       1 NClECP=     1 NCelD=      1
         NCelK=      1 NCelE2=     1 NClLst=     1 CellRange=     0.0.
 One-electron integrals computed using PRISM.
 One-electron integral symmetry used in STVInt
 NBasis=   149 RedAO= T EigKep=  7.53D-04  NBF=   149
 NBsUse=   149 1.00D-06 EigRej= -1.00D+00 NBFU=   149
 Precomputing XC quadrature grid using
 IXCGrd= 4 IRadAn=           5 IRanWt=          -1 IRanGd=           0 AccXCQ= 0.00D+00.
 Generated NRdTot=       0 NPtTot=           0 NUsed=           0 NTot=          32
 NSgBfM=   148   148   148   148   148 MxSgAt=    10 MxSgA2=    10.
 Leave Link  302 at Tue Sep 17 09:54:32 2024, MaxMem=  1342177280 cpu:               0.7 elap:               0.1
 (Enter /groups/ReismanLab/Software/Gaussian16_RevC/Linux_Binary_AVX2-enabled-CPU/g16/l303.exe)
 DipDrv:  MaxL=1.
 Leave Link  303 at Tue Sep 17 09:54:32 2024, MaxMem=  1342177280 cpu:               0.1 elap:               0.0
 (Enter /groups/ReismanLab/Software/Gaussian16_RevC/Linux_Binary_AVX2-enabled-CPU/g16/l401.exe)
 Initial guess from the checkpoint file:  "smiles_00001_conf_0.chk"
 B after Tr=    -0.000000    0.000000   -0.000000
         Rot=    1.000000   -0.000001    0.000002   -0.000001 Ang=  -0.00 deg.
 Guess basis will be translated and rotated to current coordinates.
 JPrj=2 DoOrth=T DoCkMO=T.
 Generating alternative initial guess.
 ExpMin= 1.43D-01 ExpMax= 5.74D+05 ExpMxC= 5.74D+03 IAcc=3 IRadAn=         5 AccDes= 0.00D+00
 Harris functional with IExCor=  402 and IRadAn=       5 diagonalized for initial guess.
 HarFok:  IExCor=  402 AccDes= 0.00D+00 IRadAn=         5 IDoV= 1 UseB2=F ITyADJ=14
 ICtDFT=  3500011 ScaDFX=  1.000000  1.000000  1.000000  1.000000
 FoFCou: FMM=F IPFlag=           0 FMFlag=      100000 FMFlg1=           0
         NFxFlg=           0 DoJE=T BraDBF=F KetDBF=T FulRan=T
         wScrn=  0.000000 ICntrl=       500 IOpCl=  0 I1Cent=   200000004 NGrid=           0
         NMat0=    1 NMatS0=      1 NMatT0=    0 NMatD0=    1 NMtDS0=    0 NMtDT0=    0
 Petite list used in FoFCou.
 Harris En= -3295.04426586716    
 Leave Link  401 at Tue Sep 17 09:54:32 2024, MaxMem=  1342177280 cpu:               2.3 elap:               0.3
 (Enter /groups/ReismanLab/Software/Gaussian16_RevC/Linux_Binary_AVX2-enabled-CPU/g16/l502.exe)
 Keep R1 ints in memory in canonical form, NReq=70257700.
 FoFCou: FMM=F IPFlag=           0 FMFlag=           0 FMFlg1=           0
         NFxFlg=           0 DoJE=F BraDBF=F KetDBF=F FulRan=T
         wScrn=  0.000000 ICntrl=       600 IOpCl=  0 I1Cent=           0 NGrid=           0
         NMat0=    1 NMatS0=  11175 NMatT0=    0 NMatD0=    1 NMtDS0=    0 NMtDT0=    0
 Symmetry not used in FoFCou.
 Two-electron integral symmetry not used.
 Closed shell SCF:
 Using DIIS extrapolation, IDIIS=  1040.
 NGot=  1342177280 LenX=  1279684010 LenY=  1279661368
 Requested convergence on RMS density matrix=1.00D-08 within  32 cycles.
 Requested convergence on MAX density matrix=1.00D-06.
 Requested convergence on             energy=1.00D-06.
 No special actions if energy rises.
 Integral accuracy reduced to 1.0D-05 until final iterations.

 Cycle   1  Pass 0  IDiag  1:
 E= -3295.04625734128    
 DIIS: error= 5.25D-04 at cycle   1 NSaved=   1.
 NSaved= 1 IEnMin= 1 EnMin= -3295.04625734128     IErMin= 1 ErrMin= 5.25D-04
 ErrMax= 5.25D-04  0.00D+00 EMaxC= 1.00D-01 BMatC= 1.08D-04 BMatP= 1.08D-04
 IDIUse=3 WtCom= 9.95D-01 WtEn= 5.25D-03
 Coeff-Com:  0.100D+01
 Coeff-En:   0.100D+01
 Coeff:      0.100D+01
 Gap=     1.500 Goal=   None    Shift=    0.000
 RMSDP=1.40D-04 MaxDP=3.49D-03              OVMax= 3.27D-03

 Cycle   2  Pass 0  IDiag  1:
 E= -3295.04638096633     Delta-E=       -0.000123625049 Rises=F Damp=F
 DIIS: error= 1.57D-04 at cycle   2 NSaved=   2.
 NSaved= 2 IEnMin= 2 EnMin= -3295.04638096633     IErMin= 2 ErrMin= 1.57D-04
 ErrMax= 1.57D-04  0.00D+00 EMaxC= 1.00D-01 BMatC= 5.24D-06 BMatP= 1.08D-04
 IDIUse=3 WtCom= 9.98D-01 WtEn= 1.57D-03
 Coeff-Com:  0.322D-01 0.968D+00
 Coeff-En:   0.000D+00 0.100D+01
 Coeff:      0.321D-01 0.968D+00
 Gap=     0.202 Goal=   None    Shift=    0.000
 RMSDP=4.31D-05 MaxDP=1.49D-03 DE=-1.24D-04 OVMax= 1.35D-03

 Cycle   3  Pass 0  IDiag  1:
 E= -3295.04637562047     Delta-E=        0.000005345860 Rises=F Damp=F
 DIIS: error= 3.08D-04 at cycle   3 NSaved=   3.
 NSaved= 3 IEnMin= 2 EnMin= -3295.04638096633     IErMin= 2 ErrMin= 1.57D-04
 ErrMax= 3.08D-04  0.00D+00 EMaxC= 1.00D-01 BMatC= 1.07D-05 BMatP= 5.24D-06
 IDIUse=3 WtCom= 3.63D-01 WtEn= 6.37D-01
 Coeff-Com: -0.206D-01 0.604D+00 0.417D+00
 Coeff-En:   0.000D+00 0.655D+00 0.345D+00
 Coeff:     -0.749D-02 0.636D+00 0.371D+00
 Gap=     0.202 Goal=   None    Shift=    0.000
 RMSDP=2.32D-05 MaxDP=7.35D-04 DE= 5.35D-06 OVMax= 1.17D-03

 Cycle   4  Pass 0  IDiag  1:
 E= -3295.04638602755     Delta-E=       -0.000010407085 Rises=F Damp=F
 DIIS: error= 5.78D-05 at cycle   4 NSaved=   4.
 NSaved= 4 IEnMin= 4 EnMin= -3295.04638602755     IErMin= 4 ErrMin= 5.78D-05
 ErrMax= 5.78D-05  0.00D+00 EMaxC= 1.00D-01 BMatC= 1.85D-07 BMatP= 5.24D-06
 IDIUse=1 WtCom= 1.00D+00 WtEn= 0.00D+00
 Coeff-Com: -0.111D-01 0.242D+00 0.166D+00 0.603D+00
 Coeff:     -0.111D-01 0.242D+00 0.166D+00 0.603D+00
 Gap=     0.202 Goal=   None    Shift=    0.000
 RMSDP=5.20D-06 MaxDP=9.38D-05 DE=-1.04D-05 OVMax= 3.18D-04

 Initial convergence to 1.0D-05 achieved.  Increase integral accuracy.
 Cycle   5  Pass 1  IDiag  1:
 E= -3295.04642426964     Delta-E=       -0.000038242085 Rises=F Damp=F
 DIIS: error= 2.78D-05 at cycle   1 NSaved=   1.
 NSaved= 1 IEnMin= 1 EnMin= -3295.04642426964     IErMin= 1 ErrMin= 2.78D-05
 ErrMax= 2.78D-05  0.00D+00 EMaxC= 1.00D-01 BMatC= 8.50D-08 BMatP= 8.50D-08
 IDIUse=1 WtCom= 1.00D+00 WtEn= 0.00D+00
 Coeff-Com:  0.100D+01
 Coeff:      0.100D+01
 Gap=     0.202 Goal=   None    Shift=    0.000
 RMSDP=5.20D-06 MaxDP=9.38D-05 DE=-3.82D-05 OVMax= 3.37D-04

 Cycle   6  Pass 1  IDiag  1:
 E= -3295.04642409644     Delta-E=        0.000000173199 Rises=F Damp=F
 DIIS: error= 5.28D-05 at cycle   2 NSaved=   2.
 NSaved= 2 IEnMin= 1 EnMin= -3295.04642426964     IErMin= 1 ErrMin= 2.78D-05
 ErrMax= 5.28D-05  0.00D+00 EMaxC= 1.00D-01 BMatC= 2.69D-07 BMatP= 8.50D-08
 IDIUse=1 WtCom= 1.00D+00 WtEn= 0.00D+00
 Coeff-Com:  0.645D+00 0.355D+00
 Coeff:      0.645D+00 0.355D+00
 Gap=     0.202 Goal=   None    Shift=    0.000
 RMSDP=3.35D-06 MaxDP=8.61D-05 DE= 1.73D-07 OVMax= 2.43D-04

 Cycle   7  Pass 1  IDiag  1:
 E= -3295.04642434366     Delta-E=       -0.000000247222 Rises=F Damp=F
 DIIS: error= 6.25D-06 at cycle   3 NSaved=   3.
 NSaved= 3 IEnMin= 3 EnMin= -3295.04642434366     IErMin= 3 ErrMin= 6.25D-06
 ErrMax= 6.25D-06  0.00D+00 EMaxC= 1.00D-01 BMatC= 3.53D-09 BMatP= 8.50D-08
 IDIUse=1 WtCom= 1.00D+00 WtEn= 0.00D+00
 Coeff-Com:  0.222D+00 0.158D+00 0.620D+00
 Coeff:      0.222D+00 0.158D+00 0.620D+00
 Gap=     0.202 Goal=   None    Shift=    0.000
 RMSDP=6.81D-07 MaxDP=1.87D-05 DE=-2.47D-07 OVMax= 3.25D-05

 Cycle   8  Pass 1  IDiag  1:
 E= -3295.04642434595     Delta-E=       -0.000000002294 Rises=F Damp=F
 DIIS: error= 3.48D-06 at cycle   4 NSaved=   4.
 NSaved= 4 IEnMin= 4 EnMin= -3295.04642434595     IErMin= 4 ErrMin= 3.48D-06
 ErrMax= 3.48D-06  0.00D+00 EMaxC= 1.00D-01 BMatC= 1.46D-09 BMatP= 3.53D-09
 IDIUse=1 WtCom= 1.00D+00 WtEn= 0.00D+00
 Coeff-Com: -0.366D-02 0.239D-01 0.423D+00 0.557D+00
 Coeff:     -0.366D-02 0.239D-01 0.423D+00 0.557D+00
 Gap=     0.202 Goal=   None    Shift=    0.000
[...]
 Keep R1 ints in memory in canonical form, NReq=824801853.
 FoFCou: FMM=F IPFlag=           0 FMFlag=           0 FMFlg1=           0
         NFxFlg=           0 DoJE=F BraDBF=F KetDBF=F FulRan=T
         wScrn=  0.000000 ICntrl=       600 IOpCl=  0 I1Cent=           0 NGrid=           0
         NMat0=    1 NMatS0=  40186 NMatT0=    0 NMatD0=    1 NMtDS0=    0 NMtDT0=    0
 Symmetry not used in FoFCou.
 Two-electron integral symmetry not used.
 Closed shell SCF:
 Using DIIS extrapolation, IDIIS=  1040.
 NGot=  1342177280 LenX=   534483667 LenY=   534377601
 Requested convergence on RMS density matrix=1.00D-08 within  32 cycles.
 Requested convergence on MAX density matrix=1.00D-06.
 Requested convergence on             energy=1.00D-06.
 No special actions if energy rises.

 Cycle   1  Pass 1  IDiag  1:
 Inv3:  Mode=1 IEnd=     5164032.
 Iteration    1 A*A^-1 deviation from unit magnitude is 2.33D-15 for     15.
 Iteration    1 A*A^-1 deviation from orthogonality  is 1.67D-15 for    299     80.
 Iteration    1 A^-1*A deviation from unit magnitude is 2.22D-15 for     59.
 Iteration    1 A^-1*A deviation from orthogonality  is 1.71D-15 for    501     93.
 E= -3297.51520247821    
 DIIS: error= 7.23D-09 at cycle   1 NSaved=   1.
 NSaved= 1 IEnMin= 1 EnMin= -3297.51520247821     IErMin= 1 ErrMin= 7.23D-09
 ErrMax= 7.23D-09  0.00D+00 EMaxC= 1.00D-01 BMatC= 2.30D-14 BMatP= 2.30D-14
 IDIUse=1 WtCom= 1.00D+00 WtEn= 0.00D+00
 Coeff-Com:  0.100D+01
 Coeff:      0.100D+01
 Gap=     0.286 Goal=   None    Shift=    0.000
 RMSDP=7.89D-10 MaxDP=2.82D-08              OVMax= 6.89D-08

 Error on total polarization charges =  0.00927
 SCF Done:  E(RM062X) =  -3297.51520248     A.U. after    1 cycles
            NFock=  1  Conv=0.79D-09     -V/T= 2.0016
 KE= 3.292394455206D+03 PE=-9.056561046339D+03 EE= 1.867699919991D+03
 SMD-CDS (non-electrostatic) energy       (kcal/mol) =      -2.32
 (included in total energy above)
 Leave Link  502 at Tue Sep 17 10:00:53 2024, MaxMem=  1342177280 cpu:              34.3 elap:              34.7
 (Enter /groups/ReismanLab/Software/Gaussian16_RevC/Linux_Binary_AVX2-enabled-CPU/g16/l508.exe)
 QCSCF skips out because SCF is already converged.
 Leave Link  508 at Tue Sep 17 10:00:53 2024, MaxMem=  1342177280 cpu:               0.0 elap:               0.0
 (Enter /groups/ReismanLab/Software/Gaussian16_RevC/Linux_Binary_AVX2-enabled-CPU/g16/l801.exe)
 DoSCS=F DFT=T ScalE2(SS,OS)=  1.000000  1.000000
 Range of M.O.s used for correlation:     1   283
 NBasis=   283 NAE=    46 NBE=    46 NFC=     0 NFV=     0
 NROrb=    283 NOA=    46 NOB=    46 NVA=   237 NVB=   237

 **** Warning!!: The largest alpha MO coefficient is  0.28417823D+02

 Leave Link  801 at Tue Sep 17 10:00:53 2024, MaxMem=  1342177280 cpu:               0.0 elap:               0.0
 (Enter /groups/ReismanLab/Software/Gaussian16_RevC/Linux_Binary_AVX2-enabled-CPU/g16/l1002.exe)
 Minotr:  Closed shell wavefunction.
 NEqPCM:  Using equilibrium solvation (IEInf=0, Eps=   2.2099, EpsInf=   2.0232)
          Direct CPHF calculation.
          Differentiating once with respect to magnetic field using GIAOs.
          Electric field/nuclear overlap derivatives assumed to be zero.
          Requested convergence is 1.0D-08 RMS, and 1.0D-07 maximum.
          Secondary convergence is 1.0D-12 RMS, and 1.0D-12 maximum.
          NewPWx=T KeepS1=F KeepF1=F KeepIn=T MapXYZ=F SortEE=F KeepMc=T.
         2939 words used for storage of precomputed grid.
 Keep R3 ints in memory in canonical form, NReq=824806416.
 FoFCou: FMM=F IPFlag=           0 FMFlag=           0 FMFlg1=           0
         NFxFlg=           0 DoJE=F BraDBF=F KetDBF=F FulRan=T
         wScrn=  0.000000 ICntrl=       600 IOpCl=  0 I1Cent=           0 NGrid=           0
         NMat0=    1 NMatS0=  40186 NMatT0=    0 NMatD0=    1 NMtDS0=    0 NMtDT0=    0
 Symmetry not used in FoFCou.
 Two-electron integral symmetry not used.
          MDV=    1342177280 using IRadAn=       1.
          Solving linear equations simultaneously, MaxMat=       0.
   1 Symmetry operations used in ECPInt.
 ECPInt:  NShTT=    5356 NPrTT=   19941 LenC2=    5357 LenP2D=   19941.
 LDataN:  DoStor=T MaxTD1= 7 Len=  274
 FoFJK:  IHMeth= 1 ICntrl=    6127 DoSepK=F KAlg= 0 I1Cent=           0 FoldK=F
 IRaf=         1 NMat=       1 IRICut=       1 DoRegI=T DoRafI=F ISym2E= 0 IDoP0=0 IntGTp=1.
          There are     3 degrees of freedom in the 1st order CPHF.  IDoFFX=0 NUNeed=     3.
      3 vectors produced by pass  0 Test12= 3.63D-13 3.33D-08 XBig12= 4.87D+00 6.47D-01.
 AX will form     3 AO Fock derivatives at one time.
      3 vectors produced by pass  1 Test12= 3.63D-13 3.33D-08 XBig12= 3.19D-02 1.01D-01.
      3 vectors produced by pass  2 Test12= 3.63D-13 3.33D-08 XBig12= 7.33D-04 1.55D-02.
      3 vectors produced by pass  3 Test12= 3.63D-13 3.33D-08 XBig12= 1.48D-05 1.40D-03.
      3 vectors produced by pass  4 Test12= 3.63D-13 3.33D-08 XBig12= 1.91D-07 1.73D-04.
      3 vectors produced by pass  5 Test12= 3.63D-13 3.33D-08 XBig12= 3.78D-09 2.39D-05.
      3 vectors produced by pass  6 Test12= 3.63D-13 3.33D-08 XBig12= 4.19D-11 2.09D-06.
      3 vectors produced by pass  7 Test12= 3.63D-13 3.33D-08 XBig12= 4.16D-13 2.40D-07.
 InvSVY:  IOpt=1 It=  1 EMax= 1.33D-15
 Solved reduced A of dimension    24 with     3 vectors.
 Calculating GIAO nuclear magnetic shielding tensors.
 SCF GIAO Magnetic shielding tensor (ppm):
      1  Cl   Isotropic =   555.9011   Anisotropy =   672.2367
   XX=  1004.0588   YX=     0.0029   ZX=    -0.2524
   XY=    -0.0043   YY=   321.9295   ZY=     0.0005
   XZ=    -0.1423   YZ=     0.0000   ZZ=   341.7149
   Eigenvalues:   321.9295   341.7148  1004.0589
      2  C    Isotropic =    -5.0922   Anisotropy =   111.6846
   XX=  -108.7075   YX=    -0.0047   ZX=     0.0207
   XY=    -0.0005   YY=    24.0668   ZY=     0.0014
   XZ=     0.0037   YZ=     0.0013   ZZ=    69.3642
   Eigenvalues:  -108.7075    24.0668    69.3642
      3  N    Isotropic =  -113.3073   Anisotropy =   509.3617
   XX=  -309.6015   YX=   -89.4071   ZX=     0.0010
   XY=   -64.8880   YY=  -256.5875   ZY=    -0.0149
   XZ=     0.0420   YZ=    -0.0422   ZZ=   226.2672
   Eigenvalues:  -364.6688  -201.5202   226.2672
      4  C    Isotropic =    -1.2918   Anisotropy =   197.2323
   XX=   -56.4020   YX=   -61.9196   ZX=    -0.0034
   XY=   -46.1142   YY=   -77.6697   ZY=     0.0001
   XZ=    -0.0019   YZ=    -0.0056   ZZ=   130.1964
   Eigenvalues:  -122.0895   -11.9822   130.1964
      5  C    Isotropic =    28.9500   Anisotropy =   150.3912
   XX=   -90.1100   YX=     0.0014   ZX=     0.0043
   XY=     0.0020   YY=    47.7491   ZY=     0.0023
   XZ=    -0.0035   YZ=     0.0024   ZZ=   129.2107
   Eigenvalues:   -90.1100    47.7491   129.2107
      6  Br   Isotropic =  2167.8256   Anisotropy =  1115.9629
   XX=  2911.8008   YX=     0.0115   ZX=    -0.0461
   XY=     0.0047   YY=  1759.2527   ZY=     0.0022
   XZ=     0.0295   YZ=     0.0024   ZZ=  1832.4233
   Eigenvalues:  1759.2527  1832.4233  2911.8008
      7  C    Isotropic =    -1.2899   Anisotropy =   197.2318
   XX=   -56.4035   YX=    61.9194   ZX=    -0.0066
   XY=    46.1165   YY=   -77.6643   ZY=     0.0118
   XZ=    -0.0047   YZ=     0.0176   ZZ=   130.1980
   Eigenvalues:  -122.0879   -11.9799   130.1980
      8  N    Isotropic =  -113.3010   Anisotropy =   509.3604
   XX=  -309.5973   YX=    89.4014   ZX=    -0.0039
   XY=    64.8863   YY=  -256.5784   ZY=     0.0435
   XZ=     0.0378   YZ=     0.0708   ZZ=   226.2726
   Eigenvalues:  -364.6594  -201.5163   226.2726
      9  H    Isotropic =    22.4169   Anisotropy =    11.0499
   XX=    25.6803   YX=    -5.3533   ZX=     0.0003
   XY=    -4.9485   YY=    23.3172   ZY=     0.0000
   XZ=     0.0001   YZ=    -0.0003   ZZ=    18.2531
   Eigenvalues:    18.2531    19.2141    29.7835
     10  H    Isotropic =    22.4169   Anisotropy =    11.0498
   XX=    25.6805   YX=     5.3533   ZX=    -0.0000
   XY=     4.9484   YY=    23.3172   ZY=    -0.0004
   XZ=    -0.0002   YZ=     0.0000   ZZ=    18.2531
   Eigenvalues:    18.2531    19.2142    29.7835
 End of Minotr F.D. properties file   721 does not exist.
 End of Minotr F.D. properties file   722 does not exist.
 End of Minotr F.D. properties file   788 does not exist.
 Leave Link 1002 at Tue Sep 17 10:03:00 2024, MaxMem=  1342177280 cpu:             126.6 elap:             127.0
 (Enter /groups/ReismanLab/Software/Gaussian16_RevC/Linux_Binary_AVX2-enabled-CPU/g16/l601.exe)
 Copying SCF densities to generalized density rwf, IOpCl= 0 IROHF=0.

 **********************************************************************

            Population analysis using the SCF Density.

 **********************************************************************

 Orbital symmetries:
       Occupied  (A) (A) (A) (A) (A) (A) (A) (A) (A) (A) (A) (A)
                 (A) (A) (A) (A) (A) (A) (A) (A) (A) (A) (A) (A)
                 (A) (A) (A) (A) (A) (A) (A) (A) (A) (A) (A) (A)
                 (A) (A) (A) (A) (A) (A) (A) (A) (A) (A)
       Virtual   (A) (A) (A) (A) (A) (A) (A) (A) (A) (A) (A) (A)
                 (A) (A) (A) (A) (A) (A) (A) (A) (A) (A) (A) (A)
                 (A) (A) (A) (A) (A) (A) (A) (A) (A) (A) (A) (A)
                 (A) (A) (A) (A) (A) (A) (A) (A) (A) (A) (A) (A)
                 (A) (A) (A) (A) (A) (A) (A) (A) (A) (A) (A) (A)
                 (A) (A) (A) (A) (A) (A) (A) (A) (A) (A) (A) (A)
                 (A) (A) (A) (A) (A) (A) (A) (A) (A) (A) (A) (A)
                 (A) (A) (A) (A) (A) (A) (A) (A) (A) (A) (A) (A)
                 (A) (A) (A) (A) (A) (A) (A) (A) (A) (A) (A) (A)
                 (A) (A) (A) (A) (A) (A) (A) (A) (A) (A) (A) (A)
                 (A) (A) (A) (A) (A) (A) (A) (A) (A) (A) (A) (A)
                 (A) (A) (A) (A) (A) (A) (A) (A) (A) (A) (A) (A)
                 (A) (A) (A) (A) (A) (A) (A) (A) (A) (A) (A) (A)
                 (A) (A) (A) (A) (A) (A) (A) (A) (A) (A) (A) (A)
                 (A) (A) (A) (A) (A) (A) (A) (A) (A) (A) (A) (A)
                 (A) (A) (A) (A) (A) (A) (A) (A) (A) (A) (A) (A)
                 (A) (A) (A) (A) (A) (A) (A) (A) (A) (A) (A) (A)
                 (A) (A) (A) (A) (A) (A) (A) (A) (A) (A) (A) (A)
                 (A) (A) (A) (A) (A) (A) (A) (A) (A) (A) (A) (A)
                 (A) (A) (A) (A) (A) (A) (A) (A) (A)
 The electronic state is 1-A.
 Alpha  occ. eigenvalues -- -485.40035-102.65833 -63.38507 -57.20462 -57.20210
 Alpha  occ. eigenvalues --  -57.20205 -14.79093 -14.79092 -10.68797 -10.62993
 Alpha  occ. eigenvalues --  -10.62604 -10.62596  -9.82121  -9.05156  -7.54316
 Alpha  occ. eigenvalues --   -7.53812  -7.53764  -6.87601  -6.86663  -6.86646
 Alpha  occ. eigenvalues --   -2.90978  -2.90636  -2.90616  -2.89742  -2.89742
 Alpha  occ. eigenvalues --   -1.14203  -1.03186  -0.98352  -0.93642  -0.84877
 Alpha  occ. eigenvalues --   -0.78406  -0.73813  -0.63084  -0.62088  -0.54902
 Alpha  occ. eigenvalues --   -0.52021  -0.51873  -0.50385  -0.44535  -0.41085
 Alpha  occ. eigenvalues --   -0.40908  -0.39696  -0.39408  -0.38335  -0.34830
 Alpha  occ. eigenvalues --   -0.32502
 Alpha virt. eigenvalues --   -0.03854  -0.02368   0.01951   0.06996   0.09415
 Alpha virt. eigenvalues --    0.11509   0.11938   0.13586   0.15250   0.18253
 Alpha virt. eigenvalues --    0.18506   0.21621   0.21963   0.23905   0.24919
 Alpha virt. eigenvalues --    0.25494   0.26282   0.27162   0.28910   0.29685
 Alpha virt. eigenvalues --    0.30346   0.31716   0.32789   0.34081   0.35866
 Alpha virt. eigenvalues --    0.36844   0.37030   0.39087   0.39359   0.39871
 Alpha virt. eigenvalues --    0.41148   0.41723   0.41998   0.42284   0.43305
 Alpha virt. eigenvalues --    0.47272   0.49040   0.49162   0.52290   0.53024
 Alpha virt. eigenvalues --    0.54219   0.54887   0.57214   0.59091   0.60740
 Alpha virt. eigenvalues --    0.61039   0.62033   0.66978   0.66996   0.68044
 Alpha virt. eigenvalues --    0.68392   0.69426   0.70297   0.70343   0.74332
 Alpha virt. eigenvalues --    0.77131   0.79917   0.81238   0.87008   0.92283
 Alpha virt. eigenvalues --    0.94513   0.95801   0.97827   0.97984   0.98592
 Alpha virt. eigenvalues --    1.08371   1.09086   1.09855   1.11324   1.14040
 Alpha virt. eigenvalues --    1.18460   1.20958   1.23220   1.28406   1.28862
 Alpha virt. eigenvalues --    1.33713   1.33742   1.36950   1.38015   1.39577
 Alpha virt. eigenvalues --    1.42121   1.42581   1.43172   1.45256   1.46434
 Alpha virt. eigenvalues --    1.50171   1.50851   1.51881   1.53674   1.55359
 Alpha virt. eigenvalues --    1.57185   1.57216   1.58493   1.63008   1.63391
 Alpha virt. eigenvalues --    1.64669   1.65310   1.66156   1.69948   1.71285
 Alpha virt. eigenvalues --    1.71761   1.73080   1.74155   1.77520   1.80819
 Alpha virt. eigenvalues --    1.81798   1.82541   1.84707   1.85739   1.86981
 Alpha virt. eigenvalues --    1.87025   1.87192   1.91793   1.95168   1.96489
 Alpha virt. eigenvalues --    2.01280   2.02381   2.03422   2.04159   2.04491
 Alpha virt. eigenvalues --    2.11734   2.12588   2.13724   2.20671   2.21919
 Alpha virt. eigenvalues --    2.23155   2.25226   2.26753   2.28880   2.29773
 Alpha virt. eigenvalues --    2.30954   2.36524   2.38505   2.40747   2.41338
 Alpha virt. eigenvalues --    2.42967   2.46930   2.52981   2.54982   2.64071
 Alpha virt. eigenvalues --    2.67167   2.67271   2.69526   2.72530   2.79800
 Alpha virt. eigenvalues --    2.79978   2.83485   2.86780   2.89572   2.90939
 Alpha virt. eigenvalues --    2.91564   2.94612   2.96134   2.97502   3.00956
 Alpha virt. eigenvalues --    3.01791   3.06722   3.11095   3.11488   3.12512
 Alpha virt. eigenvalues --    3.13142   3.16990   3.18861   3.22574   3.26076
 Alpha virt. eigenvalues --    3.27699   3.30725   3.31978   3.33617   3.35684
 Alpha virt. eigenvalues --    3.37896   3.39951   3.42739   3.42844   3.49255
 Alpha virt. eigenvalues --    3.50448   3.57335   3.65078   3.70098   3.72985
 Alpha virt. eigenvalues --    3.73596   3.78846   3.79672   3.84198   3.84619
 Alpha virt. eigenvalues --    3.92024   4.03055   4.03980   4.07952   4.10533
 Alpha virt. eigenvalues --    4.10566   4.11269   4.16404   4.19667   4.27415
 Alpha virt. eigenvalues --    4.30815   4.35459   4.38377   4.41005   4.48223
 Alpha virt. eigenvalues --    4.54143   4.55398   4.61055   4.68678   4.68792
 Alpha virt. eigenvalues --    4.74554   4.84169   4.84507   4.91772   4.98452
 Alpha virt. eigenvalues --    4.98522   5.03442   5.06755   5.09904   5.15338
 Alpha virt. eigenvalues --    5.26521   5.27214   5.32161   5.34145   5.36963
 Alpha virt. eigenvalues --    5.48176   5.50414   5.62406   5.63321   5.91050
 Alpha virt. eigenvalues --    6.11783   7.83689  10.80045  10.86474  11.36813
 Alpha virt. eigenvalues --   22.58932  22.74508  22.87531  22.95747  25.81516
 Alpha virt. eigenvalues --   32.38211  32.56646
          Condensed to atoms (all electrons):
               1          2          3          4          5          6
     1  Cl  16.818611   0.403485  -0.090931  -0.000543   0.004989   0.000042
     2  C    0.403485   4.598187   0.497623  -0.086218  -0.036042   0.002578
     3  N   -0.090931   0.497623   6.502897   0.474140  -0.034123   0.006859
     4  C   -0.000543  -0.086218   0.474140   4.870494   0.442196  -0.077372
     5  C    0.004989  -0.036042  -0.034123   0.442196   4.987094   0.361729
     6  Br   0.000042   0.002578   0.006859  -0.077372   0.361729  34.836714
     7  C   -0.000543  -0.086218  -0.026035  -0.024699   0.442208  -0.077373
     8  N   -0.090929   0.497640  -0.068065  -0.026034  -0.034122   0.006858
     9  H   -0.000335   0.004546  -0.029670   0.437289  -0.068267  -0.001894
    10  H   -0.000335   0.004546  -0.001795   0.006520  -0.068266  -0.001895
               7          8          9         10
     1  Cl  -0.000543  -0.090929  -0.000335  -0.000335
     2  C   -0.086218   0.497640   0.004546   0.004546
     3  N   -0.026035  -0.068065  -0.029670  -0.001795
     4  C   -0.024699  -0.026034   0.437289   0.006520
     5  C    0.442208  -0.034122  -0.068267  -0.068266
     6  Br  -0.077373   0.006858  -0.001894  -0.001895
     7  C    4.870495   0.474124   0.006520   0.437290
     8  N    0.474124   6.502891  -0.001795  -0.029670
     9  H    0.006520  -0.001795   0.458262   0.000035
    10  H    0.437290  -0.029670   0.000035   0.458261
 Mulliken charges:
               1
     1  Cl  -0.043510
     2  C    0.199873
     3  N   -0.230899
     4  C   -0.015772
     5  C    0.002604
     6  Br  -0.056247
     7  C   -0.015768
     8  N   -0.230897
     9  H    0.195309
    10  H    0.195309
 Sum of Mulliken charges =  -0.00000
 Mulliken charges with hydrogens summed into heavy atoms:
               1
     1  Cl  -0.043510
     2  C    0.199873
     3  N   -0.230899
     4  C    0.179536
     5  C    0.002604
     6  Br  -0.056247
     7  C    0.179541
     8  N   -0.230897
 Electronic spatial extent (au):  <R**2>=           2166.0048
 Charge=             -0.0000 electrons
 Dipole moment (field-independent basis, Debye):
    X=             -2.8667    Y=              0.0000    Z=              0.0002  Tot=              2.8667
 Quadrupole moment (field-independent basis, Debye-Ang):
   XX=            -70.6262   YY=            -64.1411   ZZ=            -65.0353
   XY=              0.0000   XZ=              0.0001   YZ=             -0.0000
 Traceless Quadrupole moment (field-independent basis, Debye-Ang):
   XX=             -4.0254   YY=              2.4598   ZZ=              1.5656
   XY=              0.0000   XZ=              0.0001   YZ=             -0.0000
 Octapole moment (field-independent basis, Debye-Ang**2):
  XXX=            -81.6080  YYY=              0.0002  ZZZ=              0.0015  XYY=            -36.7530
  XXY=             -0.0003  XXZ=             -0.0011  XZZ=            -20.5891  YZZ=             -0.0001
  YYZ=              0.0004  XYZ=              0.0005
 Hexadecapole moment (field-independent basis, Debye-Ang**3):
 XXXX=          -2024.5111 YYYY=           -277.4925 ZZZZ=            -71.0906 XXXY=             -0.0001
 XXXZ=              0.0306 YYYX=              0.0001 YYYZ=              0.0027 ZZZX=              0.0518
 ZZZY=              0.0034 XXYY=           -427.2999 XXZZ=           -367.8364 YYZZ=            -62.2036
 XXYZ=              0.0018 YYXZ=              0.0166 ZZXY=              0.0001
 N-N= 5.989514686643D+02 E-N=-9.056561047313D+03  KE= 3.292394455206D+03
 Calculating spin-rotation constants.
 Leave Link  601 at Tue Sep 17 10:03:01 2024, MaxMem=  1342177280 cpu:               1.0 elap:               1.0
 (Enter /groups/ReismanLab/Software/Gaussian16_RevC/Linux_Binary_AVX2-enabled-CPU/g16/l9999.exe)
 Unable to Open any file for archive entry.
 1\1\GINC-HPC-35-16\SP\RM062X\def2TZVP\C4H2Br1Cl1N2\MANTIND\17-Sep-2024
 \0\\#p M062X/def2tzvp geom=check guess=read scf(xqc,tight) integral(gr
 id=ultrafine) scrf(SMD, solvent=1,4-Dioxane) nmr=giao\\spe\\0,1\Cl,0,3
 .8181580343,-0.0000143003,-0.0001342743\C,0,2.0729014767,0.0000333323,
 0.0003375839\N,0,1.489494783,-1.1951478171,0.000254946\C,0,0.153386660
 4,-1.1905713617,0.0002323274\C,0,-0.5707656893,0.0000859549,0.00023100
 71\Br,0,-2.4641187743,0.0001079455,0.000273269\C,0,0.1534258959,1.1907
 058515,0.000162335\N,0,1.4895471199,1.1952220208,0.0001830541\H,0,-0.3
 479290591,-2.1543904491,0.0002684516\H,0,-0.3478392509,2.1545491707,0.
 0001443348\\Version=ES64L-G16RevC.02\State=1-A\HF=-3297.5152025\RMSD=7
 .893e-10\Dipole=-1.1278388,0.0000279,0.0000789\Quadrupole=-2.9927645,1
 .8287917,1.1639728,0.0001027,0.0000754,-0.0000124\PG=C01 [X(C4H2Br1Cl1
 N2)]\\@
 The archive entry for this job was punched.


 BULLDOZER: SOMEONE WHO SLEEPS THROUGH SPEECHES.
 Job cpu time:       0 days  0 hours  2 minutes 43.6 seconds.
 Elapsed time:       0 days  0 hours  2 minutes 44.6 seconds.
 File lengths (MBytes):  RWF=    176 Int=      0 D2E=      0 Chk=     16 Scr=     16
 Normal termination of Gaussian 16 at Tue Sep 17 10:03:01 2024.
