 Entering Gaussian System, Link 0=g16
 Input=smiles_00068_conf_4.gjf
 Output=smiles_00068_conf_4.log
 Initial command:
 /groups/ReismanLab/Software/Gaussian16_RevC/Linux_Binary_AVX2-enabled-CPU/g16/l1.exe "/central/groups/ReismanLab/DM/dft_final/smiles_00068/Gau-1050636.inp" -scrdir="/central/groups/ReismanLab/DM/dft_final/smiles_00068/"
 Entering Link 1 = /groups/ReismanLab/Software/Gaussian16_RevC/Linux_Binary_AVX2-enabled-CPU/g16/l1.exe PID=   1050647.
  
 Copyright (c) 1988-2021, Gaussian, Inc.  All Rights Reserved.
  
 This is part of the Gaussian(R) 16 program.  It is based on
 the Gaussian(R) 09 system (copyright 2009, Gaussian, Inc.),
 the Gaussian(R) 03 system (copyright 2003, Gaussian, Inc.),
 the Gaussian(R) 98 system (copyright 1998, Gaussian, Inc.),
 the Gaussian(R) 94 system (copyright 1995, Gaussian, Inc.),
 the Gaussian 92(TM) system (copyright 1992, Gaussian, Inc.),
 the Gaussian 90(TM) system (copyright 1990, Gaussian, Inc.),
 the Gaussian 88(TM) system (copyright 1988, Gaussian, Inc.),
 the Gaussian 86(TM) system (copyright 1986, Carnegie Mellon
 University), and the Gaussian 82(TM) system (copyright 1983,
 Carnegie Mellon University). Gaussian is a federally registered
 trademark of Gaussian, Inc.
  
 This software contains proprietary and confidential information,
 including trade secrets, belonging to Gaussian, Inc.
  
 This software is provided under written license and may be
 used, copied, transmitted, or stored only in accord with that
 written license.
  
 The following legend is applicable only to US Government
 contracts under FAR:
  
                    RESTRICTED RIGHTS LEGEND
  
 Use, reproduction and disclosure by the US Government is
 subject to restrictions as set forth in subparagraphs (a)
 and (c) of the Commercial Computer Software - Restricted
 Rights clause in FAR 52.227-19.
  
 Gaussian, Inc.
 340 Quinnipiac St., Bldg. 40, Wallingford CT 06492
  
  
 ---------------------------------------------------------------
 Warning -- This program may not be used in any manner that
 competes with the business of Gaussian, Inc. or will provide
 assistance to any competitor of Gaussian, Inc.  The licensee
 of this program is prohibited from giving any competitor of
 Gaussian, Inc. access to this program.  By using this program,
 the user acknowledges that Gaussian, Inc. is engaged in the
 business of creating and licensing software in the field of
 computational chemistry and represents and warrants to the
 licensee that it is not a competitor of Gaussian, Inc. and that
 it will not use this program in any manner prohibited above.
 ---------------------------------------------------------------
  

 Cite this work as:
 Gaussian 16, Revision C.02,
 M. J. Frisch, G. W. Trucks, H. B. Schlegel, G. E. Scuseria, 
 M. A. Robb, J. R. Cheeseman, G. Scalmani, V. Barone, 
 G. A. Petersson, H. Nakatsuji, X. Li, M. Caricato, A. V. Marenich, 
 J. Bloino, B. G. Janesko, R. Gomperts, B. Mennucci, H. P. Hratchian, 
 J. V. Ortiz, A. F. Izmaylov, J. L. Sonnenberg, D. Williams-Young, 
 F. Ding, F. Lipparini, F. Egidi, J. Goings, B. Peng, A. Petrone, 
 T. Henderson, D. Ranasinghe, V. G. Zakrzewski, J. Gao, N. Rega, 
 G. Zheng, W. Liang, M. Hada, M. Ehara, K. Toyota, R. Fukuda, 
 J. Hasegawa, M. Ishida, T. Nakajima, Y. Honda, O. Kitao, H. Nakai, 
 T. Vreven, K. Throssell, J. A. Montgomery, Jr., J. E. Peralta, 
 F. Ogliaro, M. J. Bearpark, J. J. Heyd, E. N. Brothers, K. N. Kudin, 
 V. N. Staroverov, T. A. Keith, R. Kobayashi, J. Normand, 
 K. Raghavachari, A. P. Rendell, J. C. Burant, S. S. Iyengar, 
 J. Tomasi, M. Cossi, J. M. Millam, M. Klene, C. Adamo, R. Cammi, 
 J. W. Ochterski, R. L. Martin, K. Morokuma, O. Farkas, 
 J. B. Foresman, and D. J. Fox, Gaussian, Inc., Wallingford CT, 2019.
 
 ******************************************
 Gaussian 16:  ES64L-G16RevC.02  7-Dec-2021
                17-Sep-2024 
 ******************************************
 %nprocshared=8
 Will use up to    8 processors via shared memory.
 %Mem=10GB
 %Chk=smiles_00068_conf_4.chk
 ----------------------------------------------------------------------
 #p B3LYP/6-31G(d,p) EmpiricalDispersion=GD3BJ opt freq scf(xqc,tight) 
 integral(grid=ultrafine)
 ----------------------------------------------------------------------
 1/18=20,19=15,26=4,38=1/1,3;
 2/9=110,12=2,17=6,18=5,40=1/2;
 3/5=1,6=6,7=101,11=2,25=1,30=1,71=1,74=-5,75=-5,124=41/1,2,3;
 4//1;
 5/5=2,8=3,13=1,32=2,38=5/2,8;
 6/7=2,8=2,9=2,10=2,28=1/1;
 7//1,2,3,16;
 1/18=20,19=15,26=4/3(2);
 2/9=110/2;
 99//99;
 2/9=110/2;
 3/5=1,6=6,7=101,11=2,25=1,30=1,71=1,74=-5,75=-5,124=41/1,2,3;
 4/5=5,16=3,69=1/1;
 5/5=2,8=3,13=1,32=2,38=5/2,8;
 7//1,2,3,16;
 1/18=20,19=15,26=4/3(-5);
 2/9=110/2;
 6/7=2,8=2,9=2,10=2,19=2,28=1/1;
 99/9=1/99;
 Leave Link    1 at Tue Sep 17 09:43:04 2024, MaxMem=  1342177280 cpu:               0.0 elap:               1.2
 (Enter /groups/ReismanLab/Software/Gaussian16_RevC/Linux_Binary_AVX2-enabled-CPU/g16/l101.exe)
 ----------------------------------
 opt-freq conformers_unique/conf_ae
 ----------------------------------
 Symbolic Z-matrix:
 Charge =  0 Multiplicity = 1
 N                    -1.30176  -4.50471  -0.73273 
 C                    -1.06348  -3.42402  -0.4405 
 C                    -0.77091  -2.08566  -0.07563 
 C                    -1.77296  -1.11902  -0.14283 
 C                    -1.47599   0.18349   0.2201 
 Br                   -2.8318    1.50874   0.13983 
 C                    -0.20435   0.53944   0.64524 
 C                     0.77669  -0.43756   0.6961 
 S                     2.43278   0.01848   1.22289 
 C                     3.00847   0.49827  -0.4468 
 F                     2.27578   1.4929   -0.95224 
 F                     4.26966   0.89582  -0.40588 
 F                     2.92062  -0.51922  -1.30623 
 C                     0.51497  -1.74973   0.34746 
 H                    -2.7653   -1.38684  -0.47276 
 H                     0.01946   1.55664   0.92585 
 H                     1.28967  -2.49877   0.39654 
 
 ITRead=  0  0  0  0  0  0  0  0  0  0  0  0  0  0  0  0  0
 MicOpt= -1 -1 -1 -1 -1 -1 -1 -1 -1 -1 -1 -1 -1 -1 -1 -1 -1
 NAtoms=     17 NQM=       17 NQMF=       0 NMMI=      0 NMMIF=      0
                NMic=       0 NMicF=      0.
                    Isotopes and Nuclear Properties:
 (Nuclear quadrupole moments (NQMom) in fm**2, nuclear magnetic moments (NMagM)
  in nuclear magnetons)

  Atom         1           2           3           4           5           6           7           8           9          10
 IAtWgt=          14          12          12          12          12          79          12          12          32          12
 AtmWgt=  14.0030740  12.0000000  12.0000000  12.0000000  12.0000000  78.9183361  12.0000000  12.0000000  31.9720718  12.0000000
 NucSpn=           2           0           0           0           0           3           0           0           0           0
 AtZEff=  -0.0000000  -0.0000000  -0.0000000  -0.0000000  -0.0000000  -0.0000000  -0.0000000  -0.0000000  -0.0000000  -0.0000000
 NQMom=    2.0440000   0.0000000   0.0000000   0.0000000   0.0000000  31.3000000   0.0000000   0.0000000   0.0000000   0.0000000
 NMagM=    0.4037610   0.0000000   0.0000000   0.0000000   0.0000000   2.1063990   0.0000000   0.0000000   0.0000000   0.0000000
 AtZNuc=   7.0000000   6.0000000   6.0000000   6.0000000   6.0000000  35.0000000   6.0000000   6.0000000  16.0000000   6.0000000

  Atom        11          12          13          14          15          16          17
 IAtWgt=          19          19          19          12           1           1           1
 AtmWgt=  18.9984032  18.9984032  18.9984032  12.0000000   1.0078250   1.0078250   1.0078250
 NucSpn=           1           1           1           0           1           1           1
 AtZEff=  -0.0000000  -0.0000000  -0.0000000  -0.0000000  -0.0000000  -0.0000000  -0.0000000
 NQMom=    0.0000000   0.0000000   0.0000000   0.0000000   0.0000000   0.0000000   0.0000000
 NMagM=    2.6288670   2.6288670   2.6288670   0.0000000   2.7928460   2.7928460   2.7928460
 AtZNuc=   9.0000000   9.0000000   9.0000000   6.0000000   1.0000000   1.0000000   1.0000000
 Leave Link  101 at Tue Sep 17 09:43:04 2024, MaxMem=  1342177280 cpu:               0.2 elap:               0.2
 (Enter /groups/ReismanLab/Software/Gaussian16_RevC/Linux_Binary_AVX2-enabled-CPU/g16/l103.exe)

 GradGradGradGradGradGradGradGradGradGradGradGradGradGradGradGradGradGrad
 Berny optimization.
 Initialization pass.
                           ----------------------------
                           !    Initial Parameters    !
                           ! (Angstroms and Degrees)  !
 --------------------------                            --------------------------
 ! Name  Definition              Value          Derivative Info.                !
 --------------------------------------------------------------------------------
 ! R1    R(1,2)                  1.1446         estimate D2E/DX2                !
 ! R2    R(2,3)                  1.4177         estimate D2E/DX2                !
 ! R3    R(3,4)                  1.3939         estimate D2E/DX2                !
 ! R4    R(3,14)                 1.3948         estimate D2E/DX2                !
 ! R5    R(4,5)                  1.3844         estimate D2E/DX2                !
 ! R6    R(4,15)                 1.0795         estimate D2E/DX2                !
 ! R7    R(5,6)                  1.8976         estimate D2E/DX2                !
 ! R8    R(5,7)                  1.3873         estimate D2E/DX2                !
 ! R9    R(7,8)                  1.3855         estimate D2E/DX2                !
 ! R10   R(7,16)                 1.0787         estimate D2E/DX2                !
 ! R11   R(8,9)                  1.7967         estimate D2E/DX2                !
 ! R12   R(8,14)                 1.3827         estimate D2E/DX2                !
 ! R13   R(9,10)                 1.8302         estimate D2E/DX2                !
 ! R14   R(10,11)                1.3348         estimate D2E/DX2                !
 ! R15   R(10,12)                1.323          estimate D2E/DX2                !
 ! R16   R(10,13)                1.3348         estimate D2E/DX2                !
 ! R17   R(14,17)                1.0787         estimate D2E/DX2                !
 ! A1    A(2,3,4)              119.5965         estimate D2E/DX2                !
 ! A2    A(2,3,14)             119.7157         estimate D2E/DX2                !
 ! A3    A(4,3,14)             120.6878         estimate D2E/DX2                !
 ! A4    A(3,4,5)              119.0529         estimate D2E/DX2                !
 ! A5    A(3,4,15)             120.233          estimate D2E/DX2                !
 ! A6    A(5,4,15)             120.7141         estimate D2E/DX2                !
 ! A7    A(4,5,6)              119.52           estimate D2E/DX2                !
 ! A8    A(4,5,7)              121.2251         estimate D2E/DX2                !
 ! A9    A(6,5,7)              119.2548         estimate D2E/DX2                !
 ! A10   A(5,7,8)              118.6449         estimate D2E/DX2                !
 ! A11   A(5,7,16)             120.7895         estimate D2E/DX2                !
 ! A12   A(8,7,16)             120.5648         estimate D2E/DX2                !
 ! A13   A(7,8,9)              118.9763         estimate D2E/DX2                !
 ! A14   A(7,8,14)             121.7301         estimate D2E/DX2                !
 ! A15   A(9,8,14)             119.293          estimate D2E/DX2                !
 ! A16   A(8,9,10)              95.1055         estimate D2E/DX2                !
 ! A17   A(9,10,11)            111.6018         estimate D2E/DX2                !
 ! A18   A(9,10,12)            110.5133         estimate D2E/DX2                !
 ! A19   A(9,10,13)            111.5232         estimate D2E/DX2                !
 ! A20   A(11,10,12)           108.124          estimate D2E/DX2                !
 ! A21   A(11,10,13)           106.7437         estimate D2E/DX2                !
 ! A22   A(12,10,13)           108.1629         estimate D2E/DX2                !
 ! A23   A(3,14,8)             118.6566         estimate D2E/DX2                !
 ! A24   A(3,14,17)            120.5753         estimate D2E/DX2                !
 ! A25   A(8,14,17)            120.7675         estimate D2E/DX2                !
 ! A26   L(1,2,3,15,-1)        179.9286         estimate D2E/DX2                !
 ! A27   L(1,2,3,15,-2)        179.827          estimate D2E/DX2                !
 ! D1    D(2,3,4,5)            179.7991         estimate D2E/DX2                !
 ! D2    D(2,3,4,15)            -0.1382         estimate D2E/DX2                !
 ! D3    D(14,3,4,5)            -0.1552         estimate D2E/DX2                !
 ! D4    D(14,3,4,15)          179.9075         estimate D2E/DX2                !
 ! D5    D(2,3,14,8)           179.9003         estimate D2E/DX2                !
 ! D6    D(2,3,14,17)            0.1926         estimate D2E/DX2                !
 ! D7    D(4,3,14,8)            -0.1455         estimate D2E/DX2                !
 ! D8    D(4,3,14,17)         -179.8532         estimate D2E/DX2                !
 ! D9    D(3,4,5,6)           -179.7736         estimate D2E/DX2                !
 ! D10   D(3,4,5,7)              0.0819         estimate D2E/DX2                !
 ! D11   D(15,4,5,6)             0.1634         estimate D2E/DX2                !
 ! D12   D(15,4,5,7)          -179.9811         estimate D2E/DX2                !
 ! D13   D(4,5,7,8)              0.2895         estimate D2E/DX2                !
 ! D14   D(4,5,7,16)           179.9651         estimate D2E/DX2                !
 ! D15   D(6,5,7,8)           -179.8546         estimate D2E/DX2                !
 ! D16   D(6,5,7,16)            -0.179          estimate D2E/DX2                !
 ! D17   D(5,7,8,9)            179.1329         estimate D2E/DX2                !
 ! D18   D(5,7,8,14)            -0.6056         estimate D2E/DX2                !
 ! D19   D(16,7,8,9)            -0.5434         estimate D2E/DX2                !
 ! D20   D(16,7,8,14)          179.718          estimate D2E/DX2                !
 ! D21   D(7,8,9,10)           -87.4524         estimate D2E/DX2                !
 ! D22   D(14,8,9,10)           92.2926         estimate D2E/DX2                !
 ! D23   D(7,8,14,3)             0.5341         estimate D2E/DX2                !
 ! D24   D(7,8,14,17)         -179.7587         estimate D2E/DX2                !
 ! D25   D(9,8,14,3)          -179.2037         estimate D2E/DX2                !
 ! D26   D(9,8,14,17)            0.5035         estimate D2E/DX2                !
 ! D27   D(8,9,10,11)           60.1728         estimate D2E/DX2                !
 ! D28   D(8,9,10,12)         -179.471          estimate D2E/DX2                !
 ! D29   D(8,9,10,13)          -59.1178         estimate D2E/DX2                !
 --------------------------------------------------------------------------------
 Trust Radius=3.00D-01 FncErr=1.00D-07 GrdErr=1.00D-06 EigMax=2.50D+02 EigMin=1.00D-04
 Number of steps in this run=     83 maximum allowed number of steps=    102.
 GradGradGradGradGradGradGradGradGradGradGradGradGradGradGradGradGradGrad

 Leave Link  103 at Tue Sep 17 09:43:04 2024, MaxMem=  1342177280 cpu:               0.0 elap:               0.0
 (Enter /groups/ReismanLab/Software/Gaussian16_RevC/Linux_Binary_AVX2-enabled-CPU/g16/l202.exe)
                          Input orientation:                          
 ---------------------------------------------------------------------
 Center     Atomic      Atomic             Coordinates (Angstroms)
 Number     Number       Type             X           Y           Z
 ---------------------------------------------------------------------
      1          7           0       -1.301756   -4.504711   -0.732731
      2          6           0       -1.063485   -3.424017   -0.440504
      3          6           0       -0.770913   -2.085662   -0.075626
      4          6           0       -1.772963   -1.119019   -0.142832
      5          6           0       -1.475991    0.183486    0.220099
      6         35           0       -2.831801    1.508743    0.139826
      7          6           0       -0.204351    0.539443    0.645238
      8          6           0        0.776694   -0.437559    0.696101
      9         16           0        2.432777    0.018483    1.222894
     10          6           0        3.008472    0.498268   -0.446798
     11          9           0        2.275782    1.492898   -0.952242
     12          9           0        4.269661    0.895821   -0.405882
     13          9           0        2.920620   -0.519223   -1.306226
     14          6           0        0.514972   -1.749735    0.347465
     15          1           0       -2.765298   -1.386837   -0.472764
     16          1           0        0.019460    1.556640    0.925852
     17          1           0        1.289674   -2.498772    0.396539
 ---------------------------------------------------------------------
                    Distance matrix (angstroms):
                    1          2          3          4          5
     1  N    0.000000
     2  C    1.144582   0.000000
     3  C    2.562300   1.417720   0.000000
     4  C    3.468851   2.430017   1.393922   0.000000
     5  C    4.787215   3.690614   2.394498   1.384352   0.000000
     6  Br   6.266101   5.272177   4.148906   2.847133   1.897622
     7  C    5.342901   4.198329   2.780614   2.414973   1.387270
     8  C    4.785733   3.687419   2.388910   2.769286   2.384715
     9  S    6.183081   5.180883   4.046876   4.565892   4.038724
    10  C    6.609812   5.653776   4.593278   5.056692   4.544694
    11  F    6.987007   5.965621   4.780888   4.885652   4.143036
    12  F    7.766162   6.863282   5.865637   6.375115   5.823384
    13  F    5.834506   5.006035   4.194701   4.872675   4.706767
    14  C    3.472351   2.432210   1.394759   2.423395   2.778039
    15  H    3.454081   2.654677   2.150267   1.079495   2.146691
    16  H    6.421564   5.276992   3.859275   3.393231   2.149422
    17  H    3.466201   2.663470   2.153977   3.402114   3.856752
                    6          7          8          9         10
     6  Br   0.000000
     7  C    2.845782   0.000000
     8  C    4.137483   1.385485   0.000000
     9  S    5.577606   2.749460   1.796690   0.000000
    10  C    5.956003   3.393592   2.676345   1.830161   0.000000
    11  F    5.223051   3.100335   2.948044   2.632444   1.334765
    12  F    7.148723   4.609626   3.897832   2.607064   1.322997
    13  F    6.268497   3.833332   2.934690   2.631267   1.334775
    14  C    4.675648   2.417939   1.382697   2.751535   3.449914
    15  H    2.960418   3.393956   3.848777   5.645367   6.073773
    16  H    2.958010   1.078668   2.145464   2.877196   3.455214
    17  H    5.754357   3.394807   2.145107   2.885502   3.556365
                   11         12         13         14         15
    11  F    0.000000
    12  F    2.151875   0.000000
    13  F    2.142371   2.152413   0.000000
    14  C    3.912078   4.654480   3.167963   0.000000
    15  H    5.825398   7.396327   5.811805   3.400683   0.000000
    16  H    2.936372   4.502711   4.208100   3.392960   4.286614
    17  H    4.327244   4.587751   3.078637   1.078715   4.293586
                   16         17
    16  H    0.000000
    17  H    4.282520   0.000000
 Stoichiometry    C8H3BrF3NS
 Framework group  C1[X(C8H3BrF3NS)]
 Deg. of freedom    45
 Full point group                 C1      NOp   1
 Largest Abelian subgroup         C1      NOp   1
 Largest concise Abelian subgroup C1      NOp   1
                         Standard orientation:                         
 ---------------------------------------------------------------------
 Center     Atomic      Atomic             Coordinates (Angstroms)
 Number     Number       Type             X           Y           Z
 ---------------------------------------------------------------------
      1          7           0        1.179584    4.529452   -0.412027
      2          6           0        0.990835    3.419894   -0.203884
      3          6           0        0.759712    2.045638    0.056753
      4          6           0        1.790680    1.126446   -0.130890
      5          6           0        1.553853   -0.212114    0.131027
      6         35           0        2.949827   -1.473987   -0.113725
      7          6           0        0.313882   -0.650043    0.572852
      8          6           0       -0.697144    0.281624    0.744299
      9         16           0       -2.313355   -0.278955    1.293579
     10          6           0       -2.940958   -0.638734   -0.387541
     11          9           0       -2.196162   -1.559285   -1.003547
     12          9           0       -4.184991   -1.085548   -0.332203
     13          9           0       -2.923750    0.449668   -1.160010
     14          6           0       -0.495255    1.627290    0.498789
     15          1           0        2.758719    1.458120   -0.474697
     16          1           0        0.136913   -1.694855    0.774279
     17          1           0       -1.292492    2.339876    0.641134
 ---------------------------------------------------------------------
 Rotational constants (GHZ):           0.5540421           0.2815757           0.2050472
 Leave Link  202 at Tue Sep 17 09:43:04 2024, MaxMem=  1342177280 cpu:               0.0 elap:               0.0
 (Enter /groups/ReismanLab/Software/Gaussian16_RevC/Linux_Binary_AVX2-enabled-CPU/g16/l301.exe)
 Standard basis: 6-31G(d,p) (6D, 7F)
 Ernie: Thresh=  0.10000D-02 Tol=  0.10000D-05 Strict=F.
 There are   244 symmetry adapted cartesian basis functions of A   symmetry.
 There are   244 symmetry adapted basis functions of A   symmetry.
   244 basis functions,   492 primitive gaussians,   244 cartesian basis functions
    68 alpha electrons       68 beta electrons
       nuclear repulsion energy      1275.6891905861 Hartrees.
 IExCor=  402 DFT=T Ex+Corr=B3LYP ExCW=0 ScaHFX=  0.200000
 ScaDFX=  0.800000  0.720000  1.000000  0.810000 ScalE2=  1.000000  1.000000
 IRadAn=      5 IRanWt=     -1 IRanGd=            0 ICorTp=0 IEmpDi=141
 NAtoms=   17 NActive=   17 NUniq=   17 SFac= 1.00D+00 NAtFMM=   60 NAOKFM=F Big=F
 Integral buffers will be    131072 words long.
 Raffenetti 2 integral format.
 Two-electron integral symmetry is turned on.
 R6Disp:  Grimme-D3(BJ) Dispersion energy=       -0.0416201354 Hartrees.
 Nuclear repulsion after empirical dispersion term =     1275.6475704508 Hartrees.
 Leave Link  301 at Tue Sep 17 09:43:04 2024, MaxMem=  1342177280 cpu:               0.1 elap:               0.0
 (Enter /groups/ReismanLab/Software/Gaussian16_RevC/Linux_Binary_AVX2-enabled-CPU/g16/l302.exe)
 NPDir=0 NMtPBC=     1 NCelOv=     1 NCel=       1 NClECP=     1 NCelD=      1
         NCelK=      1 NCelE2=     1 NClLst=     1 CellRange=     0.0.
 One-electron integrals computed using PRISM.
 One-electron integral symmetry used in STVInt
 NBasis=   244 RedAO= T EigKep=  4.16D-04  NBF=   244
 NBsUse=   244 1.00D-06 EigRej= -1.00D+00 NBFU=   244
 Precomputing XC quadrature grid using
 IXCGrd= 4 IRadAn=           5 IRanWt=          -1 IRanGd=           0 AccXCQ= 0.00D+00.
 Generated NRdTot=       0 NPtTot=           0 NUsed=           0 NTot=          32
 NSgBfM=   241   241   241   241   241 MxSgAt=    17 MxSgA2=    17.
 Leave Link  302 at Tue Sep 17 09:43:04 2024, MaxMem=  1342177280 cpu:               0.8 elap:               0.1
 (Enter /groups/ReismanLab/Software/Gaussian16_RevC/Linux_Binary_AVX2-enabled-CPU/g16/l303.exe)
 DipDrv:  MaxL=1.
 Leave Link  303 at Tue Sep 17 09:43:04 2024, MaxMem=  1342177280 cpu:               0.1 elap:               0.0
 (Enter /groups/ReismanLab/Software/Gaussian16_RevC/Linux_Binary_AVX2-enabled-CPU/g16/l401.exe)
 ExpMin= 1.17D-01 ExpMax= 5.74D+05 ExpMxC= 5.74D+03 IAcc=3 IRadAn=         5 AccDes= 0.00D+00
 Harris functional with IExCor=  402 and IRadAn=       5 diagonalized for initial guess.
 HarFok:  IExCor=  402 AccDes= 0.00D+00 IRadAn=         5 IDoV= 1 UseB2=F ITyADJ=14
 ICtDFT=  3500011 ScaDFX=  1.000000  1.000000  1.000000  1.000000
 FoFCou: FMM=F IPFlag=           0 FMFlag=      100000 FMFlg1=           0
         NFxFlg=           0 DoJE=T BraDBF=F KetDBF=T FulRan=T
         wScrn=  0.000000 ICntrl=       500 IOpCl=  0 I1Cent=   200000004 NGrid=           0
         NMat0=    1 NMatS0=      1 NMatT0=    0 NMatD0=    1 NMtDS0=    0 NMtDT0=    0
 Petite list used in FoFCou.
 Harris En= -3630.86493585782    
 JPrj=0 DoOrth=F DoCkMO=F.
 Leave Link  401 at Tue Sep 17 09:43:05 2024, MaxMem=  1342177280 cpu:               4.3 elap:               0.6
 (Enter /groups/ReismanLab/Software/Gaussian16_RevC/Linux_Binary_AVX2-enabled-CPU/g16/l502.exe)
 Integral symmetry usage will be decided dynamically.
 Closed shell SCF:
 Using DIIS extrapolation, IDIIS=  1040.
 NGot=  1342177280 LenX=  1342053390 LenY=  1341993413
 Requested convergence on RMS density matrix=1.00D-08 within  32 cycles.
 Requested convergence on MAX density matrix=1.00D-06.
 Requested convergence on             energy=1.00D-06.
 No special actions if energy rises.
 Fock matrices will be formed incrementally for  20 cycles.
 Integral accuracy reduced to 1.0D-05 until final iterations.

 Cycle   1  Pass 0  IDiag  1:
 FoFJK:  IHMeth= 1 ICntrl=       0 DoSepK=F KAlg= 0 I1Cent=           0 FoldK=F
 IRaf= 830000000 NMat=       1 IRICut=       1 DoRegI=T DoRafI=F ISym2E= 0 IDoP0=0 IntGTp=1.
 FoFCou: FMM=F IPFlag=           0 FMFlag=      100000 FMFlg1=           0
         NFxFlg=           0 DoJE=F BraDBF=F KetDBF=F FulRan=T
         wScrn=  0.000000 ICntrl=         0 IOpCl=  0 I1Cent=           0 NGrid=           0
         NMat0=    1 NMatS0=      1 NMatT0=    0 NMatD0=    1 NMtDS0=    0 NMtDT0=    0
 Symmetry not used in FoFCou.
 E= -3630.61750599534    
 DIIS: error= 1.33D-01 at cycle   1 NSaved=   1.
 NSaved= 1 IEnMin= 1 EnMin= -3630.61750599534     IErMin= 1 ErrMin= 1.33D-01
 ErrMax= 1.33D-01  0.00D+00 EMaxC= 1.00D-01 BMatC= 6.16D-01 BMatP= 6.16D-01
 IDIUse=3 WtCom= 0.00D+00 WtEn= 1.00D+00
 Coeff-Com:  0.100D+01
 Coeff-En:   0.100D+01
 Coeff:      0.100D+01
 Gap=     0.340 Goal=   None    Shift=    0.000
 GapD=    0.340 DampG=1.000 DampE=0.250 DampFc=0.2500 IDamp=-1.
 Damping current iteration by 2.50D-01
 RMSDP=5.18D-03 MaxDP=2.38D-01              OVMax= 1.96D-01

 Cycle   2  Pass 0  IDiag  1:
 RMSU=  1.27D-03    CP:  9.93D-01
 E= -3630.69825768260     Delta-E=       -0.080751687255 Rises=F Damp=T
 DIIS: error= 9.81D-02 at cycle   2 NSaved=   2.
 NSaved= 2 IEnMin= 2 EnMin= -3630.69825768260     IErMin= 2 ErrMin= 9.81D-02
 ErrMax= 9.81D-02  0.00D+00 EMaxC= 1.00D-01 BMatC= 2.48D-01 BMatP= 6.16D-01
 IDIUse=3 WtCom= 1.92D-02 WtEn= 9.81D-01
 Coeff-Com: -0.110D+01 0.210D+01
 Coeff-En:   0.000D+00 0.100D+01
 Coeff:     -0.211D-01 0.102D+01
 Gap=     0.215 Goal=   None    Shift=    0.000
 RMSDP=2.39D-03 MaxDP=1.09D-01 DE=-8.08D-02 OVMax= 9.27D-02

 Cycle   3  Pass 0  IDiag  1:
 RMSU=  1.10D-03    CP:  9.73D-01  2.55D+00
 E= -3630.80042779311     Delta-E=       -0.102170110518 Rises=F Damp=F
 DIIS: error= 1.07D-02 at cycle   3 NSaved=   3.
 NSaved= 3 IEnMin= 3 EnMin= -3630.80042779311     IErMin= 3 ErrMin= 1.07D-02
 ErrMax= 1.07D-02  0.00D+00 EMaxC= 1.00D-01 BMatC= 5.22D-02 BMatP= 2.48D-01
 IDIUse=3 WtCom= 8.93D-01 WtEn= 1.07D-01
 Coeff-Com:  0.965D+00-0.118D+01 0.121D+01
 Coeff-En:   0.122D+00 0.000D+00 0.878D+00
 Coeff:      0.876D+00-0.105D+01 0.118D+01
 Gap=     0.220 Goal=   None    Shift=    0.000
 RMSDP=1.27D-03 MaxDP=3.26D-02 DE=-1.02D-01 OVMax= 6.52D-02

 Cycle   4  Pass 0  IDiag  1:
 RMSU=  8.45D-04    CP:  9.74D-01  1.81D+00  1.10D+00
 E= -3630.82616830474     Delta-E=       -0.025740511628 Rises=F Damp=F
 DIIS: error= 1.16D-02 at cycle   4 NSaved=   4.
 NSaved= 4 IEnMin= 4 EnMin= -3630.82616830474     IErMin= 3 ErrMin= 1.07D-02
 ErrMax= 1.16D-02  0.00D+00 EMaxC= 1.00D-01 BMatC= 1.92D-02 BMatP= 5.22D-02
 IDIUse=3 WtCom= 8.84D-01 WtEn= 1.16D-01
 Coeff-Com:  0.699D+00-0.905D+00 0.811D+00 0.395D+00
 Coeff-En:   0.000D+00 0.000D+00 0.235D+00 0.765D+00
 Coeff:      0.618D+00-0.800D+00 0.744D+00 0.438D+00
 Gap=     0.201 Goal=   None    Shift=    0.000
 RMSDP=7.45D-04 MaxDP=2.75D-02 DE=-2.57D-02 OVMax= 4.96D-02

 Cycle   5  Pass 0  IDiag  1:
 RMSU=  2.78D-04    CP:  9.74D-01  1.81D+00  1.23D+00  2.00D-01
 E= -3630.84212340268     Delta-E=       -0.015955097935 Rises=F Damp=F
 DIIS: error= 4.29D-03 at cycle   5 NSaved=   5.
 NSaved= 5 IEnMin= 5 EnMin= -3630.84212340268     IErMin= 5 ErrMin= 4.29D-03
 ErrMax= 4.29D-03  0.00D+00 EMaxC= 1.00D-01 BMatC= 3.06D-03 BMatP= 1.92D-02
 IDIUse=3 WtCom= 9.57D-01 WtEn= 4.29D-02
 Coeff-Com:  0.255D+00-0.332D+00 0.319D+00 0.305D+00 0.454D+00
 Coeff-En:   0.000D+00 0.000D+00 0.000D+00 0.162D+00 0.838D+00
 Coeff:      0.244D+00-0.318D+00 0.306D+00 0.298D+00 0.470D+00
 Gap=     0.200 Goal=   None    Shift=    0.000
 RMSDP=2.41D-04 MaxDP=1.61D-02 DE=-1.60D-02 OVMax= 1.72D-02

 Cycle   6  Pass 0  IDiag  1:
 RMSU=  6.77D-05    CP:  9.74D-01  1.88D+00  1.19D+00  3.59D-01  4.17D-01
 E= -3630.84477559040     Delta-E=       -0.002652187721 Rises=F Damp=F
 DIIS: error= 3.59D-04 at cycle   6 NSaved=   6.
 NSaved= 6 IEnMin= 6 EnMin= -3630.84477559040     IErMin= 6 ErrMin= 3.59D-04
 ErrMax= 3.59D-04  0.00D+00 EMaxC= 1.00D-01 BMatC= 6.34D-05 BMatP= 3.06D-03
 IDIUse=3 WtCom= 9.96D-01 WtEn= 3.59D-03
 Coeff-Com:  0.762D-01-0.100D+00 0.956D-01 0.126D+00 0.235D+00 0.567D+00
 Coeff-En:   0.000D+00 0.000D+00 0.000D+00 0.000D+00 0.000D+00 0.100D+01
 Coeff:      0.760D-01-0.997D-01 0.953D-01 0.125D+00 0.235D+00 0.569D+00
 Gap=     0.199 Goal=   None    Shift=    0.000
 RMSDP=4.86D-05 MaxDP=2.01D-03 DE=-2.65D-03 OVMax= 3.81D-03

 Cycle   7  Pass 0  IDiag  1:
 RMSU=  2.30D-05    CP:  9.74D-01  1.87D+00  1.20D+00  3.77D-01  4.74D-01
                    CP:  5.25D-01
 E= -3630.84482878447     Delta-E=       -0.000053194071 Rises=F Damp=F
 DIIS: error= 1.90D-04 at cycle   7 NSaved=   7.
 NSaved= 7 IEnMin= 7 EnMin= -3630.84482878447     IErMin= 7 ErrMin= 1.90D-04
 ErrMax= 1.90D-04  0.00D+00 EMaxC= 1.00D-01 BMatC= 1.03D-05 BMatP= 6.34D-05
 IDIUse=3 WtCom= 9.98D-01 WtEn= 1.90D-03
 Coeff-Com:  0.183D-01-0.242D-01 0.221D-01 0.418D-01 0.834D-01 0.342D+00
 Coeff-Com:  0.517D+00
 Coeff-En:   0.000D+00 0.000D+00 0.000D+00 0.000D+00 0.000D+00 0.106D+00
 Coeff-En:   0.894D+00
 Coeff:      0.183D-01-0.241D-01 0.221D-01 0.417D-01 0.833D-01 0.341D+00
 Coeff:      0.518D+00
 Gap=     0.199 Goal=   None    Shift=    0.000
 RMSDP=1.54D-05 MaxDP=5.48D-04 DE=-5.32D-05 OVMax= 1.05D-03

 Cycle   8  Pass 0  IDiag  1:
 RMSU=  8.52D-06    CP:  9.74D-01  1.86D+00  1.20D+00  3.78D-01  4.72D-01
                    CP:  6.03D-01  5.01D-01
 E= -3630.84483839336     Delta-E=       -0.000009608890 Rises=F Damp=F
 DIIS: error= 4.82D-05 at cycle   8 NSaved=   8.
 NSaved= 8 IEnMin= 8 EnMin= -3630.84483839336     IErMin= 8 ErrMin= 4.82D-05
 ErrMax= 4.82D-05  0.00D+00 EMaxC= 1.00D-01 BMatC= 1.02D-06 BMatP= 1.03D-05
 IDIUse=1 WtCom= 1.00D+00 WtEn= 0.00D+00
 Coeff-Com:  0.440D-02-0.590D-02 0.479D-02 0.139D-01 0.276D-01 0.160D+00
 Coeff-Com:  0.313D+00 0.482D+00
 Coeff:      0.440D-02-0.590D-02 0.479D-02 0.139D-01 0.276D-01 0.160D+00
 Coeff:      0.313D+00 0.482D+00
 Gap=     0.199 Goal=   None    Shift=    0.000
 RMSDP=5.18D-06 MaxDP=1.61D-04 DE=-9.61D-06 OVMax= 3.80D-04

 Initial convergence to 1.0D-05 achieved.  Increase integral accuracy.
 Cycle   9  Pass 1  IDiag  1:
 E= -3630.84484099665     Delta-E=       -0.000002603289 Rises=F Damp=F
 DIIS: error= 4.35D-05 at cycle   1 NSaved=   1.
 NSaved= 1 IEnMin= 1 EnMin= -3630.84484099665     IErMin= 1 ErrMin= 4.35D-05
 ErrMax= 4.35D-05  0.00D+00 EMaxC= 1.00D-01 BMatC= 2.57D-07 BMatP= 2.57D-07
 IDIUse=1 WtCom= 1.00D+00 WtEn= 0.00D+00
 Coeff-Com:  0.100D+01
 Coeff:      0.100D+01
 Gap=     0.199 Goal=   None    Shift=    0.000
 RMSDP=5.18D-06 MaxDP=1.61D-04 DE=-2.60D-06 OVMax= 2.74D-04

 Cycle  10  Pass 1  IDiag  1:
 RMSU=  1.62D-05    CP:  1.00D+00
 E= -3630.84484100266     Delta-E=       -0.000000006010 Rises=F Damp=F
 DIIS: error= 2.52D-05 at cycle   2 NSaved=   2.
 NSaved= 2 IEnMin= 2 EnMin= -3630.84484100266     IErMin= 2 ErrMin= 2.52D-05
 ErrMax= 2.52D-05  0.00D+00 EMaxC= 1.00D-01 BMatC= 1.47D-07 BMatP= 2.57D-07
 IDIUse=1 WtCom= 1.00D+00 WtEn= 0.00D+00
 Coeff-Com:  0.401D+00 0.599D+00
 Coeff:      0.401D+00 0.599D+00
 Gap=     0.199 Goal=   None    Shift=    0.000
 RMSDP=3.26D-06 MaxDP=1.10D-04 DE=-6.01D-09 OVMax= 3.06D-04

 Cycle  11  Pass 1  IDiag  1:
 RMSU=  3.21D-06    CP:  1.00D+00  9.65D-01
 E= -3630.84484105214     Delta-E=       -0.000000049486 Rises=F Damp=F
 DIIS: error= 1.67D-05 at cycle   3 NSaved=   3.
 NSaved= 3 IEnMin= 3 EnMin= -3630.84484105214     IErMin= 3 ErrMin= 1.67D-05
 ErrMax= 1.67D-05  0.00D+00 EMaxC= 1.00D-01 BMatC= 1.05D-07 BMatP= 1.47D-07
 IDIUse=1 WtCom= 1.00D+00 WtEn= 0.00D+00
 Coeff-Com:  0.302D-01 0.451D+00 0.519D+00
 Coeff:      0.302D-01 0.451D+00 0.519D+00
 Gap=     0.199 Goal=   None    Shift=    0.000
 RMSDP=1.50D-06 MaxDP=4.71D-05 DE=-4.95D-08 OVMax= 1.31D-04

 Cycle  12  Pass 1  IDiag  1:
 RMSU=  4.97D-07    CP:  1.00D+00  9.88D-01  5.73D-01
 E= -3630.84484116037     Delta-E=       -0.000000108224 Rises=F Damp=F
 DIIS: error= 7.72D-06 at cycle   4 NSaved=   4.
 NSaved= 4 IEnMin= 4 EnMin= -3630.84484116037     IErMin= 4 ErrMin= 7.72D-06
 ErrMax= 7.72D-06  0.00D+00 EMaxC= 1.00D-01 BMatC= 5.13D-09 BMatP= 1.05D-07
 IDIUse=1 WtCom= 1.00D+00 WtEn= 0.00D+00
 Coeff-Com:  0.487D-03 0.253D+00 0.318D+00 0.429D+00
 Coeff:      0.487D-03 0.253D+00 0.318D+00 0.429D+00
 Gap=     0.199 Goal=   None    Shift=    0.000
 RMSDP=3.02D-07 MaxDP=1.55D-05 DE=-1.08D-07 OVMax= 2.19D-05

 Cycle  13  Pass 1  IDiag  1:
 RMSU=  1.56D-07    CP:  1.00D+00  9.88D-01  5.76D-01  4.80D-01
 E= -3630.84484116458     Delta-E=       -0.000000004216 Rises=F Damp=F
 DIIS: error= 1.85D-06 at cycle   5 NSaved=   5.
 NSaved= 5 IEnMin= 5 EnMin= -3630.84484116458     IErMin= 5 ErrMin= 1.85D-06
 ErrMax= 1.85D-06  0.00D+00 EMaxC= 1.00D-01 BMatC= 5.18D-10 BMatP= 5.13D-09
 IDIUse=1 WtCom= 1.00D+00 WtEn= 0.00D+00
 Coeff-Com: -0.139D-02 0.150D+00 0.191D+00 0.297D+00 0.362D+00
 Coeff:     -0.139D-02 0.150D+00 0.191D+00 0.297D+00 0.362D+00
 Gap=     0.199 Goal=   None    Shift=    0.000
 RMSDP=1.03D-07 MaxDP=5.97D-06 DE=-4.22D-09 OVMax= 6.65D-06

 Cycle  14  Pass 1  IDiag  1:
 RMSU=  4.67D-08    CP:  1.00D+00  9.89D-01  5.74D-01  4.97D-01  4.13D-01
 E= -3630.84484116502     Delta-E=       -0.000000000437 Rises=F Damp=F
 DIIS: error= 2.19D-07 at cycle   6 NSaved=   6.
 NSaved= 6 IEnMin= 6 EnMin= -3630.84484116502     IErMin= 6 ErrMin= 2.19D-07
 ErrMax= 2.19D-07  0.00D+00 EMaxC= 1.00D-01 BMatC= 1.56D-11 BMatP= 5.18D-10
 IDIUse=1 WtCom= 1.00D+00 WtEn= 0.00D+00
 Coeff-Com: -0.827D-03 0.695D-01 0.883D-01 0.141D+00 0.212D+00 0.490D+00
 Coeff:     -0.827D-03 0.695D-01 0.883D-01 0.141D+00 0.212D+00 0.490D+00
 Gap=     0.199 Goal=   None    Shift=    0.000
 RMSDP=2.07D-08 MaxDP=7.58D-07 DE=-4.37D-10 OVMax= 1.90D-06

 Cycle  15  Pass 1  IDiag  1:
 RMSU=  1.41D-08    CP:  1.00D+00  9.89D-01  5.73D-01  4.94D-01  4.27D-01
                    CP:  6.86D-01
 E= -3630.84484116505     Delta-E=       -0.000000000033 Rises=F Damp=F
 DIIS: error= 3.30D-08 at cycle   7 NSaved=   7.
 NSaved= 7 IEnMin= 7 EnMin= -3630.84484116505     IErMin= 7 ErrMin= 3.30D-08
 ErrMax= 3.30D-08  0.00D+00 EMaxC= 1.00D-01 BMatC= 7.36D-13 BMatP= 1.56D-11
 IDIUse=1 WtCom= 1.00D+00 WtEn= 0.00D+00
 Coeff-Com: -0.243D-03 0.168D-01 0.212D-01 0.347D-01 0.594D-01 0.229D+00
 Coeff-Com:  0.639D+00
 Coeff:     -0.243D-03 0.168D-01 0.212D-01 0.347D-01 0.594D-01 0.229D+00
 Coeff:      0.639D+00
 Gap=     0.199 Goal=   None    Shift=    0.000
 RMSDP=4.92D-09 MaxDP=1.50D-07 DE=-3.27D-11 OVMax= 3.98D-07

 SCF Done:  E(RB3LYP) =  -3630.84484117     A.U. after   15 cycles
            NFock= 15  Conv=0.49D-08     -V/T= 2.0061
 KE= 3.608863827237D+03 PE=-1.118144379388D+04 EE= 2.666087555032D+03
 Leave Link  502 at Tue Sep 17 09:43:21 2024, MaxMem=  1342177280 cpu:              88.8 elap:              15.8
 (Enter /groups/ReismanLab/Software/Gaussian16_RevC/Linux_Binary_AVX2-enabled-CPU/g16/l508.exe)
 QCSCF skips out because SCF is already converged.
 Leave Link  508 at Tue Sep 17 09:43:21 2024, MaxMem=  1342177280 cpu:               0.0 elap:               0.0
 (Enter /groups/ReismanLab/Software/Gaussian16_RevC/Linux_Binary_AVX2-enabled-CPU/g16/l601.exe)
 Copying SCF densities to generalized density rwf, IOpCl= 0 IROHF=0.

 **********************************************************************

            Population analysis using the SCF Density.

 **********************************************************************

 Orbital symmetries:
       Occupied  (A) (A) (A) (A) (A) (A) (A) (A) (A) (A) (A) (A)
                 (A) (A) (A) (A) (A) (A) (A) (A) (A) (A) (A) (A)
                 (A) (A) (A) (A) (A) (A) (A) (A) (A) (A) (A) (A)
                 (A) (A) (A) (A) (A) (A) (A) (A) (A) (A) (A) (A)
                 (A) (A) (A) (A) (A) (A) (A) (A) (A) (A) (A) (A)
                 (A) (A) (A) (A) (A) (A) (A) (A)
       Virtual   (A) (A) (A) (A) (A) (A) (A) (A) (A) (A) (A) (A)
                 (A) (A) (A) (A) (A) (A) (A) (A) (A) (A) (A) (A)
                 (A) (A) (A) (A) (A) (A) (A) (A) (A) (A) (A) (A)
                 (A) (A) (A) (A) (A) (A) (A) (A) (A) (A) (A) (A)
                 (A) (A) (A) (A) (A) (A) (A) (A) (A) (A) (A) (A)
                 (A) (A) (A) (A) (A) (A) (A) (A) (A) (A) (A) (A)
                 (A) (A) (A) (A) (A) (A) (A) (A) (A) (A) (A) (A)
                 (A) (A) (A) (A) (A) (A) (A) (A) (A) (A) (A) (A)
                 (A) (A) (A) (A) (A) (A) (A) (A) (A) (A) (A) (A)
                 (A) (A) (A) (A) (A) (A) (A) (A) (A) (A) (A) (A)
                 (A) (A) (A) (A) (A) (A) (A) (A) (A) (A) (A) (A)
                 (A) (A) (A) (A) (A) (A) (A) (A) (A) (A) (A) (A)
                 (A) (A) (A) (A) (A) (A) (A) (A) (A) (A) (A) (A)
                 (A) (A) (A) (A) (A) (A) (A) (A) (A) (A) (A) (A)
                 (A) (A) (A) (A) (A) (A) (A) (A)
 The electronic state is 1-A.
 Alpha  occ. eigenvalues -- -482.93736 -88.92088 -61.89902 -56.42049 -56.41620
 Alpha  occ. eigenvalues --  -56.41612 -24.75439 -24.74748 -24.74676 -14.34955
 Alpha  occ. eigenvalues --  -10.46991 -10.28337 -10.26569 -10.26522 -10.24673
 Alpha  occ. eigenvalues --  -10.24402 -10.24384 -10.24079  -8.61048  -7.98340
 Alpha  occ. eigenvalues --   -6.56474  -6.55158  -6.55121  -5.94859  -5.94508
 Alpha  occ. eigenvalues --   -5.93739  -2.68042  -2.67668  -2.67640  -2.66590
 Alpha  occ. eigenvalues --   -2.66589  -1.33777  -1.24842  -1.24087  -0.93706
 Alpha  occ. eigenvalues --   -0.91818  -0.85304  -0.83745  -0.78347  -0.76204
 Alpha  occ. eigenvalues --   -0.69847  -0.68699  -0.63661  -0.61153  -0.60862
 Alpha  occ. eigenvalues --   -0.58286  -0.55024  -0.53205  -0.52472  -0.48272
 Alpha  occ. eigenvalues --   -0.48129  -0.46076  -0.45920  -0.44588  -0.44331
 Alpha  occ. eigenvalues --   -0.43643  -0.42096  -0.41107  -0.39619  -0.38475
 Alpha  occ. eigenvalues --   -0.37575  -0.37270  -0.35155  -0.33556  -0.31230
 Alpha  occ. eigenvalues --   -0.29535  -0.28366  -0.27622
 Alpha virt. eigenvalues --   -0.07748  -0.06007  -0.02622  -0.00393   0.02484
 Alpha virt. eigenvalues --    0.04676   0.06257   0.10163   0.13597   0.13763
 Alpha virt. eigenvalues --    0.14289   0.14656   0.17076   0.17950   0.19391
 Alpha virt. eigenvalues --    0.21704   0.23695   0.25804   0.28260   0.29665
 Alpha virt. eigenvalues --    0.32662   0.33257   0.33864   0.34324   0.38721
 Alpha virt. eigenvalues --    0.41654   0.43068   0.43730   0.43829   0.44158
 Alpha virt. eigenvalues --    0.45376   0.46043   0.46827   0.47580   0.49614
 Alpha virt. eigenvalues --    0.50009   0.50433   0.51295   0.53426   0.54119
 Alpha virt. eigenvalues --    0.56682   0.57530   0.60116   0.61529   0.61890
 Alpha virt. eigenvalues --    0.65581   0.68869   0.70469   0.71231   0.72218
 Alpha virt. eigenvalues --    0.73825   0.74096   0.75757   0.77283   0.78900
 Alpha virt. eigenvalues --    0.80334   0.80730   0.83109   0.84706   0.85216
 Alpha virt. eigenvalues --    0.86137   0.86795   0.89872   0.93011   0.94056
 Alpha virt. eigenvalues --    0.95742   0.97363   1.04213   1.06114   1.06822
 Alpha virt. eigenvalues --    1.08895   1.11570   1.12909   1.14313   1.16213
 Alpha virt. eigenvalues --    1.16520   1.19430   1.23087   1.25924   1.28800
 Alpha virt. eigenvalues --    1.30229   1.31109   1.31702   1.34513   1.35163
 Alpha virt. eigenvalues --    1.35620   1.36053   1.36490   1.38867   1.39386
 Alpha virt. eigenvalues --    1.41460   1.42508   1.47631   1.50389   1.52165
 Alpha virt. eigenvalues --    1.52892   1.55871   1.58201   1.61661   1.68942
 Alpha virt. eigenvalues --    1.72580   1.74433   1.77076   1.77303   1.77904
 Alpha virt. eigenvalues --    1.82099   1.82506   1.82932   1.83083   1.86426
 Alpha virt. eigenvalues --    1.89586   1.91452   1.92148   1.94274   1.94341
 Alpha virt. eigenvalues --    1.97454   1.99200   2.00332   2.01059   2.02057
 Alpha virt. eigenvalues --    2.03606   2.05405   2.07047   2.07452   2.08744
 Alpha virt. eigenvalues --    2.11524   2.14249   2.24084   2.24965   2.25914
 Alpha virt. eigenvalues --    2.26279   2.30909   2.34543   2.39887   2.46897
 Alpha virt. eigenvalues --    2.47449   2.48356   2.54115   2.56428   2.58400
 Alpha virt. eigenvalues --    2.59434   2.61160   2.63067   2.64092   2.66853
 Alpha virt. eigenvalues --    2.68954   2.73888   2.80501   2.81522   2.83571
 Alpha virt. eigenvalues --    2.91189   2.97763   3.00952   3.02780   3.04350
 Alpha virt. eigenvalues --    3.16456   3.25408   3.27540   3.36847   3.39018
 Alpha virt. eigenvalues --    3.67788   3.92206   4.03868   4.07170   4.11935
 Alpha virt. eigenvalues --    4.16412   4.25470   4.30706   4.33260   4.36876
 Alpha virt. eigenvalues --    4.50011   4.77270   4.87914   5.18681   8.58181
 Alpha virt. eigenvalues --   72.80682
          Condensed to atoms (all electrons):
               1          2          3          4          5          6
     1  N    6.657604   0.897278  -0.100896  -0.000274  -0.000119  -0.000000
     2  C    0.897278   4.729631   0.215702  -0.036087   0.004439  -0.000214
     3  C   -0.100896   0.215702   4.906652   0.497609  -0.013356   0.005288
     4  C   -0.000274  -0.036087   0.497609   4.923591   0.491000  -0.057266
     5  C   -0.000119   0.004439  -0.013356   0.491000   4.850057   0.267684
     6  Br  -0.000000  -0.000214   0.005288  -0.057266   0.267684  34.930321
     7  C    0.000019   0.001663  -0.031935  -0.045863   0.485939  -0.059124
     8  C   -0.000118   0.005136  -0.016592  -0.046412  -0.017977   0.005761
     9  S   -0.000001  -0.000279   0.005348   0.000517   0.005228  -0.000277
    10  C    0.000000  -0.000003  -0.000007   0.000022   0.000019  -0.000003
    11  F   -0.000000  -0.000000   0.000011   0.000003  -0.000072   0.000001
    12  F   -0.000000  -0.000000   0.000000  -0.000000   0.000000  -0.000000
    13  F   -0.000000  -0.000007  -0.000095   0.000004   0.000015  -0.000000
    14  C   -0.000278  -0.039272   0.499266  -0.043922  -0.041133   0.000508
    15  H    0.000654  -0.007126  -0.038820   0.376047  -0.040067  -0.002810
    16  H   -0.000000   0.000002   0.000019   0.005470  -0.040535  -0.002978
    17  H    0.000562  -0.007172  -0.038711   0.004879   0.000240   0.000008
               7          8          9         10         11         12
     1  N    0.000019  -0.000118  -0.000001   0.000000  -0.000000  -0.000000
     2  C    0.001663   0.005136  -0.000279  -0.000003  -0.000000  -0.000000
     3  C   -0.031935  -0.016592   0.005348  -0.000007   0.000011   0.000000
     4  C   -0.045863  -0.046412   0.000517   0.000022   0.000003  -0.000000
     5  C    0.485939  -0.017977   0.005228   0.000019  -0.000072   0.000000
     6  Br  -0.059124   0.005761  -0.000277  -0.000003   0.000001  -0.000000
     7  C    4.937554   0.473807  -0.054671  -0.004116   0.004940   0.000048
     8  C    0.473807   5.129470   0.256333  -0.004980  -0.003949   0.000636
     9  S   -0.054671   0.256333  15.543317   0.280906  -0.039440  -0.029457
    10  C   -0.004116  -0.004980   0.280906   4.321629   0.253169   0.273160
    11  F    0.004940  -0.003949  -0.039440   0.253169   9.099645  -0.037172
    12  F    0.000048   0.000636  -0.029457   0.273160  -0.037172   9.060910
    13  F   -0.000031  -0.002779  -0.038808   0.252531  -0.039512  -0.037080
    14  C   -0.052865   0.480464  -0.053937  -0.003533   0.000072   0.000038
    15  H    0.005330  -0.000036   0.000015   0.000000   0.000000   0.000000
    16  H    0.379597  -0.041811  -0.001584  -0.000354   0.000880  -0.000004
    17  H    0.004430  -0.041125  -0.001113  -0.000258   0.000009  -0.000003
              13         14         15         16         17
     1  N   -0.000000  -0.000278   0.000654  -0.000000   0.000562
     2  C   -0.000007  -0.039272  -0.007126   0.000002  -0.007172
     3  C   -0.000095   0.499266  -0.038820   0.000019  -0.038711
     4  C    0.000004  -0.043922   0.376047   0.005470   0.004879
     5  C    0.000015  -0.041133  -0.040067  -0.040535   0.000240
     6  Br  -0.000000   0.000508  -0.002810  -0.002978   0.000008
     7  C   -0.000031  -0.052865   0.005330   0.379597   0.004430
     8  C   -0.002779   0.480464  -0.000036  -0.041811  -0.041125
     9  S   -0.038808  -0.053937   0.000015  -0.001584  -0.001113
    10  C    0.252531  -0.003533   0.000000  -0.000354  -0.000258
    11  F   -0.039512   0.000072   0.000000   0.000880   0.000009
    12  F   -0.037080   0.000038   0.000000  -0.000004  -0.000003
    13  F    9.100382   0.003745   0.000000   0.000017   0.000366
    14  C    0.003745   4.903211   0.005211   0.004762   0.380988
    15  H    0.000000   0.005211   0.560344  -0.000126  -0.000126
    16  H    0.000017   0.004762  -0.000126   0.553532  -0.000135
    17  H    0.000366   0.380988  -0.000126  -0.000135   0.554162
 Mulliken charges:
               1
     1  N   -0.454431
     2  C    0.236307
     3  C    0.110515
     4  C   -0.069319
     5  C    0.048638
     6  Br  -0.086898
     7  C   -0.044721
     8  C   -0.175832
     9  S    0.127902
    10  C    0.631818
    11  F   -0.238583
    12  F   -0.231076
    13  F   -0.238750
    14  C   -0.043325
    15  H    0.141509
    16  H    0.143248
    17  H    0.142997
 Sum of Mulliken charges =  -0.00000
 Mulliken charges with hydrogens summed into heavy atoms:
               1
     1  N   -0.454431
     2  C    0.236307
     3  C    0.110515
     4  C    0.072190
     5  C    0.048638
     6  Br  -0.086898
     7  C    0.098527
     8  C   -0.175832
     9  S    0.127902
    10  C    0.631818
    11  F   -0.238583
    12  F   -0.231076
    13  F   -0.238750
    14  C    0.099672
 Electronic spatial extent (au):  <R**2>=           4645.6967
 Charge=             -0.0000 electrons
 Dipole moment (field-independent basis, Debye):
    X=              0.1105    Y=             -2.5275    Z=              0.9716  Tot=              2.7100
 Quadrupole moment (field-independent basis, Debye-Ang):
   XX=            -95.6346   YY=           -113.7683   ZZ=            -96.1468
   XY=             -5.2164   XZ=             -0.8862   YZ=              2.3324
 Traceless Quadrupole moment (field-independent basis, Debye-Ang):
   XX=              6.2153   YY=            -11.9184   ZZ=              5.7031
   XY=             -5.2164   XZ=             -0.8862   YZ=              2.3324
 Octapole moment (field-independent basis, Debye-Ang**2):
  XXX=             38.4904  YYY=           -185.1823  ZZZ=            -23.1567  XYY=            -18.8475
  XXY=            -24.8483  XXZ=             -9.9572  XZZ=              7.3903  YZZ=            -22.5803
  YYZ=              7.0150  XYZ=              1.6077
 Hexadecapole moment (field-independent basis, Debye-Ang**3):
 XXXX=          -2917.1001 YYYY=          -2431.4352 ZZZZ=           -341.5206 XXXY=           -108.2394
 XXXZ=             24.2356 YYYX=           -272.8497 YYYZ=             84.5942 ZZZX=             42.6996
 ZZZY=             17.0274 XXYY=           -803.1283 XXZZ=           -554.9544 YYZZ=           -368.0963
 XXYZ=              8.7109 YYXZ=             23.5873 ZZXY=            -29.9734
 N-N= 1.275647570451D+03 E-N=-1.118144379247D+04  KE= 3.608863827237D+03
 No NMR shielding tensors so no spin-rotation constants.
 Leave Link  601 at Tue Sep 17 09:43:21 2024, MaxMem=  1342177280 cpu:               0.4 elap:               0.1
 (Enter /groups/ReismanLab/Software/Gaussian16_RevC/Linux_Binary_AVX2-enabled-CPU/g16/l701.exe)
 ... and contract with generalized density number  0.
 Compute integral first derivatives.
 R6Disp: Adding Grimme-D3(BJ) dispersion energy 1st derivatives to the gradient.
 Leave Link  701 at Tue Sep 17 09:43:21 2024, MaxMem=  1342177280 cpu:               0.5 elap:               0.1
 (Enter /groups/ReismanLab/Software/Gaussian16_RevC/Linux_Binary_AVX2-enabled-CPU/g16/l702.exe)
 L702 exits ... SP integral derivatives will be done elsewhere.
 Leave Link  702 at Tue Sep 17 09:43:21 2024, MaxMem=  1342177280 cpu:               0.0 elap:               0.0
 (Enter /groups/ReismanLab/Software/Gaussian16_RevC/Linux_Binary_AVX2-enabled-CPU/g16/l703.exe)
 Integral derivatives from FoFJK, PRISM(SPDF).
 Compute integral first derivatives, UseDBF=F ICtDFT=           0.
 Calling FoFJK, ICntrl=      2127 FMM=F ISym2X=0 I1Cent= 0 IOpClX= 0 NMat=1 NMatS=1 NMatT=0.
 FoFJK:  IHMeth= 1 ICntrl=    2127 DoSepK=F KAlg= 0 I1Cent=           0 FoldK=F
 IRaf=         0 NMat=       1 IRICut=       1 DoRegI=T DoRafI=F ISym2E= 0 IDoP0=0 IntGTp=1.
 FoFCou: FMM=F IPFlag=           0 FMFlag=      100000 FMFlg1=         800
         NFxFlg=           0 DoJE=F BraDBF=F KetDBF=F FulRan=T
         wScrn=  0.000000 ICntrl=      2127 IOpCl=  0 I1Cent=           0 NGrid=           0
         NMat0=    1 NMatS0=      1 NMatT0=    0 NMatD0=    1 NMtDS0=    0 NMtDT0=    0
 Symmetry not used in FoFCou.
 Leave Link  703 at Tue Sep 17 09:43:25 2024, MaxMem=  1342177280 cpu:              31.1 elap:               4.0
 (Enter /groups/ReismanLab/Software/Gaussian16_RevC/Linux_Binary_AVX2-enabled-CPU/g16/l716.exe)
 Dipole        = 4.34556103D-02-9.94385818D-01 3.82257197D-01
 ***** Axes restored to original set *****
 -------------------------------------------------------------------
 Center     Atomic                   Forces (Hartrees/Bohr)
 Number     Number              X              Y              Z
 -------------------------------------------------------------------
      1        7          -0.009252914   -0.042634808   -0.011568798
      2        6           0.006219189    0.030309700    0.008184772
      3        6           0.001697632    0.001872104    0.001100630
      4        6          -0.005679627    0.000877812   -0.001508577
      5        6          -0.003528838    0.003601640    0.000169077
      6       35          -0.001874243    0.001437577   -0.000255972
      7        6          -0.003874256    0.005270671    0.000206416
      8        6           0.012854307    0.002464546    0.006616206
      9       16           0.002053195    0.000509425   -0.000141715
     10        6          -0.005521280   -0.002546674    0.000356957
     11        9          -0.006377886    0.008730925   -0.002683149
     12        9           0.012953837    0.003186435    0.006039229
     13        9          -0.000614696   -0.008949015   -0.005513395
     14        6           0.000763988   -0.004353371   -0.000628638
     15        1          -0.002210716   -0.000424785   -0.000618168
     16        1           0.000454716    0.002441983    0.000417957
     17        1           0.001937590   -0.001794165   -0.000172831
 -------------------------------------------------------------------
 Cartesian Forces:  Max     0.042634808 RMS     0.008770669
 Leave Link  716 at Tue Sep 17 09:43:25 2024, MaxMem=  1342177280 cpu:               0.0 elap:               0.0
 (Enter /groups/ReismanLab/Software/Gaussian16_RevC/Linux_Binary_AVX2-enabled-CPU/g16/l103.exe)

 GradGradGradGradGradGradGradGradGradGradGradGradGradGradGradGradGradGrad
 Berny optimization.
 FormGI is forming the generalized inverse of G from B-inverse, IUseBI=4.
 Internal  Forces:  Max     0.045134805 RMS     0.006909073
 Search for a local minimum.
 Step number   1 out of a maximum of   83
 All quantities printed in internal units (Hartrees-Bohrs-Radians)
 RMS Force = .69091D-02 SwitMx=.10000D-02 MixMth= 1
 Mixed Optimization -- RFO/linear search
 Second derivative matrix not updated -- first step.
 ITU=  0
     Eigenvalues ---    0.00230   0.00414   0.01854   0.01854   0.01963
     Eigenvalues ---    0.02164   0.02190   0.02227   0.02241   0.02266
     Eigenvalues ---    0.02269   0.02280   0.02292   0.14890   0.14972
     Eigenvalues ---    0.16000   0.16000   0.16000   0.18368   0.23490
     Eigenvalues ---    0.23500   0.23505   0.23878   0.25000   0.25000
     Eigenvalues ---    0.25000   0.25000   0.25000   0.25000   0.25000
     Eigenvalues ---    0.26379   0.36055   0.36150   0.36156   0.42806
     Eigenvalues ---    0.42938   0.43562   0.46942   0.47360   0.48078
     Eigenvalues ---    0.48484   0.58392   0.58394   0.61191   1.38438
 RFO step:  Lambda=-5.03351146D-03 EMin= 2.30000000D-03
 Linear search not attempted -- first point.
 Iteration  1 RMS(Cart)=  0.05774214 RMS(Int)=  0.00096425
 Iteration  2 RMS(Cart)=  0.00141748 RMS(Int)=  0.00005097
 Iteration  3 RMS(Cart)=  0.00000211 RMS(Int)=  0.00005095
 Iteration  4 RMS(Cart)=  0.00000000 RMS(Int)=  0.00005095
 ITry= 1 IFail=0 DXMaxC= 1.91D-01 DCOld= 1.00D+10 DXMaxT= 3.00D-01 DXLimC= 3.00D+00 Rises=F
 Variable       Old X    -DE/DX   Delta X   Delta X   Delta X     New X
                                 (Linear)    (Quad)   (Total)
    R1        2.16295   0.04513   0.00000   0.03248   0.03248   2.19543
    R2        2.67910   0.01313   0.00000   0.03032   0.03032   2.70942
    R3        2.63413   0.00921   0.00000   0.01927   0.01926   2.65339
    R4        2.63571   0.00866   0.00000   0.01851   0.01851   2.65423
    R5        2.61605   0.00678   0.00000   0.01356   0.01354   2.62959
    R6        2.03995   0.00233   0.00000   0.00636   0.00636   2.04631
    R7        3.58599   0.00235   0.00000   0.01247   0.01247   3.59846
    R8        2.62156   0.00737   0.00000   0.01518   0.01518   2.63674
    R9        2.61819   0.01198   0.00000   0.02492   0.02493   2.64312
   R10        2.03839   0.00251   0.00000   0.00684   0.00684   2.04522
   R11        3.39525   0.00196   0.00000   0.00731   0.00731   3.40256
   R12        2.61292   0.01110   0.00000   0.02293   0.02295   2.63587
   R13        3.45850   0.00189   0.00000   0.00776   0.00776   3.46626
   R14        2.52234   0.01102   0.00000   0.01872   0.01872   2.54106
   R15        2.50010   0.01349   0.00000   0.02187   0.02187   2.52197
   R16        2.52236   0.01041   0.00000   0.01768   0.01768   2.54004
   R17        2.03848   0.00263   0.00000   0.00717   0.00717   2.04565
    A1        2.08735   0.00009   0.00000   0.00068   0.00068   2.08804
    A2        2.08943   0.00068   0.00000   0.00298   0.00299   2.09242
    A3        2.10640  -0.00077   0.00000  -0.00366  -0.00367   2.10273
    A4        2.07787   0.00053   0.00000   0.00067   0.00065   2.07851
    A5        2.09846  -0.00008   0.00000   0.00076   0.00077   2.09923
    A6        2.10686  -0.00044   0.00000  -0.00143  -0.00142   2.10544
    A7        2.08602  -0.00088   0.00000  -0.00288  -0.00287   2.08315
    A8        2.11578   0.00061   0.00000   0.00129   0.00127   2.11705
    A9        2.08139   0.00026   0.00000   0.00159   0.00160   2.08299
   A10        2.07074   0.00137   0.00000   0.00613   0.00614   2.07689
   A11        2.10817  -0.00081   0.00000  -0.00385  -0.00386   2.10432
   A12        2.10425  -0.00055   0.00000  -0.00227  -0.00228   2.10198
   A13        2.07653   0.00223   0.00000   0.00834   0.00831   2.08484
   A14        2.12459  -0.00359   0.00000  -0.01320  -0.01319   2.11140
   A15        2.08206   0.00135   0.00000   0.00490   0.00486   2.08692
   A16        1.65990   0.01105   0.00000   0.04332   0.04332   1.70323
   A17        1.94782   0.00004   0.00000   0.00179   0.00164   1.94946
   A18        1.92882  -0.01019   0.00000  -0.04346  -0.04366   1.88516
   A19        1.94645   0.00012   0.00000   0.00236   0.00221   1.94866
   A20        1.88712   0.00368   0.00000   0.01094   0.01074   1.89786
   A21        1.86303   0.00320   0.00000   0.01911   0.01901   1.88204
   A22        1.88780   0.00385   0.00000   0.01203   0.01185   1.89965
   A23        2.07095   0.00185   0.00000   0.00880   0.00882   2.07977
   A24        2.10444  -0.00097   0.00000  -0.00464  -0.00465   2.09978
   A25        2.10779  -0.00088   0.00000  -0.00415  -0.00416   2.10363
   A26        3.14035   0.00028   0.00000   0.01203   0.01203   3.15237
   A27        3.13857   0.00013   0.00000   0.00555   0.00555   3.14412
    D1        3.13809   0.00001   0.00000   0.00040   0.00042   3.13850
    D2       -0.00241   0.00003   0.00000   0.00097   0.00097  -0.00144
    D3       -0.00271  -0.00001   0.00000  -0.00016  -0.00015  -0.00286
    D4        3.13998   0.00001   0.00000   0.00040   0.00040   3.14038
    D5        3.13985   0.00005   0.00000   0.00180   0.00181  -3.14152
    D6        0.00336   0.00000   0.00000   0.00011   0.00012   0.00348
    D7       -0.00254   0.00006   0.00000   0.00236   0.00238  -0.00015
    D8       -3.13903   0.00002   0.00000   0.00067   0.00069  -3.13834
    D9       -3.13764  -0.00005   0.00000  -0.00182  -0.00183  -3.13948
   D10        0.00143  -0.00001   0.00000  -0.00047  -0.00048   0.00095
   D11        0.00285  -0.00007   0.00000  -0.00239  -0.00239   0.00046
   D12       -3.14126  -0.00003   0.00000  -0.00104  -0.00103   3.14089
   D13        0.00505  -0.00003   0.00000  -0.00111  -0.00113   0.00392
   D14        3.14098   0.00002   0.00000   0.00055   0.00054   3.14152
   D15       -3.13906   0.00001   0.00000   0.00023   0.00022  -3.13883
   D16       -0.00312   0.00005   0.00000   0.00189   0.00189  -0.00123
   D17        3.12646   0.00043   0.00000   0.01603   0.01603  -3.14070
   D18       -0.01057   0.00012   0.00000   0.00354   0.00355  -0.00702
   D19       -0.00948   0.00038   0.00000   0.01438   0.01437   0.00489
   D20        3.13667   0.00008   0.00000   0.00189   0.00189   3.13856
   D21       -1.52633  -0.00019   0.00000  -0.01126  -0.01132  -1.53765
   D22        1.61081   0.00009   0.00000   0.00087   0.00093   1.61174
   D23        0.00932  -0.00014   0.00000  -0.00415  -0.00416   0.00516
   D24       -3.13738  -0.00009   0.00000  -0.00246  -0.00247  -3.13985
   D25       -3.12769  -0.00045   0.00000  -0.01669  -0.01667   3.13882
   D26        0.00879  -0.00040   0.00000  -0.01500  -0.01497  -0.00618
   D27        1.05021   0.00215   0.00000   0.01602   0.01594   1.06615
   D28       -3.13236  -0.00008   0.00000   0.00157   0.00159  -3.13077
   D29       -1.03180  -0.00202   0.00000  -0.01104  -0.01098  -1.04278
         Item               Value     Threshold  Converged?
 Maximum Force            0.045135     0.000450     NO 
 RMS     Force            0.006909     0.000300     NO 
 Maximum Displacement     0.191242     0.001800     NO 
 RMS     Displacement     0.058596     0.001200     NO 
 Predicted change in Energy=-2.547431D-03
 Lowest energy point so far.  Saving SCF results.
 GradGradGradGradGradGradGradGradGradGradGradGradGradGradGradGradGradGrad

 Leave Link  103 at Tue Sep 17 09:43:25 2024, MaxMem=  1342177280 cpu:               0.1 elap:               0.0
 (Enter /groups/ReismanLab/Software/Gaussian16_RevC/Linux_Binary_AVX2-enabled-CPU/g16/l202.exe)
                          Input orientation:                          
 ---------------------------------------------------------------------
 Center     Atomic      Atomic             Coordinates (Angstroms)
 Number     Number       Type             X           Y           Z
 ---------------------------------------------------------------------
      1          7           0       -1.327821   -4.558774   -0.719354
      2          6           0       -1.098656   -3.457361   -0.429376
      3          6           0       -0.800467   -2.101400   -0.071413
      4          6           0       -1.814269   -1.131207   -0.121029
      5          6           0       -1.513198    0.180583    0.232361
      6         35           0       -2.883183    1.501741    0.171148
      7          6           0       -0.227482    0.546723    0.632034
      8          6           0        0.774003   -0.428879    0.671137
      9         16           0        2.437171    0.029803    1.186397
     10          6           0        3.074197    0.522148   -0.461733
     11          9           0        2.374564    1.547300   -0.979141
     12          9           0        4.345649    0.900811   -0.316456
     13          9           0        3.021821   -0.495771   -1.337965
     14          6           0        0.500693   -1.752436    0.326060
     15          1           0       -2.816034   -1.403610   -0.429017
     16          1           0       -0.006368    1.570595    0.904315
     17          1           0        1.280933   -2.502020    0.360441
 ---------------------------------------------------------------------
                    Distance matrix (angstroms):
                    1          2          3          4          5
     1  N    0.000000
     2  C    1.161773   0.000000
     3  C    2.595500   1.433766   0.000000
     4  C    3.513238   2.453196   1.404112   0.000000
     5  C    4.837524   3.720803   2.409919   1.391518   0.000000
     6  Br   6.319968   5.304513   4.168834   2.856635   1.904223
     7  C    5.394729   4.232993   2.799233   2.429084   1.395301
     8  C    4.838095   3.726886   2.414055   2.796416   2.407334
     9  S    6.233946   5.222365   4.075096   4.596961   4.066735
    10  C    6.727548   5.766302   4.695570   5.171728   4.652164
    11  F    7.145577   6.116545   4.921158   5.045500   4.295386
    12  F    7.884013   6.974730   5.962871   6.489366   5.928407
    13  F    5.984150   5.155082   4.334984   5.027174   4.846625
    14  C    3.508830   2.456699   1.404556   2.438210   2.793045
    15  H    3.500591   2.677178   2.162707   1.082863   2.155103
    16  H    6.477014   5.315276   3.881518   3.408749   2.157358
    17  H    3.493106   2.683082   2.163150   3.419242   3.875556
                    6          7          8          9         10
     6  Br   0.000000
     7  C    2.859585   0.000000
     8  C    4.165608   1.398678   0.000000
     9  S    5.612798   2.770360   1.800558   0.000000
    10  C    6.070463   3.478220   2.734729   1.834267   0.000000
    11  F    5.382299   3.219888   3.031583   2.645046   1.344669
    12  F    7.270137   4.683859   3.937013   2.580603   1.334571
    13  F    6.413778   3.940261   3.015568   2.643945   1.344130
    14  C    4.697264   2.431048   1.394841   2.768844   3.523816
    15  H    2.967452   3.410312   3.879278   5.679823   6.197131
    16  H    2.969569   1.082285   2.158992   2.902498   3.529194
    17  H    5.779775   3.412318   2.156716   2.903311   3.610729
                   11         12         13         14         15
    11  F    0.000000
    12  F    2.177677   0.000000
    13  F    2.172978   2.178633   0.000000
    14  C    4.012879   4.715531   3.271738   0.000000
    15  H    5.996066   7.524143   5.977533   3.419430   0.000000
    16  H    3.035916   4.569348   4.297396   3.410869   4.303242
    17  H    4.403124   4.629247   3.152825   1.082512   4.314497
                   16         17
    16  H    0.000000
    17  H    4.305710   0.000000
 Stoichiometry    C8H3BrF3NS
 Framework group  C1[X(C8H3BrF3NS)]
 Deg. of freedom    45
 Full point group                 C1      NOp   1
 RotChk:  IX=0 Diff= 2.33D-02
 Largest Abelian subgroup         C1      NOp   1
 Largest concise Abelian subgroup C1      NOp   1
                         Standard orientation:                         
 ---------------------------------------------------------------------
 Center     Atomic      Atomic             Coordinates (Angstroms)
 Number     Number       Type             X           Y           Z
 ---------------------------------------------------------------------
      1          7           0        1.266461    4.567355   -0.399072
      2          6           0        1.072399    3.439973   -0.196424
      3          6           0        0.817494    2.051587    0.054757
      4          6           0        1.846154    1.113071   -0.125728
      5          6           0        1.587309   -0.230994    0.124896
      6         35           0        2.977843   -1.509811   -0.114075
      7          6           0        0.329233   -0.660022    0.549212
      8          6           0       -0.687728    0.285078    0.719147
      9         16           0       -2.315509   -0.254863    1.267599
     10          6           0       -3.020484   -0.617417   -0.386518
     11          9           0       -2.326723   -1.577482   -1.022995
     12          9           0       -4.276143   -1.036580   -0.217103
     13          9           0       -3.029197    0.473425   -1.171805
     14          6           0       -0.456438    1.639499    0.479090
     15          1           0        2.826791    1.434228   -0.454059
     16          1           0        0.140892   -1.708455    0.740668
     17          1           0       -1.248349    2.365022    0.614462
 ---------------------------------------------------------------------
 Rotational constants (GHZ):           0.5474014           0.2720046           0.1985263
 Leave Link  202 at Tue Sep 17 09:43:25 2024, MaxMem=  1342177280 cpu:               0.0 elap:               0.1
 (Enter /groups/ReismanLab/Software/Gaussian16_RevC/Linux_Binary_AVX2-enabled-CPU/g16/l301.exe)
 Standard basis: 6-31G(d,p) (6D, 7F)
 Ernie: Thresh=  0.10000D-02 Tol=  0.10000D-05 Strict=F.
 There are   244 symmetry adapted cartesian basis functions of A   symmetry.
 There are   244 symmetry adapted basis functions of A   symmetry.
   244 basis functions,   492 primitive gaussians,   244 cartesian basis functions
    68 alpha electrons       68 beta electrons
       nuclear repulsion energy      1262.3951084410 Hartrees.
 IExCor=  402 DFT=T Ex+Corr=B3LYP ExCW=0 ScaHFX=  0.200000
 ScaDFX=  0.800000  0.720000  1.000000  0.810000 ScalE2=  1.000000  1.000000
 IRadAn=      5 IRanWt=     -1 IRanGd=            0 ICorTp=0 IEmpDi=141
 NAtoms=   17 NActive=   17 NUniq=   17 SFac= 1.00D+00 NAtFMM=   60 NAOKFM=F Big=F
 Integral buffers will be    131072 words long.
 Raffenetti 2 integral format.
 Two-electron integral symmetry is turned on.
 R6Disp:  Grimme-D3(BJ) Dispersion energy=       -0.0411260040 Hartrees.
 Nuclear repulsion after empirical dispersion term =     1262.3539824371 Hartrees.
 Leave Link  301 at Tue Sep 17 09:43:25 2024, MaxMem=  1342177280 cpu:               0.1 elap:               0.0
 (Enter /groups/ReismanLab/Software/Gaussian16_RevC/Linux_Binary_AVX2-enabled-CPU/g16/l302.exe)
 NPDir=0 NMtPBC=     1 NCelOv=     1 NCel=       1 NClECP=     1 NCelD=      1
         NCelK=      1 NCelE2=     1 NClLst=     1 CellRange=     0.0.
 One-electron integrals computed using PRISM.
 One-electron integral symmetry used in STVInt
 NBasis=   244 RedAO= T EigKep=  4.45D-04  NBF=   244
 NBsUse=   244 1.00D-06 EigRej= -1.00D+00 NBFU=   244
 Precomputing XC quadrature grid using
 IXCGrd= 4 IRadAn=           5 IRanWt=          -1 IRanGd=           0 AccXCQ= 0.00D+00.
 Generated NRdTot=       0 NPtTot=           0 NUsed=           0 NTot=          32
 NSgBfM=   241   241   241   241   241 MxSgAt=    17 MxSgA2=    17.
 Leave Link  302 at Tue Sep 17 09:43:25 2024, MaxMem=  1342177280 cpu:               0.8 elap:               0.1
 (Enter /groups/ReismanLab/Software/Gaussian16_RevC/Linux_Binary_AVX2-enabled-CPU/g16/l303.exe)
 DipDrv:  MaxL=1.
 Leave Link  303 at Tue Sep 17 09:43:25 2024, MaxMem=  1342177280 cpu:               0.1 elap:               0.0
 (Enter /groups/ReismanLab/Software/Gaussian16_RevC/Linux_Binary_AVX2-enabled-CPU/g16/l401.exe)
 Initial guess from the checkpoint file:  "smiles_00068_conf_4.chk"
 B after Tr=     0.000000   -0.000000    0.000000
         Rot=    0.999978    0.000625   -0.002802    0.005965 Ang=   0.76 deg.
 Guess basis will be translated and rotated to current coordinates.
 JPrj=2 DoOrth=T DoCkMO=T.
 Generating alternative initial guess.
 ExpMin= 1.17D-01 ExpMax= 5.74D+05 ExpMxC= 5.74D+03 IAcc=3 IRadAn=         5 AccDes= 0.00D+00
 Harris functional with IExCor=  402 and IRadAn=       5 diagonalized for initial guess.
 HarFok:  IExCor=  402 AccDes= 0.00D+00 IRadAn=         5 IDoV= 1 UseB2=F ITyADJ=14
 ICtDFT=  3500011 ScaDFX=  1.000000  1.000000  1.000000  1.000000
 FoFCou: FMM=F IPFlag=           0 FMFlag=      100000 FMFlg1=           0
         NFxFlg=           0 DoJE=T BraDBF=F KetDBF=T FulRan=T
         wScrn=  0.000000 ICntrl=       500 IOpCl=  0 I1Cent=   200000004 NGrid=           0
         NMat0=    1 NMatS0=      1 NMatT0=    0 NMatD0=    1 NMtDS0=    0 NMtDT0=    0
 Petite list used in FoFCou.
 Harris En= -3630.86247529159    
 Leave Link  401 at Tue Sep 17 09:43:26 2024, MaxMem=  1342177280 cpu:               4.8 elap:               0.7
 (Enter /groups/ReismanLab/Software/Gaussian16_RevC/Linux_Binary_AVX2-enabled-CPU/g16/l502.exe)
 Integral symmetry usage will be decided dynamically.
 Closed shell SCF:
 Using DIIS extrapolation, IDIIS=  1040.
 NGot=  1342177280 LenX=  1342053390 LenY=  1341993413
 Requested convergence on RMS density matrix=1.00D-08 within  32 cycles.
 Requested convergence on MAX density matrix=1.00D-06.
 Requested convergence on             energy=1.00D-06.
 No special actions if energy rises.
 Fock matrices will be formed incrementally for  20 cycles.
 Integral accuracy reduced to 1.0D-05 until final iterations.

 Cycle   1  Pass 0  IDiag  1:
 FoFJK:  IHMeth= 1 ICntrl=       0 DoSepK=F KAlg= 0 I1Cent=           0 FoldK=F
 IRaf= 820000000 NMat=       1 IRICut=       1 DoRegI=T DoRafI=F ISym2E= 0 IDoP0=0 IntGTp=1.
 FoFCou: FMM=F IPFlag=           0 FMFlag=      100000 FMFlg1=           0
         NFxFlg=           0 DoJE=F BraDBF=F KetDBF=F FulRan=T
         wScrn=  0.000000 ICntrl=         0 IOpCl=  0 I1Cent=           0 NGrid=           0
         NMat0=    1 NMatS0=      1 NMatT0=    0 NMatD0=    1 NMtDS0=    0 NMtDT0=    0
 Symmetry not used in FoFCou.
 E= -3630.84178694469    
 DIIS: error= 3.08D-03 at cycle   1 NSaved=   1.
 NSaved= 1 IEnMin= 1 EnMin= -3630.84178694469     IErMin= 1 ErrMin= 3.08D-03
 ErrMax= 3.08D-03  0.00D+00 EMaxC= 1.00D-01 BMatC= 4.27D-03 BMatP= 4.27D-03
 IDIUse=3 WtCom= 9.69D-01 WtEn= 3.08D-02
 Coeff-Com:  0.100D+01
 Coeff-En:   0.100D+01
 Coeff:      0.100D+01
 Gap=     1.805 Goal=   None    Shift=    0.000
 GapD=    1.805 DampG=2.000 DampE=1.000 DampFc=2.0000 IDamp=-1.
 RMSDP=4.41D-04 MaxDP=1.62D-02              OVMax= 1.86D-02

 Cycle   2  Pass 0  IDiag  1:
 RMSU=  4.41D-04    CP:  1.00D+00
 E= -3630.84706468835     Delta-E=       -0.005277743658 Rises=F Damp=F
 DIIS: error= 5.15D-04 at cycle   2 NSaved=   2.
 NSaved= 2 IEnMin= 2 EnMin= -3630.84706468835     IErMin= 2 ErrMin= 5.15D-04
 ErrMax= 5.15D-04  0.00D+00 EMaxC= 1.00D-01 BMatC= 1.30D-04 BMatP= 4.27D-03
 IDIUse=3 WtCom= 9.95D-01 WtEn= 5.15D-03
 Coeff-Com:  0.730D-02 0.993D+00
 Coeff-En:   0.000D+00 0.100D+01
 Coeff:      0.726D-02 0.993D+00
 Gap=     0.195 Goal=   None    Shift=    0.000
 RMSDP=1.17D-04 MaxDP=7.77D-03 DE=-5.28D-03 OVMax= 5.99D-03

 Cycle   3  Pass 0  IDiag  1:
 RMSU=  1.15D-04    CP:  1.00D+00  1.06D+00
 E= -3630.84708040931     Delta-E=       -0.000015720963 Rises=F Damp=F
 DIIS: error= 6.02D-04 at cycle   3 NSaved=   3.
 NSaved= 3 IEnMin= 3 EnMin= -3630.84708040931     IErMin= 2 ErrMin= 5.15D-04
 ErrMax= 6.02D-04  0.00D+00 EMaxC= 1.00D-01 BMatC= 1.46D-04 BMatP= 1.30D-04
 IDIUse=3 WtCom= 2.90D-01 WtEn= 7.10D-01
 Coeff-Com: -0.242D-01 0.528D+00 0.497D+00
 Coeff-En:   0.000D+00 0.466D+00 0.534D+00
 Coeff:     -0.702D-02 0.484D+00 0.523D+00
 Gap=     0.196 Goal=   None    Shift=    0.000
 RMSDP=7.38D-05 MaxDP=4.72D-03 DE=-1.57D-05 OVMax= 4.49D-03

 Cycle   4  Pass 0  IDiag  1:
 RMSU=  3.08D-05    CP:  1.00D+00  1.06D+00  4.14D-01
 E= -3630.84718361313     Delta-E=       -0.000103203820 Rises=F Damp=F
 DIIS: error= 5.29D-04 at cycle   4 NSaved=   4.
 NSaved= 4 IEnMin= 4 EnMin= -3630.84718361313     IErMin= 2 ErrMin= 5.15D-04
 ErrMax= 5.29D-04  0.00D+00 EMaxC= 1.00D-01 BMatC= 3.15D-05 BMatP= 1.30D-04
 IDIUse=3 WtCom= 9.95D-01 WtEn= 5.29D-03
 Coeff-Com: -0.154D-01 0.250D+00 0.352D+00 0.413D+00
 Coeff-En:   0.000D+00 0.000D+00 0.153D+00 0.847D+00
 Coeff:     -0.153D-01 0.249D+00 0.351D+00 0.416D+00
 Gap=     0.196 Goal=   None    Shift=    0.000
 RMSDP=2.48D-05 MaxDP=1.36D-03 DE=-1.03D-04 OVMax= 2.21D-03

 Cycle   5  Pass 0  IDiag  1:
 RMSU=  1.46D-05    CP:  1.00D+00  1.07D+00  5.26D-01  5.12D-01
 E= -3630.84720706154     Delta-E=       -0.000023448411 Rises=F Damp=F
 DIIS: error= 1.79D-04 at cycle   5 NSaved=   5.
 NSaved= 5 IEnMin= 5 EnMin= -3630.84720706154     IErMin= 5 ErrMin= 1.79D-04
 ErrMax= 1.79D-04  0.00D+00 EMaxC= 1.00D-01 BMatC= 3.83D-06 BMatP= 3.15D-05
 IDIUse=3 WtCom= 9.98D-01 WtEn= 1.79D-03
 Coeff-Com: -0.607D-02 0.791D-01 0.156D+00 0.297D+00 0.474D+00
 Coeff-En:   0.000D+00 0.000D+00 0.000D+00 0.119D+00 0.881D+00
 Coeff:     -0.606D-02 0.789D-01 0.156D+00 0.296D+00 0.475D+00
 Gap=     0.196 Goal=   None    Shift=    0.000
 RMSDP=9.13D-06 MaxDP=3.48D-04 DE=-2.34D-05 OVMax= 6.16D-04

 Initial convergence to 1.0D-05 achieved.  Increase integral accuracy.
 Cycle   6  Pass 1  IDiag  1:
 E= -3630.84720808532     Delta-E=       -0.000001023775 Rises=F Damp=F
 DIIS: error= 4.33D-05 at cycle   1 NSaved=   1.
 NSaved= 1 IEnMin= 1 EnMin= -3630.84720808532     IErMin= 1 ErrMin= 4.33D-05
 ErrMax= 4.33D-05  0.00D+00 EMaxC= 1.00D-01 BMatC= 4.70D-07 BMatP= 4.70D-07
 IDIUse=1 WtCom= 1.00D+00 WtEn= 0.00D+00
 Coeff-Com:  0.100D+01
 Coeff:      0.100D+01
 Gap=     0.196 Goal=   None    Shift=    0.000
 RMSDP=9.13D-06 MaxDP=3.48D-04 DE=-1.02D-06 OVMax= 3.65D-04

 Cycle   7  Pass 1  IDiag  1:
 RMSU=  1.75D-05    CP:  1.00D+00
 E= -3630.84720745706     Delta-E=        0.000000628263 Rises=F Damp=F
 DIIS: error= 9.48D-05 at cycle   2 NSaved=   2.
 NSaved= 2 IEnMin= 1 EnMin= -3630.84720808532     IErMin= 1 ErrMin= 4.33D-05
 ErrMax= 9.48D-05  0.00D+00 EMaxC= 1.00D-01 BMatC= 1.06D-06 BMatP= 4.70D-07
 IDIUse=1 WtCom= 1.00D+00 WtEn= 0.00D+00
 Coeff-Com:  0.616D+00 0.384D+00
 Coeff:      0.616D+00 0.384D+00
 Gap=     0.196 Goal=   None    Shift=    0.000
 RMSDP=5.16D-06 MaxDP=1.96D-04 DE= 6.28D-07 OVMax= 3.15D-04

 Cycle   8  Pass 1  IDiag  1:
 RMSU=  4.91D-06    CP:  1.00D+00  9.10D-01
 E= -3630.84720833716     Delta-E=       -0.000000880102 Rises=F Damp=F
 DIIS: error= 3.73D-05 at cycle   3 NSaved=   3.
 NSaved= 3 IEnMin= 3 EnMin= -3630.84720833716     IErMin= 3 ErrMin= 3.73D-05
 ErrMax= 3.73D-05  0.00D+00 EMaxC= 1.00D-01 BMatC= 1.28D-07 BMatP= 4.70D-07
 IDIUse=1 WtCom= 1.00D+00 WtEn= 0.00D+00
 Coeff-Com:  0.186D+00 0.256D+00 0.559D+00
 Coeff:      0.186D+00 0.256D+00 0.559D+00
 Gap=     0.196 Goal=   None    Shift=    0.000
 RMSDP=1.66D-06 MaxDP=8.56D-05 DE=-8.80D-07 OVMax= 1.50D-04

 Cycle   9  Pass 1  IDiag  1:
 RMSU=  1.08D-06    CP:  1.00D+00  9.34D-01  7.56D-01
 E= -3630.84720842959     Delta-E=       -0.000000092434 Rises=F Damp=F
 DIIS: error= 1.54D-05 at cycle   4 NSaved=   4.
 NSaved= 4 IEnMin= 4 EnMin= -3630.84720842959     IErMin= 4 ErrMin= 1.54D-05
 ErrMax= 1.54D-05  0.00D+00 EMaxC= 1.00D-01 BMatC= 3.15D-08 BMatP= 1.28D-07
 IDIUse=1 WtCom= 1.00D+00 WtEn= 0.00D+00
 Coeff-Com:  0.166D-01 0.110D+00 0.395D+00 0.478D+00
 Coeff:      0.166D-01 0.110D+00 0.395D+00 0.478D+00
 Gap=     0.196 Goal=   None    Shift=    0.000
 RMSDP=7.25D-07 MaxDP=3.55D-05 DE=-9.24D-08 OVMax= 5.09D-05

 Cycle  10  Pass 1  IDiag  1:
 RMSU=  4.05D-07    CP:  1.00D+00  9.37D-01  7.77D-01  4.52D-01
 E= -3630.84720845390     Delta-E=       -0.000000024307 Rises=F Damp=F
 DIIS: error= 3.00D-06 at cycle   5 NSaved=   5.
 NSaved= 5 IEnMin= 5 EnMin= -3630.84720845390     IErMin= 5 ErrMin= 3.00D-06
 ErrMax= 3.00D-06  0.00D+00 EMaxC= 1.00D-01 BMatC= 1.55D-09 BMatP= 3.15D-08
 IDIUse=1 WtCom= 1.00D+00 WtEn= 0.00D+00
 Coeff-Com: -0.553D-03 0.513D-01 0.207D+00 0.288D+00 0.455D+00
 Coeff:     -0.553D-03 0.513D-01 0.207D+00 0.288D+00 0.455D+00
 Gap=     0.196 Goal=   None    Shift=    0.000
 RMSDP=2.41D-07 MaxDP=1.06D-05 DE=-2.43D-08 OVMax= 1.65D-05

 Cycle  11  Pass 1  IDiag  1:
 RMSU=  7.52D-08    CP:  1.00D+00  9.37D-01  7.84D-01  5.09D-01  4.62D-01
 E= -3630.84720845548     Delta-E=       -0.000000001581 Rises=F Damp=F
 DIIS: error= 4.15D-07 at cycle   6 NSaved=   6.
 NSaved= 6 IEnMin= 6 EnMin= -3630.84720845548     IErMin= 6 ErrMin= 4.15D-07
 ErrMax= 4.15D-07  0.00D+00 EMaxC= 1.00D-01 BMatC= 8.59D-11 BMatP= 1.55D-09
 IDIUse=1 WtCom= 1.00D+00 WtEn= 0.00D+00
 Coeff-Com: -0.123D-02 0.247D-01 0.102D+00 0.146D+00 0.274D+00 0.454D+00
 Coeff:     -0.123D-02 0.247D-01 0.102D+00 0.146D+00 0.274D+00 0.454D+00
 Gap=     0.196 Goal=   None    Shift=    0.000
 RMSDP=4.24D-08 MaxDP=1.25D-06 DE=-1.58D-09 OVMax= 2.40D-06

 Cycle  12  Pass 1  IDiag  1:
 RMSU=  2.13D-08    CP:  1.00D+00  9.37D-01  7.83D-01  5.03D-01  4.93D-01
                    CP:  5.71D-01
 E= -3630.84720845557     Delta-E=       -0.000000000088 Rises=F Damp=F
 DIIS: error= 4.34D-08 at cycle   7 NSaved=   7.
 NSaved= 7 IEnMin= 7 EnMin= -3630.84720845557     IErMin= 7 ErrMin= 4.34D-08
 ErrMax= 4.34D-08  0.00D+00 EMaxC= 1.00D-01 BMatC= 1.09D-12 BMatP= 8.59D-11
 IDIUse=1 WtCom= 1.00D+00 WtEn= 0.00D+00
 Coeff-Com: -0.407D-03 0.624D-02 0.261D-01 0.371D-01 0.749D-01 0.161D+00
 Coeff-Com:  0.695D+00
 Coeff:     -0.407D-03 0.624D-02 0.261D-01 0.371D-01 0.749D-01 0.161D+00
 Coeff:      0.695D+00
 Gap=     0.196 Goal=   None    Shift=    0.000
 RMSDP=6.80D-09 MaxDP=2.36D-07 DE=-8.82D-11 OVMax= 3.56D-07

 SCF Done:  E(RB3LYP) =  -3630.84720846     A.U. after   12 cycles
            NFock= 12  Conv=0.68D-08     -V/T= 2.0062
 KE= 3.608456146608D+03 PE=-1.115451583576D+04 EE= 2.652858498259D+03
 Leave Link  502 at Tue Sep 17 09:43:37 2024, MaxMem=  1342177280 cpu:              78.9 elap:              10.6
 (Enter /groups/ReismanLab/Software/Gaussian16_RevC/Linux_Binary_AVX2-enabled-CPU/g16/l508.exe)
 QCSCF skips out because SCF is already converged.
 Leave Link  508 at Tue Sep 17 09:43:37 2024, MaxMem=  1342177280 cpu:               0.0 elap:               0.0
 (Enter /groups/ReismanLab/Software/Gaussian16_RevC/Linux_Binary_AVX2-enabled-CPU/g16/l701.exe)
 ... and contract with generalized density number  0.
 Compute integral first derivatives.
 R6Disp: Adding Grimme-D3(BJ) dispersion energy 1st derivatives to the gradient.
 Leave Link  701 at Tue Sep 17 09:43:37 2024, MaxMem=  1342177280 cpu:               0.5 elap:               0.1
 (Enter /groups/ReismanLab/Software/Gaussian16_RevC/Linux_Binary_AVX2-enabled-CPU/g16/l702.exe)
 L702 exits ... SP integral derivatives will be done elsewhere.
 Leave Link  702 at Tue Sep 17 09:43:37 2024, MaxMem=  1342177280 cpu:               0.0 elap:               0.0
 (Enter /groups/ReismanLab/Software/Gaussian16_RevC/Linux_Binary_AVX2-enabled-CPU/g16/l703.exe)
 Integral derivatives from FoFJK, PRISM(SPDF).
 Compute integral first derivatives, UseDBF=F ICtDFT=           0.
 Calling FoFJK, ICntrl=      2127 FMM=F ISym2X=0 I1Cent= 0 IOpClX= 0 NMat=1 NMatS=1 NMatT=0.
 FoFJK:  IHMeth= 1 ICntrl=    2127 DoSepK=F KAlg= 0 I1Cent=           0 FoldK=F
 IRaf=         0 NMat=       1 IRICut=       1 DoRegI=T DoRafI=F ISym2E= 0 IDoP0=0 IntGTp=1.
 FoFCou: FMM=F IPFlag=           0 FMFlag=      100000 FMFlg1=         800
         NFxFlg=           0 DoJE=F BraDBF=F KetDBF=F FulRan=T
         wScrn=  0.000000 ICntrl=      2127 IOpCl=  0 I1Cent=           0 NGrid=           0
[...]
   Eigenvalues:   -96.9354     2.0703   156.7317
     15  H    Isotropic =    23.1671   Anisotropy =    11.5178
   XX=    20.1331   YX=    -1.5051   ZX=    -0.0932
   XY=    -1.8987   YY=    30.5275   ZY=    -0.6952
   XZ=     0.1458   YZ=    -0.8111   ZZ=    18.8408
   Eigenvalues:    18.7863    19.8695    30.8457
     16  H    Isotropic =    22.9524   Anisotropy =    14.3257
   XX=    31.1987   YX=    -3.9890   ZX=    -1.5807
   XY=    -3.9926   YY=    19.2734   ZY=     0.4491
   XZ=    -0.7591   YZ=    -0.3139   ZZ=    18.3853
   Eigenvalues:    17.8792    18.4752    32.5029
     17  H    Isotropic =    23.1422   Anisotropy =    10.0591
   XX=    25.1018   YX=     4.2764   ZX=    -1.5983
   XY=     5.0007   YY=    24.3297   ZY=    -1.3510
   XZ=    -1.8894   YZ=    -1.2669   ZZ=    19.9951
   Eigenvalues:    19.4441    20.1342    29.8483
 End of Minotr F.D. properties file   721 does not exist.
 End of Minotr F.D. properties file   722 does not exist.
 End of Minotr F.D. properties file   788 does not exist.
 Leave Link 1002 at Tue Sep 17 10:56:52 2024, MaxMem=  1342177280 cpu:             993.2 elap:             995.5
 (Enter /groups/ReismanLab/Software/Gaussian16_RevC/Linux_Binary_AVX2-enabled-CPU/g16/l601.exe)
 Copying SCF densities to generalized density rwf, IOpCl= 0 IROHF=0.

 **********************************************************************

            Population analysis using the SCF Density.

 **********************************************************************

 Orbital symmetries:
       Occupied  (A) (A) (A) (A) (A) (A) (A) (A) (A) (A) (A) (A)
                 (A) (A) (A) (A) (A) (A) (A) (A) (A) (A) (A) (A)
                 (A) (A) (A) (A) (A) (A) (A) (A) (A) (A) (A) (A)
                 (A) (A) (A) (A) (A) (A) (A) (A) (A) (A) (A) (A)
                 (A) (A) (A) (A) (A) (A) (A) (A) (A) (A) (A) (A)
                 (A) (A) (A) (A) (A) (A) (A) (A)
       Virtual   (A) (A) (A) (A) (A) (A) (A) (A) (A) (A) (A) (A)
                 (A) (A) (A) (A) (A) (A) (A) (A) (A) (A) (A) (A)
                 (A) (A) (A) (A) (A) (A) (A) (A) (A) (A) (A) (A)
                 (A) (A) (A) (A) (A) (A) (A) (A) (A) (A) (A) (A)
                 (A) (A) (A) (A) (A) (A) (A) (A) (A) (A) (A) (A)
                 (A) (A) (A) (A) (A) (A) (A) (A) (A) (A) (A) (A)
                 (A) (A) (A) (A) (A) (A) (A) (A) (A) (A) (A) (A)
                 (A) (A) (A) (A) (A) (A) (A) (A) (A) (A) (A) (A)
                 (A) (A) (A) (A) (A) (A) (A) (A) (A) (A) (A) (A)
                 (A) (A) (A) (A) (A) (A) (A) (A) (A) (A) (A) (A)
                 (A) (A) (A) (A) (A) (A) (A) (A) (A) (A) (A) (A)
                 (A) (A) (A) (A) (A) (A) (A) (A) (A) (A) (A) (A)
                 (A) (A) (A) (A) (A) (A) (A) (A) (A) (A) (A) (A)
                 (A) (A) (A) (A) (A) (A) (A) (A) (A) (A) (A) (A)
                 (A) (A) (A) (A) (A) (A) (A) (A) (A) (A) (A) (A)
                 (A) (A) (A) (A) (A) (A) (A) (A) (A) (A) (A) (A)
                 (A) (A) (A) (A) (A) (A) (A) (A) (A) (A) (A) (A)
                 (A) (A) (A) (A) (A) (A) (A) (A) (A) (A) (A) (A)
                 (A) (A) (A) (A) (A) (A) (A) (A) (A) (A) (A) (A)
                 (A) (A) (A) (A) (A) (A) (A) (A) (A) (A) (A) (A)
                 (A) (A) (A) (A) (A) (A) (A) (A) (A) (A) (A) (A)
                 (A) (A) (A) (A) (A) (A) (A) (A) (A) (A) (A) (A)
                 (A) (A) (A) (A) (A) (A) (A) (A) (A) (A) (A) (A)
                 (A) (A) (A) (A) (A) (A) (A) (A) (A) (A) (A) (A)
                 (A) (A) (A) (A) (A) (A) (A) (A) (A) (A) (A) (A)
                 (A) (A) (A) (A) (A) (A) (A) (A) (A) (A) (A) (A)
                 (A) (A) (A) (A) (A) (A) (A) (A) (A) (A) (A) (A)
                 (A) (A) (A) (A) (A) (A) (A) (A) (A) (A) (A) (A)
                 (A) (A) (A) (A) (A) (A) (A) (A) (A) (A) (A) (A)
                 (A) (A) (A) (A) (A) (A) (A) (A) (A) (A) (A) (A)
                 (A) (A) (A) (A) (A) (A) (A) (A) (A) (A) (A) (A)
                 (A) (A) (A) (A) (A) (A) (A) (A) (A) (A) (A) (A)
                 (A) (A) (A) (A) (A) (A) (A) (A) (A) (A) (A) (A)
                 (A) (A) (A) (A) (A) (A) (A) (A) (A) (A) (A)
 The electronic state is 1-A.
 Alpha  occ. eigenvalues -- -485.39617 -89.94944 -63.38089 -57.20042 -57.19794
 Alpha  occ. eigenvalues --  -57.19786 -25.30462 -25.30120 -25.30113 -14.77555
 Alpha  occ. eigenvalues --  -10.83581 -10.63574 -10.62033 -10.61879 -10.60138
 Alpha  occ. eigenvalues --  -10.59820 -10.59649 -10.59539  -9.04733  -8.30800
 Alpha  occ. eigenvalues --   -6.87168  -6.86250  -6.86223  -6.22770  -6.22564
 Alpha  occ. eigenvalues --   -6.22198  -2.90545  -2.90214  -2.90184  -2.89329
 Alpha  occ. eigenvalues --   -2.89329  -1.48587  -1.39808  -1.39350  -1.04006
 Alpha  occ. eigenvalues --   -1.01783  -0.94606  -0.92922  -0.87802  -0.85054
 Alpha  occ. eigenvalues --   -0.80224  -0.76745  -0.72185  -0.71280  -0.70931
 Alpha  occ. eigenvalues --   -0.66813  -0.62791  -0.60274  -0.59610  -0.59442
 Alpha  occ. eigenvalues --   -0.58654  -0.55985  -0.55488  -0.53629  -0.51706
 Alpha  occ. eigenvalues --   -0.51439  -0.51027  -0.47637  -0.46429  -0.45388
 Alpha  occ. eigenvalues --   -0.44957  -0.43906  -0.41725  -0.39784  -0.37202
 Alpha  occ. eigenvalues --   -0.35694  -0.33690  -0.32700
 Alpha virt. eigenvalues --   -0.05340  -0.03265   0.00824   0.03164   0.05408
 Alpha virt. eigenvalues --    0.07156   0.07986   0.09402   0.10210   0.11425
 Alpha virt. eigenvalues --    0.12638   0.13694   0.14462   0.14943   0.15295
 Alpha virt. eigenvalues --    0.17142   0.18126   0.20253   0.21392   0.21621
 Alpha virt. eigenvalues --    0.22764   0.23343   0.23678   0.24353   0.24815
 Alpha virt. eigenvalues --    0.25150   0.25326   0.26594   0.27146   0.27883
 Alpha virt. eigenvalues --    0.28540   0.29438   0.30166   0.31104   0.31588
 Alpha virt. eigenvalues --    0.32170   0.32771   0.33426   0.34530   0.34992
 Alpha virt. eigenvalues --    0.36728   0.37574   0.38250   0.38866   0.39859
 Alpha virt. eigenvalues --    0.40685   0.40956   0.41492   0.43886   0.44197
 Alpha virt. eigenvalues --    0.44722   0.45083   0.46271   0.47320   0.48745
 Alpha virt. eigenvalues --    0.49950   0.50774   0.52139   0.54440   0.54821
 Alpha virt. eigenvalues --    0.55156   0.56130   0.56548   0.57444   0.58492
 Alpha virt. eigenvalues --    0.61344   0.61647   0.62866   0.63182   0.64963
 Alpha virt. eigenvalues --    0.65250   0.66010   0.67274   0.67774   0.69346
 Alpha virt. eigenvalues --    0.69398   0.70124   0.71803   0.72665   0.73720
 Alpha virt. eigenvalues --    0.73899   0.75248   0.77350   0.77874   0.77995
 Alpha virt. eigenvalues --    0.79041   0.80782   0.81555   0.83449   0.84440
 Alpha virt. eigenvalues --    0.86614   0.88141   0.89739   0.90785   0.91465
 Alpha virt. eigenvalues --    0.91674   0.92527   0.95843   0.96801   0.97323
 Alpha virt. eigenvalues --    0.98756   1.00159   1.01258   1.03115   1.04381
 Alpha virt. eigenvalues --    1.05778   1.07067   1.08443   1.08869   1.09478
 Alpha virt. eigenvalues --    1.10045   1.11659   1.13638   1.16245   1.17669
 Alpha virt. eigenvalues --    1.19620   1.21036   1.21498   1.22740   1.23918
 Alpha virt. eigenvalues --    1.24568   1.27560   1.28458   1.32039   1.32581
 Alpha virt. eigenvalues --    1.33281   1.34971   1.36309   1.37529   1.38119
 Alpha virt. eigenvalues --    1.39648   1.40885   1.44268   1.45299   1.46334
 Alpha virt. eigenvalues --    1.47769   1.48935   1.49407   1.50800   1.52048
 Alpha virt. eigenvalues --    1.52249   1.54835   1.55489   1.56194   1.57098
 Alpha virt. eigenvalues --    1.58047   1.59188   1.60414   1.61036   1.62484
 Alpha virt. eigenvalues --    1.62869   1.64335   1.64685   1.65943   1.67636
 Alpha virt. eigenvalues --    1.67897   1.69163   1.70264   1.71808   1.73401
 Alpha virt. eigenvalues --    1.73581   1.74652   1.76443   1.77779   1.79261
 Alpha virt. eigenvalues --    1.80499   1.82698   1.83567   1.85212   1.87480
 Alpha virt. eigenvalues --    1.87542   1.88420   1.89992   1.91243   1.92690
 Alpha virt. eigenvalues --    1.93281   1.94585   1.95423   1.95986   1.97189
 Alpha virt. eigenvalues --    1.98330   1.99472   2.01083   2.02780   2.04148
 Alpha virt. eigenvalues --    2.06630   2.08239   2.11775   2.12356   2.14489
 Alpha virt. eigenvalues --    2.16536   2.16692   2.18623   2.21458   2.24815
 Alpha virt. eigenvalues --    2.28825   2.30921   2.32356   2.33186   2.33933
 Alpha virt. eigenvalues --    2.34999   2.36162   2.38900   2.40771   2.43997
 Alpha virt. eigenvalues --    2.45267   2.47423   2.47746   2.49626   2.50655
 Alpha virt. eigenvalues --    2.52000   2.53354   2.54698   2.57289   2.57540
 Alpha virt. eigenvalues --    2.58688   2.60310   2.62254   2.63982   2.65127
 Alpha virt. eigenvalues --    2.65604   2.66699   2.70377   2.72361   2.74061
 Alpha virt. eigenvalues --    2.75231   2.76230   2.77276   2.77886   2.80794
 Alpha virt. eigenvalues --    2.82173   2.82658   2.83970   2.86720   2.87511
 Alpha virt. eigenvalues --    2.89225   2.92410   2.94465   2.95200   2.96301
 Alpha virt. eigenvalues --    2.97261   2.98262   2.99711   3.02763   3.04385
 Alpha virt. eigenvalues --    3.05228   3.05972   3.06772   3.06947   3.07208
 Alpha virt. eigenvalues --    3.11452   3.13102   3.14425   3.14835   3.15497
 Alpha virt. eigenvalues --    3.17571   3.19574   3.19943   3.20623   3.21919
 Alpha virt. eigenvalues --    3.23095   3.24283   3.24519   3.26681   3.27554
 Alpha virt. eigenvalues --    3.27745   3.30217   3.30798   3.32265   3.34226
 Alpha virt. eigenvalues --    3.35071   3.35786   3.36784   3.38452   3.39049
 Alpha virt. eigenvalues --    3.39456   3.39637   3.42508   3.44804   3.45249
 Alpha virt. eigenvalues --    3.47088   3.48282   3.48833   3.50875   3.54717
 Alpha virt. eigenvalues --    3.64292   3.65706   3.66887   3.67970   3.69671
 Alpha virt. eigenvalues --    3.70370   3.72537   3.74280   3.77592   3.78130
 Alpha virt. eigenvalues --    3.81008   3.81762   3.83689   3.88353   3.89812
 Alpha virt. eigenvalues --    3.89992   3.93170   3.95628   3.95713   3.96348
 Alpha virt. eigenvalues --    3.98390   4.00482   4.02323   4.02680   4.04472
 Alpha virt. eigenvalues --    4.05096   4.08148   4.08962   4.10368   4.12668
 Alpha virt. eigenvalues --    4.14308   4.14921   4.15257   4.20389   4.21003
 Alpha virt. eigenvalues --    4.22578   4.24047   4.34602   4.38683   4.43953
 Alpha virt. eigenvalues --    4.44848   4.49470   4.53682   4.54906   4.55077
 Alpha virt. eigenvalues --    4.57489   4.61939   4.67443   4.67848   4.71936
 Alpha virt. eigenvalues --    4.72217   4.88991   4.90868   4.91606   4.98298
 Alpha virt. eigenvalues --    5.05960   5.08348   5.13084   5.13309   5.14782
 Alpha virt. eigenvalues --    5.20082   5.24492   5.31112   5.31847   5.49794
 Alpha virt. eigenvalues --    5.59850   5.61622   5.82373   6.09368   6.81194
 Alpha virt. eigenvalues --    6.85431   6.85493   6.85682   6.86054   6.86181
 Alpha virt. eigenvalues --    6.86391   6.86477   6.87080   6.95085   6.96812
 Alpha virt. eigenvalues --    6.97519   7.02857   7.04268   7.09821   7.27602
 Alpha virt. eigenvalues --    7.28688   7.33200   7.49687   7.52577   7.52665
 Alpha virt. eigenvalues --    7.85250   8.26724   8.27101   8.30086   8.41919
 Alpha virt. eigenvalues --    8.42394   8.42961   8.67153   8.71205   8.73382
 Alpha virt. eigenvalues --    8.78494   8.88324   8.93858   8.95552   8.98636
 Alpha virt. eigenvalues --    9.00840   9.07425   9.35566   9.54321  19.85008
 Alpha virt. eigenvalues --   22.16133  22.63622  22.73869  22.79600  22.82538
 Alpha virt. eigenvalues --   22.94483  23.21895  23.62068  32.19393  57.22259
 Alpha virt. eigenvalues --   57.25326  57.40670
          Condensed to atoms (all electrons):
               1          2          3          4          5          6
     1  N    6.145160   0.919992  -0.043988   0.001072  -0.000177   0.000002
     2  C    0.919992   5.244011   0.142644  -0.035948  -0.010608  -0.001507
     3  C   -0.043988   0.142644   4.925649   0.378510   0.020373   0.016953
     4  C    0.001072  -0.035948   0.378510   5.244328   0.359215  -0.097677
     5  C   -0.000177  -0.010608   0.020373   0.359215   4.934537   0.383885
     6  Br   0.000002  -0.001507   0.016953  -0.097677   0.383885  34.855240
     7  C    0.000039   0.004754  -0.089759   0.056484   0.288203  -0.098140
     8  C   -0.000217  -0.010712   0.013651  -0.125507   0.088603   0.020974
     9  S    0.000004  -0.001165   0.006285   0.000667   0.010928  -0.000520
    10  C   -0.000000  -0.000061  -0.000226  -0.000058   0.000841   0.000072
    11  F   -0.000000  -0.000000  -0.000131   0.000276  -0.000849   0.000015
    12  F   -0.000000  -0.000000  -0.000022   0.000004  -0.000048  -0.000000
    13  F   -0.000000  -0.000073  -0.001303   0.000235  -0.000621  -0.000000
    14  C    0.000897  -0.042898   0.451983  -0.004182  -0.061247  -0.000885
    15  H    0.001140   0.004611  -0.028347   0.400766  -0.037779  -0.005547
    16  H   -0.000001   0.000323  -0.002293   0.012755  -0.032966  -0.006997
    17  H    0.001090   0.003516  -0.021639   0.007946  -0.002579   0.000043
               7          8          9         10         11         12
     1  N    0.000039  -0.000217   0.000004  -0.000000  -0.000000  -0.000000
     2  C    0.004754  -0.010712  -0.001165  -0.000061  -0.000000  -0.000000
     3  C   -0.089759   0.013651   0.006285  -0.000226  -0.000131  -0.000022
     4  C    0.056484  -0.125507   0.000667  -0.000058   0.000276   0.000004
     5  C    0.288203   0.088603   0.010928   0.000841  -0.000849  -0.000048
     6  Br  -0.098140   0.020974  -0.000520   0.000072   0.000015  -0.000000
     7  C    5.429972   0.176291  -0.073573  -0.012343   0.012626   0.000306
     8  C    0.176291   5.333677   0.315185  -0.026591  -0.013479   0.003737
     9  S   -0.073573   0.315185  15.527542   0.453407  -0.060773  -0.051010
    10  C   -0.012343  -0.026591   0.453407   4.189967   0.312474   0.318537
    11  F    0.012626  -0.013479  -0.060773   0.312474   9.006096  -0.045355
    12  F    0.000306   0.003737  -0.051010   0.318537  -0.045355   8.979051
    13  F    0.003892  -0.004644  -0.061047   0.319955  -0.048855  -0.044949
    14  C   -0.010665   0.350989  -0.060169  -0.003676   0.001302   0.000017
    15  H    0.012770  -0.002843   0.000047  -0.000001   0.000000   0.000000
    16  H    0.408918  -0.046562  -0.003602  -0.002219   0.004853   0.000074
    17  H    0.012683  -0.037078   0.003276  -0.000015   0.000054   0.000016
              13         14         15         16         17
     1  N   -0.000000   0.000897   0.001140  -0.000001   0.001090
     2  C   -0.000073  -0.042898   0.004611   0.000323   0.003516
     3  C   -0.001303   0.451983  -0.028347  -0.002293  -0.021639
     4  C    0.000235  -0.004182   0.400766   0.012755   0.007946
     5  C   -0.000621  -0.061247  -0.037779  -0.032966  -0.002579
     6  Br  -0.000000  -0.000885  -0.005547  -0.006997   0.000043
     7  C    0.003892  -0.010665   0.012770   0.408918   0.012683
     8  C   -0.004644   0.350989  -0.002843  -0.046562  -0.037078
     9  S   -0.061047  -0.060169   0.000047  -0.003602   0.003276
    10  C    0.319955  -0.003676  -0.000001  -0.002219  -0.000015
    11  F   -0.048855   0.001302   0.000000   0.004853   0.000054
    12  F   -0.044949   0.000017   0.000000   0.000074   0.000016
    13  F    8.991530   0.007167   0.000001   0.000402   0.000385
    14  C    0.007167   5.158041   0.006700   0.012020   0.392016
    15  H    0.000001   0.006700   0.439942   0.000039  -0.000172
    16  H    0.000402   0.012020   0.000039   0.450739   0.000022
    17  H    0.000385   0.392016  -0.000172   0.000022   0.437275
 Mulliken charges:
               1
     1  N   -0.025013
     2  C   -0.216878
     3  C    0.231659
     4  C   -0.198886
     5  C    0.060288
     6  Br  -0.065912
     7  C   -0.122460
     8  C   -0.035476
     9  S   -0.005483
    10  C    0.449936
    11  F   -0.168256
    12  F   -0.160357
    13  F   -0.162076
    14  C   -0.197410
    15  H    0.208671
    16  H    0.204495
    17  H    0.203158
 Sum of Mulliken charges =   0.00000
 Mulliken charges with hydrogens summed into heavy atoms:
               1
     1  N   -0.025013
     2  C   -0.216878
     3  C    0.231659
     4  C    0.009785
     5  C    0.060288
     6  Br  -0.065912
     7  C    0.082034
     8  C   -0.035476
     9  S   -0.005483
    10  C    0.449936
    11  F   -0.168256
    12  F   -0.160357
    13  F   -0.162076
    14  C    0.005748
 Electronic spatial extent (au):  <R**2>=           4758.7278
 Charge=             -0.0000 electrons
 Dipole moment (field-independent basis, Debye):
    X=             -0.1688    Y=             -2.5480    Z=              1.3699  Tot=              2.8979
 Quadrupole moment (field-independent basis, Debye-Ang):
   XX=           -101.5194   YY=           -117.8059   ZZ=            -98.7817
   XY=             -9.9283   XZ=             -1.3777   YZ=              3.0413
 Traceless Quadrupole moment (field-independent basis, Debye-Ang):
   XX=              4.5163   YY=            -11.7702   ZZ=              7.2540
   XY=             -9.9283   XZ=             -1.3777   YZ=              3.0413
 Octapole moment (field-independent basis, Debye-Ang**2):
  XXX=             35.4084  YYY=           -204.6377  ZZZ=            -16.5060  XYY=            -46.4335
  XXY=            -39.9664  XXZ=             -4.1927  XZZ=              3.4271  YZZ=            -27.6890
  YYZ=             12.0625  XYZ=              4.4250
 Hexadecapole moment (field-independent basis, Debye-Ang**3):
 XXXX=          -3149.8335 YYYY=          -2607.2923 ZZZZ=           -326.1721 XXXY=           -165.9354
 XXXZ=             20.4107 YYYX=           -424.3371 YYYZ=             89.9415 ZZZX=             36.5658
 ZZZY=             15.0246 XXYY=           -941.5033 XXZZ=           -582.0651 YYZZ=           -394.6826
 XXYZ=             16.1310 YYXZ=             37.8449 ZZXY=            -40.8956
 N-N= 1.264311186462D+03 E-N=-1.117984868888D+04  KE= 3.626459650576D+03
 Calculating spin-rotation constants.
 Leave Link  601 at Tue Sep 17 10:56:56 2024, MaxMem=  1342177280 cpu:               4.2 elap:               4.1
 (Enter /groups/ReismanLab/Software/Gaussian16_RevC/Linux_Binary_AVX2-enabled-CPU/g16/l9999.exe)
 Unable to Open any file for archive entry.
 1\1\GINC-HPC-21-26\SP\RM062X\def2TZVP\C8H3Br1F3N1S1\MANTIND\17-Sep-202
 4\0\\#p M062X/def2tzvp geom=check guess=read scf(xqc,tight) integral(g
 rid=ultrafine) scrf(SMD, solvent=1,4-Dioxane) nmr=giao\\spe\\0,1\N,0,-
 1.5160684343,-4.6272351202,-0.5295323612\C,0,-1.2182464166,-3.52584997
 55,-0.3068572906\C,0,-0.8492071915,-2.1687567188,-0.0303662467\C,0,-1.
 8137483922,-1.1552017268,-0.1263774179\C,0,-1.4388015711,0.1564317543,
 0.1461251325\Br,0,-2.7390260772,1.5400395964,0.0212737529\C,0,-0.13564
 10456,0.477735325,0.5184838023\C,0,0.8197002528,-0.5421823482,0.598361
 9379\S,0,2.4975406171,-0.1675230484,1.1063814661\C,0,3.0581215352,0.67
 78681549,-0.4142900156\F,0,2.3642799458,1.8036617522,-0.6633700724\F,0
 ,4.3451461105,1.0055619468,-0.2391194116\F,0,2.953523988,-0.1000379114
 ,-1.500723345\C,0,0.4734852661,-1.8650379937,0.3249539505\H,0,-2.83220
 86717,-1.3925415941,-0.4063502191\H,0,0.1360092852,1.5018450978,0.7378
 637353\H,0,1.2166932128,-2.6505304411,0.3819515392\\Version=ES64L-G16R
 evC.02\State=1-A\HF=-3633.3394615\RMSD=1.772e-09\Dipole=0.0156406,0.99
 43095,0.557618\Quadrupole=4.2744956,-9.5348298,5.2603342,-6.6421427,1.
 0611696,-2.3334186\PG=C01 [X(C8H3Br1F3N1S1)]\\@
 The archive entry for this job was punched.


 The cat could very well be man's best friend
 but would never stoop to admitting it.
                               -- Doug Larson
 Job cpu time:       0 days  0 hours 18 minutes  8.9 seconds.
 Elapsed time:       0 days  0 hours 18 minutes 12.2 seconds.
 File lengths (MBytes):  RWF=    304 Int=      0 D2E=      0 Chk=     32 Scr=     16
 Normal termination of Gaussian 16 at Tue Sep 17 10:56:56 2024.
