 Entering Gaussian System, Link 0=g16
 Input=smiles_00047_conf_4.gjf
 Output=smiles_00047_conf_4.log
 Initial command:
 /groups/ReismanLab/Software/Gaussian16_RevC/Linux_Binary_AVX2-enabled-CPU/g16/l1.exe "/central/groups/ReismanLab/DM/dft_final/smiles_00047/Gau-4060689.inp" -scrdir="/central/groups/ReismanLab/DM/dft_final/smiles_00047/"
 Entering Link 1 = /groups/ReismanLab/Software/Gaussian16_RevC/Linux_Binary_AVX2-enabled-CPU/g16/l1.exe PID=   4060690.
  
 Copyright (c) 1988-2021, Gaussian, Inc.  All Rights Reserved.
  
 This is part of the Gaussian(R) 16 program.  It is based on
 the Gaussian(R) 09 system (copyright 2009, Gaussian, Inc.),
 the Gaussian(R) 03 system (copyright 2003, Gaussian, Inc.),
 the Gaussian(R) 98 system (copyright 1998, Gaussian, Inc.),
 the Gaussian(R) 94 system (copyright 1995, Gaussian, Inc.),
 the Gaussian 92(TM) system (copyright 1992, Gaussian, Inc.),
 the Gaussian 90(TM) system (copyright 1990, Gaussian, Inc.),
 the Gaussian 88(TM) system (copyright 1988, Gaussian, Inc.),
 the Gaussian 86(TM) system (copyright 1986, Carnegie Mellon
 University), and the Gaussian 82(TM) system (copyright 1983,
 Carnegie Mellon University). Gaussian is a federally registered
 trademark of Gaussian, Inc.
  
 This software contains proprietary and confidential information,
 including trade secrets, belonging to Gaussian, Inc.
  
 This software is provided under written license and may be
 used, copied, transmitted, or stored only in accord with that
 written license.
  
 The following legend is applicable only to US Government
 contracts under FAR:
  
                    RESTRICTED RIGHTS LEGEND
  
 Use, reproduction and disclosure by the US Government is
 subject to restrictions as set forth in subparagraphs (a)
 and (c) of the Commercial Computer Software - Restricted
 Rights clause in FAR 52.227-19.
  
 Gaussian, Inc.
 340 Quinnipiac St., Bldg. 40, Wallingford CT 06492
  
  
 ---------------------------------------------------------------
 Warning -- This program may not be used in any manner that
 competes with the business of Gaussian, Inc. or will provide
 assistance to any competitor of Gaussian, Inc.  The licensee
 of this program is prohibited from giving any competitor of
 Gaussian, Inc. access to this program.  By using this program,
 the user acknowledges that Gaussian, Inc. is engaged in the
 business of creating and licensing software in the field of
 computational chemistry and represents and warrants to the
 licensee that it is not a competitor of Gaussian, Inc. and that
 it will not use this program in any manner prohibited above.
 ---------------------------------------------------------------
  

 Cite this work as:
 Gaussian 16, Revision C.02,
 M. J. Frisch, G. W. Trucks, H. B. Schlegel, G. E. Scuseria, 
 M. A. Robb, J. R. Cheeseman, G. Scalmani, V. Barone, 
 G. A. Petersson, H. Nakatsuji, X. Li, M. Caricato, A. V. Marenich, 
 J. Bloino, B. G. Janesko, R. Gomperts, B. Mennucci, H. P. Hratchian, 
 J. V. Ortiz, A. F. Izmaylov, J. L. Sonnenberg, D. Williams-Young, 
 F. Ding, F. Lipparini, F. Egidi, J. Goings, B. Peng, A. Petrone, 
 T. Henderson, D. Ranasinghe, V. G. Zakrzewski, J. Gao, N. Rega, 
 G. Zheng, W. Liang, M. Hada, M. Ehara, K. Toyota, R. Fukuda, 
 J. Hasegawa, M. Ishida, T. Nakajima, Y. Honda, O. Kitao, H. Nakai, 
 T. Vreven, K. Throssell, J. A. Montgomery, Jr., J. E. Peralta, 
 F. Ogliaro, M. J. Bearpark, J. J. Heyd, E. N. Brothers, K. N. Kudin, 
 V. N. Staroverov, T. A. Keith, R. Kobayashi, J. Normand, 
 K. Raghavachari, A. P. Rendell, J. C. Burant, S. S. Iyengar, 
 J. Tomasi, M. Cossi, J. M. Millam, M. Klene, C. Adamo, R. Cammi, 
 J. W. Ochterski, R. L. Martin, K. Morokuma, O. Farkas, 
 J. B. Foresman, and D. J. Fox, Gaussian, Inc., Wallingford CT, 2019.
 
 ******************************************
 Gaussian 16:  ES64L-G16RevC.02  7-Dec-2021
                17-Sep-2024 
 ******************************************
 %nprocshared=8
 Will use up to    8 processors via shared memory.
 %Mem=10GB
 %Chk=smiles_00047_conf_4.chk
 ----------------------------------------------------------------------
 #p B3LYP/6-31G(d,p) EmpiricalDispersion=GD3BJ opt freq scf(xqc,tight) 
 integral(grid=ultrafine)
 ----------------------------------------------------------------------
 1/18=20,19=15,26=4,38=1/1,3;
 2/9=110,12=2,17=6,18=5,40=1/2;
 3/5=1,6=6,7=101,11=2,25=1,30=1,71=1,74=-5,75=-5,124=41/1,2,3;
 4//1;
 5/5=2,8=3,13=1,32=2,38=5/2,8;
 6/7=2,8=2,9=2,10=2,28=1/1;
 7//1,2,3,16;
 1/18=20,19=15,26=4/3(2);
 2/9=110/2;
 99//99;
 2/9=110/2;
 3/5=1,6=6,7=101,11=2,25=1,30=1,71=1,74=-5,75=-5,124=41/1,2,3;
 4/5=5,16=3,69=1/1;
 5/5=2,8=3,13=1,32=2,38=5/2,8;
 7//1,2,3,16;
 1/18=20,19=15,26=4/3(-5);
 2/9=110/2;
 6/7=2,8=2,9=2,10=2,19=2,28=1/1;
 99/9=1/99;
 Leave Link    1 at Tue Sep 17 09:41:32 2024, MaxMem=  1342177280 cpu:               0.1 elap:               0.6
 (Enter /groups/ReismanLab/Software/Gaussian16_RevC/Linux_Binary_AVX2-enabled-CPU/g16/l101.exe)
 ----------------------------------
 opt-freq conformers_unique/conf_ae
 ----------------------------------
 Symbolic Z-matrix:
 Charge =  0 Multiplicity = 1
 C                     5.70644  -0.30007   0.23543 
 O                     4.5789   -0.99813   0.74951 
 C                     3.37789  -0.51774   0.40578 
 O                     3.21585   0.4407   -0.29719 
 C                     2.27725  -1.36168   1.0295 
 C                     0.92132  -0.84996   0.64256 
 C                     0.36892  -1.19208  -0.58571 
 C                    -0.86425  -0.69996  -0.97055 
 C                    -1.54709   0.14559  -0.11394 
 Br                   -3.25172   0.82167  -0.62948 
 C                    -1.01604   0.50581   1.11161 
 C                     0.21965   0.00626   1.48107 
 H                     5.76039   0.701     0.66758 
 H                     5.63407  -0.21073  -0.85008 
 H                     6.57897  -0.88403   0.51621 
 H                     2.42268  -2.39048   0.6937 
 H                     2.41598  -1.33924   2.11192 
 H                     0.90859  -1.84817  -1.25225 
 H                    -1.29002  -0.96759  -1.92534 
 H                    -1.55899   1.16978   1.76654 
 H                     0.63977   0.28944   2.43488 
 
 ITRead=  0  0  0  0  0  0  0  0  0  0  0  0  0  0  0  0  0  0  0  0
 ITRead=  0
 MicOpt= -1 -1 -1 -1 -1 -1 -1 -1 -1 -1 -1 -1 -1 -1 -1 -1 -1 -1 -1 -1
 MicOpt= -1
 NAtoms=     21 NQM=       21 NQMF=       0 NMMI=      0 NMMIF=      0
                NMic=       0 NMicF=      0.
                    Isotopes and Nuclear Properties:
 (Nuclear quadrupole moments (NQMom) in fm**2, nuclear magnetic moments (NMagM)
  in nuclear magnetons)

  Atom         1           2           3           4           5           6           7           8           9          10
 IAtWgt=          12          16          12          16          12          12          12          12          12          79
 AtmWgt=  12.0000000  15.9949146  12.0000000  15.9949146  12.0000000  12.0000000  12.0000000  12.0000000  12.0000000  78.9183361
 NucSpn=           0           0           0           0           0           0           0           0           0           3
 AtZEff=  -0.0000000  -0.0000000  -0.0000000  -0.0000000  -0.0000000  -0.0000000  -0.0000000  -0.0000000  -0.0000000  -0.0000000
 NQMom=    0.0000000   0.0000000   0.0000000   0.0000000   0.0000000   0.0000000   0.0000000   0.0000000   0.0000000  31.3000000
 NMagM=    0.0000000   0.0000000   0.0000000   0.0000000   0.0000000   0.0000000   0.0000000   0.0000000   0.0000000   2.1063990
 AtZNuc=   6.0000000   8.0000000   6.0000000   8.0000000   6.0000000   6.0000000   6.0000000   6.0000000   6.0000000  35.0000000

  Atom        11          12          13          14          15          16          17          18          19          20
 IAtWgt=          12          12           1           1           1           1           1           1           1           1
 AtmWgt=  12.0000000  12.0000000   1.0078250   1.0078250   1.0078250   1.0078250   1.0078250   1.0078250   1.0078250   1.0078250
 NucSpn=           0           0           1           1           1           1           1           1           1           1
 AtZEff=  -0.0000000  -0.0000000  -0.0000000  -0.0000000  -0.0000000  -0.0000000  -0.0000000  -0.0000000  -0.0000000  -0.0000000
 NQMom=    0.0000000   0.0000000   0.0000000   0.0000000   0.0000000   0.0000000   0.0000000   0.0000000   0.0000000   0.0000000
 NMagM=    0.0000000   0.0000000   2.7928460   2.7928460   2.7928460   2.7928460   2.7928460   2.7928460   2.7928460   2.7928460
 AtZNuc=   6.0000000   6.0000000   1.0000000   1.0000000   1.0000000   1.0000000   1.0000000   1.0000000   1.0000000   1.0000000

  Atom        21
 IAtWgt=           1
 AtmWgt=   1.0078250
 NucSpn=           1
 AtZEff=  -0.0000000
 NQMom=    0.0000000
 NMagM=    2.7928460
 AtZNuc=   1.0000000
 Leave Link  101 at Tue Sep 17 09:41:33 2024, MaxMem=  1342177280 cpu:               0.2 elap:               0.2
 (Enter /groups/ReismanLab/Software/Gaussian16_RevC/Linux_Binary_AVX2-enabled-CPU/g16/l103.exe)

 GradGradGradGradGradGradGradGradGradGradGradGradGradGradGradGradGradGrad
 Berny optimization.
 Initialization pass.
                           ----------------------------
                           !    Initial Parameters    !
                           ! (Angstroms and Degrees)  !
 --------------------------                            --------------------------
 ! Name  Definition              Value          Derivative Info.                !
 --------------------------------------------------------------------------------
 ! R1    R(1,2)                  1.4223         estimate D2E/DX2                !
 ! R2    R(1,13)                 1.0917         estimate D2E/DX2                !
 ! R3    R(1,14)                 1.0916         estimate D2E/DX2                !
 ! R4    R(1,15)                 1.0868         estimate D2E/DX2                !
 ! R5    R(2,3)                  1.3384         estimate D2E/DX2                !
 ! R6    R(3,4)                  1.1996         estimate D2E/DX2                !
 ! R7    R(3,5)                  1.5208         estimate D2E/DX2                !
 ! R8    R(5,6)                  1.5            estimate D2E/DX2                !
 ! R9    R(5,16)                 1.0919         estimate D2E/DX2                !
 ! R10   R(5,17)                 1.0915         estimate D2E/DX2                !
 ! R11   R(6,7)                  1.3896         estimate D2E/DX2                !
 ! R12   R(6,12)                 1.3887         estimate D2E/DX2                !
 ! R13   R(7,8)                  1.3824         estimate D2E/DX2                !
 ! R14   R(7,18)                 1.0798         estimate D2E/DX2                !
 ! R15   R(8,9)                  1.3838         estimate D2E/DX2                !
 ! R16   R(8,19)                 1.0791         estimate D2E/DX2                !
 ! R17   R(9,10)                 1.9049         estimate D2E/DX2                !
 ! R18   R(9,11)                 1.3834         estimate D2E/DX2                !
 ! R19   R(11,12)                1.3831         estimate D2E/DX2                !
 ! R20   R(11,20)                1.0792         estimate D2E/DX2                !
 ! R21   R(12,21)                1.08           estimate D2E/DX2                !
 ! A1    A(2,1,13)             110.2521         estimate D2E/DX2                !
 ! A2    A(2,1,14)             110.3062         estimate D2E/DX2                !
 ! A3    A(2,1,15)             106.2223         estimate D2E/DX2                !
 ! A4    A(13,1,14)            108.7764         estimate D2E/DX2                !
 ! A5    A(13,1,15)            110.5343         estimate D2E/DX2                !
 ! A6    A(14,1,15)            110.7399         estimate D2E/DX2                !
 ! A7    A(1,2,3)              116.2566         estimate D2E/DX2                !
 ! A8    A(2,3,4)              123.9508         estimate D2E/DX2                !
 ! A9    A(2,3,5)              110.1773         estimate D2E/DX2                !
 ! A10   A(4,3,5)              125.8717         estimate D2E/DX2                !
 ! A11   A(3,5,6)              111.0451         estimate D2E/DX2                !
 ! A12   A(3,5,16)             107.4778         estimate D2E/DX2                !
 ! A13   A(3,5,17)             107.6577         estimate D2E/DX2                !
 ! A14   A(6,5,16)             111.2523         estimate D2E/DX2                !
 ! A15   A(6,5,17)             111.3263         estimate D2E/DX2                !
 ! A16   A(16,5,17)            107.9035         estimate D2E/DX2                !
 ! A17   A(5,6,7)              120.2233         estimate D2E/DX2                !
 ! A18   A(5,6,12)             120.7504         estimate D2E/DX2                !
 ! A19   A(7,6,12)             118.99           estimate D2E/DX2                !
 ! A20   A(6,7,8)              120.8675         estimate D2E/DX2                !
 ! A21   A(6,7,18)             119.7715         estimate D2E/DX2                !
 ! A22   A(8,7,18)             119.3607         estimate D2E/DX2                !
 ! A23   A(7,8,9)              119.037          estimate D2E/DX2                !
 ! A24   A(7,8,19)             120.6623         estimate D2E/DX2                !
 ! A25   A(9,8,19)             120.3005         estimate D2E/DX2                !
 ! A26   A(8,9,10)             119.3997         estimate D2E/DX2                !
 ! A27   A(8,9,11)             121.2033         estimate D2E/DX2                !
 ! A28   A(10,9,11)            119.3968         estimate D2E/DX2                !
 ! A29   A(9,11,12)            119.0488         estimate D2E/DX2                !
 ! A30   A(9,11,20)            120.3133         estimate D2E/DX2                !
 ! A31   A(12,11,20)           120.6376         estimate D2E/DX2                !
 ! A32   A(6,12,11)            120.8512         estimate D2E/DX2                !
 ! A33   A(6,12,21)            119.8912         estimate D2E/DX2                !
 ! A34   A(11,12,21)           119.2576         estimate D2E/DX2                !
 ! D1    D(13,1,2,3)            66.4437         estimate D2E/DX2                !
 ! D2    D(14,1,2,3)           -53.7119         estimate D2E/DX2                !
 ! D3    D(15,1,2,3)          -173.7722         estimate D2E/DX2                !
 ! D4    D(1,2,3,4)              0.2717         estimate D2E/DX2                !
 ! D5    D(1,2,3,5)           -179.8852         estimate D2E/DX2                !
 ! D6    D(2,3,5,6)           -179.2973         estimate D2E/DX2                !
 ! D7    D(2,3,5,16)           -57.4045         estimate D2E/DX2                !
 ! D8    D(2,3,5,17)            58.6013         estimate D2E/DX2                !
 ! D9    D(4,3,5,6)              0.542          estimate D2E/DX2                !
 ! D10   D(4,3,5,16)           122.4349         estimate D2E/DX2                !
 ! D11   D(4,3,5,17)          -121.5594         estimate D2E/DX2                !
 ! D12   D(3,5,6,7)             81.5181         estimate D2E/DX2                !
 ! D13   D(3,5,6,12)           -96.2671         estimate D2E/DX2                !
 ! D14   D(16,5,6,7)           -38.1469         estimate D2E/DX2                !
 ! D15   D(16,5,6,12)          144.0679         estimate D2E/DX2                !
 ! D16   D(17,5,6,7)          -158.5403         estimate D2E/DX2                !
 ! D17   D(17,5,6,12)           23.6745         estimate D2E/DX2                !
 ! D18   D(5,6,7,8)           -178.3005         estimate D2E/DX2                !
 ! D19   D(5,6,7,18)             1.5002         estimate D2E/DX2                !
 ! D20   D(12,6,7,8)            -0.4765         estimate D2E/DX2                !
 ! D21   D(12,6,7,18)          179.3241         estimate D2E/DX2                !
 ! D22   D(5,6,12,11)          178.3754         estimate D2E/DX2                !
 ! D23   D(5,6,12,21)           -1.5921         estimate D2E/DX2                !
 ! D24   D(7,6,12,11)            0.5632         estimate D2E/DX2                !
 ! D25   D(7,6,12,21)         -179.4043         estimate D2E/DX2                !
 ! D26   D(6,7,8,9)              0.1167         estimate D2E/DX2                !
 ! D27   D(6,7,8,19)           179.9817         estimate D2E/DX2                !
 ! D28   D(18,7,8,9)          -179.6848         estimate D2E/DX2                !
 ! D29   D(18,7,8,19)            0.1803         estimate D2E/DX2                !
 ! D30   D(7,8,9,10)          -179.6464         estimate D2E/DX2                !
 ! D31   D(7,8,9,11)             0.1679         estimate D2E/DX2                !
 ! D32   D(19,8,9,10)            0.488          estimate D2E/DX2                !
 ! D33   D(19,8,9,11)         -179.6977         estimate D2E/DX2                !
 ! D34   D(8,9,11,12)           -0.0833         estimate D2E/DX2                !
 ! D35   D(8,9,11,20)          179.7216         estimate D2E/DX2                !
 ! D36   D(10,9,11,12)         179.7311         estimate D2E/DX2                !
 ! D37   D(10,9,11,20)          -0.4641         estimate D2E/DX2                !
 ! D38   D(9,11,12,6)           -0.2878         estimate D2E/DX2                !
 ! D39   D(9,11,12,21)         179.6799         estimate D2E/DX2                !
 ! D40   D(20,11,12,6)         179.9079         estimate D2E/DX2                !
 ! D41   D(20,11,12,21)         -0.1244         estimate D2E/DX2                !
 --------------------------------------------------------------------------------
 Trust Radius=3.00D-01 FncErr=1.00D-07 GrdErr=1.00D-06 EigMax=2.50D+02 EigMin=1.00D-04
 Number of steps in this run=    106 maximum allowed number of steps=    126.
 GradGradGradGradGradGradGradGradGradGradGradGradGradGradGradGradGradGrad

 Leave Link  103 at Tue Sep 17 09:41:33 2024, MaxMem=  1342177280 cpu:               0.0 elap:               0.1
 (Enter /groups/ReismanLab/Software/Gaussian16_RevC/Linux_Binary_AVX2-enabled-CPU/g16/l202.exe)
                          Input orientation:                          
 ---------------------------------------------------------------------
 Center     Atomic      Atomic             Coordinates (Angstroms)
 Number     Number       Type             X           Y           Z
 ---------------------------------------------------------------------
      1          6           0        5.706445   -0.300071    0.235433
      2          8           0        4.578896   -0.998129    0.749514
      3          6           0        3.377891   -0.517738    0.405783
      4          8           0        3.215852    0.440696   -0.297195
      5          6           0        2.277249   -1.361684    1.029505
      6          6           0        0.921319   -0.849962    0.642562
      7          6           0        0.368917   -1.192081   -0.585712
      8          6           0       -0.864252   -0.699959   -0.970545
      9          6           0       -1.547088    0.145585   -0.113941
     10         35           0       -3.251722    0.821671   -0.629476
     11          6           0       -1.016045    0.505814    1.111609
     12          6           0        0.219649    0.006261    1.481069
     13          1           0        5.760394    0.700995    0.667580
     14          1           0        5.634066   -0.210732   -0.850085
     15          1           0        6.578968   -0.884030    0.516213
     16          1           0        2.422684   -2.390478    0.693703
     17          1           0        2.415975   -1.339239    2.111916
     18          1           0        0.908591   -1.848173   -1.252246
     19          1           0       -1.290019   -0.967586   -1.925338
     20          1           0       -1.558992    1.169785    1.766538
     21          1           0        0.639768    0.289440    2.434880
 ---------------------------------------------------------------------
                    Distance matrix (angstroms):
                    1          2          3          4          5
     1  C    0.000000
     2  O    1.422298   0.000000
     3  C    2.344901   1.338409   0.000000
     4  O    2.652448   2.241363   1.199596   0.000000
     5  C    3.676541   2.346944   1.520752   2.426867   0.000000
     6  C    4.833794   3.662139   2.490218   2.795322   1.500044
     7  C    5.473496   4.420901   3.239093   3.294578   2.505877
     8  C    6.692410   5.716238   4.463549   4.289726   3.782475
     9  C    7.275604   6.291369   4.996552   4.775592   4.266719
    10  Br   9.069461   8.156707   6.842335   6.487301   6.171611
    11  C    6.827078   5.804853   4.566456   4.460708   3.786829
    12  C    5.634747   4.532881   3.377175   3.511153   2.511753
    13  H    1.091694   2.071153   2.688897   2.733722   4.064226
    14  H    1.091589   2.071737   2.600342   2.564723   4.015690
    15  H    1.086803   2.016862   3.223857   3.705007   4.358486
    16  H    3.919553   2.567295   2.121904   3.102667   1.091939
    17  H    3.927881   2.578900   2.123921   3.100289   1.091496
    18  H    5.256350   4.266235   3.258307   3.387403   2.704863
    19  H    7.352891   6.449801   5.236972   4.993695   4.648851
    20  H    7.569103   6.588464   5.391864   5.252590   4.654922
    21  H    5.554845   4.473816   3.502298   3.758101   2.717101
                    6          7          8          9         10
     6  C    0.000000
     7  C    1.389550   0.000000
     8  C    2.410992   1.382385   0.000000
     9  C    2.767029   2.383904   1.383828   0.000000
    10  Br   4.671907   4.143205   2.851613   1.904900   0.000000
    11  C    2.410708   2.771618   2.410870   1.383381   2.851209
    12  C    1.388724   2.393719   2.772003   2.384288   4.143635
    13  H    5.081608   5.850000   6.966496   7.370112   9.105775
    14  H    4.984635   5.362344   6.517822   7.227576   8.948282
    15  H    5.659161   6.314575   7.592487   8.215229  10.043131
    16  H    2.151720   2.700188   4.053582   4.779435   6.653389
    17  H    2.152299   3.389587   4.546443   4.781738   6.656392
    18  H    2.141701   1.079801   2.130897   3.361721   4.982380
    19  H    3.390864   2.144077   1.079134   2.141587   2.954484
    20  H    3.390375   3.850756   3.386773   2.141337   2.954217
    21  H    2.142408   3.375240   3.852001   3.361476   4.981691
                   11         12         13         14         15
    11  C    0.000000
    12  C    1.383110   0.000000
    13  H    6.793775   5.643073   0.000000
    14  H    6.970341   5.898922   1.774968   0.000000
    15  H    7.744054   6.493420   1.790330   1.792467   0.000000
    16  H    4.515308   3.349278   4.549527   4.177026   4.424430
    17  H    4.022884   2.651827   4.175380   4.516978   4.481517
    18  H    3.851400   3.374104   5.807236   5.017277   6.017491
    19  H    3.386593   3.851115   7.695175   7.047833   8.239484
    20  H    1.079157   2.144491   7.416257   7.777700   8.485744
    21  H    2.130629   1.080021   5.432636   5.998682   6.350780
                   16         17         18         19         20
    16  H    0.000000
    17  H    1.765355   0.000000
    18  H    2.524538   3.721399   0.000000
    19  H    4.761109   5.492899   2.462188   0.000000
    20  H    5.447952   4.713263   4.930526   4.274418   0.000000
    21  H    3.659569   2.431422   4.270428   4.931095   2.460941
                   21
    21  H    0.000000
 Stoichiometry    C9H9BrO2
 Framework group  C1[X(C9H9BrO2)]
 Deg. of freedom    57
 Full point group                 C1      NOp   1
 Largest Abelian subgroup         C1      NOp   1
 Largest concise Abelian subgroup C1      NOp   1
                         Standard orientation:                         
 ---------------------------------------------------------------------
 Center     Atomic      Atomic             Coordinates (Angstroms)
 Number     Number       Type             X           Y           Z
 ---------------------------------------------------------------------
      1          6           0        5.410066   -0.543070   -0.688070
      2          8           0        4.495176    0.128791    0.168966
      3          6           0        3.195327   -0.057980   -0.089589
      4          8           0        2.781645   -0.747830   -0.979535
      5          6           0        2.345937    0.721197    0.902432
      6          6           0        0.883810    0.511934    0.640662
      7          6           0        0.243618   -0.625432    1.117530
      8          6           0       -1.094986   -0.848791    0.854394
      9          6           0       -1.795647    0.078360    0.103097
     10         35           0       -3.643175   -0.214050   -0.257150
     11          6           0       -1.179771    1.215612   -0.387923
     12          6           0        0.160577    1.423516   -0.117299
     13          1           0        5.347262   -0.137922   -1.699854
     14          1           0        5.183260   -1.610290   -0.722230
     15          1           0        6.398691   -0.372902   -0.269972
     16          1           0        2.620714    0.385157    1.904383
     17          1           0        2.617980    1.774664    0.815466
     18          1           0        0.796651   -1.348010    1.698913
     19          1           0       -1.588792   -1.733379    1.226132
     20          1           0       -1.738857    1.927007   -0.976072
     21          1           0        0.646075    2.307646   -0.503372
 ---------------------------------------------------------------------
 Rotational constants (GHZ):           2.7787763           0.2197389           0.2176454
 Leave Link  202 at Tue Sep 17 09:41:34 2024, MaxMem=  1342177280 cpu:               0.0 elap:               0.1
 (Enter /groups/ReismanLab/Software/Gaussian16_RevC/Linux_Binary_AVX2-enabled-CPU/g16/l301.exe)
 Standard basis: 6-31G(d,p) (6D, 7F)
 Ernie: Thresh=  0.10000D-02 Tol=  0.10000D-05 Strict=F.
 There are   240 symmetry adapted cartesian basis functions of A   symmetry.
 There are   240 symmetry adapted basis functions of A   symmetry.
   240 basis functions,   454 primitive gaussians,   240 cartesian basis functions
    57 alpha electrons       57 beta electrons
       nuclear repulsion energy       895.6685571407 Hartrees.
 IExCor=  402 DFT=T Ex+Corr=B3LYP ExCW=0 ScaHFX=  0.200000
 ScaDFX=  0.800000  0.720000  1.000000  0.810000 ScalE2=  1.000000  1.000000
 IRadAn=      5 IRanWt=     -1 IRanGd=            0 ICorTp=0 IEmpDi=141
 NAtoms=   21 NActive=   21 NUniq=   21 SFac= 1.00D+00 NAtFMM=   60 NAOKFM=F Big=F
 Integral buffers will be    131072 words long.
 Raffenetti 2 integral format.
 Two-electron integral symmetry is turned on.
 R6Disp:  Grimme-D3(BJ) Dispersion energy=       -0.0407355094 Hartrees.
 Nuclear repulsion after empirical dispersion term =      895.6278216313 Hartrees.
 Leave Link  301 at Tue Sep 17 09:41:34 2024, MaxMem=  1342177280 cpu:               0.1 elap:               0.1
 (Enter /groups/ReismanLab/Software/Gaussian16_RevC/Linux_Binary_AVX2-enabled-CPU/g16/l302.exe)
 NPDir=0 NMtPBC=     1 NCelOv=     1 NCel=       1 NClECP=     1 NCelD=      1
         NCelK=      1 NCelE2=     1 NClLst=     1 CellRange=     0.0.
 One-electron integrals computed using PRISM.
 One-electron integral symmetry used in STVInt
 NBasis=   240 RedAO= T EigKep=  4.08D-04  NBF=   240
 NBsUse=   240 1.00D-06 EigRej= -1.00D+00 NBFU=   240
 Precomputing XC quadrature grid using
 IXCGrd= 4 IRadAn=           5 IRanWt=          -1 IRanGd=           0 AccXCQ= 0.00D+00.
 Generated NRdTot=       0 NPtTot=           0 NUsed=           0 NTot=          32
 NSgBfM=   237   237   237   237   237 MxSgAt=    21 MxSgA2=    21.
 Leave Link  302 at Tue Sep 17 09:41:34 2024, MaxMem=  1342177280 cpu:               1.1 elap:               0.2
 (Enter /groups/ReismanLab/Software/Gaussian16_RevC/Linux_Binary_AVX2-enabled-CPU/g16/l303.exe)
 DipDrv:  MaxL=1.
 Leave Link  303 at Tue Sep 17 09:41:35 2024, MaxMem=  1342177280 cpu:               0.1 elap:               0.1
 (Enter /groups/ReismanLab/Software/Gaussian16_RevC/Linux_Binary_AVX2-enabled-CPU/g16/l401.exe)
 ExpMin= 1.43D-01 ExpMax= 5.74D+05 ExpMxC= 5.74D+03 IAcc=3 IRadAn=         5 AccDes= 0.00D+00
 Harris functional with IExCor=  402 and IRadAn=       5 diagonalized for initial guess.
 HarFok:  IExCor=  402 AccDes= 0.00D+00 IRadAn=         5 IDoV= 1 UseB2=F ITyADJ=14
 ICtDFT=  3500011 ScaDFX=  1.000000  1.000000  1.000000  1.000000
 FoFCou: FMM=F IPFlag=           0 FMFlag=      100000 FMFlg1=           0
         NFxFlg=           0 DoJE=T BraDBF=F KetDBF=T FulRan=T
         wScrn=  0.000000 ICntrl=       500 IOpCl=  0 I1Cent=   200000004 NGrid=           0
         NMat0=    1 NMatS0=      1 NMatT0=    0 NMatD0=    1 NMtDS0=    0 NMtDT0=    0
 Petite list used in FoFCou.
 Harris En= -3070.72648613468    
 JPrj=0 DoOrth=F DoCkMO=F.
 Leave Link  401 at Tue Sep 17 09:41:36 2024, MaxMem=  1342177280 cpu:               5.0 elap:               0.8
 (Enter /groups/ReismanLab/Software/Gaussian16_RevC/Linux_Binary_AVX2-enabled-CPU/g16/l502.exe)
 Integral symmetry usage will be decided dynamically.
 Closed shell SCF:
 Using DIIS extrapolation, IDIIS=  1040.
 NGot=  1342177280 LenX=  1342057097 LenY=  1341999056
 Requested convergence on RMS density matrix=1.00D-08 within  32 cycles.
 Requested convergence on MAX density matrix=1.00D-06.
 Requested convergence on             energy=1.00D-06.
 No special actions if energy rises.
 Fock matrices will be formed incrementally for  20 cycles.
 Integral accuracy reduced to 1.0D-05 until final iterations.

 Cycle   1  Pass 0  IDiag  1:
 FoFJK:  IHMeth= 1 ICntrl=       0 DoSepK=F KAlg= 0 I1Cent=           0 FoldK=F
 IRaf= 820000000 NMat=       1 IRICut=       1 DoRegI=T DoRafI=F ISym2E= 0 IDoP0=0 IntGTp=1.
 FoFCou: FMM=F IPFlag=           0 FMFlag=      100000 FMFlg1=           0
         NFxFlg=           0 DoJE=F BraDBF=F KetDBF=F FulRan=T
         wScrn=  0.000000 ICntrl=         0 IOpCl=  0 I1Cent=           0 NGrid=           0
         NMat0=    1 NMatS0=      1 NMatT0=    0 NMatD0=    1 NMtDS0=    0 NMtDT0=    0
 Symmetry not used in FoFCou.
 E= -3070.31196354386    
 DIIS: error= 1.80D-01 at cycle   1 NSaved=   1.
 NSaved= 1 IEnMin= 1 EnMin= -3070.31196354386     IErMin= 1 ErrMin= 1.80D-01
 ErrMax= 1.80D-01  0.00D+00 EMaxC= 1.00D-01 BMatC= 6.46D-01 BMatP= 6.46D-01
 IDIUse=3 WtCom= 0.00D+00 WtEn= 1.00D+00
 Coeff-Com:  0.100D+01
 Coeff-En:   0.100D+01
 Coeff:      0.100D+01
 Gap=     0.300 Goal=   None    Shift=    0.000
 GapD=    0.300 DampG=1.000 DampE=0.250 DampFc=0.2500 IDamp=-1.
 Damping current iteration by 2.50D-01
 RMSDP=5.32D-03 MaxDP=1.79D-01              OVMax= 2.71D-01

 Cycle   2  Pass 0  IDiag  1:
 RMSU=  1.30D-03    CP:  9.93D-01
 E= -3070.41077073925     Delta-E=       -0.098807195382 Rises=F Damp=T
 DIIS: error= 1.33D-01 at cycle   2 NSaved=   2.
 NSaved= 2 IEnMin= 2 EnMin= -3070.41077073925     IErMin= 2 ErrMin= 1.33D-01
 ErrMax= 1.33D-01  0.00D+00 EMaxC= 1.00D-01 BMatC= 2.58D-01 BMatP= 6.46D-01
 IDIUse=3 WtCom= 0.00D+00 WtEn= 1.00D+00
 Coeff-Com: -0.107D+01 0.207D+01
 Coeff-En:   0.000D+00 0.100D+01
 Coeff:      0.000D+00 0.100D+01
 Gap=     0.260 Goal=   None    Shift=    0.000
 RMSDP=2.48D-03 MaxDP=1.11D-01 DE=-9.88D-02 OVMax= 1.32D-01

 Cycle   3  Pass 0  IDiag  1:
 RMSU=  1.22D-03    CP:  9.70D-01  2.52D+00
 E= -3070.53698691811     Delta-E=       -0.126216178866 Rises=F Damp=F
 DIIS: error= 1.28D-02 at cycle   3 NSaved=   3.
 NSaved= 3 IEnMin= 3 EnMin= -3070.53698691811     IErMin= 3 ErrMin= 1.28D-02
 ErrMax= 1.28D-02  0.00D+00 EMaxC= 1.00D-01 BMatC= 5.94D-02 BMatP= 2.58D-01
 IDIUse=3 WtCom= 8.72D-01 WtEn= 1.28D-01
 Coeff-Com:  0.658D+00-0.696D+00 0.104D+01
 Coeff-En:   0.110D+00 0.000D+00 0.890D+00
 Coeff:      0.588D+00-0.607D+00 0.102D+01
 Gap=     0.241 Goal=   None    Shift=    0.000
 RMSDP=1.50D-03 MaxDP=3.96D-02 DE=-1.26D-01 OVMax= 6.74D-02

 Cycle   4  Pass 0  IDiag  1:
 RMSU=  1.04D-03    CP:  9.71D-01  1.69D+00  8.52D-01
 E= -3070.57057957514     Delta-E=       -0.033592657031 Rises=F Damp=F
 DIIS: error= 1.07D-02 at cycle   4 NSaved=   4.
 NSaved= 4 IEnMin= 4 EnMin= -3070.57057957514     IErMin= 4 ErrMin= 1.07D-02
 ErrMax= 1.07D-02  0.00D+00 EMaxC= 1.00D-01 BMatC= 2.50D-02 BMatP= 5.94D-02
 IDIUse=3 WtCom= 8.93D-01 WtEn= 1.07D-01
 Coeff-Com:  0.533D+00-0.686D+00 0.668D+00 0.484D+00
 Coeff-En:   0.000D+00 0.000D+00 0.242D+00 0.758D+00
 Coeff:      0.476D+00-0.612D+00 0.622D+00 0.514D+00
 Gap=     0.232 Goal=   None    Shift=    0.000
 RMSDP=7.11D-04 MaxDP=2.71D-02 DE=-3.36D-02 OVMax= 5.01D-02

 Cycle   5  Pass 0  IDiag  1:
 RMSU=  1.88D-04    CP:  9.71D-01  1.83D+00  1.02D+00  3.98D-01
 E= -3070.59222956570     Delta-E=       -0.021649990558 Rises=F Damp=F
 DIIS: error= 2.24D-03 at cycle   5 NSaved=   5.
 NSaved= 5 IEnMin= 5 EnMin= -3070.59222956570     IErMin= 5 ErrMin= 2.24D-03
 ErrMax= 2.24D-03  0.00D+00 EMaxC= 1.00D-01 BMatC= 1.02D-03 BMatP= 2.50D-02
 IDIUse=3 WtCom= 9.78D-01 WtEn= 2.24D-02
 Coeff-Com:  0.213D+00-0.276D+00 0.279D+00 0.272D+00 0.512D+00
 Coeff-En:   0.000D+00 0.000D+00 0.000D+00 0.000D+00 0.100D+01
 Coeff:      0.208D+00-0.270D+00 0.273D+00 0.266D+00 0.523D+00
 Gap=     0.225 Goal=   None    Shift=    0.000
 RMSDP=1.28D-04 MaxDP=6.17D-03 DE=-2.16D-02 OVMax= 1.05D-02

 Cycle   6  Pass 0  IDiag  1:
 RMSU=  5.19D-05    CP:  9.71D-01  1.84D+00  1.01D+00  4.72D-01  5.44D-01
 E= -3070.59298178368     Delta-E=       -0.000752217977 Rises=F Damp=F
 DIIS: error= 5.64D-04 at cycle   6 NSaved=   6.
 NSaved= 6 IEnMin= 6 EnMin= -3070.59298178368     IErMin= 6 ErrMin= 5.64D-04
 ErrMax= 5.64D-04  0.00D+00 EMaxC= 1.00D-01 BMatC= 6.34D-05 BMatP= 1.02D-03
 IDIUse=3 WtCom= 9.94D-01 WtEn= 5.64D-03
 Coeff-Com:  0.620D-01-0.811D-01 0.762D-01 0.800D-01 0.262D+00 0.601D+00
 Coeff-En:   0.000D+00 0.000D+00 0.000D+00 0.000D+00 0.000D+00 0.100D+01
 Coeff:      0.616D-01-0.807D-01 0.758D-01 0.795D-01 0.260D+00 0.603D+00
 Gap=     0.225 Goal=   None    Shift=    0.000
 RMSDP=3.43D-05 MaxDP=1.47D-03 DE=-7.52D-04 OVMax= 2.11D-03

 Cycle   7  Pass 0  IDiag  1:
 RMSU=  2.04D-05    CP:  9.71D-01  1.83D+00  1.02D+00  4.74D-01  5.65D-01
                    CP:  5.71D-01
 E= -3070.59302886689     Delta-E=       -0.000047083213 Rises=F Damp=F
 DIIS: error= 1.25D-04 at cycle   7 NSaved=   7.
 NSaved= 7 IEnMin= 7 EnMin= -3070.59302886689     IErMin= 7 ErrMin= 1.25D-04
 ErrMax= 1.25D-04  0.00D+00 EMaxC= 1.00D-01 BMatC= 4.63D-06 BMatP= 6.34D-05
 IDIUse=3 WtCom= 9.99D-01 WtEn= 1.25D-03
 Coeff-Com:  0.211D-01-0.280D-01 0.234D-01 0.240D-01 0.994D-01 0.309D+00
 Coeff-Com:  0.551D+00
 Coeff-En:   0.000D+00 0.000D+00 0.000D+00 0.000D+00 0.000D+00 0.000D+00
 Coeff-En:   0.100D+01
 Coeff:      0.211D-01-0.280D-01 0.233D-01 0.240D-01 0.993D-01 0.309D+00
 Coeff:      0.551D+00
 Gap=     0.225 Goal=   None    Shift=    0.000
 RMSDP=1.29D-05 MaxDP=3.61D-04 DE=-4.71D-05 OVMax= 1.10D-03

 Cycle   8  Pass 0  IDiag  1:
 RMSU=  6.37D-06    CP:  9.71D-01  1.83D+00  1.02D+00  4.70D-01  5.79D-01
                    CP:  6.42D-01  5.62D-01
 E= -3070.59303263578     Delta-E=       -0.000003768888 Rises=F Damp=F
 DIIS: error= 6.36D-05 at cycle   8 NSaved=   8.
 NSaved= 8 IEnMin= 8 EnMin= -3070.59303263578     IErMin= 8 ErrMin= 6.36D-05
 ErrMax= 6.36D-05  0.00D+00 EMaxC= 1.00D-01 BMatC= 6.84D-07 BMatP= 4.63D-06
 IDIUse=1 WtCom= 1.00D+00 WtEn= 0.00D+00
 Coeff-Com:  0.575D-02-0.770D-02 0.516D-02 0.470D-02 0.284D-01 0.114D+00
 Coeff-Com:  0.324D+00 0.525D+00
 Coeff:      0.575D-02-0.770D-02 0.516D-02 0.470D-02 0.284D-01 0.114D+00
 Coeff:      0.324D+00 0.525D+00
 Gap=     0.225 Goal=   None    Shift=    0.000
 RMSDP=4.32D-06 MaxDP=1.69D-04 DE=-3.77D-06 OVMax= 3.76D-04

 Initial convergence to 1.0D-05 achieved.  Increase integral accuracy.
 Cycle   9  Pass 1  IDiag  1:
 E= -3070.59302284463     Delta-E=        0.000009791153 Rises=F Damp=F
 DIIS: error= 3.87D-05 at cycle   1 NSaved=   1.
 NSaved= 1 IEnMin= 1 EnMin= -3070.59302284463     IErMin= 1 ErrMin= 3.87D-05
 ErrMax= 3.87D-05  0.00D+00 EMaxC= 1.00D-01 BMatC= 2.32D-07 BMatP= 2.32D-07
 IDIUse=1 WtCom= 1.00D+00 WtEn= 0.00D+00
 Coeff-Com:  0.100D+01
 Coeff:      0.100D+01
 Gap=     0.225 Goal=   None    Shift=    0.000
 RMSDP=4.32D-06 MaxDP=1.69D-04 DE= 9.79D-06 OVMax= 3.16D-04

 Cycle  10  Pass 1  IDiag  1:
 RMSU=  1.91D-05    CP:  1.00D+00
 E= -3070.59302268478     Delta-E=        0.000000159842 Rises=F Damp=F
 DIIS: error= 4.61D-05 at cycle   2 NSaved=   2.
 NSaved= 2 IEnMin= 1 EnMin= -3070.59302284463     IErMin= 1 ErrMin= 3.87D-05
 ErrMax= 4.61D-05  0.00D+00 EMaxC= 1.00D-01 BMatC= 3.25D-07 BMatP= 2.32D-07
 IDIUse=1 WtCom= 1.00D+00 WtEn= 0.00D+00
 Coeff-Com:  0.553D+00 0.447D+00
 Coeff:      0.553D+00 0.447D+00
 Gap=     0.225 Goal=   None    Shift=    0.000
 RMSDP=3.39D-06 MaxDP=1.04D-04 DE= 1.60D-07 OVMax= 2.92D-04

 Cycle  11  Pass 1  IDiag  1:
 RMSU=  3.37D-06    CP:  1.00D+00  9.80D-01
 E= -3070.59302298733     Delta-E=       -0.000000302549 Rises=F Damp=F
 DIIS: error= 1.90D-05 at cycle   3 NSaved=   3.
 NSaved= 3 IEnMin= 3 EnMin= -3070.59302298733     IErMin= 3 ErrMin= 1.90D-05
 ErrMax= 1.90D-05  0.00D+00 EMaxC= 1.00D-01 BMatC= 4.90D-08 BMatP= 2.32D-07
 IDIUse=1 WtCom= 1.00D+00 WtEn= 0.00D+00
 Coeff-Com:  0.425D-01 0.278D+00 0.680D+00
 Coeff:      0.425D-01 0.278D+00 0.680D+00
 Gap=     0.225 Goal=   None    Shift=    0.000
 RMSDP=1.08D-06 MaxDP=4.16D-05 DE=-3.03D-07 OVMax= 9.82D-05

 Cycle  12  Pass 1  IDiag  1:
 RMSU=  5.60D-07    CP:  1.00D+00  9.91D-01  7.32D-01
 E= -3070.59302303737     Delta-E=       -0.000000050032 Rises=F Damp=F
 DIIS: error= 2.77D-06 at cycle   4 NSaved=   4.
 NSaved= 4 IEnMin= 4 EnMin= -3070.59302303737     IErMin= 4 ErrMin= 2.77D-06
 ErrMax= 2.77D-06  0.00D+00 EMaxC= 1.00D-01 BMatC= 4.19D-09 BMatP= 4.90D-08
 IDIUse=1 WtCom= 1.00D+00 WtEn= 0.00D+00
 Coeff-Com: -0.129D-02 0.143D+00 0.401D+00 0.458D+00
 Coeff:     -0.129D-02 0.143D+00 0.401D+00 0.458D+00
 Gap=     0.225 Goal=   None    Shift=    0.000
 RMSDP=2.95D-07 MaxDP=9.81D-06 DE=-5.00D-08 OVMax= 1.98D-05

 Cycle  13  Pass 1  IDiag  1:
 RMSU=  8.15D-08    CP:  1.00D+00  9.93D-01  7.42D-01  5.02D-01
 E= -3070.59302304108     Delta-E=       -0.000000003718 Rises=F Damp=F
 DIIS: error= 4.97D-07 at cycle   5 NSaved=   5.
 NSaved= 5 IEnMin= 5 EnMin= -3070.59302304108     IErMin= 5 ErrMin= 4.97D-07
 ErrMax= 4.97D-07  0.00D+00 EMaxC= 1.00D-01 BMatC= 9.78D-11 BMatP= 4.19D-09
 IDIUse=1 WtCom= 1.00D+00 WtEn= 0.00D+00
 Coeff-Com: -0.170D-02 0.762D-01 0.216D+00 0.265D+00 0.445D+00
 Coeff:     -0.170D-02 0.762D-01 0.216D+00 0.265D+00 0.445D+00
 Gap=     0.225 Goal=   None    Shift=    0.000
 RMSDP=3.87D-08 MaxDP=1.84D-06 DE=-3.72D-09 OVMax= 2.47D-06

 Cycle  14  Pass 1  IDiag  1:
 RMSU=  2.87D-08    CP:  1.00D+00  9.93D-01  7.42D-01  4.88D-01  7.00D-01
 E= -3070.59302304114     Delta-E=       -0.000000000053 Rises=F Damp=F
 DIIS: error= 1.75D-07 at cycle   6 NSaved=   6.
 NSaved= 6 IEnMin= 6 EnMin= -3070.59302304114     IErMin= 6 ErrMin= 1.75D-07
 ErrMax= 1.75D-07  0.00D+00 EMaxC= 1.00D-01 BMatC= 7.40D-12 BMatP= 9.78D-11
 IDIUse=1 WtCom= 1.00D+00 WtEn= 0.00D+00
 Coeff-Com: -0.966D-03 0.384D-01 0.109D+00 0.136D+00 0.278D+00 0.440D+00
 Coeff:     -0.966D-03 0.384D-01 0.109D+00 0.136D+00 0.278D+00 0.440D+00
 Gap=     0.225 Goal=   None    Shift=    0.000
 RMSDP=1.14D-08 MaxDP=4.71D-07 DE=-5.32D-11 OVMax= 8.83D-07

 Cycle  15  Pass 1  IDiag  1:
 RMSU=  9.20D-09    CP:  1.00D+00  9.93D-01  7.41D-01  4.90D-01  7.08D-01
                    CP:  7.69D-01
 E= -3070.59302304118     Delta-E=       -0.000000000043 Rises=F Damp=F
 DIIS: error= 4.94D-08 at cycle   7 NSaved=   7.
 NSaved= 7 IEnMin= 7 EnMin= -3070.59302304118     IErMin= 7 ErrMin= 4.94D-08
 ErrMax= 4.94D-08  0.00D+00 EMaxC= 1.00D-01 BMatC= 4.19D-13 BMatP= 7.40D-12
 IDIUse=1 WtCom= 1.00D+00 WtEn= 0.00D+00
 Coeff-Com: -0.286D-03 0.103D-01 0.294D-01 0.370D-01 0.910D-01 0.228D+00
 Coeff-Com:  0.604D+00
 Coeff:     -0.286D-03 0.103D-01 0.294D-01 0.370D-01 0.910D-01 0.228D+00
 Coeff:      0.604D+00
 Gap=     0.225 Goal=   None    Shift=    0.000
 RMSDP=2.86D-09 MaxDP=1.44D-07 DE=-4.32D-11 OVMax= 2.60D-07

 SCF Done:  E(RB3LYP) =  -3070.59302304     A.U. after   15 cycles
            NFock= 15  Conv=0.29D-08     -V/T= 2.0066
 KE= 3.050561641086D+03 PE=-9.086583454090D+03 EE= 2.069800968331D+03
 Leave Link  502 at Tue Sep 17 09:41:49 2024, MaxMem=  1342177280 cpu:              98.1 elap:              13.1
 (Enter /groups/ReismanLab/Software/Gaussian16_RevC/Linux_Binary_AVX2-enabled-CPU/g16/l508.exe)
 QCSCF skips out because SCF is already converged.
 Leave Link  508 at Tue Sep 17 09:41:49 2024, MaxMem=  1342177280 cpu:               0.0 elap:               0.0
 (Enter /groups/ReismanLab/Software/Gaussian16_RevC/Linux_Binary_AVX2-enabled-CPU/g16/l601.exe)
 Copying SCF densities to generalized density rwf, IOpCl= 0 IROHF=0.

 **********************************************************************

            Population analysis using the SCF Density.

 **********************************************************************

 Orbital symmetries:
       Occupied  (A) (A) (A) (A) (A) (A) (A) (A) (A) (A) (A) (A)
                 (A) (A) (A) (A) (A) (A) (A) (A) (A) (A) (A) (A)
                 (A) (A) (A) (A) (A) (A) (A) (A) (A) (A) (A) (A)
                 (A) (A) (A) (A) (A) (A) (A) (A) (A) (A) (A) (A)
                 (A) (A) (A) (A) (A) (A) (A) (A) (A)
       Virtual   (A) (A) (A) (A) (A) (A) (A) (A) (A) (A) (A) (A)
                 (A) (A) (A) (A) (A) (A) (A) (A) (A) (A) (A) (A)
                 (A) (A) (A) (A) (A) (A) (A) (A) (A) (A) (A) (A)
                 (A) (A) (A) (A) (A) (A) (A) (A) (A) (A) (A) (A)
                 (A) (A) (A) (A) (A) (A) (A) (A) (A) (A) (A) (A)
                 (A) (A) (A) (A) (A) (A) (A) (A) (A) (A) (A) (A)
                 (A) (A) (A) (A) (A) (A) (A) (A) (A) (A) (A) (A)
                 (A) (A) (A) (A) (A) (A) (A) (A) (A) (A) (A) (A)
                 (A) (A) (A) (A) (A) (A) (A) (A) (A) (A) (A) (A)
                 (A) (A) (A) (A) (A) (A) (A) (A) (A) (A) (A) (A)
                 (A) (A) (A) (A) (A) (A) (A) (A) (A) (A) (A) (A)
                 (A) (A) (A) (A) (A) (A) (A) (A) (A) (A) (A) (A)
                 (A) (A) (A) (A) (A) (A) (A) (A) (A) (A) (A) (A)
                 (A) (A) (A) (A) (A) (A) (A) (A) (A) (A) (A) (A)
                 (A) (A) (A) (A) (A) (A) (A) (A) (A) (A) (A) (A)
                 (A) (A) (A)
 The electronic state is 1-A.
 Alpha  occ. eigenvalues -- -482.90620 -61.86797 -56.38928 -56.38521 -56.38510
 Alpha  occ. eigenvalues --  -19.19636 -19.13853 -10.31721 -10.24391 -10.24198
 Alpha  occ. eigenvalues --  -10.20913 -10.20367 -10.19925 -10.19919 -10.19703
 Alpha  occ. eigenvalues --  -10.19655  -8.57944  -6.53333  -6.52069  -6.52044
 Alpha  occ. eigenvalues --   -2.64908  -2.64546  -2.64527  -2.63518  -2.63518
 Alpha  occ. eigenvalues --   -1.11348  -1.02344  -0.87997  -0.81819  -0.77517
 Alpha  occ. eigenvalues --   -0.76037  -0.73374  -0.68508  -0.62334  -0.59525
 Alpha  occ. eigenvalues --   -0.56795  -0.51524  -0.50088  -0.49995  -0.47556
 Alpha  occ. eigenvalues --   -0.47429  -0.46054  -0.43584  -0.42780  -0.42327
 Alpha  occ. eigenvalues --   -0.40484  -0.38366  -0.37683  -0.36097  -0.35396
 Alpha  occ. eigenvalues --   -0.35021  -0.30683  -0.30625  -0.28255  -0.27703
 Alpha  occ. eigenvalues --   -0.26225  -0.23655
 Alpha virt. eigenvalues --   -0.01157  -0.01019   0.01209   0.01502   0.09574
 Alpha virt. eigenvalues --    0.11177   0.12433   0.12677   0.13166   0.14897
 Alpha virt. eigenvalues --    0.15785   0.16066   0.17925   0.17984   0.19001
 Alpha virt. eigenvalues --    0.22260   0.24623   0.27039   0.28581   0.29731
 Alpha virt. eigenvalues --    0.32633   0.33149   0.33465   0.36673   0.41806
 Alpha virt. eigenvalues --    0.45077   0.46723   0.46806   0.46867   0.48006
 Alpha virt. eigenvalues --    0.49286   0.50009   0.50770   0.52075   0.53438
 Alpha virt. eigenvalues --    0.54013   0.54550   0.56642   0.57459   0.58441
 Alpha virt. eigenvalues --    0.58558   0.60289   0.61044   0.61535   0.63299
 Alpha virt. eigenvalues --    0.64554   0.67959   0.68831   0.72107   0.72831
 Alpha virt. eigenvalues --    0.73770   0.74773   0.78581   0.78860   0.80670
 Alpha virt. eigenvalues --    0.81439   0.82307   0.82430   0.82769   0.84085
 Alpha virt. eigenvalues --    0.86252   0.87344   0.88342   0.88827   0.90423
 Alpha virt. eigenvalues --    0.92025   0.93186   0.95847   0.98915   0.99910
 Alpha virt. eigenvalues --    1.01488   1.01969   1.07987   1.11166   1.12560
 Alpha virt. eigenvalues --    1.15157   1.15763   1.19831   1.23670   1.24669
 Alpha virt. eigenvalues --    1.25491   1.30882   1.32508   1.37094   1.39218
 Alpha virt. eigenvalues --    1.39405   1.41277   1.42844   1.44804   1.46606
 Alpha virt. eigenvalues --    1.52963   1.54450   1.55239   1.58283   1.61207
 Alpha virt. eigenvalues --    1.64344   1.70638   1.75941   1.78425   1.79249
 Alpha virt. eigenvalues --    1.80567   1.81956   1.85897   1.86456   1.89425
 Alpha virt. eigenvalues --    1.91253   1.92287   1.92721   1.93287   1.94408
 Alpha virt. eigenvalues --    1.97139   1.97247   1.99647   2.01224   2.01702
 Alpha virt. eigenvalues --    2.02630   2.04154   2.07385   2.08635   2.11765
 Alpha virt. eigenvalues --    2.11977   2.14221   2.17561   2.23631   2.24221
 Alpha virt. eigenvalues --    2.28698   2.31077   2.31777   2.35825   2.37349
 Alpha virt. eigenvalues --    2.40648   2.43935   2.44482   2.46237   2.48134
 Alpha virt. eigenvalues --    2.48269   2.49469   2.52306   2.54297   2.59162
 Alpha virt. eigenvalues --    2.59743   2.60445   2.65768   2.66476   2.67717
 Alpha virt. eigenvalues --    2.69005   2.71250   2.74291   2.76103   2.76936
 Alpha virt. eigenvalues --    2.82155   2.84433   2.87221   2.90106   2.95201
 Alpha virt. eigenvalues --    2.97191   3.05291   3.07569   3.19482   3.20564
 Alpha virt. eigenvalues --    3.25057   3.25759   3.29366   3.30489   3.36462
 Alpha virt. eigenvalues --    3.40644   3.42890   3.47367   3.52348   3.81889
 Alpha virt. eigenvalues --    4.01461   4.11422   4.14806   4.16972   4.24376
 Alpha virt. eigenvalues --    4.27411   4.42413   4.43639   4.45234   4.65433
 Alpha virt. eigenvalues --    4.81857   8.61151  72.82070
          Condensed to atoms (all electrons):
               1          2          3          4          5          6
     1  C    4.723129   0.212699  -0.019346   0.002942   0.007379  -0.000246
     2  O    0.212699   8.257399   0.252192  -0.082223  -0.097159   0.003200
     3  C   -0.019346   0.252192   4.364720   0.589304   0.315560  -0.044518
     4  O    0.002942  -0.082223   0.589304   8.013654  -0.089353   0.004143
     5  C    0.007379  -0.097159   0.315560  -0.089353   5.298417   0.314787
     6  C   -0.000246   0.003200  -0.044518   0.004143   0.314787   4.688410
     7  C   -0.000008   0.000069  -0.003401   0.002321  -0.057733   0.547615
     8  C    0.000000  -0.000000  -0.000036  -0.000158   0.006731  -0.025230
     9  C    0.000000  -0.000000   0.000024   0.000033   0.000370  -0.032030
    10  Br  -0.000000   0.000000   0.000000  -0.000000   0.000003   0.000339
    11  C   -0.000000   0.000000  -0.000085  -0.000072   0.007009  -0.027531
    12  C   -0.000004   0.000018  -0.002901   0.000487  -0.049439   0.554196
    13  H    0.386157  -0.032352  -0.005150   0.004302   0.000016   0.000028
    14  H    0.383388  -0.032104  -0.006207   0.008190   0.000218   0.000041
    15  H    0.389438  -0.033353   0.004772   0.000680  -0.000115  -0.000003
    16  H   -0.000177   0.002178  -0.027606   0.001066   0.360679  -0.026954
    17  H   -0.000192   0.002085  -0.025825   0.001026   0.360888  -0.027479
    18  H    0.000001  -0.000047   0.000305   0.000278  -0.009095  -0.045039
    19  H    0.000000  -0.000000  -0.000002  -0.000001  -0.000178   0.004036
    20  H    0.000000  -0.000000  -0.000001  -0.000000  -0.000176   0.004122
    21  H    0.000000  -0.000016   0.000137   0.000084  -0.010059  -0.042814
               7          8          9         10         11         12
     1  C   -0.000008   0.000000   0.000000  -0.000000  -0.000000  -0.000004
     2  O    0.000069  -0.000000  -0.000000   0.000000   0.000000   0.000018
     3  C   -0.003401  -0.000036   0.000024   0.000000  -0.000085  -0.002901
     4  O    0.002321  -0.000158   0.000033  -0.000000  -0.000072   0.000487
     5  C   -0.057733   0.006731   0.000370   0.000003   0.007009  -0.049439
     6  C    0.547615  -0.025230  -0.032030   0.000339  -0.027531   0.554196
     7  C    4.877684   0.498712  -0.030366   0.005742  -0.051407  -0.026914
     8  C    0.498712   4.883708   0.531012  -0.060631  -0.033090  -0.050887
     9  C   -0.030366   0.531012   4.792347   0.256715   0.534035  -0.030810
    10  Br   0.005742  -0.060631   0.256715  34.996864  -0.060993   0.005752
    11  C   -0.051407  -0.033090   0.534035  -0.060993   4.886786   0.495372
    12  C   -0.026914  -0.050887  -0.030810   0.005752   0.495372   4.881105
    13  H    0.000000  -0.000000   0.000000   0.000000   0.000000  -0.000002
    14  H   -0.000004   0.000000   0.000000   0.000000  -0.000000   0.000000
    15  H    0.000000   0.000000  -0.000000   0.000000   0.000000   0.000000
    16  H   -0.003501   0.000010   0.000022  -0.000000  -0.000200   0.002633
    17  H    0.003597  -0.000186   0.000014  -0.000000   0.000049  -0.003680
    18  H    0.366333  -0.038501   0.004634  -0.000165   0.000629   0.005670
    19  H   -0.035951   0.369194  -0.043152  -0.003539   0.005275   0.000630
    20  H    0.000622   0.005261  -0.043162  -0.003573   0.368992  -0.035913
    21  H    0.005811   0.000618   0.004592  -0.000164  -0.039571   0.364989
              13         14         15         16         17         18
     1  C    0.386157   0.383388   0.389438  -0.000177  -0.000192   0.000001
     2  O   -0.032352  -0.032104  -0.033353   0.002178   0.002085  -0.000047
     3  C   -0.005150  -0.006207   0.004772  -0.027606  -0.025825   0.000305
     4  O    0.004302   0.008190   0.000680   0.001066   0.001026   0.000278
     5  C    0.000016   0.000218  -0.000115   0.360679   0.360888  -0.009095
     6  C    0.000028   0.000041  -0.000003  -0.026954  -0.027479  -0.045039
     7  C    0.000000  -0.000004   0.000000  -0.003501   0.003597   0.366333
     8  C   -0.000000   0.000000   0.000000   0.000010  -0.000186  -0.038501
     9  C    0.000000   0.000000  -0.000000   0.000022   0.000014   0.004634
    10  Br   0.000000   0.000000   0.000000  -0.000000  -0.000000  -0.000165
    11  C    0.000000  -0.000000   0.000000  -0.000200   0.000049   0.000629
    12  C   -0.000002   0.000000   0.000000   0.002633  -0.003680   0.005670
    13  H    0.591491  -0.038343  -0.034215  -0.000000   0.000011  -0.000000
    14  H   -0.038343   0.584901  -0.032028  -0.000014  -0.000001   0.000002
    15  H   -0.034215  -0.032028   0.583312  -0.000016  -0.000018  -0.000000
    16  H   -0.000000  -0.000014  -0.000016   0.567555  -0.023264   0.004090
    17  H    0.000011  -0.000001  -0.000018  -0.023264   0.566284   0.000073
    18  H   -0.000000   0.000002  -0.000000   0.004090   0.000073   0.629147
    19  H   -0.000000  -0.000000  -0.000000  -0.000005   0.000003  -0.006391
    20  H   -0.000000  -0.000000  -0.000000   0.000003  -0.000007   0.000019
    21  H    0.000000   0.000000  -0.000000   0.000069   0.005594  -0.000211
              19         20         21
     1  C    0.000000   0.000000   0.000000
     2  O   -0.000000  -0.000000  -0.000016
     3  C   -0.000002  -0.000001   0.000137
     4  O   -0.000001  -0.000000   0.000084
     5  C   -0.000178  -0.000176  -0.010059
     6  C    0.004036   0.004122  -0.042814
     7  C   -0.035951   0.000622   0.005811
     8  C    0.369194   0.005261   0.000618
     9  C   -0.043152  -0.043162   0.004592
    10  Br  -0.003539  -0.003573  -0.000164
    11  C    0.005275   0.368992  -0.039571
    12  C    0.000630  -0.035913   0.364989
    13  H   -0.000000  -0.000000   0.000000
    14  H   -0.000000  -0.000000   0.000000
    15  H   -0.000000  -0.000000  -0.000000
    16  H   -0.000005   0.000003   0.000069
    17  H    0.000003  -0.000007   0.005594
    18  H   -0.006391   0.000019  -0.000211
    19  H    0.602965  -0.000176   0.000019
    20  H   -0.000176   0.603520  -0.006409
    21  H    0.000019  -0.006409   0.629674
 Mulliken charges:
               1
     1  C   -0.085162
     2  O   -0.452587
     3  C    0.608064
     4  O   -0.456702
     5  C   -0.358752
     6  C    0.150926
     7  C   -0.099222
     8  C   -0.086527
     9  C    0.055722
    10  Br  -0.136352
    11  C   -0.085199
    12  C   -0.110304
    13  H    0.128055
    14  H    0.131961
    15  H    0.121545
    16  H    0.143433
    17  H    0.141028
    18  H    0.088267
    19  H    0.107273
    20  H    0.106878
    21  H    0.087657
 Sum of Mulliken charges =  -0.00000
 Mulliken charges with hydrogens summed into heavy atoms:
               1
     1  C    0.296399
     2  O   -0.452587
     3  C    0.608064
     4  O   -0.456702
     5  C   -0.074292
     6  C    0.150926
     7  C   -0.010956
     8  C    0.020746
     9  C    0.055722
    10  Br  -0.136352
    11  C    0.021679
    12  C   -0.022647
 Electronic spatial extent (au):  <R**2>=           4535.2350
 Charge=             -0.0000 electrons
 Dipole moment (field-independent basis, Debye):
    X=              3.0774    Y=              0.9061    Z=              1.2062  Tot=              3.4273
 Quadrupole moment (field-independent basis, Debye-Ang):
   XX=            -71.6532   YY=            -77.5784   ZZ=            -81.8274
   XY=              0.0403   XZ=              0.5647   YZ=             -4.5206
 Traceless Quadrupole moment (field-independent basis, Debye-Ang):
   XX=              5.3665   YY=             -0.5587   ZZ=             -4.8077
   XY=              0.0403   XZ=              0.5647   YZ=             -4.5206
 Octapole moment (field-independent basis, Debye-Ang**2):
  XXX=             17.2452  YYY=             -6.2085  ZZZ=             -9.9395  XYY=            -25.1522
  XXY=            -16.3073  XXZ=            -20.6214  XZZ=            -24.1763  YZZ=             -3.7787
  YYZ=             -3.5212  XYZ=             -0.6353
 Hexadecapole moment (field-independent basis, Debye-Ang**3):
 XXXX=          -3856.9774 YYYY=           -344.5579 ZZZZ=           -295.5184 XXXY=            -66.5646
 XXXZ=            -79.2509 YYYX=             19.8202 YYYZ=             -8.7518 ZZZX=             25.6089
 ZZZY=             -2.5944 XXYY=           -789.9458 XXZZ=           -785.3023 YYZZ=           -106.3751
 XXYZ=             -7.4993 YYXZ=             10.0690 ZZXY=              9.6225
 N-N= 8.956278216313D+02 E-N=-9.086583454409D+03  KE= 3.050561641086D+03
 No NMR shielding tensors so no spin-rotation constants.
 Leave Link  601 at Tue Sep 17 09:41:50 2024, MaxMem=  1342177280 cpu:               0.6 elap:               0.1
 (Enter /groups/ReismanLab/Software/Gaussian16_RevC/Linux_Binary_AVX2-enabled-CPU/g16/l701.exe)
 ... and contract with generalized density number  0.
 Compute integral first derivatives.
 R6Disp: Adding Grimme-D3(BJ) dispersion energy 1st derivatives to the gradient.
 Leave Link  701 at Tue Sep 17 09:41:50 2024, MaxMem=  1342177280 cpu:               0.5 elap:               0.1
 (Enter /groups/ReismanLab/Software/Gaussian16_RevC/Linux_Binary_AVX2-enabled-CPU/g16/l702.exe)
 L702 exits ... SP integral derivatives will be done elsewhere.
 Leave Link  702 at Tue Sep 17 09:41:50 2024, MaxMem=  1342177280 cpu:               0.1 elap:               0.0
 (Enter /groups/ReismanLab/Software/Gaussian16_RevC/Linux_Binary_AVX2-enabled-CPU/g16/l703.exe)
 Integral derivatives from FoFJK, PRISM(SPDF).
 Compute integral first derivatives, UseDBF=F ICtDFT=           0.
 Calling FoFJK, ICntrl=      2127 FMM=F ISym2X=0 I1Cent= 0 IOpClX= 0 NMat=1 NMatS=1 NMatT=0.
 FoFJK:  IHMeth= 1 ICntrl=    2127 DoSepK=F KAlg= 0 I1Cent=           0 FoldK=F
 IRaf=         0 NMat=       1 IRICut=       1 DoRegI=T DoRafI=F ISym2E= 0 IDoP0=0 IntGTp=1.
 FoFCou: FMM=F IPFlag=           0 FMFlag=      100000 FMFlg1=         800
         NFxFlg=           0 DoJE=F BraDBF=F KetDBF=F FulRan=T
         wScrn=  0.000000 ICntrl=      2127 IOpCl=  0 I1Cent=           0 NGrid=           0
         NMat0=    1 NMatS0=      1 NMatT0=    0 NMatD0=    1 NMtDS0=    0 NMtDT0=    0
 Symmetry not used in FoFCou.
 Leave Link  703 at Tue Sep 17 09:41:53 2024, MaxMem=  1342177280 cpu:              28.6 elap:               3.7
 (Enter /groups/ReismanLab/Software/Gaussian16_RevC/Linux_Binary_AVX2-enabled-CPU/g16/l716.exe)
 Dipole        = 1.21074686D+00 3.56497402D-01 4.74562911D-01
 ***** Axes restored to original set *****
 -------------------------------------------------------------------
 Center     Atomic                   Forces (Hartrees/Bohr)
 Number     Number              X              Y              Z
 -------------------------------------------------------------------
      1        6           0.002636581    0.004662076   -0.003959690
      2        8           0.003886377   -0.010722771    0.007738048
      3        6          -0.002777366   -0.008775726    0.006645219
      4        8          -0.002024143    0.014645876   -0.010756440
      5        6          -0.000603317    0.003902203   -0.002917899
      6        6           0.004695589   -0.003311165    0.002851369
      7        6           0.001928961   -0.002252252   -0.000828788
      8        6          -0.003108436   -0.001357343   -0.006127960
      9        6          -0.005675199    0.002370444   -0.001321403
     10       35          -0.002680950    0.001111357   -0.000863322
     11        6          -0.004374827    0.004653992    0.003321813
     12        6           0.002261436   -0.000592933    0.002732450
     13        1           0.000927096    0.001352279   -0.000100615
     14        1           0.001003691    0.000596133   -0.000807831
     15        1           0.001457413   -0.000912008    0.000693512
     16        1           0.000974785   -0.002560626    0.001644614
     17        1           0.000863559   -0.002254439    0.001905827
     18        1           0.002345908   -0.002734033   -0.002741657
     19        1          -0.001666656   -0.000687137   -0.002761780
     20        1          -0.002015000    0.001925084    0.001758095
     21        1           0.001944498    0.000940991    0.003896437
 -------------------------------------------------------------------
 Cartesian Forces:  Max     0.014645876 RMS     0.004033004
 Leave Link  716 at Tue Sep 17 09:41:54 2024, MaxMem=  1342177280 cpu:               0.1 elap:               0.0
 (Enter /groups/ReismanLab/Software/Gaussian16_RevC/Linux_Binary_AVX2-enabled-CPU/g16/l103.exe)

 GradGradGradGradGradGradGradGradGradGradGradGradGradGradGradGradGradGrad
 Berny optimization.
 FormGI is forming the generalized inverse of G from B-inverse, IUseBI=4.
 Internal  Forces:  Max     0.018278409 RMS     0.003706250
 Search for a local minimum.
 Step number   1 out of a maximum of  106
 All quantities printed in internal units (Hartrees-Bohrs-Radians)
 RMS Force = .37062D-02 SwitMx=.10000D-02 MixMth= 1
 Mixed Optimization -- RFO/linear search
 Second derivative matrix not updated -- first step.
 ITU=  0
     Eigenvalues ---    0.00491   0.00765   0.00978   0.01397   0.01644
     Eigenvalues ---    0.02242   0.02270   0.02277   0.02297   0.02305
     Eigenvalues ---    0.02309   0.02310   0.02314   0.02507   0.05115
     Eigenvalues ---    0.06472   0.09725   0.10300   0.10643   0.13105
     Eigenvalues ---    0.16000   0.16000   0.16000   0.16000   0.16000
     Eigenvalues ---    0.16000   0.16000   0.18014   0.21988   0.22000
     Eigenvalues ---    0.22980   0.23996   0.24981   0.25000   0.25000
     Eigenvalues ---    0.25000   0.25000   0.30294   0.32373   0.34590
     Eigenvalues ---    0.34618   0.34630   0.34640   0.35185   0.35992
     Eigenvalues ---    0.36018   0.36096   0.36099   0.42116   0.43604
     Eigenvalues ---    0.43636   0.47689   0.48001   0.48475   0.48612
     Eigenvalues ---    0.57563   1.05026
 RFO step:  Lambda=-2.89429559D-03 EMin= 4.91433041D-03
 Linear search not attempted -- first point.
 Iteration  1 RMS(Cart)=  0.04604410 RMS(Int)=  0.00028345
 Iteration  2 RMS(Cart)=  0.00040701 RMS(Int)=  0.00004756
 Iteration  3 RMS(Cart)=  0.00000014 RMS(Int)=  0.00004756
 ITry= 1 IFail=0 DXMaxC= 1.64D-01 DCOld= 1.00D+10 DXMaxT= 3.00D-01 DXLimC= 3.00D+00 Rises=F
 Variable       Old X    -DE/DX   Delta X   Delta X   Delta X     New X
                                 (Linear)    (Quad)   (Total)
    R1        2.68775   0.00908   0.00000   0.02142   0.02142   2.70917
    R2        2.06300   0.00125   0.00000   0.00357   0.00357   2.06657
    R3        2.06281   0.00079   0.00000   0.00225   0.00225   2.06506
    R4        2.05376   0.00184   0.00000   0.00518   0.00518   2.05895
    R5        2.52923   0.01161   0.00000   0.02007   0.02007   2.54930
    R6        2.26691   0.01828   0.00000   0.01736   0.01736   2.28426
    R7        2.87381   0.00439   0.00000   0.01436   0.01436   2.88817
    R8        2.83467   0.00578   0.00000   0.01769   0.01769   2.85237
    R9        2.06347   0.00204   0.00000   0.00584   0.00584   2.06930
   R10        2.06263   0.00195   0.00000   0.00559   0.00559   2.06822
   R11        2.62587   0.00886   0.00000   0.01849   0.01849   2.64436
   R12        2.62431   0.00855   0.00000   0.01780   0.01781   2.64211
   R13        2.61233   0.01074   0.00000   0.02193   0.02193   2.63426
   R14        2.04053   0.00453   0.00000   0.01247   0.01247   2.05299
   R15        2.61506   0.00893   0.00000   0.01842   0.01842   2.63348
   R16        2.03927   0.00327   0.00000   0.00899   0.00899   2.04826
   R17        3.59974   0.00303   0.00000   0.01654   0.01654   3.61628
   R18        2.61421   0.00848   0.00000   0.01746   0.01746   2.63167
   R19        2.61370   0.01121   0.00000   0.02296   0.02296   2.63666
   R20        2.03931   0.00327   0.00000   0.00897   0.00897   2.04829
   R21        2.04094   0.00444   0.00000   0.01225   0.01225   2.05319
    A1        1.92426   0.00137   0.00000   0.00861   0.00859   1.93285
    A2        1.92521   0.00166   0.00000   0.01073   0.01071   1.93591
    A3        1.85393  -0.00073   0.00000  -0.00519  -0.00519   1.84874
    A4        1.89851  -0.00102   0.00000  -0.00490  -0.00495   1.89356
    A5        1.92919  -0.00069   0.00000  -0.00529  -0.00529   1.92390
    A6        1.93278  -0.00054   0.00000  -0.00370  -0.00369   1.92908
    A7        2.02906  -0.00271   0.00000  -0.01073  -0.01073   2.01833
    A8        2.16335  -0.00027   0.00000  -0.00107  -0.00107   2.16227
    A9        1.92296  -0.00047   0.00000  -0.00187  -0.00187   1.92108
   A10        2.19688   0.00075   0.00000   0.00295   0.00295   2.19982
   A11        1.93810   0.00598   0.00000   0.03346   0.03324   1.97135
   A12        1.87584  -0.00167   0.00000  -0.00347  -0.00371   1.87214
   A13        1.87898  -0.00159   0.00000  -0.00397  -0.00413   1.87486
   A14        1.94172  -0.00077   0.00000   0.00199   0.00182   1.94354
   A15        1.94301  -0.00111   0.00000  -0.00163  -0.00175   1.94126
   A16        1.88327  -0.00106   0.00000  -0.02825  -0.02833   1.85494
   A17        2.09829   0.00134   0.00000   0.00570   0.00566   2.10395
   A18        2.10749   0.00042   0.00000   0.00208   0.00204   2.10953
   A19        2.07677  -0.00175   0.00000  -0.00726  -0.00729   2.06948
   A20        2.10953   0.00115   0.00000   0.00473   0.00474   2.11427
   A21        2.09041  -0.00067   0.00000  -0.00297  -0.00297   2.08743
   A22        2.08324  -0.00048   0.00000  -0.00177  -0.00177   2.08147
   A23        2.07759   0.00001   0.00000  -0.00002  -0.00002   2.07756
   A24        2.10595   0.00040   0.00000   0.00250   0.00250   2.10846
   A25        2.09964  -0.00041   0.00000  -0.00248  -0.00248   2.09716
   A26        2.08392   0.00023   0.00000   0.00085   0.00085   2.08477
   A27        2.11540  -0.00053   0.00000  -0.00201  -0.00202   2.11338
   A28        2.08387   0.00031   0.00000   0.00115   0.00116   2.08502
   A29        2.07779  -0.00012   0.00000  -0.00057  -0.00058   2.07721
   A30        2.09986  -0.00037   0.00000  -0.00234  -0.00234   2.09752
   A31        2.10552   0.00049   0.00000   0.00292   0.00292   2.10845
   A32        2.10925   0.00125   0.00000   0.00521   0.00521   2.11446
   A33        2.09250  -0.00093   0.00000  -0.00452  -0.00452   2.08798
   A34        2.08144  -0.00031   0.00000  -0.00070  -0.00070   2.08074
    D1        1.15966   0.00018   0.00000  -0.00861  -0.00857   1.15109
    D2       -0.93745  -0.00049   0.00000  -0.01494  -0.01498  -0.95243
    D3       -3.03290  -0.00032   0.00000  -0.01332  -0.01332  -3.04621
    D4        0.00474  -0.00016   0.00000  -0.00709  -0.00709  -0.00234
    D5       -3.13959  -0.00009   0.00000  -0.00180  -0.00180  -3.14139
    D6       -3.12933  -0.00023   0.00000  -0.01599  -0.01600   3.13786
    D7       -1.00190   0.00137   0.00000   0.00464   0.00464  -0.99726
    D8        1.02279  -0.00152   0.00000  -0.03204  -0.03204   0.99075
    D9        0.00946  -0.00017   0.00000  -0.01058  -0.01058  -0.00112
   D10        2.13689   0.00144   0.00000   0.01005   0.01006   2.14695
   D11       -2.12161  -0.00145   0.00000  -0.02663  -0.02662  -2.14823
   D12        1.42276   0.00013   0.00000   0.00554   0.00559   1.42835
   D13       -1.68018  -0.00014   0.00000  -0.01000  -0.01000  -1.69018
   D14       -0.66579  -0.00123   0.00000  -0.01372  -0.01376  -0.67955
   D15        2.51446  -0.00150   0.00000  -0.02926  -0.02935   2.48511
   D16       -2.76705   0.00140   0.00000   0.02193   0.02199  -2.74506
   D17        0.41320   0.00113   0.00000   0.00639   0.00639   0.41959
   D18       -3.11193  -0.00013   0.00000  -0.00691  -0.00691  -3.11884
   D19        0.02618  -0.00017   0.00000  -0.00851  -0.00850   0.01768
   D20       -0.00832   0.00018   0.00000   0.00856   0.00853   0.00022
   D21        3.12980   0.00015   0.00000   0.00696   0.00694   3.13673
   D22        3.11324   0.00011   0.00000   0.00568   0.00565   3.11888
   D23       -0.02779   0.00014   0.00000   0.00711   0.00707  -0.02071
   D24        0.00983  -0.00022   0.00000  -0.00995  -0.00992  -0.00009
   D25       -3.13120  -0.00019   0.00000  -0.00853  -0.00850  -3.13969
   D26        0.00204  -0.00005   0.00000  -0.00257  -0.00258  -0.00054
   D27        3.14127   0.00001   0.00000  -0.00027  -0.00027   3.14100
   D28       -3.13609  -0.00001   0.00000  -0.00097  -0.00099  -3.13708
   D29        0.00315   0.00004   0.00000   0.00132   0.00132   0.00446
   D30       -3.13542  -0.00002   0.00000  -0.00078  -0.00078  -3.13620
   D31        0.00293  -0.00005   0.00000  -0.00217  -0.00217   0.00075
   D32        0.00852  -0.00008   0.00000  -0.00307  -0.00307   0.00545
   D33       -3.13632  -0.00010   0.00000  -0.00446  -0.00447  -3.14079
   D34       -0.00145   0.00001   0.00000   0.00081   0.00082  -0.00064
   D35        3.13673   0.00012   0.00000   0.00537   0.00537  -3.14108
   D36        3.13690  -0.00001   0.00000  -0.00059  -0.00058   3.13632
   D37       -0.00810   0.00010   0.00000   0.00397   0.00397  -0.00413
   D38       -0.00502   0.00012   0.00000   0.00531   0.00532   0.00030
   D39        3.13601   0.00009   0.00000   0.00390   0.00390   3.13991
   D40        3.13999   0.00001   0.00000   0.00075   0.00075   3.14074
   D41       -0.00217  -0.00002   0.00000  -0.00067  -0.00067  -0.00284
         Item               Value     Threshold  Converged?
 Maximum Force            0.018278     0.000450     NO 
 RMS     Force            0.003706     0.000300     NO 
 Maximum Displacement     0.163728     0.001800     NO 
 RMS     Displacement     0.046034     0.001200     NO 
 Predicted change in Energy=-1.466486D-03
 Lowest energy point so far.  Saving SCF results.
 GradGradGradGradGradGradGradGradGradGradGradGradGradGradGradGradGradGrad

 Leave Link  103 at Tue Sep 17 09:41:54 2024, MaxMem=  1342177280 cpu:               0.1 elap:               0.0
 (Enter /groups/ReismanLab/Software/Gaussian16_RevC/Linux_Binary_AVX2-enabled-CPU/g16/l202.exe)
                          Input orientation:                          
 ---------------------------------------------------------------------
 Center     Atomic      Atomic             Coordinates (Angstroms)
 Number     Number       Type             X           Y           Z
 ---------------------------------------------------------------------
      1          6           0        5.759446   -0.315174    0.255844
      2          8           0        4.611724   -1.005243    0.767545
      3          6           0        3.415601   -0.509229    0.389202
      4          8           0        3.281984    0.452856   -0.330304
      5          6           0        2.286749   -1.336053    1.003953
      6          6           0        0.915036   -0.832529    0.625566
      7          6           0        0.341950   -1.183997   -0.601699
      8          6           0       -0.912473   -0.704302   -0.975227
      9          6           0       -1.600846    0.138789   -0.104942
     10         35           0       -3.327618    0.797061   -0.601934
     11          6           0       -1.055205    0.505671    1.122684
     12          6           0        0.201650    0.015199    1.478356
     13          1           0        5.815925    0.697967    0.663617
     14          1           0        5.720707   -0.248422   -0.834208
     15          1           0        6.624164   -0.897512    0.572479
     16          1           0        2.432779   -2.373359    0.684956
     17          1           0        2.426978   -1.326202    2.089343
     18          1           0        0.883633   -1.838087   -1.279200
     19          1           0       -1.351061   -0.979586   -1.927424
     20          1           0       -1.603732    1.161935    1.788481
     21          1           0        0.631154    0.300602    2.434683
 ---------------------------------------------------------------------
                    Distance matrix (angstroms):
                    1          2          3          4          5
     1  C    0.000000
     2  O    1.433631   0.000000
     3  C    2.355642   1.349031   0.000000
     4  O    2.659183   2.258215   1.208780   0.000000
     5  C    3.696144   2.360261   1.528353   2.443548   0.000000
     6  C    4.885965   3.703443   2.532433   2.858032   1.509407
     7  C    5.553331   4.487511   3.299171   3.375907   2.526556
     8  C    6.795694   5.800394   4.542240   4.398683   3.814615
     9  C    7.383098   6.376995   5.082209   4.898107   4.303278
    10  Br   9.194975   8.255720   6.939722   6.624130   6.216926
    11  C    6.918429   5.875633   4.642857   4.574404   3.817683
    12  C    5.700244   4.582064   3.433768   3.598785   2.529542
    13  H    1.093583   2.088498   2.700774   2.732913   4.087559
    14  H    1.092780   2.090032   2.622645   2.587099   4.043988
    15  H    1.089547   2.024740   3.237164   3.716002   4.380828
    16  H    3.935349   2.574172   2.128002   3.120800   1.095029
    17  H    3.935637   2.573573   2.129624   3.122623   1.094455
    18  H    5.333776   4.333758   3.310633   3.449770   2.726455
    19  H    7.467758   6.543571   5.320626   5.105663   4.685478
    20  H    7.664673   6.661146   5.472155   5.372362   4.689486
    21  H    5.605880   4.508826   3.548656   3.833437   2.732512
                    6          7          8          9         10
     6  C    0.000000
     7  C    1.399335   0.000000
     8  C    2.432852   1.393990   0.000000
     9  C    2.794058   2.402288   1.393576   0.000000
    10  Br   4.707699   4.170170   2.868163   1.913652   0.000000
    11  C    2.433054   2.789358   2.426032   1.392620   2.867591
    12  C    1.398146   2.405075   2.789089   2.402311   4.170689
    13  H    5.134450   5.925134   7.065657   7.477422   9.231241
    14  H    5.056342   5.464466   6.650323   7.367965   9.111486
    15  H    5.709744   6.397419   7.696338   8.317668  10.163109
    16  H    2.163615   2.727935   4.090559   4.817153   6.699987
    17  H    2.161556   3.407238   4.574962   4.815023   6.698252
    18  H    2.154127   1.086398   2.145662   3.385196   5.013714
    19  H    3.416808   2.160004   1.083892   2.152811   2.969878
    20  H    3.416790   3.873247   3.405695   2.152182   2.969680
    21  H    2.153481   3.392240   3.875577   3.384923   5.013920
                   11         12         13         14         15
    11  C    0.000000
    12  C    1.395259   0.000000
    13  H    6.889132   5.714022   0.000000
    14  H    7.093029   5.989778   1.774316   0.000000
    15  H    7.825877   6.549988   1.790840   1.793409   0.000000
    16  H    4.543837   3.363426   4.569373   4.199249   4.445051
    17  H    4.051639   2.669222   4.197013   4.534028   4.483417
    18  H    3.875737   3.391737   5.876530   5.111002   6.104677
    19  H    3.405389   3.872964   7.803420   7.193027   8.358257
    20  H    1.083906   2.161154   7.518769   7.906644   8.568445
    21  H    2.146439   1.086504   5.493307   6.073765   6.389010
                   16         17         18         19         20
    16  H    0.000000
    17  H    1.751820   0.000000
    18  H    2.558179   3.740457   0.000000
    19  H    4.804642   5.525227   2.480136   0.000000
    20  H    5.478093   4.746364   4.959616   4.296267   0.000000
    21  H    3.668442   2.447597   4.293094   4.959439   2.480764
                   21
    21  H    0.000000
 Stoichiometry    C9H9BrO2
 Framework group  C1[X(C9H9BrO2)]
 Deg. of freedom    57
 Full point group                 C1      NOp   1
 RotChk:  IX=0 Diff= 8.74D-02
 Largest Abelian subgroup         C1      NOp   1
 Largest concise Abelian subgroup C1      NOp   1
                         Standard orientation:                         
 ---------------------------------------------------------------------
 Center     Atomic      Atomic             Coordinates (Angstroms)
 Number     Number       Type             X           Y           Z
 ---------------------------------------------------------------------
      1          6           0        5.492729   -0.465050   -0.687426
      2          8           0        4.547399    0.148545    0.198661
      3          6           0        3.248151   -0.063304   -0.096227
      4          8           0        2.869059   -0.719241   -1.038133
      5          6           0        2.356682    0.644313    0.923785
      6          6           0        0.884390    0.453568    0.651232
      7          6           0        0.229320   -0.711238    1.066258
      8          6           0       -1.123674   -0.912109    0.797433
      9          6           0       -1.828396    0.069596    0.103404
     10         35           0       -3.688382   -0.189954   -0.264229
     11          6           0       -1.202681    1.238686   -0.322152
     12          6           0        0.152255    1.421087   -0.043533
     13          1           0        5.431215   -0.023054   -1.685815
     14          1           0        5.308396   -1.538862   -0.771791
     15          1           0        6.474332   -0.278884   -0.252787
     16          1           0        2.631351    0.265316    1.913737
     17          1           0        2.627075    1.704807    0.915379
     18          1           0        0.783236   -1.476067    1.603357
     19          1           0       -1.625573   -1.816677    1.120967
     20          1           0       -1.765106    1.992812   -0.860505
     21          1           0        0.644108    2.331270   -0.375403
 ---------------------------------------------------------------------
 Rotational constants (GHZ):           2.7996835           0.2139453           0.2119425
 Leave Link  202 at Tue Sep 17 09:41:54 2024, MaxMem=  1342177280 cpu:               0.0 elap:               0.0
 (Enter /groups/ReismanLab/Software/Gaussian16_RevC/Linux_Binary_AVX2-enabled-CPU/g16/l301.exe)
 Standard basis: 6-31G(d,p) (6D, 7F)
 Ernie: Thresh=  0.10000D-02 Tol=  0.10000D-05 Strict=F.
 There are   240 symmetry adapted cartesian basis functions of A   symmetry.
 There are   240 symmetry adapted basis functions of A   symmetry.
   240 basis functions,   454 primitive gaussians,   240 cartesian basis functions
    57 alpha electrons       57 beta electrons
       nuclear repulsion energy       887.7320704234 Hartrees.
 IExCor=  402 DFT=T Ex+Corr=B3LYP ExCW=0 ScaHFX=  0.200000
 ScaDFX=  0.800000  0.720000  1.000000  0.810000 ScalE2=  1.000000  1.000000
 IRadAn=      5 IRanWt=     -1 IRanGd=            0 ICorTp=0 IEmpDi=141
 NAtoms=   21 NActive=   21 NUniq=   21 SFac= 1.00D+00 NAtFMM=   60 NAOKFM=F Big=F
 Integral buffers will be    131072 words long.
 Raffenetti 2 integral format.
 Two-electron integral symmetry is turned on.
 R6Disp:  Grimme-D3(BJ) Dispersion energy=       -0.0403340205 Hartrees.
 Nuclear repulsion after empirical dispersion term =      887.6917364029 Hartrees.
 Leave Link  301 at Tue Sep 17 09:41:54 2024, MaxMem=  1342177280 cpu:               0.1 elap:               0.1
 (Enter /groups/ReismanLab/Software/Gaussian16_RevC/Linux_Binary_AVX2-enabled-CPU/g16/l302.exe)
 NPDir=0 NMtPBC=     1 NCelOv=     1 NCel=       1 NClECP=     1 NCelD=      1
         NCelK=      1 NCelE2=     1 NClLst=     1 CellRange=     0.0.
 One-electron integrals computed using PRISM.
 One-electron integral symmetry used in STVInt
 NBasis=   240 RedAO= T EigKep=  4.38D-04  NBF=   240
 NBsUse=   240 1.00D-06 EigRej= -1.00D+00 NBFU=   240
 Precomputing XC quadrature grid using
 IXCGrd= 4 IRadAn=           5 IRanWt=          -1 IRanGd=           0 AccXCQ= 0.00D+00.
 Generated NRdTot=       0 NPtTot=           0 NUsed=           0 NTot=          32
 NSgBfM=   237   237   237   237   237 MxSgAt=    21 MxSgA2=    21.
 Leave Link  302 at Tue Sep 17 09:41:54 2024, MaxMem=  1342177280 cpu:               1.1 elap:               0.2
 (Enter /groups/ReismanLab/Software/Gaussian16_RevC/Linux_Binary_AVX2-enabled-CPU/g16/l303.exe)
 DipDrv:  MaxL=1.
 Leave Link  303 at Tue Sep 17 09:41:54 2024, MaxMem=  1342177280 cpu:               0.1 elap:               0.0
 (Enter /groups/ReismanLab/Software/Gaussian16_RevC/Linux_Binary_AVX2-enabled-CPU/g16/l401.exe)
 Initial guess from the checkpoint file:  "smiles_00047_conf_4.chk"
 B after Tr=    -0.000000   -0.000000   -0.000000
         Rot=    0.999532   -0.030570    0.000847   -0.000491 Ang=  -3.51 deg.
 Guess basis will be translated and rotated to current coordinates.
 JPrj=2 DoOrth=T DoCkMO=T.
 Generating alternative initial guess.
 ExpMin= 1.43D-01 ExpMax= 5.74D+05 ExpMxC= 5.74D+03 IAcc=3 IRadAn=         5 AccDes= 0.00D+00
 Harris functional with IExCor=  402 and IRadAn=       5 diagonalized for initial guess.
 HarFok:  IExCor=  402 AccDes= 0.00D+00 IRadAn=         5 IDoV= 1 UseB2=F ITyADJ=14
 ICtDFT=  3500011 ScaDFX=  1.000000  1.000000  1.000000  1.000000
 FoFCou: FMM=F IPFlag=           0 FMFlag=      100000 FMFlg1=           0
         NFxFlg=           0 DoJE=T BraDBF=F KetDBF=T FulRan=T
         wScrn=  0.000000 ICntrl=       500 IOpCl=  0 I1Cent=   200000004 NGrid=           0
         NMat0=    1 NMatS0=      1 NMatT0=    0 NMatD0=    1 NMtDS0=    0 NMtDT0=    0
 Petite list used in FoFCou.
 Harris En= -3070.72069090202    
 Leave Link  401 at Tue Sep 17 09:41:55 2024, MaxMem=  1342177280 cpu:               5.2 elap:               0.7
 (Enter /groups/ReismanLab/Software/Gaussian16_RevC/Linux_Binary_AVX2-enabled-CPU/g16/l502.exe)
 Integral symmetry usage will be decided dynamically.
 Closed shell SCF:
 Using DIIS extrapolation, IDIIS=  1040.
 NGot=  1342177280 LenX=  1342057097 LenY=  1341999056
 Requested convergence on RMS density matrix=1.00D-08 within  32 cycles.
 Requested convergence on MAX density matrix=1.00D-06.
 Requested convergence on             energy=1.00D-06.
 No special actions if energy rises.
 Fock matrices will be formed incrementally for  20 cycles.
[...]
                 (A) (A) (A) (A) (A) (A) (A) (A) (A) (A) (A) (A)
                 (A) (A) (A) (A) (A) (A) (A) (A) (A)
       Virtual   (A) (A) (A) (A) (A) (A) (A) (A) (A) (A) (A) (A)
                 (A) (A) (A) (A) (A) (A) (A) (A) (A) (A) (A) (A)
                 (A) (A) (A) (A) (A) (A) (A) (A) (A) (A) (A) (A)
                 (A) (A) (A) (A) (A) (A) (A) (A) (A) (A) (A) (A)
                 (A) (A) (A) (A) (A) (A) (A) (A) (A) (A) (A) (A)
                 (A) (A) (A) (A) (A) (A) (A) (A) (A) (A) (A) (A)
                 (A) (A) (A) (A) (A) (A) (A) (A) (A) (A) (A) (A)
                 (A) (A) (A) (A) (A) (A) (A) (A) (A) (A) (A) (A)
                 (A) (A) (A) (A) (A) (A) (A) (A) (A) (A) (A) (A)
                 (A) (A) (A) (A) (A) (A) (A) (A) (A) (A) (A) (A)
                 (A) (A) (A) (A) (A) (A) (A) (A) (A) (A) (A) (A)
                 (A) (A) (A) (A) (A) (A) (A) (A) (A) (A) (A) (A)
                 (A) (A) (A) (A) (A) (A) (A) (A) (A) (A) (A) (A)
                 (A) (A) (A) (A) (A) (A) (A) (A) (A) (A) (A) (A)
                 (A) (A) (A) (A) (A) (A) (A) (A) (A) (A) (A) (A)
                 (A) (A) (A) (A) (A) (A) (A) (A) (A) (A) (A) (A)
                 (A) (A) (A) (A) (A) (A) (A) (A) (A) (A) (A) (A)
                 (A) (A) (A) (A) (A) (A) (A) (A) (A) (A) (A) (A)
                 (A) (A) (A) (A) (A) (A) (A) (A) (A) (A) (A) (A)
                 (A) (A) (A) (A) (A) (A) (A) (A) (A) (A) (A) (A)
                 (A) (A) (A) (A) (A) (A) (A) (A) (A) (A) (A) (A)
                 (A) (A) (A) (A) (A) (A) (A) (A) (A) (A) (A) (A)
                 (A) (A) (A) (A) (A) (A) (A) (A) (A) (A) (A) (A)
                 (A) (A) (A) (A) (A) (A) (A) (A) (A) (A) (A) (A)
                 (A) (A) (A) (A) (A) (A) (A) (A) (A) (A) (A) (A)
                 (A) (A) (A) (A) (A) (A) (A) (A) (A) (A) (A) (A)
                 (A) (A) (A) (A) (A) (A) (A) (A) (A) (A) (A) (A)
                 (A) (A) (A) (A) (A) (A) (A) (A) (A) (A) (A) (A)
                 (A) (A) (A) (A) (A) (A) (A) (A) (A) (A) (A) (A)
                 (A) (A) (A) (A) (A) (A) (A) (A) (A) (A) (A) (A)
                 (A) (A) (A) (A) (A) (A) (A) (A) (A) (A) (A) (A)
                 (A) (A) (A) (A) (A) (A) (A) (A) (A) (A) (A) (A)
                 (A) (A)
 The electronic state is 1-A.
 Alpha  occ. eigenvalues -- -485.37515 -63.35996 -57.17940 -57.17705 -57.17699
 Alpha  occ. eigenvalues --  -19.67753 -19.62171 -10.67879 -10.60403 -10.58871
 Alpha  occ. eigenvalues --  -10.56743 -10.55947 -10.55799 -10.55745 -10.55545
 Alpha  occ. eigenvalues --  -10.55273  -9.02641  -6.85045  -6.84175  -6.84156
 Alpha  occ. eigenvalues --   -2.88421  -2.88106  -2.88083  -2.87273  -2.87272
 Alpha  occ. eigenvalues --   -1.23633  -1.14384  -0.98519  -0.91844  -0.87002
 Alpha  occ. eigenvalues --   -0.85707  -0.82223  -0.77616  -0.70806  -0.67580
 Alpha  occ. eigenvalues --   -0.65270  -0.59610  -0.58490  -0.57204  -0.55701
 Alpha  occ. eigenvalues --   -0.54397  -0.53249  -0.50182  -0.49532  -0.48449
 Alpha  occ. eigenvalues --   -0.47260  -0.45535  -0.44844  -0.43575  -0.41802
 Alpha  occ. eigenvalues --   -0.40885  -0.38186  -0.37839  -0.35891  -0.35163
 Alpha  occ. eigenvalues --   -0.32180  -0.29512
 Alpha virt. eigenvalues --    0.00274   0.00691   0.03583   0.04906   0.07720
 Alpha virt. eigenvalues --    0.09766   0.10464   0.10876   0.12309   0.13347
 Alpha virt. eigenvalues --    0.14136   0.14469   0.15516   0.16185   0.16540
 Alpha virt. eigenvalues --    0.17634   0.18017   0.19827   0.20808   0.21647
 Alpha virt. eigenvalues --    0.22965   0.23659   0.24256   0.24666   0.24803
 Alpha virt. eigenvalues --    0.26314   0.26815   0.27284   0.27845   0.29263
 Alpha virt. eigenvalues --    0.30419   0.31091   0.31386   0.32361   0.32825
 Alpha virt. eigenvalues --    0.33288   0.34457   0.34940   0.35288   0.36177
 Alpha virt. eigenvalues --    0.36872   0.38088   0.38300   0.40008   0.40542
 Alpha virt. eigenvalues --    0.40935   0.41124   0.42186   0.43580   0.44371
 Alpha virt. eigenvalues --    0.44741   0.45977   0.46671   0.47056   0.47665
 Alpha virt. eigenvalues --    0.48636   0.49381   0.49445   0.49692   0.50652
 Alpha virt. eigenvalues --    0.52952   0.53685   0.54197   0.55226   0.56689
 Alpha virt. eigenvalues --    0.57489   0.58003   0.58757   0.59417   0.60420
 Alpha virt. eigenvalues --    0.62549   0.63623   0.65145   0.66700   0.66982
 Alpha virt. eigenvalues --    0.69138   0.69426   0.71554   0.71981   0.72818
 Alpha virt. eigenvalues --    0.73920   0.75872   0.76679   0.77720   0.78798
 Alpha virt. eigenvalues --    0.80332   0.81040   0.84087   0.84548   0.86650
 Alpha virt. eigenvalues --    0.88294   0.89518   0.89683   0.90398   0.91995
 Alpha virt. eigenvalues --    0.93089   0.94001   0.96978   0.98455   0.99889
 Alpha virt. eigenvalues --    1.00182   1.02082   1.03313   1.04344   1.06394
 Alpha virt. eigenvalues --    1.06926   1.08718   1.09398   1.10790   1.11363
 Alpha virt. eigenvalues --    1.13000   1.15239   1.18535   1.19339   1.21525
 Alpha virt. eigenvalues --    1.23077   1.23663   1.25082   1.25408   1.26265
 Alpha virt. eigenvalues --    1.27304   1.29427   1.30232   1.33121   1.36372
 Alpha virt. eigenvalues --    1.38331   1.39193   1.39892   1.42195   1.42640
 Alpha virt. eigenvalues --    1.45020   1.45212   1.47433   1.48266   1.49425
 Alpha virt. eigenvalues --    1.50421   1.50933   1.51671   1.52987   1.53964
 Alpha virt. eigenvalues --    1.54823   1.56888   1.57074   1.57768   1.58052
 Alpha virt. eigenvalues --    1.58821   1.59757   1.60635   1.61809   1.63336
 Alpha virt. eigenvalues --    1.63827   1.65503   1.66364   1.66770   1.67098
 Alpha virt. eigenvalues --    1.67713   1.69085   1.71966   1.73380   1.73922
 Alpha virt. eigenvalues --    1.74806   1.75306   1.76575   1.77945   1.79304
 Alpha virt. eigenvalues --    1.82498   1.83265   1.85181   1.86091   1.88036
 Alpha virt. eigenvalues --    1.89029   1.92628   1.93028   1.93865   1.94021
 Alpha virt. eigenvalues --    1.94944   1.95868   1.99991   2.00122   2.04177
 Alpha virt. eigenvalues --    2.05941   2.06658   2.08145   2.10239   2.11219
 Alpha virt. eigenvalues --    2.13859   2.15821   2.17101   2.17662   2.18649
 Alpha virt. eigenvalues --    2.20129   2.21648   2.25652   2.26476   2.27929
 Alpha virt. eigenvalues --    2.28436   2.29723   2.33380   2.34020   2.36372
 Alpha virt. eigenvalues --    2.38263   2.40887   2.42712   2.43518   2.45155
 Alpha virt. eigenvalues --    2.47649   2.48756   2.51981   2.54473   2.55016
 Alpha virt. eigenvalues --    2.56280   2.57305   2.59245   2.60794   2.61093
 Alpha virt. eigenvalues --    2.62817   2.63072   2.64135   2.66669   2.68773
 Alpha virt. eigenvalues --    2.69142   2.71047   2.72029   2.72541   2.75846
 Alpha virt. eigenvalues --    2.77161   2.78045   2.78113   2.80778   2.81106
 Alpha virt. eigenvalues --    2.81760   2.83551   2.83768   2.84873   2.85916
 Alpha virt. eigenvalues --    2.87592   2.89653   2.91841   2.93539   2.96541
 Alpha virt. eigenvalues --    2.96646   2.97411   3.01387   3.02842   3.04308
 Alpha virt. eigenvalues --    3.05339   3.05715   3.06701   3.09428   3.10236
 Alpha virt. eigenvalues --    3.11095   3.12313   3.14101   3.15173   3.15373
 Alpha virt. eigenvalues --    3.16086   3.17615   3.20066   3.20504   3.22544
 Alpha virt. eigenvalues --    3.23464   3.23950   3.26098   3.26742   3.28054
 Alpha virt. eigenvalues --    3.29716   3.30225   3.32117   3.32850   3.34770
 Alpha virt. eigenvalues --    3.35092   3.37565   3.38645   3.39102   3.40294
 Alpha virt. eigenvalues --    3.41365   3.41987   3.43385   3.44671   3.45146
 Alpha virt. eigenvalues --    3.45890   3.46638   3.47700   3.49334   3.50836
 Alpha virt. eigenvalues --    3.52302   3.53820   3.55349   3.57012   3.58277
 Alpha virt. eigenvalues --    3.58988   3.60212   3.62466   3.66621   3.66979
 Alpha virt. eigenvalues --    3.74465   3.75188   3.76184   3.78623   3.80943
 Alpha virt. eigenvalues --    3.84561   3.86503   3.87734   3.92647   3.97649
 Alpha virt. eigenvalues --    3.98746   4.01928   4.03157   4.05641   4.07103
 Alpha virt. eigenvalues --    4.09130   4.11487   4.13805   4.15185   4.16503
 Alpha virt. eigenvalues --    4.17334   4.17993   4.19520   4.21967   4.22471
 Alpha virt. eigenvalues --    4.22921   4.25804   4.27130   4.30277   4.34452
 Alpha virt. eigenvalues --    4.37066   4.38547   4.39456   4.42702   4.46238
 Alpha virt. eigenvalues --    4.48560   4.50933   4.53105   4.56536   4.60452
 Alpha virt. eigenvalues --    4.61759   4.63990   4.72438   4.77026   4.81174
 Alpha virt. eigenvalues --    4.82583   4.85208   4.91508   4.92795   5.09673
 Alpha virt. eigenvalues --    5.13182   5.18805   5.22774   5.28583   5.30648
 Alpha virt. eigenvalues --    5.33621   5.41561   5.41916   5.49761   5.53163
 Alpha virt. eigenvalues --    5.61822   5.66637   5.81071   5.95754   6.02031
 Alpha virt. eigenvalues --    6.10680   6.16685   6.36032   6.37120   6.49883
 Alpha virt. eigenvalues --    6.63351   6.64256   6.76295   6.79550   6.87084
 Alpha virt. eigenvalues --    6.97701   7.09653   7.21390   7.34640   7.85121
 Alpha virt. eigenvalues --   22.08940  22.41245  22.61002  22.72878  22.76163
 Alpha virt. eigenvalues --   22.80850  22.88319  23.27320  23.39886  44.03766
 Alpha virt. eigenvalues --   44.23878
          Condensed to atoms (all electrons):
               1          2          3          4          5          6
     1  C    4.876081   0.203162  -0.053876   0.001490   0.008476  -0.000405
     2  O    0.203162   7.977220   0.350472  -0.084569  -0.091049   0.001272
     3  C   -0.053876   0.350472   4.482297   0.623450   0.301955  -0.007892
     4  O    0.001490  -0.084569   0.623450   7.885827  -0.073722  -0.029582
     5  C    0.008476  -0.091049   0.301955  -0.073722   5.223459   0.282413
     6  C   -0.000405   0.001272  -0.007892  -0.029582   0.282413   5.061030
     7  C   -0.000023   0.000446  -0.004047   0.012325  -0.079832   0.403617
     8  C   -0.000027   0.000099   0.002291   0.000361   0.007453  -0.016474
     9  C    0.000009   0.000054   0.000183   0.000190  -0.004128  -0.071069
    10  Br  -0.000000  -0.000000   0.000007   0.000000  -0.000071  -0.005924
    11  C   -0.000003  -0.000317  -0.001195  -0.000077   0.015920  -0.012281
    12  C   -0.000056   0.002414   0.001959   0.000789  -0.067771   0.457494
    13  H    0.417335  -0.035531  -0.005661   0.004629  -0.001020  -0.000398
    14  H    0.421246  -0.033214  -0.009506   0.003303   0.000105  -0.000073
    15  H    0.394832  -0.029360   0.005297   0.001872   0.000692   0.000241
    16  H   -0.000514   0.003189  -0.045503   0.000501   0.423466  -0.037480
    17  H   -0.000134   0.006582  -0.032656   0.004794   0.421949  -0.055344
    18  H   -0.000087   0.000667  -0.004391   0.015083   0.001034  -0.032786
    19  H    0.000000  -0.000001   0.000002  -0.000047   0.000025   0.007668
    20  H    0.000000  -0.000005  -0.000006  -0.000000   0.000072   0.006895
    21  H   -0.000003  -0.000025  -0.000485   0.000007  -0.004870  -0.031721
               7          8          9         10         11         12
     1  C   -0.000023  -0.000027   0.000009  -0.000000  -0.000003  -0.000056
     2  O    0.000446   0.000099   0.000054  -0.000000  -0.000317   0.002414
     3  C   -0.004047   0.002291   0.000183   0.000007  -0.001195   0.001959
     4  O    0.012325   0.000361   0.000190   0.000000  -0.000077   0.000789
     5  C   -0.079832   0.007453  -0.004128  -0.000071   0.015920  -0.067771
     6  C    0.403617  -0.016474  -0.071069  -0.005924  -0.012281   0.457494
     7  C    5.137907   0.394995   0.029085   0.023587  -0.098453   0.000941
     8  C    0.394995   5.131543   0.394508  -0.103617   0.030141  -0.098559
     9  C    0.029085   0.394508   4.911331   0.366688   0.400491   0.029968
    10  Br   0.023587  -0.103617   0.366688  34.930695  -0.101307   0.022672
    11  C   -0.098453   0.030141   0.400491  -0.101307   5.135811   0.380755
    12  C    0.000941  -0.098559   0.029968   0.022672   0.380755   5.090265
    13  H    0.000485  -0.000051   0.000012   0.000000  -0.000020   0.000131
    14  H   -0.000081   0.000002  -0.000000  -0.000000  -0.000001   0.000003
    15  H   -0.000064   0.000000  -0.000001  -0.000000  -0.000000  -0.000010
    16  H   -0.010648  -0.000670   0.000468  -0.000002  -0.001180   0.006164
    17  H    0.013185  -0.000451   0.000060   0.000001   0.001573  -0.008871
    18  H    0.393044  -0.018046   0.002310  -0.000221  -0.000646   0.005995
    19  H   -0.033229   0.419763  -0.047785  -0.007946   0.011741  -0.003181
    20  H   -0.003801   0.012612  -0.046227  -0.007392   0.420383  -0.035544
    21  H    0.007984  -0.000623   0.002106  -0.000292  -0.025749   0.402654
              13         14         15         16         17         18
     1  C    0.417335   0.421246   0.394832  -0.000514  -0.000134  -0.000087
     2  O   -0.035531  -0.033214  -0.029360   0.003189   0.006582   0.000667
     3  C   -0.005661  -0.009506   0.005297  -0.045503  -0.032656  -0.004391
     4  O    0.004629   0.003303   0.001872   0.000501   0.004794   0.015083
     5  C   -0.001020   0.000105   0.000692   0.423466   0.421949   0.001034
     6  C   -0.000398  -0.000073   0.000241  -0.037480  -0.055344  -0.032786
     7  C    0.000485  -0.000081  -0.000064  -0.010648   0.013185   0.393044
     8  C   -0.000051   0.000002   0.000000  -0.000670  -0.000451  -0.018046
     9  C    0.000012  -0.000000  -0.000001   0.000468   0.000060   0.002310
    10  Br   0.000000  -0.000000  -0.000000  -0.000002   0.000001  -0.000221
    11  C   -0.000020  -0.000001  -0.000000  -0.001180   0.001573  -0.000646
    12  C    0.000131   0.000003  -0.000010   0.006164  -0.008871   0.005995
    13  H    0.521834  -0.040940  -0.022219  -0.000039   0.000112   0.000043
    14  H   -0.040940   0.523365  -0.024349   0.000127  -0.000070  -0.000024
    15  H   -0.022219  -0.024349   0.516787  -0.000003  -0.000307  -0.000003
    16  H   -0.000039   0.000127  -0.000003   0.485094  -0.016870   0.000639
    17  H    0.000112  -0.000070  -0.000307  -0.016870   0.493546   0.000345
    18  H    0.000043  -0.000024  -0.000003   0.000639   0.000345   0.450120
    19  H   -0.000001   0.000000   0.000000  -0.000022   0.000001  -0.002778
    20  H    0.000000  -0.000000   0.000000  -0.000000  -0.000049   0.000038
    21  H    0.000003  -0.000001   0.000003   0.000309   0.000665  -0.000163
              19         20         21
     1  C    0.000000   0.000000  -0.000003
     2  O   -0.000001  -0.000005  -0.000025
     3  C    0.000002  -0.000006  -0.000485
     4  O   -0.000047  -0.000000   0.000007
     5  C    0.000025   0.000072  -0.004870
     6  C    0.007668   0.006895  -0.031721
     7  C   -0.033229  -0.003801   0.007984
     8  C    0.419763   0.012612  -0.000623
     9  C   -0.047785  -0.046227   0.002106
    10  Br  -0.007946  -0.007392  -0.000292
    11  C    0.011741   0.420383  -0.025749
    12  C   -0.003181  -0.035544   0.402654
    13  H   -0.000001   0.000000   0.000003
    14  H    0.000000  -0.000000  -0.000001
    15  H    0.000000   0.000000   0.000003
    16  H   -0.000022  -0.000000   0.000309
    17  H    0.000001  -0.000049   0.000665
    18  H   -0.002778   0.000038  -0.000163
    19  H    0.473678   0.000051   0.000056
    20  H    0.000051   0.475510  -0.002663
    21  H    0.000056  -0.002663   0.483994
 Mulliken charges:
               1
     1  C   -0.267501
     2  O   -0.271502
     3  C    0.397303
     4  O   -0.366623
     5  C   -0.364558
     6  C    0.080801
     7  C   -0.187423
     8  C   -0.155250
     9  C    0.031748
    10  Br  -0.116880
    11  C   -0.155585
    12  C   -0.188212
    13  H    0.161296
    14  H    0.160109
    15  H    0.156591
    16  H    0.192974
    17  H    0.171940
    18  H    0.189828
    19  H    0.182004
    20  H    0.180125
    21  H    0.168814
 Sum of Mulliken charges =  -0.00000
 Mulliken charges with hydrogens summed into heavy atoms:
               1
     1  C    0.210495
     2  O   -0.271502
     3  C    0.397303
     4  O   -0.366623
     5  C    0.000356
     6  C    0.080801
     7  C    0.002404
     8  C    0.026755
     9  C    0.031748
    10  Br  -0.116880
    11  C    0.024540
    12  C   -0.019398
 Electronic spatial extent (au):  <R**2>=           4326.2746
 Charge=             -0.0000 electrons
 Dipole moment (field-independent basis, Debye):
    X=              2.2308    Y=              2.0015    Z=             -0.3522  Tot=              3.0177
 Quadrupole moment (field-independent basis, Debye-Ang):
   XX=            -81.6319   YY=            -80.6706   ZZ=            -80.5132
   XY=              5.6807   XZ=             -4.4716   YZ=              1.1914
 Traceless Quadrupole moment (field-independent basis, Debye-Ang):
   XX=             -0.6933   YY=              0.2680   ZZ=              0.4253
   XY=              5.6807   XZ=             -4.4716   YZ=              1.1914
 Octapole moment (field-independent basis, Debye-Ang**2):
  XXX=            -26.0771  YYY=              3.6070  ZZZ=            -21.2030  XYY=            -43.1712
  XXY=             16.1475  XXZ=            -37.0886  XZZ=             -3.3421  YZZ=             -4.2637
  YYZ=             -4.9126  XYZ=             10.5730
 Hexadecapole moment (field-independent basis, Debye-Ang**3):
 XXXX=          -3842.0132 YYYY=           -430.5816 ZZZZ=           -385.3550 XXXY=             71.9504
 XXXZ=           -116.4366 YYYX=             39.3472 YYYZ=             -4.3086 ZZZX=              8.4368
 ZZZY=             -2.0697 XXYY=           -810.0068 XXZZ=           -674.1379 YYZZ=           -145.6549
 XXYZ=             28.3450 YYXZ=              6.2272 ZZXY=              8.3225
 N-N= 8.955979427003D+02 E-N=-9.106880282585D+03  KE= 3.067091905893D+03
 Calculating spin-rotation constants.
 Leave Link  601 at Tue Sep 17 10:54:59 2024, MaxMem=  1342177280 cpu:               6.1 elap:               6.1
 (Enter /groups/ReismanLab/Software/Gaussian16_RevC/Linux_Binary_AVX2-enabled-CPU/g16/l9999.exe)
 Unable to Open any file for archive entry.
 1\1\GINC-HPC-93-12\SP\RM062X\def2TZVP\C9H9Br1O2\MANTIND\17-Sep-2024\0\
 \#p M062X/def2tzvp geom=check guess=read scf(xqc,tight) integral(grid=
 ultrafine) scrf(SMD, solvent=1,4-Dioxane) nmr=giao\\spe\\0,1\C,0,5.271
 7506118,0.199125471,0.2344737946\O,0,4.1650271602,-0.3848451836,0.9439
 120408\C,0,3.431686694,-1.2640173176,0.2326146899\O,0,3.6752248601,-1.
 5754756897,-0.9135534717\C,0,2.2424591019,-1.7665395511,1.030013165\C,
 0,0.9920653136,-0.989519662,0.6607154173\C,0,0.5164582375,-1.001987363
 5,-0.65649803\C,0,-0.6280309419,-0.291340081,-1.0082110206\C,0,-1.3001
 107151,0.4392230732,-0.0300528921\Br,0,-2.8739458702,1.4144975345,-0.5
 037753942\C,0,-0.8455695805,0.4724390169,1.2844356247\C,0,0.3038084612
 ,-0.2431845389,1.6202214451\H,0,4.916225961,0.7457832711,-0.6419110123
 \H,0,5.9690606988,-0.5757395869,-0.0918682559\H,0,5.7504612224,0.87497
 62126,0.9419148441\H,0,2.1161585521,-2.825321256,0.7850212409\H,0,2.44
 6086231,-1.6735879243,2.0980863622\H,0,1.0581585258,-1.5618432626,-1.4
 120140767\H,0,-0.9952260127,-0.3022454165,-2.0276390946\H,0,-1.3784514
 403,1.0482241685,2.0318328847\H,0,0.6652497964,-0.2182354644,2.6440500
 208\\Version=ES64L-G16RevC.02\State=1-A\HF=-3073.0246405\RMSD=5.025e-0
 9\Dipole=0.8179402,-0.0508486,0.8590704\Quadrupole=0.9478425,-2.060072
 8,1.1122303,3.4584565,3.4734548,-1.6316627\PG=C01 [X(C9H9Br1O2)]\\@
 The archive entry for this job was punched.


 I do not feel obliged to believe that the same God who
 has endowed us with sense, reason, and intellect has
 intended us to forgo their use.
                   --Galileo Galilei
 Job cpu time:       0 days  0 hours 19 minutes 49.5 seconds.
 Elapsed time:       0 days  0 hours 19 minutes 54.4 seconds.
 File lengths (MBytes):  RWF=    288 Int=      0 D2E=      0 Chk=     32 Scr=     16
 Normal termination of Gaussian 16 at Tue Sep 17 10:55:00 2024.
