 Entering Gaussian System, Link 0=g16
 Input=smiles_00085_conf_2.gjf
 Output=smiles_00085_conf_2.log
 Initial command:
 /groups/ReismanLab/Software/Gaussian16_RevC/Linux_Binary_AVX2-enabled-CPU/g16/l1.exe "/central/groups/ReismanLab/DM/dft_final/smiles_00085/Gau-1143569.inp" -scrdir="/central/groups/ReismanLab/DM/dft_final/smiles_00085/"
 Entering Link 1 = /groups/ReismanLab/Software/Gaussian16_RevC/Linux_Binary_AVX2-enabled-CPU/g16/l1.exe PID=   1143571.
  
 Copyright (c) 1988-2021, Gaussian, Inc.  All Rights Reserved.
  
 This is part of the Gaussian(R) 16 program.  It is based on
 the Gaussian(R) 09 system (copyright 2009, Gaussian, Inc.),
 the Gaussian(R) 03 system (copyright 2003, Gaussian, Inc.),
 the Gaussian(R) 98 system (copyright 1998, Gaussian, Inc.),
 the Gaussian(R) 94 system (copyright 1995, Gaussian, Inc.),
 the Gaussian 92(TM) system (copyright 1992, Gaussian, Inc.),
 the Gaussian 90(TM) system (copyright 1990, Gaussian, Inc.),
 the Gaussian 88(TM) system (copyright 1988, Gaussian, Inc.),
 the Gaussian 86(TM) system (copyright 1986, Carnegie Mellon
 University), and the Gaussian 82(TM) system (copyright 1983,
 Carnegie Mellon University). Gaussian is a federally registered
 trademark of Gaussian, Inc.
  
 This software contains proprietary and confidential information,
 including trade secrets, belonging to Gaussian, Inc.
  
 This software is provided under written license and may be
 used, copied, transmitted, or stored only in accord with that
 written license.
  
 The following legend is applicable only to US Government
 contracts under FAR:
  
                    RESTRICTED RIGHTS LEGEND
  
 Use, reproduction and disclosure by the US Government is
 subject to restrictions as set forth in subparagraphs (a)
 and (c) of the Commercial Computer Software - Restricted
 Rights clause in FAR 52.227-19.
  
 Gaussian, Inc.
 340 Quinnipiac St., Bldg. 40, Wallingford CT 06492
  
  
 ---------------------------------------------------------------
 Warning -- This program may not be used in any manner that
 competes with the business of Gaussian, Inc. or will provide
 assistance to any competitor of Gaussian, Inc.  The licensee
 of this program is prohibited from giving any competitor of
 Gaussian, Inc. access to this program.  By using this program,
 the user acknowledges that Gaussian, Inc. is engaged in the
 business of creating and licensing software in the field of
 computational chemistry and represents and warrants to the
 licensee that it is not a competitor of Gaussian, Inc. and that
 it will not use this program in any manner prohibited above.
 ---------------------------------------------------------------
  

 Cite this work as:
 Gaussian 16, Revision C.02,
 M. J. Frisch, G. W. Trucks, H. B. Schlegel, G. E. Scuseria, 
 M. A. Robb, J. R. Cheeseman, G. Scalmani, V. Barone, 
 G. A. Petersson, H. Nakatsuji, X. Li, M. Caricato, A. V. Marenich, 
 J. Bloino, B. G. Janesko, R. Gomperts, B. Mennucci, H. P. Hratchian, 
 J. V. Ortiz, A. F. Izmaylov, J. L. Sonnenberg, D. Williams-Young, 
 F. Ding, F. Lipparini, F. Egidi, J. Goings, B. Peng, A. Petrone, 
 T. Henderson, D. Ranasinghe, V. G. Zakrzewski, J. Gao, N. Rega, 
 G. Zheng, W. Liang, M. Hada, M. Ehara, K. Toyota, R. Fukuda, 
 J. Hasegawa, M. Ishida, T. Nakajima, Y. Honda, O. Kitao, H. Nakai, 
 T. Vreven, K. Throssell, J. A. Montgomery, Jr., J. E. Peralta, 
 F. Ogliaro, M. J. Bearpark, J. J. Heyd, E. N. Brothers, K. N. Kudin, 
 V. N. Staroverov, T. A. Keith, R. Kobayashi, J. Normand, 
 K. Raghavachari, A. P. Rendell, J. C. Burant, S. S. Iyengar, 
 J. Tomasi, M. Cossi, J. M. Millam, M. Klene, C. Adamo, R. Cammi, 
 J. W. Ochterski, R. L. Martin, K. Morokuma, O. Farkas, 
 J. B. Foresman, and D. J. Fox, Gaussian, Inc., Wallingford CT, 2019.
 
 ******************************************
 Gaussian 16:  ES64L-G16RevC.02  7-Dec-2021
                17-Sep-2024 
 ******************************************
 %nprocshared=8
 Will use up to    8 processors via shared memory.
 %Mem=10GB
 %Chk=smiles_00085_conf_2.chk
 ----------------------------------------------------------------------
 #p B3LYP/6-31G(d,p) EmpiricalDispersion=GD3BJ opt freq scf(xqc,tight) 
 integral(grid=ultrafine)
 ----------------------------------------------------------------------
 1/18=20,19=15,26=4,38=1/1,3;
 2/9=110,12=2,17=6,18=5,40=1/2;
 3/5=1,6=6,7=101,11=2,25=1,30=1,71=1,74=-5,75=-5,124=41/1,2,3;
 4//1;
 5/5=2,8=3,13=1,32=2,38=5/2,8;
 6/7=2,8=2,9=2,10=2,28=1/1;
 7//1,2,3,16;
 1/18=20,19=15,26=4/3(2);
 2/9=110/2;
 99//99;
 2/9=110/2;
 3/5=1,6=6,7=101,11=2,25=1,30=1,71=1,74=-5,75=-5,124=41/1,2,3;
 4/5=5,16=3,69=1/1;
 5/5=2,8=3,13=1,32=2,38=5/2,8;
 7//1,2,3,16;
 1/18=20,19=15,26=4/3(-5);
 2/9=110/2;
 6/7=2,8=2,9=2,10=2,19=2,28=1/1;
 99/9=1/99;
 Leave Link    1 at Tue Sep 17 09:55:19 2024, MaxMem=  1342177280 cpu:               0.2 elap:               0.7
 (Enter /groups/ReismanLab/Software/Gaussian16_RevC/Linux_Binary_AVX2-enabled-CPU/g16/l101.exe)
 ----------------------------------
 opt-freq conformers_unique/conf_ac
 ----------------------------------
 Symbolic Z-matrix:
 Charge =  0 Multiplicity = 1
 C                     2.02228  -4.46172   0.11905 
 O                     1.2134   -3.29208   0.13442 
 C                     1.86024  -2.13675  -0.07445 
 O                     3.0409   -2.05739  -0.26728 
 C                     0.91757  -0.97044  -0.03794 
 C                    -0.46466  -1.1619   -0.00615 
 C                    -1.26774  -0.0335    0.01666 
 Br                   -3.15736  -0.21713   0.05828 
 C                    -0.6915    1.22449   0.00867 
 C                     0.70163   1.29273  -0.0226 
 C                     1.34656   2.64875  -0.03072 
 O                     0.70623   3.67182  -0.02934 
 O                     2.6642    2.56431  -0.04023 
 C                     3.41177   3.77322  -0.05341 
 N                     1.48055   0.22621  -0.04667 
 H                     1.35121  -5.29681   0.30153 
 H                     2.51564  -4.56713  -0.84902 
 H                     2.78553  -4.40318   0.89723 
 H                    -0.88197  -2.15548  -0.00042 
 H                    -1.27245   2.13334   0.02517 
 H                     4.08817   3.7383   -0.90694 
 H                     3.98815   3.83062   0.87038 
 H                     2.74169   4.63145  -0.13245 
 
 ITRead=  0  0  0  0  0  0  0  0  0  0  0  0  0  0  0  0  0  0  0  0
 ITRead=  0  0  0
 MicOpt= -1 -1 -1 -1 -1 -1 -1 -1 -1 -1 -1 -1 -1 -1 -1 -1 -1 -1 -1 -1
 MicOpt= -1 -1 -1
 NAtoms=     23 NQM=       23 NQMF=       0 NMMI=      0 NMMIF=      0
                NMic=       0 NMicF=      0.
                    Isotopes and Nuclear Properties:
 (Nuclear quadrupole moments (NQMom) in fm**2, nuclear magnetic moments (NMagM)
  in nuclear magnetons)

  Atom         1           2           3           4           5           6           7           8           9          10
 IAtWgt=          12          16          12          16          12          12          12          79          12          12
 AtmWgt=  12.0000000  15.9949146  12.0000000  15.9949146  12.0000000  12.0000000  12.0000000  78.9183361  12.0000000  12.0000000
 NucSpn=           0           0           0           0           0           0           0           3           0           0
 AtZEff=  -0.0000000  -0.0000000  -0.0000000  -0.0000000  -0.0000000  -0.0000000  -0.0000000  -0.0000000  -0.0000000  -0.0000000
 NQMom=    0.0000000   0.0000000   0.0000000   0.0000000   0.0000000   0.0000000   0.0000000  31.3000000   0.0000000   0.0000000
 NMagM=    0.0000000   0.0000000   0.0000000   0.0000000   0.0000000   0.0000000   0.0000000   2.1063990   0.0000000   0.0000000
 AtZNuc=   6.0000000   8.0000000   6.0000000   8.0000000   6.0000000   6.0000000   6.0000000  35.0000000   6.0000000   6.0000000

  Atom        11          12          13          14          15          16          17          18          19          20
 IAtWgt=          12          16          16          12          14           1           1           1           1           1
 AtmWgt=  12.0000000  15.9949146  15.9949146  12.0000000  14.0030740   1.0078250   1.0078250   1.0078250   1.0078250   1.0078250
 NucSpn=           0           0           0           0           2           1           1           1           1           1
 AtZEff=  -0.0000000  -0.0000000  -0.0000000  -0.0000000  -0.0000000  -0.0000000  -0.0000000  -0.0000000  -0.0000000  -0.0000000
 NQMom=    0.0000000   0.0000000   0.0000000   0.0000000   2.0440000   0.0000000   0.0000000   0.0000000   0.0000000   0.0000000
 NMagM=    0.0000000   0.0000000   0.0000000   0.0000000   0.4037610   2.7928460   2.7928460   2.7928460   2.7928460   2.7928460
 AtZNuc=   6.0000000   8.0000000   8.0000000   6.0000000   7.0000000   1.0000000   1.0000000   1.0000000   1.0000000   1.0000000

  Atom        21          22          23
 IAtWgt=           1           1           1
 AtmWgt=   1.0078250   1.0078250   1.0078250
 NucSpn=           1           1           1
 AtZEff=  -0.0000000  -0.0000000  -0.0000000
 NQMom=    0.0000000   0.0000000   0.0000000
 NMagM=    2.7928460   2.7928460   2.7928460
 AtZNuc=   1.0000000   1.0000000   1.0000000
 Leave Link  101 at Tue Sep 17 09:55:20 2024, MaxMem=  1342177280 cpu:               0.1 elap:               0.2
 (Enter /groups/ReismanLab/Software/Gaussian16_RevC/Linux_Binary_AVX2-enabled-CPU/g16/l103.exe)

 GradGradGradGradGradGradGradGradGradGradGradGradGradGradGradGradGradGrad
 Berny optimization.
 Initialization pass.
                           ----------------------------
                           !    Initial Parameters    !
                           ! (Angstroms and Degrees)  !
 --------------------------                            --------------------------
 ! Name  Definition              Value          Derivative Info.                !
 --------------------------------------------------------------------------------
 ! R1    R(1,2)                  1.4222         estimate D2E/DX2                !
 ! R2    R(1,16)                 1.0867         estimate D2E/DX2                !
 ! R3    R(1,17)                 1.0916         estimate D2E/DX2                !
 ! R4    R(1,18)                 1.0916         estimate D2E/DX2                !
 ! R5    R(2,3)                  1.3405         estimate D2E/DX2                !
 ! R6    R(3,4)                  1.1989         estimate D2E/DX2                !
 ! R7    R(3,5)                  1.5001         estimate D2E/DX2                !
 ! R8    R(5,6)                  1.3958         estimate D2E/DX2                !
 ! R9    R(5,15)                 1.3225         estimate D2E/DX2                !
 ! R10   R(6,7)                  1.3852         estimate D2E/DX2                !
 ! R11   R(6,19)                 1.0777         estimate D2E/DX2                !
 ! R12   R(7,8)                  1.899          estimate D2E/DX2                !
 ! R13   R(7,9)                  1.3837         estimate D2E/DX2                !
 ! R14   R(9,10)                 1.3951         estimate D2E/DX2                !
 ! R15   R(9,20)                 1.0788         estimate D2E/DX2                !
 ! R16   R(10,11)                1.5016         estimate D2E/DX2                !
 ! R17   R(10,15)                1.3209         estimate D2E/DX2                !
 ! R18   R(11,12)                1.2069         estimate D2E/DX2                !
 ! R19   R(11,13)                1.3204         estimate D2E/DX2                !
 ! R20   R(13,14)                1.4214         estimate D2E/DX2                !
 ! R21   R(14,21)                1.0896         estimate D2E/DX2                !
 ! R22   R(14,22)                1.0904         estimate D2E/DX2                !
 ! R23   R(14,23)                1.0917         estimate D2E/DX2                !
 ! A1    A(2,1,16)             106.1974         estimate D2E/DX2                !
 ! A2    A(2,1,17)             110.2451         estimate D2E/DX2                !
 ! A3    A(2,1,18)             110.2353         estimate D2E/DX2                !
 ! A4    A(16,1,17)            110.7195         estimate D2E/DX2                !
 ! A5    A(16,1,18)            110.6881         estimate D2E/DX2                !
 ! A6    A(17,1,18)            108.7462         estimate D2E/DX2                !
 ! A7    A(1,2,3)              115.6392         estimate D2E/DX2                !
 ! A8    A(2,3,4)              123.8703         estimate D2E/DX2                !
 ! A9    A(2,3,5)              111.2898         estimate D2E/DX2                !
 ! A10   A(4,3,5)              124.8398         estimate D2E/DX2                !
 ! A11   A(3,5,6)              121.0788         estimate D2E/DX2                !
 ! A12   A(3,5,15)             115.839          estimate D2E/DX2                !
 ! A13   A(6,5,15)             123.0809         estimate D2E/DX2                !
 ! A14   A(5,6,7)              117.566          estimate D2E/DX2                !
 ! A15   A(5,6,19)             120.6674         estimate D2E/DX2                !
 ! A16   A(7,6,19)             121.7667         estimate D2E/DX2                !
 ! A17   A(6,7,8)              119.9005         estimate D2E/DX2                !
 ! A18   A(6,7,9)              119.9381         estimate D2E/DX2                !
 ! A19   A(8,7,9)              120.1614         estimate D2E/DX2                !
 ! A20   A(7,9,10)             117.4156         estimate D2E/DX2                !
 ! A21   A(7,9,20)             122.7905         estimate D2E/DX2                !
 ! A22   A(10,9,20)            119.7938         estimate D2E/DX2                !
 ! A23   A(9,10,11)            118.24           estimate D2E/DX2                !
 ! A24   A(9,10,15)            123.3502         estimate D2E/DX2                !
 ! A25   A(11,10,15)           118.4098         estimate D2E/DX2                !
 ! A26   A(10,11,12)           122.5204         estimate D2E/DX2                !
 ! A27   A(10,11,13)           111.7706         estimate D2E/DX2                !
 ! A28   A(12,11,13)           125.7089         estimate D2E/DX2                !
 ! A29   A(11,13,14)           118.0673         estimate D2E/DX2                !
 ! A30   A(13,14,21)           107.8475         estimate D2E/DX2                !
 ! A31   A(13,14,22)           108.3566         estimate D2E/DX2                !
 ! A32   A(13,14,23)           110.2708         estimate D2E/DX2                !
 ! A33   A(21,14,22)           109.7066         estimate D2E/DX2                !
 ! A34   A(21,14,23)           110.4572         estimate D2E/DX2                !
 ! A35   A(22,14,23)           110.146          estimate D2E/DX2                !
 ! A36   A(5,15,10)            118.6491         estimate D2E/DX2                !
 ! D1    D(16,1,2,3)          -179.9985         estimate D2E/DX2                !
 ! D2    D(17,1,2,3)           -60.011          estimate D2E/DX2                !
 ! D3    D(18,1,2,3)            60.0571         estimate D2E/DX2                !
 ! D4    D(1,2,3,4)              0.137          estimate D2E/DX2                !
 ! D5    D(1,2,3,5)           -179.9963         estimate D2E/DX2                !
 ! D6    D(2,3,5,6)             -9.4978         estimate D2E/DX2                !
 ! D7    D(2,3,5,15)           170.9142         estimate D2E/DX2                !
 ! D8    D(4,3,5,6)            170.3674         estimate D2E/DX2                !
 ! D9    D(4,3,5,15)            -9.2206         estimate D2E/DX2                !
 ! D10   D(3,5,6,7)           -179.5417         estimate D2E/DX2                !
 ! D11   D(3,5,6,19)             0.4224         estimate D2E/DX2                !
 ! D12   D(15,5,6,7)             0.0157         estimate D2E/DX2                !
 ! D13   D(15,5,6,19)          179.9798         estimate D2E/DX2                !
 ! D14   D(3,5,15,10)          179.6639         estimate D2E/DX2                !
 ! D15   D(6,5,15,10)            0.0851         estimate D2E/DX2                !
 ! D16   D(5,6,7,8)            179.9265         estimate D2E/DX2                !
 ! D17   D(5,6,7,9)             -0.0541         estimate D2E/DX2                !
 ! D18   D(19,6,7,8)            -0.0372         estimate D2E/DX2                !
 ! D19   D(19,6,7,9)           179.9822         estimate D2E/DX2                !
 ! D20   D(6,7,9,10)            -0.0047         estimate D2E/DX2                !
 ! D21   D(6,7,9,20)           179.9762         estimate D2E/DX2                !
 ! D22   D(8,7,9,10)          -179.9852         estimate D2E/DX2                !
 ! D23   D(8,7,9,20)            -0.0043         estimate D2E/DX2                !
 ! D24   D(7,9,10,11)         -179.9551         estimate D2E/DX2                !
 ! D25   D(7,9,10,15)            0.1116         estimate D2E/DX2                !
 ! D26   D(20,9,10,11)           0.0634         estimate D2E/DX2                !
 ! D27   D(20,9,10,15)        -179.8699         estimate D2E/DX2                !
 ! D28   D(9,10,11,12)          -1.0163         estimate D2E/DX2                !
 ! D29   D(9,10,11,13)         179.0296         estimate D2E/DX2                !
 ! D30   D(15,10,11,12)        178.9204         estimate D2E/DX2                !
 ! D31   D(15,10,11,13)         -1.0337         estimate D2E/DX2                !
 ! D32   D(9,10,15,5)           -0.1511         estimate D2E/DX2                !
 ! D33   D(11,10,15,5)         179.9157         estimate D2E/DX2                !
 ! D34   D(10,11,13,14)        179.787          estimate D2E/DX2                !
 ! D35   D(12,11,13,14)         -0.1654         estimate D2E/DX2                !
 ! D36   D(11,13,14,21)       -125.101          estimate D2E/DX2                !
 ! D37   D(11,13,14,22)        116.2082         estimate D2E/DX2                !
 ! D38   D(11,13,14,23)         -4.4148         estimate D2E/DX2                !
 --------------------------------------------------------------------------------
 Trust Radius=3.00D-01 FncErr=1.00D-07 GrdErr=1.00D-06 EigMax=2.50D+02 EigMin=1.00D-04
 Number of steps in this run=    107 maximum allowed number of steps=    138.
 GradGradGradGradGradGradGradGradGradGradGradGradGradGradGradGradGradGrad

 Leave Link  103 at Tue Sep 17 09:55:20 2024, MaxMem=  1342177280 cpu:               0.1 elap:               0.0
 (Enter /groups/ReismanLab/Software/Gaussian16_RevC/Linux_Binary_AVX2-enabled-CPU/g16/l202.exe)
                          Input orientation:                          
 ---------------------------------------------------------------------
 Center     Atomic      Atomic             Coordinates (Angstroms)
 Number     Number       Type             X           Y           Z
 ---------------------------------------------------------------------
      1          6           0        2.022284   -4.461724    0.119052
      2          8           0        1.213400   -3.292080    0.134418
      3          6           0        1.860244   -2.136752   -0.074447
      4          8           0        3.040902   -2.057389   -0.267281
      5          6           0        0.917573   -0.970440   -0.037943
      6          6           0       -0.464660   -1.161896   -0.006153
      7          6           0       -1.267743   -0.033498    0.016661
      8         35           0       -3.157360   -0.217128    0.058281
      9          6           0       -0.691496    1.224492    0.008668
     10          6           0        0.701626    1.292729   -0.022599
     11          6           0        1.346562    2.648752   -0.030716
     12          8           0        0.706227    3.671815   -0.029339
     13          8           0        2.664196    2.564306   -0.040232
     14          6           0        3.411771    3.773219   -0.053406
     15          7           0        1.480547    0.226206   -0.046668
     16          1           0        1.351209   -5.296810    0.301532
     17          1           0        2.515640   -4.567125   -0.849021
     18          1           0        2.785526   -4.403181    0.897228
     19          1           0       -0.881970   -2.155482   -0.000415
     20          1           0       -1.272449    2.133341    0.025170
     21          1           0        4.088174    3.738299   -0.906940
     22          1           0        3.988150    3.830618    0.870380
     23          1           0        2.741687    4.631453   -0.132445
 ---------------------------------------------------------------------
                    Distance matrix (angstroms):
                    1          2          3          4          5
     1  C    0.000000
     2  O    1.422180   0.000000
     3  C    2.338631   1.340454   0.000000
     4  O    2.639633   2.241782   1.198931   0.000000
     5  C    3.665256   2.346750   1.500081   2.396368   0.000000
     6  C    4.133937   2.715388   2.521941   3.627542   1.395792
     7  C    5.517603   4.097352   3.770448   4.768771   2.378329
     8  Br   6.696940   5.344593   5.373912   6.473871   4.145096
     9  C    6.301574   4.903455   4.220930   4.977719   2.721948
    10  C    5.905754   4.615955   3.620279   4.093332   2.273500
    11  C    7.144081   5.944618   4.813193   5.007446   3.644535
    12  O    8.240661   6.984260   5.922266   6.191212   4.647072
    13  O    7.057091   6.035941   4.769430   4.642578   3.942731
    14  C    8.353125   7.401795   6.110272   5.846305   5.359436
    15  N    4.722037   3.533058   2.393431   2.774560   1.322489
    16  H    1.086743   2.016398   3.222801   3.697629   4.361280
    17  H    1.091638   2.070923   2.633671   2.629276   4.018433
    18  H    1.091570   2.070750   2.633818   2.631356   4.018395
    19  H    3.710487   2.387595   2.743277   3.933162   2.155014
    20  H    7.372854   5.968801   5.296923   6.021026   3.799163
    21  H    8.518271   7.666485   6.338213   5.924183   5.742829
    22  H    8.555236   7.679435   6.405481   6.071259   5.770932
    23  H    9.125057   8.073987   6.825606   6.696889   5.892158
                    6          7          8          9         10
     6  C    0.000000
     7  C    1.385188   0.000000
     8  Br   2.854361   1.898975   0.000000
     9  C    2.397190   1.383713   2.856784   0.000000
    10  C    2.717660   2.374623   4.144634   1.395143   0.000000
    11  C    4.219261   3.745837   5.339148   2.486715   1.501601
    12  O    4.973558   4.198573   5.482597   2.818593   2.379100
    13  O    4.865746   4.712957   6.452643   3.613609   2.338568
    14  C    6.275692   6.032731   7.686926   4.830803   3.674053
    15  N    2.390042   2.761260   4.660231   2.391111   1.320897
    16  H    4.526540   5.885789   6.796288   6.840014   6.629407
    17  H    4.603064   5.968012   7.206150   6.675641   6.189629
    18  H    4.678219   6.024825   7.317429   6.674573   6.134501
    19  H    1.077679   2.156833   2.989659   3.385348   3.794525
    20  H    3.392948   2.166861   3.013087   1.078789   2.146133
    21  H    6.749194   6.615537   8.311126   5.477482   4.269845
    22  H    6.746927   6.579106   8.252398   5.425267   4.247297
    23  H    6.622651   6.153009   7.638316   4.838806   3.914204
                   11         12         13         14         15
    11  C    0.000000
    12  O    1.206934   0.000000
    13  O    1.320372   2.249519   0.000000
    14  C    2.351601   2.707550   1.421446   0.000000
    15  N    2.426300   3.531585   2.620645   4.038684   0.000000
    16  H    7.952507   8.997873   7.977337   9.307917   5.535493
    17  H    7.355627   8.475021   7.178685   8.425995   4.969025
    18  H    7.256821   8.389730   7.031318   8.255264   4.901544
    19  H    5.296030   6.039917   5.903667   7.320417   3.355006
    20  H    2.669830   2.506997   3.960705   4.963597   3.349823
    21  H    3.077550   3.494591   2.038910   1.089615   4.458092
    22  H    3.030968   3.406718   2.045877   1.090361   4.485625
    23  H    2.426484   2.252694   2.070653   1.091708   4.583016
                   16         17         18         19         20
    16  H    0.000000
    17  H    1.792237   0.000000
    18  H    1.791841   1.774571   0.000000
    19  H    3.866032   4.252047   4.394137   0.000000
    20  H    7.884612   7.746617   7.742982   4.306638   0.000000
    21  H    9.517594   8.453182   8.440119   7.762781   5.672830
    22  H    9.517720   8.697512   8.321206   7.765935   5.591872
    23  H   10.034549   9.229215   9.093226   7.694856   4.730612
                   21         22         23
    21  H    0.000000
    22  H    1.782525   0.000000
    23  H    1.791813   1.789040   0.000000
 Stoichiometry    C9H8BrNO4
 Framework group  C1[X(C9H8BrNO4)]
 Deg. of freedom    63
 Full point group                 C1      NOp   1
 Largest Abelian subgroup         C1      NOp   1
 Largest concise Abelian subgroup C1      NOp   1
                         Standard orientation:                         
 ---------------------------------------------------------------------
 Center     Atomic      Atomic             Coordinates (Angstroms)
 Number     Number       Type             X           Y           Z
 ---------------------------------------------------------------------
      1          6           0        1.945805    4.421933    0.115919
      2          8           0        1.660251    3.028753    0.126210
      3          6           0        0.374400    2.698842   -0.059703
      4          8           0       -0.502820    3.498383   -0.228983
      5          6           0        0.184145    1.211154   -0.030894
      6          6           0        1.278469    0.344738   -0.027524
      7          6           0        1.018849   -1.015790   -0.010048
      8         35           0        2.458415   -2.254236   -0.006576
      9          6           0       -0.288377   -1.469234    0.004428
     10          6           0       -1.301204   -0.509759    0.000682
     11          6           0       -2.726730   -0.981361    0.017243
     12          8           0       -3.023172   -2.151322    0.015481
     13          8           0       -3.576651    0.028979    0.032408
     14          6           0       -4.966947   -0.266721    0.044570
     15          7           0       -1.069608    0.790542   -0.017958
     16          1           0        3.016536    4.513121    0.277873
     17          1           0        1.661716    4.858686   -0.843359
     18          1           0        1.391424    4.926828    0.909182
     19          1           0        2.284790    0.730203   -0.038802
     20          1           0       -0.543054   -2.517444    0.017904
     21          1           0       -5.426197    0.252653   -0.796026
     22          1           0       -5.388451    0.102849    0.979792
     23          1           0       -5.125351   -1.343588   -0.039652
 ---------------------------------------------------------------------
 Rotational constants (GHZ):           0.3984337           0.3334454           0.1821303
 Leave Link  202 at Tue Sep 17 09:55:20 2024, MaxMem=  1342177280 cpu:               0.0 elap:               0.0
 (Enter /groups/ReismanLab/Software/Gaussian16_RevC/Linux_Binary_AVX2-enabled-CPU/g16/l301.exe)
 Standard basis: 6-31G(d,p) (6D, 7F)
 Ernie: Thresh=  0.10000D-02 Tol=  0.10000D-05 Strict=F.
 There are   280 symmetry adapted cartesian basis functions of A   symmetry.
 There are   280 symmetry adapted basis functions of A   symmetry.
   280 basis functions,   531 primitive gaussians,   280 cartesian basis functions
    68 alpha electrons       68 beta electrons
       nuclear repulsion energy      1263.0340790373 Hartrees.
 IExCor=  402 DFT=T Ex+Corr=B3LYP ExCW=0 ScaHFX=  0.200000
 ScaDFX=  0.800000  0.720000  1.000000  0.810000 ScalE2=  1.000000  1.000000
 IRadAn=      5 IRanWt=     -1 IRanGd=            0 ICorTp=0 IEmpDi=141
 NAtoms=   23 NActive=   23 NUniq=   23 SFac= 1.00D+00 NAtFMM=   60 NAOKFM=F Big=F
 Integral buffers will be    131072 words long.
 Raffenetti 2 integral format.
 Two-electron integral symmetry is turned on.
 R6Disp:  Grimme-D3(BJ) Dispersion energy=       -0.0445284578 Hartrees.
 Nuclear repulsion after empirical dispersion term =     1262.9895505795 Hartrees.
 Leave Link  301 at Tue Sep 17 09:55:20 2024, MaxMem=  1342177280 cpu:               0.1 elap:               0.0
 (Enter /groups/ReismanLab/Software/Gaussian16_RevC/Linux_Binary_AVX2-enabled-CPU/g16/l302.exe)
 NPDir=0 NMtPBC=     1 NCelOv=     1 NCel=       1 NClECP=     1 NCelD=      1
         NCelK=      1 NCelE2=     1 NClLst=     1 CellRange=     0.0.
 One-electron integrals computed using PRISM.
 One-electron integral symmetry used in STVInt
 NBasis=   280 RedAO= T EigKep=  6.56D-04  NBF=   280
 NBsUse=   280 1.00D-06 EigRej= -1.00D+00 NBFU=   280
 Precomputing XC quadrature grid using
 IXCGrd= 4 IRadAn=           5 IRanWt=          -1 IRanGd=           0 AccXCQ= 0.00D+00.
 Generated NRdTot=       0 NPtTot=           0 NUsed=           0 NTot=          32
 NSgBfM=   276   276   276   276   276 MxSgAt=    23 MxSgA2=    23.
 Leave Link  302 at Tue Sep 17 09:55:20 2024, MaxMem=  1342177280 cpu:               1.2 elap:               0.3
 (Enter /groups/ReismanLab/Software/Gaussian16_RevC/Linux_Binary_AVX2-enabled-CPU/g16/l303.exe)
 DipDrv:  MaxL=1.
 Leave Link  303 at Tue Sep 17 09:55:20 2024, MaxMem=  1342177280 cpu:               0.1 elap:               0.0
 (Enter /groups/ReismanLab/Software/Gaussian16_RevC/Linux_Binary_AVX2-enabled-CPU/g16/l401.exe)
 ExpMin= 1.43D-01 ExpMax= 5.74D+05 ExpMxC= 5.74D+03 IAcc=3 IRadAn=         5 AccDes= 0.00D+00
 Harris functional with IExCor=  402 and IRadAn=       5 diagonalized for initial guess.
 HarFok:  IExCor=  402 AccDes= 0.00D+00 IRadAn=         5 IDoV= 1 UseB2=F ITyADJ=14
 ICtDFT=  3500011 ScaDFX=  1.000000  1.000000  1.000000  1.000000
 FoFCou: FMM=F IPFlag=           0 FMFlag=      100000 FMFlg1=           0
         NFxFlg=           0 DoJE=T BraDBF=F KetDBF=T FulRan=T
         wScrn=  0.000000 ICntrl=       500 IOpCl=  0 I1Cent=   200000004 NGrid=           0
         NMat0=    1 NMatS0=      1 NMatT0=    0 NMatD0=    1 NMtDS0=    0 NMtDT0=    0
 Petite list used in FoFCou.
 Harris En= -3275.28175774261    
 JPrj=0 DoOrth=F DoCkMO=F.
 Leave Link  401 at Tue Sep 17 09:55:21 2024, MaxMem=  1342177280 cpu:               5.7 elap:               0.8
 (Enter /groups/ReismanLab/Software/Gaussian16_RevC/Linux_Binary_AVX2-enabled-CPU/g16/l502.exe)
 Integral symmetry usage will be decided dynamically.
 Closed shell SCF:
 Using DIIS extrapolation, IDIIS=  1040.
 NGot=  1342177280 LenX=  1342014780 LenY=  1341935939
 Requested convergence on RMS density matrix=1.00D-08 within  32 cycles.
 Requested convergence on MAX density matrix=1.00D-06.
 Requested convergence on             energy=1.00D-06.
 No special actions if energy rises.
 Fock matrices will be formed incrementally for  20 cycles.
 Integral accuracy reduced to 1.0D-05 until final iterations.

 Cycle   1  Pass 0  IDiag  1:
 FoFJK:  IHMeth= 1 ICntrl=       0 DoSepK=F KAlg= 0 I1Cent=           0 FoldK=F
 IRaf= 770000000 NMat=       1 IRICut=       1 DoRegI=T DoRafI=F ISym2E= 0 IDoP0=0 IntGTp=1.
 FoFCou: FMM=F IPFlag=           0 FMFlag=      100000 FMFlg1=           0
         NFxFlg=           0 DoJE=F BraDBF=F KetDBF=F FulRan=T
         wScrn=  0.000000 ICntrl=         0 IOpCl=  0 I1Cent=           0 NGrid=           0
         NMat0=    1 NMatS0=      1 NMatT0=    0 NMatD0=    1 NMtDS0=    0 NMtDT0=    0
 Symmetry not used in FoFCou.
 E= -3274.88867515281    
 DIIS: error= 1.71D-01 at cycle   1 NSaved=   1.
 NSaved= 1 IEnMin= 1 EnMin= -3274.88867515281     IErMin= 1 ErrMin= 1.71D-01
 ErrMax= 1.71D-01  0.00D+00 EMaxC= 1.00D-01 BMatC= 7.11D-01 BMatP= 7.11D-01
 IDIUse=3 WtCom= 0.00D+00 WtEn= 1.00D+00
 Coeff-Com:  0.100D+01
 Coeff-En:   0.100D+01
 Coeff:      0.100D+01
 Gap=     0.246 Goal=   None    Shift=    0.000
 GapD=    0.246 DampG=1.000 DampE=0.250 DampFc=0.2500 IDamp=-1.
 Damping current iteration by 2.50D-01
 RMSDP=5.28D-03 MaxDP=2.17D-01              OVMax= 2.61D-01

 Cycle   2  Pass 0  IDiag  1:
 RMSU=  1.30D-03    CP:  9.93D-01
 E= -3274.99214811220     Delta-E=       -0.103472959391 Rises=F Damp=T
 DIIS: error= 1.26D-01 at cycle   2 NSaved=   2.
 NSaved= 2 IEnMin= 2 EnMin= -3274.99214811220     IErMin= 2 ErrMin= 1.26D-01
 ErrMax= 1.26D-01  0.00D+00 EMaxC= 1.00D-01 BMatC= 2.63D-01 BMatP= 7.11D-01
 IDIUse=3 WtCom= 0.00D+00 WtEn= 1.00D+00
 Coeff-Com: -0.839D+00 0.184D+01
 Coeff-En:   0.000D+00 0.100D+01
 Coeff:      0.000D+00 0.100D+01
 Gap=     0.194 Goal=   None    Shift=    0.000
 RMSDP=2.22D-03 MaxDP=1.09D-01 DE=-1.03D-01 OVMax= 1.43D-01

 Cycle   3  Pass 0  IDiag  1:
 RMSU=  1.27D-03    CP:  9.72D-01  2.28D+00
 E= -3275.13435312290     Delta-E=       -0.142205010691 Rises=F Damp=F
 DIIS: error= 1.12D-02 at cycle   3 NSaved=   3.
 NSaved= 3 IEnMin= 3 EnMin= -3275.13435312290     IErMin= 3 ErrMin= 1.12D-02
 ErrMax= 1.12D-02  0.00D+00 EMaxC= 1.00D-01 BMatC= 6.62D-02 BMatP= 2.63D-01
 IDIUse=3 WtCom= 8.88D-01 WtEn= 1.12D-01
 Coeff-Com:  0.480D+00-0.440D+00 0.961D+00
 Coeff-En:   0.103D+00 0.000D+00 0.897D+00
 Coeff:      0.438D+00-0.391D+00 0.953D+00
 Gap=     0.204 Goal=   None    Shift=    0.000
 RMSDP=1.34D-03 MaxDP=4.32D-02 DE=-1.42D-01 OVMax= 6.74D-02

 Cycle   4  Pass 0  IDiag  1:
 RMSU=  1.04D-03    CP:  9.73D-01  1.72D+00  6.54D-01
 E= -3275.16024606893     Delta-E=       -0.025892946038 Rises=F Damp=F
 DIIS: error= 9.97D-03 at cycle   4 NSaved=   4.
 NSaved= 4 IEnMin= 4 EnMin= -3275.16024606893     IErMin= 4 ErrMin= 9.97D-03
 ErrMax= 9.97D-03  0.00D+00 EMaxC= 1.00D-01 BMatC= 3.29D-02 BMatP= 6.62D-02
 IDIUse=3 WtCom= 9.00D-01 WtEn= 9.97D-02
 Coeff-Com:  0.402D+00-0.503D+00 0.633D+00 0.468D+00
 Coeff-En:   0.000D+00 0.000D+00 0.323D+00 0.677D+00
 Coeff:      0.362D+00-0.453D+00 0.602D+00 0.489D+00
 Gap=     0.209 Goal=   None    Shift=    0.000
 RMSDP=6.95D-04 MaxDP=2.81D-02 DE=-2.59D-02 OVMax= 4.26D-02

 Cycle   5  Pass 0  IDiag  1:
 RMSU=  1.99D-04    CP:  9.73D-01  1.71D+00  9.09D-01  4.39D-01
 E= -3275.18779628090     Delta-E=       -0.027550211968 Rises=F Damp=F
 DIIS: error= 2.30D-03 at cycle   5 NSaved=   5.
 NSaved= 5 IEnMin= 5 EnMin= -3275.18779628090     IErMin= 5 ErrMin= 2.30D-03
 ErrMax= 2.30D-03  0.00D+00 EMaxC= 1.00D-01 BMatC= 1.50D-03 BMatP= 3.29D-02
 IDIUse=3 WtCom= 9.77D-01 WtEn= 2.30D-02
 Coeff-Com:  0.175D+00-0.225D+00 0.285D+00 0.273D+00 0.492D+00
 Coeff-En:   0.000D+00 0.000D+00 0.000D+00 0.000D+00 0.100D+01
 Coeff:      0.171D+00-0.219D+00 0.278D+00 0.266D+00 0.503D+00
 Gap=     0.199 Goal=   None    Shift=    0.000
 RMSDP=1.41D-04 MaxDP=5.31D-03 DE=-2.76D-02 OVMax= 1.01D-02

 Cycle   6  Pass 0  IDiag  1:
 RMSU=  6.73D-05    CP:  9.73D-01  1.75D+00  8.88D-01  4.74D-01  4.63D-01
 E= -3275.18893857128     Delta-E=       -0.001142290381 Rises=F Damp=F
 DIIS: error= 5.20D-04 at cycle   6 NSaved=   6.
 NSaved= 6 IEnMin= 6 EnMin= -3275.18893857128     IErMin= 6 ErrMin= 5.20D-04
 ErrMax= 5.20D-04  0.00D+00 EMaxC= 1.00D-01 BMatC= 8.92D-05 BMatP= 1.50D-03
 IDIUse=3 WtCom= 9.95D-01 WtEn= 5.20D-03
 Coeff-Com:  0.668D-01-0.867D-01 0.102D+00 0.972D-01 0.262D+00 0.559D+00
 Coeff-En:   0.000D+00 0.000D+00 0.000D+00 0.000D+00 0.000D+00 0.100D+01
 Coeff:      0.665D-01-0.862D-01 0.101D+00 0.967D-01 0.260D+00 0.562D+00
 Gap=     0.198 Goal=   None    Shift=    0.000
 RMSDP=4.10D-05 MaxDP=1.35D-03 DE=-1.14D-03 OVMax= 3.07D-03

 Cycle   7  Pass 0  IDiag  1:
 RMSU=  2.08D-05    CP:  9.73D-01  1.74D+00  8.95D-01  4.79D-01  5.37D-01
                    CP:  5.61D-01
 E= -3275.18901449445     Delta-E=       -0.000075923170 Rises=F Damp=F
 DIIS: error= 1.07D-04 at cycle   7 NSaved=   7.
 NSaved= 7 IEnMin= 7 EnMin= -3275.18901449445     IErMin= 7 ErrMin= 1.07D-04
 ErrMax= 1.07D-04  0.00D+00 EMaxC= 1.00D-01 BMatC= 7.53D-06 BMatP= 8.92D-05
 IDIUse=3 WtCom= 9.99D-01 WtEn= 1.07D-03
 Coeff-Com:  0.246D-01-0.323D-01 0.336D-01 0.297D-01 0.101D+00 0.301D+00
 Coeff-Com:  0.542D+00
 Coeff-En:   0.000D+00 0.000D+00 0.000D+00 0.000D+00 0.000D+00 0.000D+00
 Coeff-En:   0.100D+01
 Coeff:      0.246D-01-0.323D-01 0.336D-01 0.297D-01 0.101D+00 0.301D+00
 Coeff:      0.542D+00
 Gap=     0.198 Goal=   None    Shift=    0.000
 RMSDP=1.26D-05 MaxDP=4.47D-04 DE=-7.59D-05 OVMax= 1.10D-03

 Cycle   8  Pass 0  IDiag  1:
 RMSU=  7.88D-06    CP:  9.73D-01  1.74D+00  8.97D-01  4.78D-01  5.28D-01
                    CP:  6.15D-01  5.86D-01
 E= -3275.18902075944     Delta-E=       -0.000006264990 Rises=F Damp=F
 DIIS: error= 5.92D-05 at cycle   8 NSaved=   8.
 NSaved= 8 IEnMin= 8 EnMin= -3275.18902075944     IErMin= 8 ErrMin= 5.92D-05
 ErrMax= 5.92D-05  0.00D+00 EMaxC= 1.00D-01 BMatC= 1.20D-06 BMatP= 7.53D-06
 IDIUse=1 WtCom= 1.00D+00 WtEn= 0.00D+00
 Coeff-Com:  0.720D-02-0.959D-02 0.795D-02 0.517D-02 0.257D-01 0.101D+00
 Coeff-Com:  0.322D+00 0.541D+00
 Coeff:      0.720D-02-0.959D-02 0.795D-02 0.517D-02 0.257D-01 0.101D+00
 Coeff:      0.322D+00 0.541D+00
 Gap=     0.198 Goal=   None    Shift=    0.000
 RMSDP=4.66D-06 MaxDP=1.60D-04 DE=-6.26D-06 OVMax= 4.07D-04

 Initial convergence to 1.0D-05 achieved.  Increase integral accuracy.
 Cycle   9  Pass 1  IDiag  1:
 E= -3275.18902785974     Delta-E=       -0.000007100301 Rises=F Damp=F
 DIIS: error= 4.05D-05 at cycle   1 NSaved=   1.
 NSaved= 1 IEnMin= 1 EnMin= -3275.18902785974     IErMin= 1 ErrMin= 4.05D-05
 ErrMax= 4.05D-05  0.00D+00 EMaxC= 1.00D-01 BMatC= 3.10D-07 BMatP= 3.10D-07
 IDIUse=1 WtCom= 1.00D+00 WtEn= 0.00D+00
 Coeff-Com:  0.100D+01
 Coeff:      0.100D+01
 Gap=     0.198 Goal=   None    Shift=    0.000
 RMSDP=4.66D-06 MaxDP=1.60D-04 DE=-7.10D-06 OVMax= 2.25D-04

 Cycle  10  Pass 1  IDiag  1:
 RMSU=  1.36D-05    CP:  1.00D+00
 E= -3275.18902781910     Delta-E=        0.000000040639 Rises=F Damp=F
 DIIS: error= 2.58D-05 at cycle   2 NSaved=   2.
 NSaved= 2 IEnMin= 1 EnMin= -3275.18902785974     IErMin= 2 ErrMin= 2.58D-05
 ErrMax= 2.58D-05  0.00D+00 EMaxC= 1.00D-01 BMatC= 2.88D-07 BMatP= 3.10D-07
 IDIUse=1 WtCom= 1.00D+00 WtEn= 0.00D+00
 Coeff-Com:  0.488D+00 0.512D+00
 Coeff:      0.488D+00 0.512D+00
 Gap=     0.198 Goal=   None    Shift=    0.000
 RMSDP=2.96D-06 MaxDP=1.15D-04 DE= 4.06D-08 OVMax= 2.39D-04

 Cycle  11  Pass 1  IDiag  1:
 RMSU=  2.91D-06    CP:  1.00D+00  9.63D-01
 E= -3275.18902798646     Delta-E=       -0.000000167361 Rises=F Damp=F
 DIIS: error= 1.67D-05 at cycle   3 NSaved=   3.
 NSaved= 3 IEnMin= 3 EnMin= -3275.18902798646     IErMin= 3 ErrMin= 1.67D-05
 ErrMax= 1.67D-05  0.00D+00 EMaxC= 1.00D-01 BMatC= 1.12D-07 BMatP= 2.88D-07
 IDIUse=1 WtCom= 1.00D+00 WtEn= 0.00D+00
 Coeff-Com:  0.569D-01 0.376D+00 0.567D+00
 Coeff:      0.569D-01 0.376D+00 0.567D+00
 Gap=     0.198 Goal=   None    Shift=    0.000
 RMSDP=1.32D-06 MaxDP=5.98D-05 DE=-1.67D-07 OVMax= 9.46D-05

 Cycle  12  Pass 1  IDiag  1:
 RMSU=  6.62D-07    CP:  1.00D+00  9.83D-01  6.18D-01
 E= -3275.18902807943     Delta-E=       -0.000000092966 Rises=F Damp=F
 DIIS: error= 5.70D-06 at cycle   4 NSaved=   4.
 NSaved= 4 IEnMin= 4 EnMin= -3275.18902807943     IErMin= 4 ErrMin= 5.70D-06
 ErrMax= 5.70D-06  0.00D+00 EMaxC= 1.00D-01 BMatC= 1.11D-08 BMatP= 1.12D-07
 IDIUse=1 WtCom= 1.00D+00 WtEn= 0.00D+00
 Coeff-Com:  0.763D-03 0.205D+00 0.363D+00 0.431D+00
 Coeff:      0.763D-03 0.205D+00 0.363D+00 0.431D+00
 Gap=     0.198 Goal=   None    Shift=    0.000
 RMSDP=3.96D-07 MaxDP=1.82D-05 DE=-9.30D-08 OVMax= 2.55D-05

 Cycle  13  Pass 1  IDiag  1:
 RMSU=  1.29D-07    CP:  1.00D+00  9.85D-01  6.35D-01  4.40D-01
 E= -3275.18902808875     Delta-E=       -0.000000009324 Rises=F Damp=F
 DIIS: error= 8.60D-07 at cycle   5 NSaved=   5.
 NSaved= 5 IEnMin= 5 EnMin= -3275.18902808875     IErMin= 5 ErrMin= 8.60D-07
 ErrMax= 8.60D-07  0.00D+00 EMaxC= 1.00D-01 BMatC= 4.65D-10 BMatP= 1.11D-08
 IDIUse=1 WtCom= 1.00D+00 WtEn= 0.00D+00
 Coeff-Com: -0.172D-02 0.115D+00 0.208D+00 0.273D+00 0.405D+00
 Coeff:     -0.172D-02 0.115D+00 0.208D+00 0.273D+00 0.405D+00
 Gap=     0.198 Goal=   None    Shift=    0.000
 RMSDP=7.62D-08 MaxDP=3.11D-06 DE=-9.32D-09 OVMax= 5.58D-06

 Cycle  14  Pass 1  IDiag  1:
 RMSU=  4.03D-08    CP:  1.00D+00  9.85D-01  6.37D-01  4.54D-01  5.04D-01
 E= -3275.18902808908     Delta-E=       -0.000000000327 Rises=F Damp=F
 DIIS: error= 1.17D-07 at cycle   6 NSaved=   6.
 NSaved= 6 IEnMin= 6 EnMin= -3275.18902808908     IErMin= 6 ErrMin= 1.17D-07
 ErrMax= 1.17D-07  0.00D+00 EMaxC= 1.00D-01 BMatC= 1.25D-11 BMatP= 4.65D-10
 IDIUse=1 WtCom= 1.00D+00 WtEn= 0.00D+00
 Coeff-Com: -0.962D-03 0.544D-01 0.982D-01 0.131D+00 0.227D+00 0.491D+00
 Coeff:     -0.962D-03 0.544D-01 0.982D-01 0.131D+00 0.227D+00 0.491D+00
 Gap=     0.198 Goal=   None    Shift=    0.000
 RMSDP=1.58D-08 MaxDP=6.06D-07 DE=-3.27D-10 OVMax= 1.19D-06

 Cycle  15  Pass 1  IDiag  1:
 RMSU=  1.16D-08    CP:  1.00D+00  9.85D-01  6.36D-01  4.57D-01  5.21D-01
                    CP:  7.53D-01
 E= -3275.18902808911     Delta-E=       -0.000000000031 Rises=F Damp=F
 DIIS: error= 3.59D-08 at cycle   7 NSaved=   7.
 NSaved= 7 IEnMin= 7 EnMin= -3275.18902808911     IErMin= 7 ErrMin= 3.59D-08
 ErrMax= 3.59D-08  0.00D+00 EMaxC= 1.00D-01 BMatC= 8.88D-13 BMatP= 1.25D-11
 IDIUse=1 WtCom= 1.00D+00 WtEn= 0.00D+00
 Coeff-Com: -0.327D-03 0.166D-01 0.299D-01 0.401D-01 0.773D-01 0.256D+00
 Coeff-Com:  0.581D+00
 Coeff:     -0.327D-03 0.166D-01 0.299D-01 0.401D-01 0.773D-01 0.256D+00
 Coeff:      0.581D+00
 Gap=     0.198 Goal=   None    Shift=    0.000
 RMSDP=4.19D-09 MaxDP=1.84D-07 DE=-3.09D-11 OVMax= 2.31D-07

 SCF Done:  E(RB3LYP) =  -3275.18902809     A.U. after   15 cycles
            NFock= 15  Conv=0.42D-08     -V/T= 2.0067
 KE= 3.253516131660D+03 PE=-1.030205838236D+04 EE= 2.510363672034D+03
 Leave Link  502 at Tue Sep 17 09:55:32 2024, MaxMem=  1342177280 cpu:              80.4 elap:              10.9
 (Enter /groups/ReismanLab/Software/Gaussian16_RevC/Linux_Binary_AVX2-enabled-CPU/g16/l508.exe)
 QCSCF skips out because SCF is already converged.
 Leave Link  508 at Tue Sep 17 09:55:32 2024, MaxMem=  1342177280 cpu:               0.0 elap:               0.0
 (Enter /groups/ReismanLab/Software/Gaussian16_RevC/Linux_Binary_AVX2-enabled-CPU/g16/l601.exe)
 Copying SCF densities to generalized density rwf, IOpCl= 0 IROHF=0.

 **********************************************************************

            Population analysis using the SCF Density.

 **********************************************************************

 Orbital symmetries:
       Occupied  (A) (A) (A) (A) (A) (A) (A) (A) (A) (A) (A) (A)
                 (A) (A) (A) (A) (A) (A) (A) (A) (A) (A) (A) (A)
                 (A) (A) (A) (A) (A) (A) (A) (A) (A) (A) (A) (A)
                 (A) (A) (A) (A) (A) (A) (A) (A) (A) (A) (A) (A)
                 (A) (A) (A) (A) (A) (A) (A) (A) (A) (A) (A) (A)
                 (A) (A) (A) (A) (A) (A) (A) (A)
       Virtual   (A) (A) (A) (A) (A) (A) (A) (A) (A) (A) (A) (A)
                 (A) (A) (A) (A) (A) (A) (A) (A) (A) (A) (A) (A)
                 (A) (A) (A) (A) (A) (A) (A) (A) (A) (A) (A) (A)
                 (A) (A) (A) (A) (A) (A) (A) (A) (A) (A) (A) (A)
                 (A) (A) (A) (A) (A) (A) (A) (A) (A) (A) (A) (A)
                 (A) (A) (A) (A) (A) (A) (A) (A) (A) (A) (A) (A)
                 (A) (A) (A) (A) (A) (A) (A) (A) (A) (A) (A) (A)
                 (A) (A) (A) (A) (A) (A) (A) (A) (A) (A) (A) (A)
                 (A) (A) (A) (A) (A) (A) (A) (A) (A) (A) (A) (A)
                 (A) (A) (A) (A) (A) (A) (A) (A) (A) (A) (A) (A)
                 (A) (A) (A) (A) (A) (A) (A) (A) (A) (A) (A) (A)
                 (A) (A) (A) (A) (A) (A) (A) (A) (A) (A) (A) (A)
                 (A) (A) (A) (A) (A) (A) (A) (A) (A) (A) (A) (A)
                 (A) (A) (A) (A) (A) (A) (A) (A) (A) (A) (A) (A)
                 (A) (A) (A) (A) (A) (A) (A) (A) (A) (A) (A) (A)
                 (A) (A) (A) (A) (A) (A) (A) (A) (A) (A) (A) (A)
                 (A) (A) (A) (A) (A) (A) (A) (A) (A) (A) (A) (A)
                 (A) (A) (A) (A) (A) (A) (A) (A)
 The electronic state is 1-A.
 Alpha  occ. eigenvalues -- -482.93061 -61.89225 -56.41371 -56.40943 -56.40940
 Alpha  occ. eigenvalues --  -19.20445 -19.19917 -19.14286 -19.14259 -14.35223
 Alpha  occ. eigenvalues --  -10.32360 -10.32255 -10.27767 -10.25582 -10.25434
 Alpha  occ. eigenvalues --  -10.24850 -10.24102 -10.22936 -10.22754  -8.60368
 Alpha  occ. eigenvalues --   -6.55783  -6.54493  -6.54438  -2.67353  -2.66991
 Alpha  occ. eigenvalues --   -2.66949  -2.65918  -2.65918  -1.12046  -1.11918
 Alpha  occ. eigenvalues --   -1.02868  -1.02771  -0.97941  -0.86450  -0.81597
 Alpha  occ. eigenvalues --   -0.77555  -0.75282  -0.73714  -0.67357  -0.65726
 Alpha  occ. eigenvalues --   -0.58455  -0.57524  -0.54928  -0.53012  -0.51072
 Alpha  occ. eigenvalues --   -0.50565  -0.49637  -0.49114  -0.47459  -0.46842
 Alpha  occ. eigenvalues --   -0.44318  -0.43766  -0.43481  -0.41312  -0.41138
 Alpha  occ. eigenvalues --   -0.40517  -0.39461  -0.36889  -0.35299  -0.35099
 Alpha  occ. eigenvalues --   -0.31193  -0.30565  -0.30556  -0.29867  -0.28854
 Alpha  occ. eigenvalues --   -0.28110  -0.27838  -0.26904
 Alpha virt. eigenvalues --   -0.07079  -0.06411  -0.00957   0.01729   0.07144
 Alpha virt. eigenvalues --    0.10564   0.11670   0.12218   0.12893   0.14357
 Alpha virt. eigenvalues --    0.15116   0.15268   0.15508   0.16355   0.17082
 Alpha virt. eigenvalues --    0.17165   0.21269   0.23296   0.25151   0.25491
 Alpha virt. eigenvalues --    0.27851   0.29384   0.30587   0.32032   0.35376
 Alpha virt. eigenvalues --    0.37136   0.38331   0.41927   0.42350   0.44412
 Alpha virt. eigenvalues --    0.44591   0.46637   0.46868   0.48281   0.48954
 Alpha virt. eigenvalues --    0.50319   0.50656   0.51301   0.51926   0.52524
 Alpha virt. eigenvalues --    0.53144   0.54601   0.55309   0.57217   0.59320
 Alpha virt. eigenvalues --    0.59735   0.60162   0.63311   0.63588   0.65286
 Alpha virt. eigenvalues --    0.65710   0.66182   0.67288   0.71853   0.72055
 Alpha virt. eigenvalues --    0.73722   0.74506   0.74967   0.76146   0.76805
 Alpha virt. eigenvalues --    0.77002   0.81096   0.81976   0.82298   0.82827
 Alpha virt. eigenvalues --    0.83812   0.84842   0.85875   0.86006   0.88273
 Alpha virt. eigenvalues --    0.89214   0.89635   0.92533   0.93952   0.95601
 Alpha virt. eigenvalues --    0.96138   0.96869   0.98333   1.00308   1.02090
 Alpha virt. eigenvalues --    1.04674   1.05319   1.06768   1.10153   1.11154
 Alpha virt. eigenvalues --    1.15453   1.20489   1.22026   1.22865   1.26703
 Alpha virt. eigenvalues --    1.28386   1.29011   1.29853   1.31182   1.31823
 Alpha virt. eigenvalues --    1.32692   1.32843   1.35805   1.37684   1.44502
 Alpha virt. eigenvalues --    1.45122   1.46607   1.49267   1.50457   1.50843
 Alpha virt. eigenvalues --    1.53422   1.55145   1.58898   1.59462   1.63336
 Alpha virt. eigenvalues --    1.64713   1.67762   1.69743   1.72391   1.73672
 Alpha virt. eigenvalues --    1.74469   1.77996   1.80241   1.83893   1.85128
 Alpha virt. eigenvalues --    1.85731   1.86676   1.88504   1.91557   1.91748
 Alpha virt. eigenvalues --    1.92553   1.93561   1.94251   1.95634   1.98100
 Alpha virt. eigenvalues --    1.98463   2.00392   2.00711   2.01861   2.02742
 Alpha virt. eigenvalues --    2.03182   2.04339   2.04537   2.05154   2.06927
 Alpha virt. eigenvalues --    2.07648   2.08594   2.11484   2.12691   2.16108
 Alpha virt. eigenvalues --    2.20163   2.27564   2.29057   2.31615   2.32429
 Alpha virt. eigenvalues --    2.38228   2.39564   2.41981   2.42440   2.43683
 Alpha virt. eigenvalues --    2.47575   2.49361   2.49571   2.51249   2.52946
 Alpha virt. eigenvalues --    2.54865   2.58445   2.59107   2.61102   2.62467
 Alpha virt. eigenvalues --    2.63929   2.65382   2.68184   2.69490   2.70443
 Alpha virt. eigenvalues --    2.72015   2.74753   2.78511   2.81621   2.83993
 Alpha virt. eigenvalues --    2.86222   2.88669   2.89302   2.91498   2.93636
 Alpha virt. eigenvalues --    2.96062   2.97846   2.99254   3.09277   3.15581
 Alpha virt. eigenvalues --    3.18561   3.19893   3.22573   3.29059   3.30826
 Alpha virt. eigenvalues --    3.40185   3.40563   3.41643   3.42979   3.43914
 Alpha virt. eigenvalues --    3.67367   3.94896   4.00984   4.06996   4.10559
 Alpha virt. eigenvalues --    4.19832   4.23671   4.27518   4.35979   4.43152
 Alpha virt. eigenvalues --    4.44937   4.55494   4.61207   4.66023   4.74937
 Alpha virt. eigenvalues --    8.58848  72.80707
          Condensed to atoms (all electrons):
               1          2          3          4          5          6
     1  C    4.721506   0.215618  -0.023148   0.003152   0.008285  -0.000676
     2  O    0.215618   8.254154   0.272450  -0.088522  -0.106471   0.008511
     3  C   -0.023148   0.272450   4.409193   0.571661   0.307559  -0.077830
     4  O    0.003152  -0.088522   0.571661   8.017804  -0.071122   0.003882
     5  C    0.008285  -0.106471   0.307559  -0.071122   4.940194   0.399908
     6  C   -0.000676   0.008511  -0.077830   0.003882   0.399908   5.109352
     7  C   -0.000005   0.000693   0.003277  -0.000063  -0.014171   0.468222
     8  Br  -0.000000  -0.000003  -0.000128   0.000000   0.005464  -0.061332
     9  C    0.000001  -0.000004   0.000116  -0.000026  -0.053966  -0.026327
    10  C    0.000002  -0.000025   0.006423   0.000598  -0.017620  -0.054339
    11  C   -0.000000   0.000000  -0.000059   0.000012   0.005009   0.000201
    12  O    0.000000  -0.000000   0.000000  -0.000000  -0.000084  -0.000011
    13  O    0.000000  -0.000000   0.000011  -0.000001   0.000036  -0.000029
    14  C   -0.000000   0.000000  -0.000001   0.000000   0.000017   0.000001
    15  N   -0.000096   0.001668  -0.070507   0.000787   0.445090  -0.064741
    16  H    0.389569  -0.032841   0.004194   0.000701   0.000076  -0.000075
    17  H    0.385372  -0.032226  -0.005345   0.006350  -0.000011   0.000039
    18  H    0.385605  -0.031818  -0.005639   0.006309  -0.000299   0.000069
    19  H   -0.000234   0.010714  -0.005012   0.000178  -0.031795   0.367106
    20  H    0.000000  -0.000000   0.000019  -0.000000   0.000015   0.005178
    21  H   -0.000000   0.000000  -0.000000   0.000000  -0.000000   0.000000
    22  H   -0.000000   0.000000   0.000000   0.000000  -0.000000  -0.000000
    23  H   -0.000000   0.000000   0.000000   0.000000   0.000003  -0.000000
               7          8          9         10         11         12
     1  C   -0.000005  -0.000000   0.000001   0.000002  -0.000000   0.000000
     2  O    0.000693  -0.000003  -0.000004  -0.000025   0.000000  -0.000000
     3  C    0.003277  -0.000128   0.000116   0.006423  -0.000059   0.000000
     4  O   -0.000063   0.000000  -0.000026   0.000598   0.000012  -0.000000
     5  C   -0.014171   0.005464  -0.053966  -0.017620   0.005009  -0.000084
     6  C    0.468222  -0.061332  -0.026327  -0.054339   0.000201  -0.000011
     7  C    4.865184   0.274056   0.460544  -0.018370   0.005653   0.001167
     8  Br   0.274056  34.934638  -0.062782   0.005393  -0.000136   0.000002
     9  C    0.460544  -0.062782   5.107716   0.405351  -0.074804   0.008317
    10  C   -0.018370   0.005393   0.405351   4.979827   0.292121  -0.097419
    11  C    0.005653  -0.000136  -0.074804   0.292121   4.405353   0.574163
    12  O    0.001167   0.000002   0.008317  -0.097419   0.574163   8.050941
    13  O   -0.000020   0.000000   0.004747  -0.088100   0.285073  -0.082080
    14  C    0.000000  -0.000000  -0.000152   0.007129  -0.024683  -0.014022
    15  N   -0.031156  -0.000044  -0.061488   0.410915  -0.063612   0.002252
    16  H   -0.000001  -0.000000   0.000000  -0.000000   0.000000  -0.000000
    17  H    0.000001  -0.000000   0.000000  -0.000000  -0.000000   0.000000
    18  H    0.000002  -0.000000   0.000000  -0.000000  -0.000000   0.000000
    19  H   -0.041677  -0.002900   0.005385   0.000029   0.000017  -0.000000
    20  H   -0.040371  -0.002886   0.366665  -0.034079  -0.004880   0.012831
    21  H   -0.000000   0.000000   0.000004  -0.000045   0.001313   0.000418
    22  H   -0.000000   0.000000   0.000006  -0.000121   0.000341   0.000457
    23  H    0.000000  -0.000000  -0.000050   0.000241  -0.010076   0.025229
              13         14         15         16         17         18
     1  C    0.000000  -0.000000  -0.000096   0.389569   0.385372   0.385605
     2  O   -0.000000   0.000000   0.001668  -0.032841  -0.032226  -0.031818
     3  C    0.000011  -0.000001  -0.070507   0.004194  -0.005345  -0.005639
     4  O   -0.000001   0.000000   0.000787   0.000701   0.006350   0.006309
     5  C    0.000036   0.000017   0.445090   0.000076  -0.000011  -0.000299
     6  C   -0.000029   0.000001  -0.064741  -0.000075   0.000039   0.000069
     7  C   -0.000020   0.000000  -0.031156  -0.000001   0.000001   0.000002
     8  Br   0.000000  -0.000000  -0.000044  -0.000000  -0.000000  -0.000000
     9  C    0.004747  -0.000152  -0.061488   0.000000   0.000000   0.000000
    10  C   -0.088100   0.007129   0.410915  -0.000000  -0.000000  -0.000000
    11  C    0.285073  -0.024683  -0.063612   0.000000  -0.000000  -0.000000
    12  O   -0.082080  -0.014022   0.002252  -0.000000   0.000000   0.000000
    13  O    8.189809   0.220586   0.000218  -0.000000   0.000000   0.000000
    14  C    0.220586   4.762476  -0.000354   0.000000   0.000000   0.000000
    15  N    0.000218  -0.000354   6.912785   0.000001  -0.000004   0.000005
    16  H   -0.000000   0.000000   0.000001   0.580693  -0.032668  -0.032470
    17  H    0.000000   0.000000  -0.000004  -0.032668   0.582158  -0.037850
    18  H    0.000000   0.000000   0.000005  -0.032470  -0.037850   0.581127
    19  H   -0.000000   0.000000   0.004540  -0.000060   0.000026   0.000037
    20  H    0.000299  -0.000006   0.004806  -0.000000   0.000000   0.000000
    21  H   -0.033866   0.391743   0.000003   0.000000  -0.000000   0.000000
    22  H   -0.033593   0.391054   0.000006   0.000000   0.000000  -0.000000
    23  H   -0.032107   0.373018  -0.000032   0.000000   0.000000   0.000000
              19         20         21         22         23
     1  C   -0.000234   0.000000  -0.000000  -0.000000  -0.000000
     2  O    0.010714  -0.000000   0.000000   0.000000   0.000000
     3  C   -0.005012   0.000019  -0.000000   0.000000   0.000000
     4  O    0.000178  -0.000000   0.000000   0.000000   0.000000
     5  C   -0.031795   0.000015  -0.000000  -0.000000   0.000003
     6  C    0.367106   0.005178   0.000000  -0.000000  -0.000000
     7  C   -0.041677  -0.040371  -0.000000  -0.000000   0.000000
     8  Br  -0.002900  -0.002886   0.000000   0.000000  -0.000000
     9  C    0.005385   0.366665   0.000004   0.000006  -0.000050
    10  C    0.000029  -0.034079  -0.000045  -0.000121   0.000241
    11  C    0.000017  -0.004880   0.001313   0.000341  -0.010076
    12  O   -0.000000   0.012831   0.000418   0.000457   0.025229
    13  O   -0.000000   0.000299  -0.033866  -0.033593  -0.032107
    14  C    0.000000  -0.000006   0.391743   0.391054   0.373018
    15  N    0.004540   0.004806   0.000003   0.000006  -0.000032
    16  H   -0.000060  -0.000000   0.000000   0.000000   0.000000
    17  H    0.000026   0.000000  -0.000000   0.000000   0.000000
    18  H    0.000037   0.000000   0.000000  -0.000000   0.000000
    19  H    0.553140  -0.000085  -0.000000  -0.000000   0.000000
    20  H   -0.000085   0.544337   0.000000   0.000000  -0.000014
    21  H   -0.000000   0.000000   0.575201  -0.036895  -0.029613
    22  H   -0.000000   0.000000  -0.036895   0.579342  -0.030919
    23  H    0.000000  -0.000014  -0.029613  -0.030919   0.556616
 Mulliken charges:
               1
     1  C   -0.084950
     2  O   -0.471899
     3  C    0.612764
     4  O   -0.451700
     5  C    0.183883
     6  C   -0.077109
     7  C    0.067035
     8  Br  -0.089342
     9  C   -0.079254
    10  C    0.202087
    11  C    0.608995
    12  O   -0.482161
    13  O   -0.430984
    14  C   -0.106807
    15  N   -0.491045
    16  H    0.122881
    17  H    0.134157
    18  H    0.134922
    19  H    0.140589
    20  H    0.148172
    21  H    0.131738
    22  H    0.130325
    23  H    0.147705
 Sum of Mulliken charges =  -0.00000
 Mulliken charges with hydrogens summed into heavy atoms:
               1
     1  C    0.307010
     2  O   -0.471899
     3  C    0.612764
     4  O   -0.451700
     5  C    0.183883
     6  C    0.063480
     7  C    0.067035
     8  Br  -0.089342
     9  C    0.068918
    10  C    0.202087
    11  C    0.608995
    12  O   -0.482161
    13  O   -0.430984
    14  C    0.302960
    15  N   -0.491045
 Electronic spatial extent (au):  <R**2>=           5330.2098
 Charge=              0.0000 electrons
 Dipole moment (field-independent basis, Debye):
    X=              1.6537    Y=              0.9388    Z=              0.2770  Tot=              1.9217
 Quadrupole moment (field-independent basis, Debye-Ang):
   XX=            -83.3728   YY=            -97.6268   ZZ=            -95.1283
   XY=              7.3616   XZ=             -0.5942   YZ=              1.3038
 Traceless Quadrupole moment (field-independent basis, Debye-Ang):
   XX=              8.6698   YY=             -5.5842   ZZ=             -3.0857
   XY=              7.3616   XZ=             -0.5942   YZ=              1.3038
 Octapole moment (field-independent basis, Debye-Ang**2):
  XXX=            -18.0012  YYY=             -8.0192  ZZZ=             -0.2779  XYY=             87.2894
  XXY=              3.6728  XXZ=              0.7926  XZZ=             12.9088  YZZ=            -12.4015
  YYZ=              5.8743  XYZ=             -1.0687
 Hexadecapole moment (field-independent basis, Debye-Ang**3):
 XXXX=          -2648.3714 YYYY=          -2613.7857 ZZZZ=           -105.5586 XXXY=           -151.0036
 XXXZ=             -1.5727 YYYX=             11.5408 YYYZ=             25.8900 ZZZX=             -1.6092
 ZZZY=             -1.7440 XXYY=           -991.8838 XXZZ=           -542.5279 YYZZ=           -474.8608
 XXYZ=              1.6530 YYXZ=             -0.7566 ZZXY=            -40.9324
 N-N= 1.262989550579D+03 E-N=-1.030205837713D+04  KE= 3.253516131660D+03
 No NMR shielding tensors so no spin-rotation constants.
 Leave Link  601 at Tue Sep 17 09:55:32 2024, MaxMem=  1342177280 cpu:               0.5 elap:               0.1
 (Enter /groups/ReismanLab/Software/Gaussian16_RevC/Linux_Binary_AVX2-enabled-CPU/g16/l701.exe)
 ... and contract with generalized density number  0.
 Compute integral first derivatives.
 R6Disp: Adding Grimme-D3(BJ) dispersion energy 1st derivatives to the gradient.
 Leave Link  701 at Tue Sep 17 09:55:32 2024, MaxMem=  1342177280 cpu:               0.5 elap:               0.1
 (Enter /groups/ReismanLab/Software/Gaussian16_RevC/Linux_Binary_AVX2-enabled-CPU/g16/l702.exe)
 L702 exits ... SP integral derivatives will be done elsewhere.
 Leave Link  702 at Tue Sep 17 09:55:32 2024, MaxMem=  1342177280 cpu:               0.1 elap:               0.0
 (Enter /groups/ReismanLab/Software/Gaussian16_RevC/Linux_Binary_AVX2-enabled-CPU/g16/l703.exe)
 Integral derivatives from FoFJK, PRISM(SPDF).
 Compute integral first derivatives, UseDBF=F ICtDFT=           0.
 Calling FoFJK, ICntrl=      2127 FMM=F ISym2X=0 I1Cent= 0 IOpClX= 0 NMat=1 NMatS=1 NMatT=0.
 FoFJK:  IHMeth= 1 ICntrl=    2127 DoSepK=F KAlg= 0 I1Cent=           0 FoldK=F
 IRaf=         0 NMat=       1 IRICut=       1 DoRegI=T DoRafI=F ISym2E= 0 IDoP0=0 IntGTp=1.
 FoFCou: FMM=F IPFlag=           0 FMFlag=      100000 FMFlg1=         800
         NFxFlg=           0 DoJE=F BraDBF=F KetDBF=F FulRan=T
         wScrn=  0.000000 ICntrl=      2127 IOpCl=  0 I1Cent=           0 NGrid=           0
         NMat0=    1 NMatS0=      1 NMatT0=    0 NMatD0=    1 NMtDS0=    0 NMtDT0=    0
 Symmetry not used in FoFCou.
 Leave Link  703 at Tue Sep 17 09:55:36 2024, MaxMem=  1342177280 cpu:              26.1 elap:               3.5
 (Enter /groups/ReismanLab/Software/Gaussian16_RevC/Linux_Binary_AVX2-enabled-CPU/g16/l716.exe)
 Dipole        = 6.50609089D-01 3.69366177D-01 1.08960952D-01
 ***** Axes restored to original set *****
 -------------------------------------------------------------------
 Center     Atomic                   Forces (Hartrees/Bohr)
 Number     Number              X              Y              Z
 -------------------------------------------------------------------
      1        6           0.005397679   -0.003710506   -0.000828169
      2        8          -0.012654306   -0.002443001    0.002253051
      3        6          -0.006875733    0.003291752    0.000597510
      4        8           0.017008364    0.001889866   -0.002426026
      5        6          -0.005210755   -0.006236221    0.000131554
      6        6          -0.001215923   -0.004145250    0.000323213
      7        6          -0.003740460    0.000349317   -0.000096273
      8       35          -0.001380763   -0.000043178    0.000003548
      9        6          -0.001799287    0.004856337    0.000072509
     10        6          -0.003793449    0.004284841    0.000203029
     11        6          -0.005577067   -0.008848459    0.000088884
     12        8          -0.010011840    0.013577868    0.000158259
     13        8           0.012164139   -0.008592487   -0.000119037
     14        6           0.000792979    0.009417275   -0.000363397
     15        7           0.016058513    0.000138373   -0.000695964
     16        1          -0.001210837   -0.001183550    0.000295594
     17        1           0.000818328   -0.000919068   -0.000513237
     18        1           0.000907798   -0.000690066    0.000420286
     19        1          -0.001289489   -0.002119780    0.000201663
     20        1          -0.001697316    0.001879078    0.000032493
     21        1           0.001178968   -0.000510417   -0.000927601
     22        1           0.000969011   -0.000249979    0.001137242
     23        1           0.001161446    0.000007256    0.000050869
 -------------------------------------------------------------------
 Cartesian Forces:  Max     0.017008364 RMS     0.004994329
 Leave Link  716 at Tue Sep 17 09:55:36 2024, MaxMem=  1342177280 cpu:               0.1 elap:               0.0
 (Enter /groups/ReismanLab/Software/Gaussian16_RevC/Linux_Binary_AVX2-enabled-CPU/g16/l103.exe)

 GradGradGradGradGradGradGradGradGradGradGradGradGradGradGradGradGradGrad
 Berny optimization.
 FormGI is forming the generalized inverse of G from B-inverse, IUseBI=4.
 GSVD:  received Info=                   1 from GESDD.
 Internal  Forces:  Max     0.017264662 RMS     0.004320234
 Search for a local minimum.
 Step number   1 out of a maximum of  107
 All quantities printed in internal units (Hartrees-Bohrs-Radians)
 RMS Force = .43202D-02 SwitMx=.10000D-02 MixMth= 1
 Mixed Optimization -- RFO/linear search
 Second derivative matrix not updated -- first step.
 ITU=  0
     Eigenvalues ---    0.00745   0.00765   0.01328   0.01398   0.01408
     Eigenvalues ---    0.01445   0.01768   0.01808   0.02206   0.02218
     Eigenvalues ---    0.02254   0.02281   0.02295   0.02479   0.02605
     Eigenvalues ---    0.02745   0.10310   0.10371   0.10624   0.10647
     Eigenvalues ---    0.16000   0.16000   0.16000   0.16000   0.16000
     Eigenvalues ---    0.16000   0.16000   0.16000   0.18301   0.23497
     Eigenvalues ---    0.23558   0.25000   0.25000   0.25000   0.25000
     Eigenvalues ---    0.25000   0.25000   0.25000   0.25000   0.25000
     Eigenvalues ---    0.25000   0.32210   0.32369   0.34616   0.34624
     Eigenvalues ---    0.34632   0.34771   0.34857   0.35192   0.36141
     Eigenvalues ---    0.36276   0.42134   0.42243   0.42789   0.45918
     Eigenvalues ---    0.46404   0.48013   0.57103   0.59009   0.60556
     Eigenvalues ---    0.61839   1.01415   1.05362
 RFO step:  Lambda=-3.15946032D-03 EMin= 7.44764682D-03
 Linear search not attempted -- first point.
 Iteration  1 RMS(Cart)=  0.05156831 RMS(Int)=  0.00032547
 Iteration  2 RMS(Cart)=  0.00069905 RMS(Int)=  0.00001125
 Iteration  3 RMS(Cart)=  0.00000041 RMS(Int)=  0.00001125
 ITry= 1 IFail=0 DXMaxC= 1.89D-01 DCOld= 1.00D+10 DXMaxT= 3.00D-01 DXLimC= 3.00D+00 Rises=F
 Variable       Old X    -DE/DX   Delta X   Delta X   Delta X     New X
                                 (Linear)    (Quad)   (Total)
    R1        2.68753   0.00872   0.00000   0.02054   0.02054   2.70807
    R2        2.05365   0.00171   0.00000   0.00481   0.00481   2.05845
    R3        2.06290   0.00091   0.00000   0.00261   0.00261   2.06551
    R4        2.06277   0.00090   0.00000   0.00257   0.00257   2.06534
    R5        2.53309   0.01122   0.00000   0.01953   0.01953   2.55262
    R6        2.26565   0.01726   0.00000   0.01634   0.01634   2.28199
    R7        2.83474   0.00506   0.00000   0.01549   0.01549   2.85024
    R8        2.63766   0.00589   0.00000   0.01272   0.01272   2.65038
    R9        2.49914   0.01333   0.00000   0.02242   0.02243   2.52157
   R10        2.61763   0.00605   0.00000   0.01152   0.01151   2.62914
   R11        2.03652   0.00245   0.00000   0.00671   0.00671   2.04323
   R12        3.58854   0.00138   0.00000   0.00740   0.00740   3.59595
   R13        2.61484   0.00514   0.00000   0.00954   0.00953   2.62437
   R14        2.63644   0.00525   0.00000   0.01124   0.01124   2.64768
   R15        2.03862   0.00250   0.00000   0.00685   0.00685   2.04547
   R16        2.83762   0.00463   0.00000   0.01422   0.01422   2.85184
   R17        2.49613   0.01390   0.00000   0.02315   0.02316   2.51930
   R18        2.28077   0.01682   0.00000   0.01654   0.01654   2.29731
   R19        2.49514   0.01623   0.00000   0.02611   0.02611   2.52125
   R20        2.68614   0.00953   0.00000   0.02239   0.02239   2.70853
   R21        2.05907   0.00147   0.00000   0.00419   0.00419   2.06327
   R22        2.06048   0.00146   0.00000   0.00417   0.00417   2.06465
   R23        2.06303  -0.00071   0.00000  -0.00203  -0.00203   2.06100
    A1        1.85350  -0.00083   0.00000  -0.00578  -0.00577   1.84772
    A2        1.92414   0.00139   0.00000   0.00894   0.00892   1.93306
    A3        1.92397   0.00111   0.00000   0.00709   0.00708   1.93104
    A4        1.93242  -0.00045   0.00000  -0.00334  -0.00333   1.92909
    A5        1.93187  -0.00039   0.00000  -0.00319  -0.00319   1.92869
    A6        1.89798  -0.00078   0.00000  -0.00351  -0.00355   1.89443
    A7        2.01829  -0.00106   0.00000  -0.00417  -0.00417   2.01411
    A8        2.16195   0.00145   0.00000   0.00571   0.00570   2.16765
    A9        1.94237  -0.00128   0.00000  -0.00506  -0.00507   1.93731
   A10        2.17886  -0.00017   0.00000  -0.00067  -0.00068   2.17819
   A11        2.11322  -0.00056   0.00000  -0.00310  -0.00310   2.11012
   A12        2.02177  -0.00021   0.00000  -0.00169  -0.00169   2.02008
   A13        2.14817   0.00077   0.00000   0.00477   0.00478   2.15295
   A14        2.05191   0.00052   0.00000  -0.00001  -0.00003   2.05189
   A15        2.10604   0.00012   0.00000   0.00233   0.00233   2.10838
   A16        2.12523  -0.00064   0.00000  -0.00231  -0.00231   2.12292
   A17        2.09266  -0.00054   0.00000  -0.00009  -0.00008   2.09258
   A18        2.09331   0.00141   0.00000   0.00146   0.00144   2.09475
   A19        2.09721  -0.00086   0.00000  -0.00137  -0.00135   2.09586
   A20        2.04929   0.00068   0.00000   0.00041   0.00039   2.04968
   A21        2.14310  -0.00077   0.00000  -0.00282  -0.00281   2.14029
   A22        2.09080   0.00009   0.00000   0.00241   0.00242   2.09321
   A23        2.06368  -0.00541   0.00000  -0.02213  -0.02213   2.04154
   A24        2.15287   0.00096   0.00000   0.00530   0.00531   2.15817
   A25        2.06664   0.00445   0.00000   0.01683   0.01683   2.08347
   A26        2.13839  -0.00289   0.00000  -0.01141  -0.01141   2.12697
   A27        1.95077   0.00285   0.00000   0.01125   0.01125   1.96201
   A28        2.19403   0.00004   0.00000   0.00016   0.00016   2.19419
   A29        2.06066  -0.00003   0.00000  -0.00011  -0.00011   2.06055
   A30        1.88229  -0.00074   0.00000  -0.00508  -0.00510   1.87720
   A31        1.89118  -0.00061   0.00000  -0.00428  -0.00430   1.88688
   A32        1.92459   0.00183   0.00000   0.01235   0.01235   1.93694
   A33        1.91474  -0.00037   0.00000  -0.00473  -0.00476   1.90998
   A34        1.92784  -0.00002   0.00000   0.00106   0.00106   1.92890
   A35        1.92241  -0.00012   0.00000   0.00043   0.00042   1.92283
   A36        2.07082  -0.00434   0.00000  -0.01193  -0.01190   2.05891
    D1       -3.14157  -0.00004   0.00000  -0.00087  -0.00087   3.14075
    D2       -1.04739  -0.00031   0.00000  -0.00340  -0.00343  -1.05082
    D3        1.04819   0.00032   0.00000   0.00249   0.00252   1.05072
    D4        0.00239  -0.00021   0.00000  -0.00586  -0.00585  -0.00345
    D5       -3.14153  -0.00033   0.00000  -0.01335  -0.01336   3.12830
    D6       -0.16577   0.00039   0.00000   0.03496   0.03495  -0.13082
    D7        2.98302   0.00042   0.00000   0.03658   0.03658   3.01959
    D8        2.97347   0.00027   0.00000   0.02739   0.02740   3.00087
    D9       -0.16093   0.00030   0.00000   0.02902   0.02902  -0.13191
   D10       -3.13359   0.00013   0.00000   0.00518   0.00518  -3.12842
   D11        0.00737   0.00011   0.00000   0.00469   0.00469   0.01206
   D12        0.00027   0.00009   0.00000   0.00340   0.00339   0.00367
   D13        3.14124   0.00007   0.00000   0.00291   0.00291  -3.13904
   D14        3.13573  -0.00005   0.00000  -0.00213  -0.00213   3.13359
   D15        0.00148  -0.00001   0.00000  -0.00043  -0.00043   0.00106
   D16        3.14031  -0.00006   0.00000  -0.00216  -0.00216   3.13815
   D17       -0.00094  -0.00010   0.00000  -0.00370  -0.00371  -0.00465
   D18       -0.00065  -0.00004   0.00000  -0.00167  -0.00167  -0.00232
   D19        3.14128  -0.00009   0.00000  -0.00321  -0.00322   3.13807
   D20       -0.00008   0.00003   0.00000   0.00125   0.00126   0.00117
   D21        3.14118   0.00004   0.00000   0.00130   0.00131  -3.14070
   D22       -3.14133  -0.00001   0.00000  -0.00030  -0.00029   3.14156
   D23       -0.00007  -0.00000   0.00000  -0.00025  -0.00024  -0.00032
   D24       -3.14081   0.00002   0.00000   0.00028   0.00029  -3.14052
   D25        0.00195   0.00005   0.00000   0.00191   0.00191   0.00386
   D26        0.00111   0.00001   0.00000   0.00023   0.00024   0.00135
   D27       -3.13932   0.00004   0.00000   0.00186   0.00186  -3.13746
   D28       -0.01774   0.00009   0.00000   0.00610   0.00609  -0.01165
   D29        3.12466   0.00001   0.00000   0.00158   0.00159   3.12625
   D30        3.12275   0.00006   0.00000   0.00455   0.00454   3.12729
   D31       -0.01804  -0.00002   0.00000   0.00003   0.00004  -0.01800
   D32       -0.00264  -0.00005   0.00000  -0.00232  -0.00232  -0.00495
   D33        3.14012  -0.00002   0.00000  -0.00066  -0.00064   3.13948
   D34        3.13787  -0.00002   0.00000   0.00039   0.00040   3.13828
   D35       -0.00289  -0.00010   0.00000  -0.00429  -0.00430  -0.00718
   D36       -2.18342  -0.00071   0.00000  -0.01225  -0.01223  -2.19565
   D37        2.02822   0.00047   0.00000  -0.00146  -0.00148   2.02674
   D38       -0.07705  -0.00011   0.00000  -0.00677  -0.00677  -0.08383
         Item               Value     Threshold  Converged?
 Maximum Force            0.017265     0.000450     NO 
 RMS     Force            0.004320     0.000300     NO 
 Maximum Displacement     0.189353     0.001800     NO 
 RMS     Displacement     0.051803     0.001200     NO 
 Predicted change in Energy=-1.597408D-03
 Lowest energy point so far.  Saving SCF results.
 GradGradGradGradGradGradGradGradGradGradGradGradGradGradGradGradGradGrad

 Leave Link  103 at Tue Sep 17 09:55:36 2024, MaxMem=  1342177280 cpu:               0.2 elap:               0.1
 (Enter /groups/ReismanLab/Software/Gaussian16_RevC/Linux_Binary_AVX2-enabled-CPU/g16/l202.exe)
                          Input orientation:                          
 ---------------------------------------------------------------------
 Center     Atomic      Atomic             Coordinates (Angstroms)
 Number     Number       Type             X           Y           Z
 ---------------------------------------------------------------------
      1          6           0        1.994760   -4.516934    0.098766
      2          8           0        1.194928   -3.328189    0.126806
      3          6           0        1.870228   -2.171251   -0.046685
      4          8           0        3.064214   -2.100685   -0.212991
      5          6           0        0.933723   -0.989278   -0.018236
      6          6           0       -0.456449   -1.172375    0.012837
      7          6           0       -1.255761   -0.033654    0.021613
      8         35           0       -3.150565   -0.205160    0.057718
      9          6           0       -0.670965    1.225866    0.005492
     10          6           0        0.728516    1.287601   -0.020862
     11          6           0        1.352870    2.661427   -0.036747
     12          8           0        0.678484    3.672903   -0.039265
     13          8           0        2.686210    2.614250   -0.042600
     14          6           0        3.404669    3.854320   -0.061861
     15          7           0        1.515366    0.211517   -0.035363
     16          1           0        1.303542   -5.344654    0.252520
     17          1           0        2.505522   -4.617576   -0.862321
     18          1           0        2.746921   -4.493989    0.891370
     19          1           0       -0.883887   -2.165410    0.028204
     20          1           0       -1.251846    2.139185    0.012286
     21          1           0        4.092579    3.823248   -0.909160
     22          1           0        3.975057    3.930820    0.866851
     23          1           0        2.721924    4.699742   -0.154588
 ---------------------------------------------------------------------
                    Distance matrix (angstroms):
                    1          2          3          4          5
     1  C    0.000000
     2  O    1.433049   0.000000
     3  C    2.353485   1.350791   0.000000
     4  O    2.660673   2.261959   1.207576   0.000000
     5  C    3.685627   2.357916   1.508281   2.410840   0.000000
     6  C    4.147515   2.718008   2.532730   3.647989   1.402522
     7  C    5.538197   4.107420   3.787583   4.794772   2.389276
     8  Br   6.713229   5.351766   5.393030   6.503059   4.159569
     9  C    6.332025   4.922976   4.242734   5.006520   2.735407
    10  C    5.942248   4.641644   3.642503   4.119816   2.286109
    11  C    7.208276   5.993930   4.860301   5.063346   3.674734
    12  O    8.296087   7.022079   5.964432   6.249497   4.669210
    13  O    7.166022   6.129046   4.854571   4.733132   4.007146
    14  C    8.490673   7.517113   6.217897   5.966644   5.437639
    15  N    4.754582   3.557878   2.409073   2.788684   1.334357
    16  H    1.089286   2.023298   3.237460   3.720216   4.379427
    17  H    1.093022   2.087714   2.655818   2.658666   4.043214
    18  H    1.092929   2.086224   2.653988   2.654843   4.049453
    19  H    3.717694   2.383957   2.755139   3.955991   2.165444
    20  H    7.406204   5.990994   5.322658   6.054389   3.816403
    21  H    8.658833   7.785413   6.451102   6.052699   5.825163
    22  H    8.710687   7.808328   6.519211   6.194735   5.851534
    23  H    9.248788   8.176710   6.924419   6.809287   5.964999
                    6          7          8          9         10
     6  C    0.000000
     7  C    1.391280   0.000000
     8  Br   2.862828   1.902893   0.000000
     9  C    2.407827   1.388754   2.863386   0.000000
    10  C    2.730707   2.384297   4.157136   1.401090   0.000000
    11  C    4.239591   3.751243   5.339210   2.481638   1.509128
    12  O    4.976697   4.181337   5.450724   2.794818   2.385898
    13  O    4.921169   4.749174   6.482830   3.633256   2.364960
    14  C    6.338886   6.069836   7.711340   4.850164   3.708304
    15  N    2.409467   2.782534   4.685424   2.410522   1.333155
    16  H    4.534637   5.900006   6.803780   6.865234   6.662748
    17  H    4.626941   5.995075   7.232373   6.707383   6.223899
    18  H    4.697501   6.055784   7.339576   6.721865   6.191358
    19  H    1.081230   2.163958   2.996879   3.398030   3.811238
    20  H    3.405744   2.172863   3.017143   1.082414   2.155952
    21  H    6.819089   6.659337   8.344223   5.502211   4.305287
    22  H    6.812501   6.617623   8.278617   5.444651   4.279564
    23  H    6.679210   6.185311   7.654363   4.858512   3.954019
                   11         12         13         14         15
    11  C    0.000000
    12  O    1.215684   0.000000
    13  O    1.334188   2.269740   0.000000
    14  C    2.373500   2.732308   1.433292   0.000000
    15  N    2.455294   3.561121   2.672837   4.103679   0.000000
    16  H    8.011457   9.043903   8.083504   9.441118   5.567655
    17  H    7.415798   8.529217   7.280378   8.556998   4.998440
    18  H    7.348793   8.476004   7.169592   8.428258   4.951499
    19  H    5.320305   6.044126   5.966218   7.391682   3.377904
    20  H    2.657007   2.465994   3.966987   4.962894   3.372779
    21  H    3.101119   3.526381   2.047065   1.091834   4.522184
    22  H    3.050198   3.428550   2.054649   1.092566   4.549427
    23  H    2.458236   2.289835   2.088802   1.090632   4.649104
                   16         17         18         19         20
    16  H    0.000000
    17  H    1.793397   0.000000
    18  H    1.793072   1.774537   0.000000
    19  H    3.865587   4.277178   4.398876   0.000000
    20  H    7.911737   7.780526   7.794994   4.320323   0.000000
    21  H    9.652909   8.588856   8.615633   7.842696   5.678733
    22  H    9.672064   8.844469   8.513889   7.840706   5.591131
    23  H   10.152214   9.346665   9.253072   7.756649   4.730238
                   21         22         23
    21  H    0.000000
    22  H    1.783143   0.000000
    23  H    1.793409   1.790229   0.000000
 Stoichiometry    C9H8BrNO4
 Framework group  C1[X(C9H8BrNO4)]
 Deg. of freedom    63
 Full point group                 C1      NOp   1
 RotChk:  IX=0 Diff= 1.25D-01
 Largest Abelian subgroup         C1      NOp   1
 Largest concise Abelian subgroup C1      NOp   1
                         Standard orientation:                         
 ---------------------------------------------------------------------
 Center     Atomic      Atomic             Coordinates (Angstroms)
 Number     Number       Type             X           Y           Z
 ---------------------------------------------------------------------
      1          6           0        2.392206    4.241593    0.081517
      2          8           0        1.964338    2.874160    0.107732
      3          6           0        0.635931    2.679757   -0.041188
      4          8           0       -0.168223    3.569063   -0.185105
      5          6           0        0.298728    1.209850   -0.017108
      6          6           0        1.310623    0.238707   -0.013142
      7          6           0        0.921105   -1.096918   -0.006709
      8         35           0        2.239260   -2.469314   -0.006719
      9          6           0       -0.427767   -1.427255    0.001160
     10          6           0       -1.350640   -0.373046    0.000789
     11          6           0       -2.813451   -0.743924    0.010826
     12          8           0       -3.181889   -1.902425    0.006874
     13          8           0       -3.609585    0.326549    0.028595
     14          6           0       -5.026824    0.112742    0.035536
     15          7           0       -1.002348    0.913755   -0.010927
     16          1           0        3.473158    4.218005    0.213920
     17          1           0        2.132884    4.710421   -0.871190
     18          1           0        1.920016    4.808550    0.887798
     19          1           0        2.353151    0.525385   -0.016082
     20          1           0       -0.777798   -2.451492    0.007165
[...]
 Alpha  occ. eigenvalues --  -10.59320 -10.58985 -10.58582 -10.58375  -9.04568
 Alpha  occ. eigenvalues --   -6.86996  -6.86097  -6.86054  -2.90374  -2.90053
 Alpha  occ. eigenvalues --   -2.90008  -2.89171  -2.89170  -1.24356  -1.24292
 Alpha  occ. eigenvalues --   -1.15140  -1.14968  -1.08831  -0.96521  -0.91584
 Alpha  occ. eigenvalues --   -0.86982  -0.84194  -0.82513  -0.76048  -0.74490
 Alpha  occ. eigenvalues --   -0.66737  -0.65775  -0.63176  -0.60930  -0.58699
 Alpha  occ. eigenvalues --   -0.58245  -0.57879  -0.57413  -0.56654  -0.55417
 Alpha  occ. eigenvalues --   -0.51628  -0.50767  -0.50041  -0.47864  -0.47720
 Alpha  occ. eigenvalues --   -0.47002  -0.46446  -0.44235  -0.43616  -0.41848
 Alpha  occ. eigenvalues --   -0.38713  -0.38694  -0.38418  -0.37483  -0.36415
 Alpha  occ. eigenvalues --   -0.35022  -0.34539  -0.33782
 Alpha virt. eigenvalues --   -0.04777  -0.04220   0.02077   0.04751   0.07874
 Alpha virt. eigenvalues --    0.08572   0.10303   0.10425   0.10943   0.11783
 Alpha virt. eigenvalues --    0.12663   0.13178   0.14609   0.15191   0.15647
 Alpha virt. eigenvalues --    0.16307   0.17872   0.18462   0.18489   0.20080
 Alpha virt. eigenvalues --    0.21268   0.21832   0.22428   0.22659   0.24149
 Alpha virt. eigenvalues --    0.24309   0.24793   0.25805   0.26359   0.26987
 Alpha virt. eigenvalues --    0.26992   0.27919   0.28880   0.29421   0.29531
 Alpha virt. eigenvalues --    0.29956   0.30693   0.30723   0.31307   0.32873
 Alpha virt. eigenvalues --    0.34797   0.35079   0.35781   0.36524   0.36542
 Alpha virt. eigenvalues --    0.37172   0.38121   0.38427   0.39400   0.40772
 Alpha virt. eigenvalues --    0.41131   0.41736   0.42037   0.43514   0.43798
 Alpha virt. eigenvalues --    0.44433   0.44892   0.46239   0.46690   0.48742
 Alpha virt. eigenvalues --    0.49217   0.49247   0.49537   0.50532   0.50861
 Alpha virt. eigenvalues --    0.51963   0.52133   0.52865   0.53892   0.55066
 Alpha virt. eigenvalues --    0.55149   0.56358   0.57348   0.58306   0.59672
 Alpha virt. eigenvalues --    0.60941   0.61670   0.61712   0.62584   0.64244
 Alpha virt. eigenvalues --    0.64889   0.65135   0.66104   0.66468   0.67968
 Alpha virt. eigenvalues --    0.69258   0.69445   0.70090   0.70268   0.70962
 Alpha virt. eigenvalues --    0.71706   0.72595   0.73601   0.77214   0.78590
 Alpha virt. eigenvalues --    0.79133   0.79655   0.82329   0.83986   0.84254
 Alpha virt. eigenvalues --    0.84414   0.85647   0.86573   0.87207   0.87967
 Alpha virt. eigenvalues --    0.89244   0.89772   0.90790   0.92231   0.94146
 Alpha virt. eigenvalues --    0.94899   0.95527   0.96823   0.98082   1.00204
 Alpha virt. eigenvalues --    1.01261   1.01538   1.03006   1.03040   1.03644
 Alpha virt. eigenvalues --    1.06082   1.06607   1.06991   1.11172   1.11687
 Alpha virt. eigenvalues --    1.12332   1.12580   1.14658   1.16745   1.22104
 Alpha virt. eigenvalues --    1.23421   1.23853   1.24931   1.26590   1.28226
 Alpha virt. eigenvalues --    1.28443   1.30686   1.30989   1.34634   1.35992
 Alpha virt. eigenvalues --    1.38032   1.38581   1.39437   1.39825   1.41558
 Alpha virt. eigenvalues --    1.42070   1.42359   1.45976   1.47085   1.47864
 Alpha virt. eigenvalues --    1.50151   1.50555   1.51455   1.51816   1.52222
 Alpha virt. eigenvalues --    1.52302   1.52918   1.55060   1.55587   1.55986
 Alpha virt. eigenvalues --    1.56427   1.57416   1.57545   1.57833   1.58172
 Alpha virt. eigenvalues --    1.59377   1.60382   1.61163   1.61409   1.62587
 Alpha virt. eigenvalues --    1.62958   1.64743   1.65326   1.66310   1.67830
 Alpha virt. eigenvalues --    1.70138   1.70574   1.71477   1.73852   1.74737
 Alpha virt. eigenvalues --    1.76333   1.76520   1.77191   1.81509   1.82327
 Alpha virt. eigenvalues --    1.82972   1.83013   1.84435   1.85380   1.86946
 Alpha virt. eigenvalues --    1.87226   1.87614   1.90025   1.92744   1.94720
 Alpha virt. eigenvalues --    1.96062   1.96090   1.97106   1.98329   2.00932
 Alpha virt. eigenvalues --    2.01763   2.02661   2.03410   2.04050   2.04732
 Alpha virt. eigenvalues --    2.06048   2.07607   2.09089   2.10317   2.10506
 Alpha virt. eigenvalues --    2.11264   2.13303   2.15048   2.16379   2.17174
 Alpha virt. eigenvalues --    2.18974   2.19841   2.22080   2.25152   2.26519
 Alpha virt. eigenvalues --    2.27033   2.30702   2.31397   2.33592   2.34491
 Alpha virt. eigenvalues --    2.34974   2.38183   2.38641   2.40233   2.41003
 Alpha virt. eigenvalues --    2.42099   2.44056   2.44524   2.45730   2.46889
 Alpha virt. eigenvalues --    2.47901   2.49186   2.52269   2.54566   2.55057
 Alpha virt. eigenvalues --    2.55412   2.56218   2.57564   2.58957   2.61007
 Alpha virt. eigenvalues --    2.62247   2.62962   2.63941   2.64103   2.66876
 Alpha virt. eigenvalues --    2.67734   2.71051   2.71450   2.72421   2.75446
 Alpha virt. eigenvalues --    2.78474   2.79042   2.80470   2.80646   2.81046
 Alpha virt. eigenvalues --    2.81609   2.84510   2.84976   2.86045   2.86098
 Alpha virt. eigenvalues --    2.88119   2.90288   2.90430   2.91838   2.92097
 Alpha virt. eigenvalues --    2.92805   2.96926   2.98174   3.00064   3.02215
 Alpha virt. eigenvalues --    3.04083   3.04322   3.04964   3.06374   3.06922
 Alpha virt. eigenvalues --    3.08371   3.08471   3.08816   3.10063   3.11795
 Alpha virt. eigenvalues --    3.15143   3.16681   3.17104   3.17924   3.19350
 Alpha virt. eigenvalues --    3.19352   3.20957   3.21312   3.22248   3.22844
 Alpha virt. eigenvalues --    3.23142   3.24255   3.25554   3.26106   3.28402
 Alpha virt. eigenvalues --    3.30041   3.30253   3.31116   3.31326   3.32137
 Alpha virt. eigenvalues --    3.33444   3.33564   3.35739   3.36237   3.37326
 Alpha virt. eigenvalues --    3.38194   3.38907   3.39469   3.41642   3.42698
 Alpha virt. eigenvalues --    3.43207   3.44737   3.45969   3.46963   3.48380
 Alpha virt. eigenvalues --    3.48485   3.50513   3.51124   3.51207   3.56531
 Alpha virt. eigenvalues --    3.56583   3.57770   3.57972   3.59233   3.60104
 Alpha virt. eigenvalues --    3.61759   3.62838   3.66268   3.66391   3.67307
 Alpha virt. eigenvalues --    3.72836   3.74682   3.75660   3.76376   3.80530
 Alpha virt. eigenvalues --    3.82095   3.89555   3.91701   3.94697   3.97369
 Alpha virt. eigenvalues --    3.99588   4.01175   4.01437   4.05081   4.05380
 Alpha virt. eigenvalues --    4.08197   4.11961   4.12990   4.13570   4.13625
 Alpha virt. eigenvalues --    4.17433   4.18269   4.21196   4.21387   4.22554
 Alpha virt. eigenvalues --    4.25464   4.30507   4.30582   4.32780   4.33506
 Alpha virt. eigenvalues --    4.35513   4.36328   4.39627   4.41430   4.41853
 Alpha virt. eigenvalues --    4.44186   4.48997   4.53334   4.54508   4.55346
 Alpha virt. eigenvalues --    4.59610   4.62397   4.65577   4.67708   4.71035
 Alpha virt. eigenvalues --    4.76201   4.84984   4.85670   4.90255   4.92083
 Alpha virt. eigenvalues --    4.96079   4.98707   5.03808   5.08615   5.14261
 Alpha virt. eigenvalues --    5.16031   5.17664   5.17979   5.19247   5.24474
 Alpha virt. eigenvalues --    5.24659   5.28832   5.30420   5.32934   5.35426
 Alpha virt. eigenvalues --    5.38344   5.43931   5.48555   5.48631   5.49365
 Alpha virt. eigenvalues --    5.54217   5.60479   5.65380   5.66019   5.66102
 Alpha virt. eigenvalues --    5.73556   5.75949   5.83244   5.88199   5.93932
 Alpha virt. eigenvalues --    5.96565   5.96953   6.09418   6.10495   6.14542
 Alpha virt. eigenvalues --    6.16234   6.22868   6.30884   6.34457   6.34805
 Alpha virt. eigenvalues --    6.38719   6.39427   6.53269   6.55159   6.63124
 Alpha virt. eigenvalues --    6.63793   6.68519   6.69623   6.74181   6.74470
 Alpha virt. eigenvalues --    6.85652   6.86488   6.89064   6.90784   7.01530
 Alpha virt. eigenvalues --    7.03291   7.10818   7.12240   7.28001   7.29258
 Alpha virt. eigenvalues --    7.39905   7.42092   7.86244  22.41868  22.43609
 Alpha virt. eigenvalues --   22.51798  22.76050  22.88145  23.05841  23.28160
 Alpha virt. eigenvalues --   23.43352  23.49011  32.77225  44.04484  44.06334
 Alpha virt. eigenvalues --   44.26087  44.31381
          Condensed to atoms (all electrons):
               1          2          3          4          5          6
     1  C    4.871402   0.205200  -0.052177   0.002432   0.010022  -0.001247
     2  O    0.205200   7.994587   0.398249  -0.084968  -0.190828   0.033516
     3  C   -0.052177   0.398249   4.497490   0.709365   0.261174  -0.058399
     4  O    0.002432  -0.084968   0.709365   7.784989  -0.099512   0.008134
     5  C    0.010022  -0.190828   0.261174  -0.099512   5.222073   0.314678
     6  C   -0.001247   0.033516  -0.058399   0.008134   0.314678   5.334719
     7  C   -0.000145   0.000015   0.001544  -0.000160  -0.010689   0.361642
     8  Br   0.000001   0.000002  -0.000307   0.000006   0.015625  -0.110397
     9  C    0.000019   0.000808   0.007231   0.000434  -0.056148   0.003978
    10  C   -0.000016  -0.001075  -0.010267  -0.001742  -0.054675  -0.073648
    11  C   -0.000004  -0.000017  -0.003132  -0.000159  -0.005581   0.005040
    12  O    0.000000  -0.000000  -0.000039  -0.000000  -0.000768   0.000341
    13  O    0.000000   0.000000  -0.000026  -0.000031  -0.001332   0.000245
    14  C   -0.000000   0.000000   0.000008   0.000000  -0.000008   0.000016
    15  N   -0.000265   0.001924  -0.054593  -0.012177   0.519391  -0.086116
    16  H    0.398573  -0.030932   0.003529   0.001597   0.004182  -0.001379
    17  H    0.419035  -0.032845  -0.008013   0.003601  -0.002071   0.000495
    18  H    0.419023  -0.032858  -0.008023   0.003616  -0.002057   0.000495
    19  H   -0.000169   0.013711  -0.007992   0.000426  -0.006878   0.393768
    20  H    0.000000  -0.000001   0.000179  -0.000000  -0.000584   0.008757
    21  H    0.000000   0.000000   0.000009  -0.000000  -0.000012  -0.000001
    22  H   -0.000000  -0.000000  -0.000001  -0.000000   0.000002   0.000001
    23  H   -0.000000  -0.000000  -0.000001  -0.000000   0.000002   0.000001
               7          8          9         10         11         12
     1  C   -0.000145   0.000001   0.000019  -0.000016  -0.000004   0.000000
     2  O    0.000015   0.000002   0.000808  -0.001075  -0.000017  -0.000000
     3  C    0.001544  -0.000307   0.007231  -0.010267  -0.003132  -0.000039
     4  O   -0.000160   0.000006   0.000434  -0.001742  -0.000159  -0.000000
     5  C   -0.010689   0.015625  -0.056148  -0.054675  -0.005581  -0.000768
     6  C    0.361642  -0.110397   0.003978  -0.073648   0.005040   0.000341
     7  C    4.901887   0.422687   0.358791  -0.001142   0.001822   0.006238
     8  Br   0.422687  34.842669  -0.111571   0.015192  -0.000755   0.000034
     9  C    0.358791  -0.111571   5.352803   0.324688  -0.084052   0.029505
    10  C   -0.001142   0.015192   0.324688   5.201041   0.284603  -0.152278
    11  C    0.001822  -0.000755  -0.084052   0.284603   4.488523   0.661178
    12  O    0.006238   0.000034   0.029505  -0.152278   0.661178   7.868971
    13  O    0.000138   0.000004   0.011577  -0.109459   0.422427  -0.077260
    14  C   -0.000045  -0.000002  -0.000856   0.009135  -0.054723   0.000543
    15  N   -0.000458  -0.000657  -0.084150   0.477358  -0.035141   0.003573
    16  H   -0.000060  -0.000001  -0.000008   0.000012   0.000000  -0.000000
    17  H    0.000015  -0.000000   0.000003  -0.000012  -0.000000   0.000000
    18  H    0.000014  -0.000000   0.000003  -0.000012  -0.000000   0.000000
    19  H   -0.046660  -0.006384   0.010873  -0.001350   0.000149  -0.000003
    20  H   -0.033975  -0.006357   0.387044  -0.006261  -0.011409   0.013671
    21  H   -0.000005   0.000000  -0.000025   0.002952   0.003828   0.001490
    22  H   -0.000002  -0.000000   0.000004  -0.002465  -0.008677   0.004158
    23  H   -0.000002  -0.000000   0.000001  -0.002451  -0.008677   0.004163
              13         14         15         16         17         18
     1  C    0.000000  -0.000000  -0.000265   0.398573   0.419035   0.419023
     2  O    0.000000   0.000000   0.001924  -0.030932  -0.032845  -0.032858
     3  C   -0.000026   0.000008  -0.054593   0.003529  -0.008013  -0.008023
     4  O   -0.000031   0.000000  -0.012177   0.001597   0.003601   0.003616
     5  C   -0.001332  -0.000008   0.519391   0.004182  -0.002071  -0.002057
     6  C    0.000245   0.000016  -0.086116  -0.001379   0.000495   0.000495
     7  C    0.000138  -0.000045  -0.000458  -0.000060   0.000015   0.000014
     8  Br   0.000004  -0.000002  -0.000657  -0.000001  -0.000000  -0.000000
     9  C    0.011577  -0.000856  -0.084150  -0.000008   0.000003   0.000003
    10  C   -0.109459   0.009135   0.477358   0.000012  -0.000012  -0.000012
    11  C    0.422427  -0.054723  -0.035141   0.000000  -0.000000  -0.000000
    12  O   -0.077260   0.000543   0.003573  -0.000000   0.000000   0.000000
    13  O    7.892297   0.206984  -0.017609   0.000000  -0.000000  -0.000000
    14  C    0.206984   4.880807  -0.000330   0.000000  -0.000000  -0.000000
    15  N   -0.017609  -0.000330   6.476049   0.000032  -0.000047  -0.000047
    16  H    0.000000   0.000000   0.000032   0.513219  -0.023397  -0.023397
    17  H   -0.000000  -0.000000  -0.000047  -0.023397   0.519018  -0.039446
    18  H   -0.000000  -0.000000  -0.000047  -0.023397  -0.039446   0.519024
    19  H   -0.000000   0.000000   0.004002  -0.000346   0.000123   0.000123
    20  H    0.000622  -0.000159   0.004072  -0.000000   0.000000   0.000000
    21  H   -0.029903   0.398091  -0.000086   0.000000  -0.000000  -0.000000
    22  H   -0.032489   0.418750  -0.000100  -0.000000   0.000000   0.000000
    23  H   -0.032503   0.418753  -0.000100  -0.000000   0.000000   0.000000
              19         20         21         22         23
     1  C   -0.000169   0.000000   0.000000  -0.000000  -0.000000
     2  O    0.013711  -0.000001   0.000000  -0.000000  -0.000000
     3  C   -0.007992   0.000179   0.000009  -0.000001  -0.000001
     4  O    0.000426  -0.000000  -0.000000  -0.000000  -0.000000
     5  C   -0.006878  -0.000584  -0.000012   0.000002   0.000002
     6  C    0.393768   0.008757  -0.000001   0.000001   0.000001
     7  C   -0.046660  -0.033975  -0.000005  -0.000002  -0.000002
     8  Br  -0.006384  -0.006357   0.000000  -0.000000  -0.000000
     9  C    0.010873   0.387044  -0.000025   0.000004   0.000001
    10  C   -0.001350  -0.006261   0.002952  -0.002465  -0.002451
    11  C    0.000149  -0.011409   0.003828  -0.008677  -0.008677
    12  O   -0.000003   0.013671   0.001490   0.004158   0.004163
    13  O   -0.000000   0.000622  -0.029903  -0.032489  -0.032503
    14  C    0.000000  -0.000159   0.398091   0.418750   0.418753
    15  N    0.004002   0.004072  -0.000086  -0.000100  -0.000100
    16  H   -0.000346  -0.000000   0.000000  -0.000000  -0.000000
    17  H    0.000123   0.000000  -0.000000   0.000000   0.000000
    18  H    0.000123   0.000000  -0.000000   0.000000   0.000000
    19  H    0.444438   0.000107   0.000000   0.000000   0.000000
    20  H    0.000107   0.434607   0.000002  -0.000015  -0.000015
    21  H    0.000000   0.000002   0.504756  -0.022253  -0.022245
    22  H    0.000000  -0.000015  -0.022253   0.523334  -0.041289
    23  H    0.000000  -0.000015  -0.022245  -0.041289   0.523321
 Mulliken charges:
               1
     1  C   -0.271684
     2  O   -0.274487
     3  C    0.324191
     4  O   -0.315849
     5  C    0.083993
     6  C   -0.134639
     7  C    0.038549
     8  Br  -0.059789
     9  C   -0.150952
    10  C    0.101873
    11  C    0.344757
    12  O   -0.363516
    13  O   -0.233683
    14  C   -0.276965
    15  N   -0.194523
    16  H    0.158376
    17  H    0.163542
    18  H    0.163542
    19  H    0.202062
    20  H    0.209715
    21  H    0.163402
    22  H    0.161043
    23  H    0.161042
 Sum of Mulliken charges =  -0.00000
 Mulliken charges with hydrogens summed into heavy atoms:
               1
     1  C    0.213776
     2  O   -0.274487
     3  C    0.324191
     4  O   -0.315849
     5  C    0.083993
     6  C    0.067423
     7  C    0.038549
     8  Br  -0.059789
     9  C    0.058763
    10  C    0.101873
    11  C    0.344757
    12  O   -0.363516
    13  O   -0.233683
    14  C    0.208521
    15  N   -0.194523
 Electronic spatial extent (au):  <R**2>=           5385.0289
 Charge=             -0.0000 electrons
 Dipole moment (field-independent basis, Debye):
    X=              2.2475    Y=              0.4731    Z=              0.0010  Tot=              2.2968
 Quadrupole moment (field-independent basis, Debye-Ang):
   XX=            -81.3906   YY=           -101.9404   ZZ=            -97.3370
   XY=              7.0768   XZ=             -0.0048   YZ=             -0.0067
 Traceless Quadrupole moment (field-independent basis, Debye-Ang):
   XX=             12.1654   YY=             -8.3844   ZZ=             -3.7810
   XY=              7.0768   XZ=             -0.0048   YZ=             -0.0067
 Octapole moment (field-independent basis, Debye-Ang**2):
  XXX=            -16.7622  YYY=            -40.6465  ZZZ=              0.0009  XYY=             88.7242
  XXY=             31.3797  XXZ=              0.0264  XZZ=             12.1457  YZZ=            -15.1561
  YYZ=              0.0012  XYZ=              0.0156
 Hexadecapole moment (field-independent basis, Debye-Ang**3):
 XXXX=          -2751.8770 YYYY=          -2711.7229 ZZZZ=           -112.6230 XXXY=           -190.8350
 XXXZ=             -0.0935 YYYX=             40.0390 YYYZ=             -0.0612 ZZZX=              0.0111
 ZZZY=             -0.0117 XXYY=           -960.9470 XXZZ=           -574.7400 YYZZ=           -479.4940
 XXYZ=             -0.0538 YYXZ=             -0.0394 ZZXY=            -34.0612
 N-N= 1.257133037281D+03 E-N=-1.031140235738D+04  KE= 3.270795459052D+03
 Calculating spin-rotation constants.
 Leave Link  601 at Tue Sep 17 11:07:37 2024, MaxMem=  1342177280 cpu:               5.7 elap:               5.8
 (Enter /groups/ReismanLab/Software/Gaussian16_RevC/Linux_Binary_AVX2-enabled-CPU/g16/l9999.exe)
 Unable to Open any file for archive entry.
 1\1\GINC-HPC-35-31\SP\RM062X\def2TZVP\C9H8Br1N1O4\MANTIND\17-Sep-2024\
 0\\#p M062X/def2tzvp geom=check guess=read scf(xqc,tight) integral(gri
 d=ultrafine) scrf(SMD, solvent=1,4-Dioxane) nmr=giao\\spe\\0,1\C,0,1.9
 767189738,-4.5324464917,-0.0219441839\O,0,1.1706319029,-3.3436595492,0
 .0156789546\C,0,1.8661008811,-2.18365429,-0.0257019828\O,0,3.070198565
 5,-2.1204890766,-0.0894784133\C,0,0.9398110713,-0.9962476948,0.0183644
 56\C,0,-0.4481218952,-1.1680986123,0.0926631832\C,0,-1.2379371675,-0.0
 23735013,0.1296773957\Br,0,-3.1299818349,-0.1814145346,0.2306733146\C,
 0,-0.6442105212,1.2302683996,0.0928569494\C,0,0.7533887616,1.278752677
 2,0.018612863\C,0,1.3872894397,2.6430666829,-0.0208344523\O,0,0.735579
 3297,3.6693558042,0.00846574\O,0,2.7205117973,2.5934133039,-0.09031445
 75\C,0,3.3737620984,3.8729298926,-0.1306395609\N,0,1.5361177565,0.1993
 02171,-0.018274202\H,0,1.2753371837,-5.3647164668,0.0190876596\H,0,2.5
 635596918,-4.56585296,-0.9426649273\H,0,2.6580455339,-4.5579564814,0.8
 314922235\H,0,-0.8817846919,-2.1577482906,0.119840759\H,0,-1.214960290
 7,2.1490312557,0.1191243096\H,0,4.4386928474,3.6530123065,-0.185559917
 3\H,0,3.1423237481,4.4484534377,0.7687182189\H,0,3.0489671882,4.440158
 6588,-1.0060590492\\Version=ES64L-G16RevC.02\State=1-A\HF=-3277.637763
 6\RMSD=4.519e-09\Dipole=-0.3815694,-0.8187577,0.0240249\Quadrupole=-5.
 7693012,8.58573,-2.8164288,5.8615894,0.1302389,-0.3524538\PG=C01 [X(C9
 H8Br1N1O4)]\\@
 The archive entry for this job was punched.


 Happiness is a conscious choice, not an automatic response.
 -- Mildred Barthel
 Job cpu time:       0 days  0 hours 18 minutes  6.7 seconds.
 Elapsed time:       0 days  0 hours 18 minutes 15.1 seconds.
 File lengths (MBytes):  RWF=    360 Int=      0 D2E=      0 Chk=     40 Scr=     16
 Normal termination of Gaussian 16 at Tue Sep 17 11:07:38 2024.
