 Entering Gaussian System, Link 0=g16
 Input=smiles_00118_conf_2.gjf
 Output=smiles_00118_conf_2.log
 Initial command:
 /groups/ReismanLab/Software/Gaussian16_RevC/Linux_Binary_AVX2-enabled-CPU/g16/l1.exe "/central/groups/ReismanLab/DM/dft_final/smiles_00118/Gau-3002830.inp" -scrdir="/central/groups/ReismanLab/DM/dft_final/smiles_00118/"
 Entering Link 1 = /groups/ReismanLab/Software/Gaussian16_RevC/Linux_Binary_AVX2-enabled-CPU/g16/l1.exe PID=   3002831.
  
 Copyright (c) 1988-2021, Gaussian, Inc.  All Rights Reserved.
  
 This is part of the Gaussian(R) 16 program.  It is based on
 the Gaussian(R) 09 system (copyright 2009, Gaussian, Inc.),
 the Gaussian(R) 03 system (copyright 2003, Gaussian, Inc.),
 the Gaussian(R) 98 system (copyright 1998, Gaussian, Inc.),
 the Gaussian(R) 94 system (copyright 1995, Gaussian, Inc.),
 the Gaussian 92(TM) system (copyright 1992, Gaussian, Inc.),
 the Gaussian 90(TM) system (copyright 1990, Gaussian, Inc.),
 the Gaussian 88(TM) system (copyright 1988, Gaussian, Inc.),
 the Gaussian 86(TM) system (copyright 1986, Carnegie Mellon
 University), and the Gaussian 82(TM) system (copyright 1983,
 Carnegie Mellon University). Gaussian is a federally registered
 trademark of Gaussian, Inc.
  
 This software contains proprietary and confidential information,
 including trade secrets, belonging to Gaussian, Inc.
  
 This software is provided under written license and may be
 used, copied, transmitted, or stored only in accord with that
 written license.
  
 The following legend is applicable only to US Government
 contracts under FAR:
  
                    RESTRICTED RIGHTS LEGEND
  
 Use, reproduction and disclosure by the US Government is
 subject to restrictions as set forth in subparagraphs (a)
 and (c) of the Commercial Computer Software - Restricted
 Rights clause in FAR 52.227-19.
  
 Gaussian, Inc.
 340 Quinnipiac St., Bldg. 40, Wallingford CT 06492
  
  
 ---------------------------------------------------------------
 Warning -- This program may not be used in any manner that
 competes with the business of Gaussian, Inc. or will provide
 assistance to any competitor of Gaussian, Inc.  The licensee
 of this program is prohibited from giving any competitor of
 Gaussian, Inc. access to this program.  By using this program,
 the user acknowledges that Gaussian, Inc. is engaged in the
 business of creating and licensing software in the field of
 computational chemistry and represents and warrants to the
 licensee that it is not a competitor of Gaussian, Inc. and that
 it will not use this program in any manner prohibited above.
 ---------------------------------------------------------------
  

 Cite this work as:
 Gaussian 16, Revision C.02,
 M. J. Frisch, G. W. Trucks, H. B. Schlegel, G. E. Scuseria, 
 M. A. Robb, J. R. Cheeseman, G. Scalmani, V. Barone, 
 G. A. Petersson, H. Nakatsuji, X. Li, M. Caricato, A. V. Marenich, 
 J. Bloino, B. G. Janesko, R. Gomperts, B. Mennucci, H. P. Hratchian, 
 J. V. Ortiz, A. F. Izmaylov, J. L. Sonnenberg, D. Williams-Young, 
 F. Ding, F. Lipparini, F. Egidi, J. Goings, B. Peng, A. Petrone, 
 T. Henderson, D. Ranasinghe, V. G. Zakrzewski, J. Gao, N. Rega, 
 G. Zheng, W. Liang, M. Hada, M. Ehara, K. Toyota, R. Fukuda, 
 J. Hasegawa, M. Ishida, T. Nakajima, Y. Honda, O. Kitao, H. Nakai, 
 T. Vreven, K. Throssell, J. A. Montgomery, Jr., J. E. Peralta, 
 F. Ogliaro, M. J. Bearpark, J. J. Heyd, E. N. Brothers, K. N. Kudin, 
 V. N. Staroverov, T. A. Keith, R. Kobayashi, J. Normand, 
 K. Raghavachari, A. P. Rendell, J. C. Burant, S. S. Iyengar, 
 J. Tomasi, M. Cossi, J. M. Millam, M. Klene, C. Adamo, R. Cammi, 
 J. W. Ochterski, R. L. Martin, K. Morokuma, O. Farkas, 
 J. B. Foresman, and D. J. Fox, Gaussian, Inc., Wallingford CT, 2019.
 
 ******************************************
 Gaussian 16:  ES64L-G16RevC.02  7-Dec-2021
                17-Sep-2024 
 ******************************************
 %nprocshared=8
 Will use up to    8 processors via shared memory.
 %Mem=10GB
 %Chk=smiles_00118_conf_2.chk
 ----------------------------------------------------------------------
 #p B3LYP/6-31G(d,p) EmpiricalDispersion=GD3BJ opt freq scf(xqc,tight) 
 integral(grid=ultrafine)
 ----------------------------------------------------------------------
 1/18=20,19=15,26=4,38=1/1,3;
 2/9=110,12=2,17=6,18=5,40=1/2;
 3/5=1,6=6,7=101,11=2,25=1,30=1,71=1,74=-5,75=-5,124=41/1,2,3;
 4//1;
 5/5=2,8=3,13=1,32=2,38=5/2,8;
 6/7=2,8=2,9=2,10=2,28=1/1;
 7//1,2,3,16;
 1/18=20,19=15,26=4/3(2);
 2/9=110/2;
 99//99;
 2/9=110/2;
 3/5=1,6=6,7=101,11=2,25=1,30=1,71=1,74=-5,75=-5,124=41/1,2,3;
 4/5=5,16=3,69=1/1;
 5/5=2,8=3,13=1,32=2,38=5/2,8;
 7//1,2,3,16;
 1/18=20,19=15,26=4/3(-5);
 2/9=110/2;
 6/7=2,8=2,9=2,10=2,19=2,28=1/1;
 99/9=1/99;
 Leave Link    1 at Tue Sep 17 09:44:04 2024, MaxMem=  1342177280 cpu:               0.2 elap:               0.6
 (Enter /groups/ReismanLab/Software/Gaussian16_RevC/Linux_Binary_AVX2-enabled-CPU/g16/l101.exe)
 ----------------------------------
 opt-freq conformers_unique/conf_ac
 ----------------------------------
 Symbolic Z-matrix:
 Charge =  0 Multiplicity = 1
 C                    -1.88471   3.07713   0.01111 
 O                    -1.52548   1.71238  -0.00424 
 C                    -0.25394   1.28523  -0.00392 
 C                     0.90379   2.06308  -0.00799 
 C                     2.15      1.46806  -0.00722 
 C                     2.28593   0.08238  -0.00254 
 C                     3.60606  -0.55077   0.00091 
 O                     3.81032  -1.73768   0.00702 
 C                     1.13387  -0.7105   -0.00037 
 C                    -0.10124  -0.11394  -0.00125 
 Br                   -1.68068  -1.16247   0.00085 
 H                    -1.03047   3.7504    0.01562 
 H                    -2.4872    3.25536   0.90444 
 H                    -2.49291   3.27393  -0.87425 
 H                     0.84416   3.14021  -0.01208 
 H                     3.03275   2.09038  -0.01026 
 H                     4.44402   0.17496  -0.00295 
 H                     1.23552  -1.78525   0.00237 
 
 ITRead=  0  0  0  0  0  0  0  0  0  0  0  0  0  0  0  0  0  0
 MicOpt= -1 -1 -1 -1 -1 -1 -1 -1 -1 -1 -1 -1 -1 -1 -1 -1 -1 -1
 NAtoms=     18 NQM=       18 NQMF=       0 NMMI=      0 NMMIF=      0
                NMic=       0 NMicF=      0.
                    Isotopes and Nuclear Properties:
 (Nuclear quadrupole moments (NQMom) in fm**2, nuclear magnetic moments (NMagM)
  in nuclear magnetons)

  Atom         1           2           3           4           5           6           7           8           9          10
 IAtWgt=          12          16          12          12          12          12          12          16          12          12
 AtmWgt=  12.0000000  15.9949146  12.0000000  12.0000000  12.0000000  12.0000000  12.0000000  15.9949146  12.0000000  12.0000000
 NucSpn=           0           0           0           0           0           0           0           0           0           0
 AtZEff=  -0.0000000  -0.0000000  -0.0000000  -0.0000000  -0.0000000  -0.0000000  -0.0000000  -0.0000000  -0.0000000  -0.0000000
 NQMom=    0.0000000   0.0000000   0.0000000   0.0000000   0.0000000   0.0000000   0.0000000   0.0000000   0.0000000   0.0000000
 NMagM=    0.0000000   0.0000000   0.0000000   0.0000000   0.0000000   0.0000000   0.0000000   0.0000000   0.0000000   0.0000000
 AtZNuc=   6.0000000   8.0000000   6.0000000   6.0000000   6.0000000   6.0000000   6.0000000   8.0000000   6.0000000   6.0000000

  Atom        11          12          13          14          15          16          17          18
 IAtWgt=          79           1           1           1           1           1           1           1
 AtmWgt=  78.9183361   1.0078250   1.0078250   1.0078250   1.0078250   1.0078250   1.0078250   1.0078250
 NucSpn=           3           1           1           1           1           1           1           1
 AtZEff=  -0.0000000  -0.0000000  -0.0000000  -0.0000000  -0.0000000  -0.0000000  -0.0000000  -0.0000000
 NQMom=   31.3000000   0.0000000   0.0000000   0.0000000   0.0000000   0.0000000   0.0000000   0.0000000
 NMagM=    2.1063990   2.7928460   2.7928460   2.7928460   2.7928460   2.7928460   2.7928460   2.7928460
 AtZNuc=  35.0000000   1.0000000   1.0000000   1.0000000   1.0000000   1.0000000   1.0000000   1.0000000
 Leave Link  101 at Tue Sep 17 09:44:05 2024, MaxMem=  1342177280 cpu:               0.2 elap:               0.3
 (Enter /groups/ReismanLab/Software/Gaussian16_RevC/Linux_Binary_AVX2-enabled-CPU/g16/l103.exe)

 GradGradGradGradGradGradGradGradGradGradGradGradGradGradGradGradGradGrad
 Berny optimization.
 Initialization pass.
                           ----------------------------
                           !    Initial Parameters    !
                           ! (Angstroms and Degrees)  !
 --------------------------                            --------------------------
 ! Name  Definition              Value          Derivative Info.                !
 --------------------------------------------------------------------------------
 ! R1    R(1,2)                  1.4113         estimate D2E/DX2                !
 ! R2    R(1,12)                 1.0877         estimate D2E/DX2                !
 ! R3    R(1,13)                 1.0922         estimate D2E/DX2                !
 ! R4    R(1,14)                 1.092          estimate D2E/DX2                !
 ! R5    R(2,3)                  1.3414         estimate D2E/DX2                !
 ! R6    R(3,4)                  1.3948         estimate D2E/DX2                !
 ! R7    R(3,10)                 1.4075         estimate D2E/DX2                !
 ! R8    R(4,5)                  1.381          estimate D2E/DX2                !
 ! R9    R(4,15)                 1.0788         estimate D2E/DX2                !
 ! R10   R(5,6)                  1.3923         estimate D2E/DX2                !
 ! R11   R(5,16)                 1.0801         estimate D2E/DX2                !
 ! R12   R(6,7)                  1.4641         estimate D2E/DX2                !
 ! R13   R(6,9)                  1.3985         estimate D2E/DX2                !
 ! R14   R(7,8)                  1.2044         estimate D2E/DX2                !
 ! R15   R(7,17)                 1.1085         estimate D2E/DX2                !
 ! R16   R(9,10)                 1.3716         estimate D2E/DX2                !
 ! R17   R(9,18)                 1.0796         estimate D2E/DX2                !
 ! R18   R(10,11)                1.8958         estimate D2E/DX2                !
 ! A1    A(2,1,12)             113.4977         estimate D2E/DX2                !
 ! A2    A(2,1,13)             107.8853         estimate D2E/DX2                !
 ! A3    A(2,1,14)             107.892          estimate D2E/DX2                !
 ! A4    A(12,1,13)            109.1989         estimate D2E/DX2                !
 ! A5    A(12,1,14)            109.222          estimate D2E/DX2                !
 ! A6    A(13,1,14)            109.0568         estimate D2E/DX2                !
 ! A7    A(1,2,3)              123.313          estimate D2E/DX2                !
 ! A8    A(2,3,4)              127.5351         estimate D2E/DX2                !
 ! A9    A(2,3,10)             114.7969         estimate D2E/DX2                !
 ! A10   A(4,3,10)             117.6679         estimate D2E/DX2                !
 ! A11   A(3,4,5)              120.5808         estimate D2E/DX2                !
 ! A12   A(3,4,15)             120.7276         estimate D2E/DX2                !
 ! A13   A(5,4,15)             118.6916         estimate D2E/DX2                !
 ! A14   A(4,5,6)              121.1252         estimate D2E/DX2                !
 ! A15   A(4,5,16)             119.2943         estimate D2E/DX2                !
 ! A16   A(6,5,16)             119.5805         estimate D2E/DX2                !
 ! A17   A(5,6,7)              121.2256         estimate D2E/DX2                !
 ! A18   A(5,6,9)              118.9345         estimate D2E/DX2                !
 ! A19   A(7,6,9)              119.8399         estimate D2E/DX2                !
 ! A20   A(6,7,8)              125.3875         estimate D2E/DX2                !
 ! A21   A(6,7,17)             113.4816         estimate D2E/DX2                !
 ! A22   A(8,7,17)             121.1309         estimate D2E/DX2                !
 ! A23   A(6,9,10)             119.6823         estimate D2E/DX2                !
 ! A24   A(6,9,18)             119.1342         estimate D2E/DX2                !
 ! A25   A(10,9,18)            121.1835         estimate D2E/DX2                !
 ! A26   A(3,10,9)             122.0091         estimate D2E/DX2                !
 ! A27   A(3,10,11)            117.3503         estimate D2E/DX2                !
 ! A28   A(9,10,11)            120.6406         estimate D2E/DX2                !
 ! D1    D(12,1,2,3)             0.4372         estimate D2E/DX2                !
 ! D2    D(13,1,2,3)          -120.7004         estimate D2E/DX2                !
 ! D3    D(14,1,2,3)           121.6086         estimate D2E/DX2                !
 ! D4    D(1,2,3,4)             -0.9755         estimate D2E/DX2                !
 ! D5    D(1,2,3,10)           179.1318         estimate D2E/DX2                !
 ! D6    D(2,3,4,5)           -179.9906         estimate D2E/DX2                !
 ! D7    D(2,3,4,15)            -0.0079         estimate D2E/DX2                !
 ! D8    D(10,3,4,5)            -0.1005         estimate D2E/DX2                !
 ! D9    D(10,3,4,15)          179.8822         estimate D2E/DX2                !
 ! D10   D(2,3,10,9)          -179.9895         estimate D2E/DX2                !
 ! D11   D(2,3,10,11)            0.0205         estimate D2E/DX2                !
 ! D12   D(4,3,10,9)             0.1066         estimate D2E/DX2                !
 ! D13   D(4,3,10,11)         -179.8835         estimate D2E/DX2                !
 ! D14   D(3,4,5,6)              0.0077         estimate D2E/DX2                !
 ! D15   D(3,4,5,16)          -179.99           estimate D2E/DX2                !
 ! D16   D(15,4,5,6)          -179.9754         estimate D2E/DX2                !
 ! D17   D(15,4,5,16)            0.027          estimate D2E/DX2                !
 ! D18   D(4,5,6,7)           -179.8799         estimate D2E/DX2                !
 ! D19   D(4,5,6,9)              0.0833         estimate D2E/DX2                !
 ! D20   D(16,5,6,7)             0.1177         estimate D2E/DX2                !
 ! D21   D(16,5,6,9)          -179.9191         estimate D2E/DX2                !
 ! D22   D(5,6,7,8)            179.8825         estimate D2E/DX2                !
 ! D23   D(5,6,7,17)            -0.1328         estimate D2E/DX2                !
 ! D24   D(9,6,7,8)             -0.0803         estimate D2E/DX2                !
 ! D25   D(9,6,7,17)           179.9043         estimate D2E/DX2                !
 ! D26   D(5,6,9,10)            -0.0777         estimate D2E/DX2                !
 ! D27   D(5,6,9,18)           179.9463         estimate D2E/DX2                !
 ! D28   D(7,6,9,10)           179.886          estimate D2E/DX2                !
 ! D29   D(7,6,9,18)            -0.09           estimate D2E/DX2                !
 ! D30   D(6,9,10,3)            -0.0177         estimate D2E/DX2                !
 ! D31   D(6,9,10,11)          179.972          estimate D2E/DX2                !
 ! D32   D(18,9,10,3)          179.9578         estimate D2E/DX2                !
 ! D33   D(18,9,10,11)          -0.0525         estimate D2E/DX2                !
 --------------------------------------------------------------------------------
 Trust Radius=3.00D-01 FncErr=1.00D-07 GrdErr=1.00D-06 EigMax=2.50D+02 EigMin=1.00D-04
 Number of steps in this run=     89 maximum allowed number of steps=    108.
 GradGradGradGradGradGradGradGradGradGradGradGradGradGradGradGradGradGrad

 Leave Link  103 at Tue Sep 17 09:44:05 2024, MaxMem=  1342177280 cpu:               0.1 elap:               0.0
 (Enter /groups/ReismanLab/Software/Gaussian16_RevC/Linux_Binary_AVX2-enabled-CPU/g16/l202.exe)
                          Input orientation:                          
 ---------------------------------------------------------------------
 Center     Atomic      Atomic             Coordinates (Angstroms)
 Number     Number       Type             X           Y           Z
 ---------------------------------------------------------------------
      1          6           0       -1.884710    3.077127    0.011106
      2          8           0       -1.525482    1.712379   -0.004240
      3          6           0       -0.253937    1.285234   -0.003924
      4          6           0        0.903791    2.063083   -0.007991
      5          6           0        2.149997    1.468065   -0.007219
      6          6           0        2.285926    0.082384   -0.002545
      7          6           0        3.606062   -0.550767    0.000908
      8          8           0        3.810318   -1.737681    0.007017
      9          6           0        1.133867   -0.710497   -0.000370
     10          6           0       -0.101237   -0.113937   -0.001247
     11         35           0       -1.680682   -1.162468    0.000851
     12          1           0       -1.030469    3.750396    0.015621
     13          1           0       -2.487203    3.255355    0.904443
     14          1           0       -2.492914    3.273933   -0.874253
     15          1           0        0.844156    3.140210   -0.012079
     16          1           0        3.032752    2.090381   -0.010260
     17          1           0        4.444018    0.174960   -0.002945
     18          1           0        1.235515   -1.785253    0.002370
 ---------------------------------------------------------------------
                    Distance matrix (angstroms):
                    1          2          3          4          5
     1  C    0.000000
     2  O    1.411318   0.000000
     3  C    2.422916   1.341372   0.000000
     4  C    2.967218   2.454459   1.394775   0.000000
     5  C    4.343763   3.683591   2.410879   1.380970   0.000000
     6  C    5.134479   4.145324   2.810294   2.415263   1.392339
     7  C    6.581055   5.608440   4.274402   3.759596   2.489151
     8  O    7.457595   6.354038   5.065205   4.784760   3.610218
     9  C    4.843349   3.597565   2.430834   2.783116   2.403892
    10  C    3.655656   2.316012   1.407482   2.397820   2.751512
    11  Br   4.244514   2.879038   2.833174   4.133250   4.646921
    12  H    1.087676   2.097367   2.584648   2.566894   3.914707
    13  H    1.092160   2.032582   3.113516   3.708489   5.052639
    14  H    1.092019   2.032560   3.118559   3.708661   5.056632
    15  H    2.729694   2.766577   2.155646   1.078785   2.121630
    16  H    5.015531   4.573884   3.383877   2.129138   1.080066
    17  H    6.962440   6.164299   4.827369   4.012262   2.633376
    18  H    5.777423   4.456072   3.412682   3.862620   3.379415
                    6          7          8          9         10
     6  C    0.000000
     7  C    1.464121   0.000000
     8  O    2.374131   1.204376   0.000000
     9  C    1.398537   2.477350   2.866802   0.000000
    10  C    2.395222   3.732946   4.235194   1.371628   0.000000
    11  Br   4.157361   5.322014   5.521049   2.850608   1.895803
    12  H    4.945010   6.324369   7.317943   4.958243   3.974523
    13  H    5.802856   7.240913   8.086690   5.445991   4.226730
    14  H    5.812329   7.252016   8.100842   5.458286   4.237915
    15  H    3.380694   4.609946   5.708967   3.861607   3.388711
    16  H    2.142396   2.702679   3.906273   3.383900   3.831577
    17  H    2.160077   1.108542   2.014912   3.426535   4.554427
    18  H    2.142768   2.672723   2.575246   1.079556   2.140143
                   11         12         13         14         15
    11  Br   0.000000
    12  H    4.955727   0.000000
    13  H    4.580843   1.776835   0.000000
    14  H    4.594255   1.776974   1.778802   0.000000
    15  H    4.988789   1.971628   3.457055   3.449241   0.000000
    16  H    5.726920   4.389315   5.715221   5.716665   2.427364
    17  H    6.269026   6.538662   7.638980   7.647472   4.663882
    18  H    2.981957   5.981494   6.330885   6.345471   4.941008
                   16         17         18
    16  H    0.000000
    17  H    2.379194   0.000000
    18  H    4.272091   3.759914   0.000000
 Stoichiometry    C8H7BrO2
 Framework group  C1[X(C8H7BrO2)]
 Deg. of freedom    48
 Full point group                 C1      NOp   1
 Largest Abelian subgroup         C1      NOp   1
 Largest concise Abelian subgroup C1      NOp   1
                         Standard orientation:                         
 ---------------------------------------------------------------------
 Center     Atomic      Atomic             Coordinates (Angstroms)
 Number     Number       Type             X           Y           Z
 ---------------------------------------------------------------------
      1          6           0       -2.535862    2.497586    0.011523
      2          8           0       -1.908504    1.233470   -0.004314
      3          6           0       -0.576908    1.071825   -0.003592
      4          6           0        0.399948    2.067385   -0.006721
      5          6           0        1.740619    1.736207   -0.005637
      6          6           0        2.153493    0.406498   -0.001572
      7          6           0        3.574269    0.052895    0.002210
      8          8           0        4.013935   -1.068346    0.007839
      9          6           0        1.185225   -0.602640   -0.000341
     10          6           0       -0.144882   -0.267711   -0.001523
     11         35           0       -1.480125   -1.613517   -0.000699
     12          1           0       -1.835135    3.329447    0.016779
     13          1           0       -3.162266    2.549998    0.904656
     14          1           0       -3.170942    2.568062   -0.874034
     15          1           0        0.124089    3.110297   -0.010313
     16          1           0        2.479563    2.523926   -0.007948
     17          1           0        4.248460    0.932852   -0.000885
     18          1           0        1.501755   -1.634747    0.001925
 ---------------------------------------------------------------------
 Rotational constants (GHZ):           1.0734699           0.5690360           0.3727744
 Leave Link  202 at Tue Sep 17 09:44:05 2024, MaxMem=  1342177280 cpu:               0.1 elap:               0.0
 (Enter /groups/ReismanLab/Software/Gaussian16_RevC/Linux_Binary_AVX2-enabled-CPU/g16/l301.exe)
 Standard basis: 6-31G(d,p) (6D, 7F)
 Ernie: Thresh=  0.10000D-02 Tol=  0.10000D-05 Strict=F.
 There are   215 symmetry adapted cartesian basis functions of A   symmetry.
 There are   215 symmetry adapted basis functions of A   symmetry.
   215 basis functions,   412 primitive gaussians,   215 cartesian basis functions
    53 alpha electrons       53 beta electrons
       nuclear repulsion energy       835.9997229935 Hartrees.
 IExCor=  402 DFT=T Ex+Corr=B3LYP ExCW=0 ScaHFX=  0.200000
 ScaDFX=  0.800000  0.720000  1.000000  0.810000 ScalE2=  1.000000  1.000000
 IRadAn=      5 IRanWt=     -1 IRanGd=            0 ICorTp=0 IEmpDi=141
 NAtoms=   18 NActive=   18 NUniq=   18 SFac= 1.00D+00 NAtFMM=   60 NAOKFM=F Big=F
 Integral buffers will be    131072 words long.
 Raffenetti 2 integral format.
 Two-electron integral symmetry is turned on.
 R6Disp:  Grimme-D3(BJ) Dispersion energy=       -0.0362887110 Hartrees.
 Nuclear repulsion after empirical dispersion term =      835.9634342825 Hartrees.
 Leave Link  301 at Tue Sep 17 09:44:05 2024, MaxMem=  1342177280 cpu:               0.1 elap:               0.1
 (Enter /groups/ReismanLab/Software/Gaussian16_RevC/Linux_Binary_AVX2-enabled-CPU/g16/l302.exe)
 NPDir=0 NMtPBC=     1 NCelOv=     1 NCel=       1 NClECP=     1 NCelD=      1
         NCelK=      1 NCelE2=     1 NClLst=     1 CellRange=     0.0.
 One-electron integrals computed using PRISM.
 One-electron integral symmetry used in STVInt
 NBasis=   215 RedAO= T EigKep=  3.80D-04  NBF=   215
 NBsUse=   215 1.00D-06 EigRej= -1.00D+00 NBFU=   215
 Precomputing XC quadrature grid using
 IXCGrd= 4 IRadAn=           5 IRanWt=          -1 IRanGd=           0 AccXCQ= 0.00D+00.
 Generated NRdTot=       0 NPtTot=           0 NUsed=           0 NTot=          32
 NSgBfM=   214   214   214   214   214 MxSgAt=    18 MxSgA2=    18.
 Leave Link  302 at Tue Sep 17 09:44:05 2024, MaxMem=  1342177280 cpu:               1.0 elap:               0.2
 (Enter /groups/ReismanLab/Software/Gaussian16_RevC/Linux_Binary_AVX2-enabled-CPU/g16/l303.exe)
 DipDrv:  MaxL=1.
 Leave Link  303 at Tue Sep 17 09:44:05 2024, MaxMem=  1342177280 cpu:               0.1 elap:               0.1
 (Enter /groups/ReismanLab/Software/Gaussian16_RevC/Linux_Binary_AVX2-enabled-CPU/g16/l401.exe)
 ExpMin= 1.43D-01 ExpMax= 5.74D+05 ExpMxC= 5.74D+03 IAcc=3 IRadAn=         5 AccDes= 0.00D+00
 Harris functional with IExCor=  402 and IRadAn=       5 diagonalized for initial guess.
 HarFok:  IExCor=  402 AccDes= 0.00D+00 IRadAn=         5 IDoV= 1 UseB2=F ITyADJ=14
 ICtDFT=  3500011 ScaDFX=  1.000000  1.000000  1.000000  1.000000
 FoFCou: FMM=F IPFlag=           0 FMFlag=      100000 FMFlg1=           0
         NFxFlg=           0 DoJE=T BraDBF=F KetDBF=T FulRan=T
         wScrn=  0.000000 ICntrl=       500 IOpCl=  0 I1Cent=   200000004 NGrid=           0
         NMat0=    1 NMatS0=      1 NMatT0=    0 NMatD0=    1 NMtDS0=    0 NMtDT0=    0
 Petite list used in FoFCou.
 Harris En= -3031.35377790608    
 JPrj=0 DoOrth=F DoCkMO=F.
 Leave Link  401 at Tue Sep 17 09:44:06 2024, MaxMem=  1342177280 cpu:               4.0 elap:               0.6
 (Enter /groups/ReismanLab/Software/Gaussian16_RevC/Linux_Binary_AVX2-enabled-CPU/g16/l502.exe)
 Integral symmetry usage will be decided dynamically.
 Closed shell SCF:
 Using DIIS extrapolation, IDIIS=  1040.
 NGot=  1342177280 LenX=  1342080394 LenY=  1342033728
 Requested convergence on RMS density matrix=1.00D-08 within  32 cycles.
 Requested convergence on MAX density matrix=1.00D-06.
 Requested convergence on             energy=1.00D-06.
 No special actions if energy rises.
 Fock matrices will be formed incrementally for  20 cycles.
 Integral accuracy reduced to 1.0D-05 until final iterations.

 Cycle   1  Pass 0  IDiag  1:
 FoFJK:  IHMeth= 1 ICntrl=       0 DoSepK=F KAlg= 0 I1Cent=           0 FoldK=F
 IRaf= 860000000 NMat=       1 IRICut=       1 DoRegI=T DoRafI=F ISym2E= 0 IDoP0=0 IntGTp=1.
 FoFCou: FMM=F IPFlag=           0 FMFlag=      100000 FMFlg1=           0
         NFxFlg=           0 DoJE=F BraDBF=F KetDBF=F FulRan=T
         wScrn=  0.000000 ICntrl=         0 IOpCl=  0 I1Cent=           0 NGrid=           0
         NMat0=    1 NMatS0=      1 NMatT0=    0 NMatD0=    1 NMtDS0=    0 NMtDT0=    0
 Symmetry not used in FoFCou.
 E= -3031.02478239620    
 DIIS: error= 1.92D-01 at cycle   1 NSaved=   1.
 NSaved= 1 IEnMin= 1 EnMin= -3031.02478239620     IErMin= 1 ErrMin= 1.92D-01
 ErrMax= 1.92D-01  0.00D+00 EMaxC= 1.00D-01 BMatC= 5.74D-01 BMatP= 5.74D-01
 IDIUse=3 WtCom= 0.00D+00 WtEn= 1.00D+00
 Coeff-Com:  0.100D+01
 Coeff-En:   0.100D+01
 Coeff:      0.100D+01
 Gap=     0.205 Goal=   None    Shift=    0.000
 GapD=    0.205 DampG=1.000 DampE=0.250 DampFc=0.2500 IDamp=-1.
 Damping current iteration by 2.50D-01
 RMSDP=5.95D-03 MaxDP=1.85D-01              OVMax= 2.57D-01

 Cycle   2  Pass 0  IDiag  1:
 RMSU=  1.46D-03    CP:  9.93D-01
 E= -3031.09948891217     Delta-E=       -0.074706515965 Rises=F Damp=T
 DIIS: error= 1.42D-01 at cycle   2 NSaved=   2.
 NSaved= 2 IEnMin= 2 EnMin= -3031.09948891217     IErMin= 2 ErrMin= 1.42D-01
 ErrMax= 1.42D-01  0.00D+00 EMaxC= 1.00D-01 BMatC= 2.46D-01 BMatP= 5.74D-01
 IDIUse=3 WtCom= 0.00D+00 WtEn= 1.00D+00
 Coeff-Com: -0.123D+01 0.223D+01
 Coeff-En:   0.000D+00 0.100D+01
 Coeff:      0.000D+00 0.100D+01
 Gap=     0.187 Goal=   None    Shift=    0.000
 RMSDP=2.72D-03 MaxDP=1.11D-01 DE=-7.47D-02 OVMax= 1.16D-01

 Cycle   3  Pass 0  IDiag  1:
 RMSU=  1.34D-03    CP:  9.71D-01  2.49D+00
 E= -3031.19871625908     Delta-E=       -0.099227346914 Rises=F Damp=F
 DIIS: error= 1.22D-02 at cycle   3 NSaved=   3.
 NSaved= 3 IEnMin= 3 EnMin= -3031.19871625908     IErMin= 3 ErrMin= 1.22D-02
 ErrMax= 1.22D-02  0.00D+00 EMaxC= 1.00D-01 BMatC= 4.26D-02 BMatP= 2.46D-01
 IDIUse=3 WtCom= 8.78D-01 WtEn= 1.22D-01
 Coeff-Com:  0.781D+00-0.898D+00 0.112D+01
 Coeff-En:   0.854D-01 0.000D+00 0.915D+00
 Coeff:      0.696D+00-0.789D+00 0.109D+01
 Gap=     0.187 Goal=   None    Shift=    0.000
 RMSDP=1.56D-03 MaxDP=3.54D-02 DE=-9.92D-02 OVMax= 5.87D-02

 Cycle   4  Pass 0  IDiag  1:
 RMSU=  1.20D-03    CP:  9.71D-01  1.82D+00  8.78D-01
 E= -3031.22098480580     Delta-E=       -0.022268546714 Rises=F Damp=F
 DIIS: error= 1.23D-02 at cycle   4 NSaved=   4.
 NSaved= 4 IEnMin= 4 EnMin= -3031.22098480580     IErMin= 3 ErrMin= 1.22D-02
 ErrMax= 1.23D-02  0.00D+00 EMaxC= 1.00D-01 BMatC= 1.83D-02 BMatP= 4.26D-02
 IDIUse=3 WtCom= 8.77D-01 WtEn= 1.23D-01
 Coeff-Com:  0.589D+00-0.761D+00 0.706D+00 0.466D+00
 Coeff-En:   0.000D+00 0.000D+00 0.271D+00 0.729D+00
 Coeff:      0.517D+00-0.668D+00 0.653D+00 0.498D+00
 Gap=     0.202 Goal=   None    Shift=    0.000
 RMSDP=8.78D-04 MaxDP=3.55D-02 DE=-2.23D-02 OVMax= 4.27D-02

 Cycle   5  Pass 0  IDiag  1:
 RMSU=  2.34D-04    CP:  9.71D-01  1.82D+00  1.07D+00  3.33D-01
 E= -3031.23833842556     Delta-E=       -0.017353619760 Rises=F Damp=F
 DIIS: error= 3.18D-03 at cycle   5 NSaved=   5.
 NSaved= 5 IEnMin= 5 EnMin= -3031.23833842556     IErMin= 5 ErrMin= 3.18D-03
 ErrMax= 3.18D-03  0.00D+00 EMaxC= 1.00D-01 BMatC= 1.16D-03 BMatP= 1.83D-02
 IDIUse=3 WtCom= 9.68D-01 WtEn= 3.18D-02
 Coeff-Com:  0.224D+00-0.291D+00 0.295D+00 0.278D+00 0.493D+00
 Coeff-En:   0.000D+00 0.000D+00 0.000D+00 0.000D+00 0.100D+01
 Coeff:      0.217D+00-0.281D+00 0.285D+00 0.270D+00 0.510D+00
 Gap=     0.178 Goal=   None    Shift=    0.000
 RMSDP=2.19D-04 MaxDP=9.67D-03 DE=-1.74D-02 OVMax= 1.11D-02

 Cycle   6  Pass 0  IDiag  1:
 RMSU=  9.55D-05    CP:  9.71D-01  1.87D+00  1.05D+00  4.39D-01  4.29D-01
 E= -3031.23927573536     Delta-E=       -0.000937309805 Rises=F Damp=F
 DIIS: error= 8.34D-04 at cycle   6 NSaved=   6.
 NSaved= 6 IEnMin= 6 EnMin= -3031.23927573536     IErMin= 6 ErrMin= 8.34D-04
 ErrMax= 8.34D-04  0.00D+00 EMaxC= 1.00D-01 BMatC= 1.22D-04 BMatP= 1.16D-03
 IDIUse=3 WtCom= 9.92D-01 WtEn= 8.34D-03
 Coeff-Com:  0.763D-01-0.994D-01 0.103D+00 0.116D+00 0.328D+00 0.475D+00
 Coeff-En:   0.000D+00 0.000D+00 0.000D+00 0.000D+00 0.760D-01 0.924D+00
 Coeff:      0.756D-01-0.986D-01 0.103D+00 0.115D+00 0.326D+00 0.479D+00
 Gap=     0.178 Goal=   None    Shift=    0.000
 RMSDP=6.68D-05 MaxDP=1.95D-03 DE=-9.37D-04 OVMax= 5.00D-03

 Cycle   7  Pass 0  IDiag  1:
 RMSU=  2.95D-05    CP:  9.71D-01  1.86D+00  1.05D+00  4.34D-01  5.48D-01
                    CP:  4.54D-01
 E= -3031.23938700005     Delta-E=       -0.000111264684 Rises=F Damp=F
 DIIS: error= 1.52D-04 at cycle   7 NSaved=   7.
 NSaved= 7 IEnMin= 7 EnMin= -3031.23938700005     IErMin= 7 ErrMin= 1.52D-04
 ErrMax= 1.52D-04  0.00D+00 EMaxC= 1.00D-01 BMatC= 8.00D-06 BMatP= 1.22D-04
 IDIUse=3 WtCom= 9.98D-01 WtEn= 1.52D-03
 Coeff-Com:  0.199D-01-0.262D-01 0.275D-01 0.361D-01 0.134D+00 0.277D+00
 Coeff-Com:  0.531D+00
 Coeff-En:   0.000D+00 0.000D+00 0.000D+00 0.000D+00 0.000D+00 0.000D+00
 Coeff-En:   0.100D+01
 Coeff:      0.199D-01-0.262D-01 0.275D-01 0.360D-01 0.134D+00 0.277D+00
 Coeff:      0.532D+00
 Gap=     0.178 Goal=   None    Shift=    0.000
 RMSDP=1.62D-05 MaxDP=3.90D-04 DE=-1.11D-04 OVMax= 1.31D-03

 Cycle   8  Pass 0  IDiag  1:
 RMSU=  9.06D-06    CP:  9.71D-01  1.86D+00  1.06D+00  4.32D-01  5.47D-01
                    CP:  5.27D-01  6.56D-01
 E= -3031.23939430364     Delta-E=       -0.000007303599 Rises=F Damp=F
 DIIS: error= 4.53D-05 at cycle   8 NSaved=   8.
 NSaved= 8 IEnMin= 8 EnMin= -3031.23939430364     IErMin= 8 ErrMin= 4.53D-05
 ErrMax= 4.53D-05  0.00D+00 EMaxC= 1.00D-01 BMatC= 5.28D-07 BMatP= 8.00D-06
 IDIUse=1 WtCom= 1.00D+00 WtEn= 0.00D+00
 Coeff-Com:  0.400D-02-0.534D-02 0.574D-02 0.886D-02 0.403D-01 0.101D+00
 Coeff-Com:  0.271D+00 0.575D+00
 Coeff:      0.400D-02-0.534D-02 0.574D-02 0.886D-02 0.403D-01 0.101D+00
 Coeff:      0.271D+00 0.575D+00
 Gap=     0.178 Goal=   None    Shift=    0.000
 RMSDP=4.65D-06 MaxDP=2.03D-04 DE=-7.30D-06 OVMax= 3.04D-04

 Initial convergence to 1.0D-05 achieved.  Increase integral accuracy.
 Cycle   9  Pass 1  IDiag  1:
 E= -3031.23937539776     Delta-E=        0.000018905882 Rises=F Damp=F
 DIIS: error= 6.44D-05 at cycle   1 NSaved=   1.
 NSaved= 1 IEnMin= 1 EnMin= -3031.23937539776     IErMin= 1 ErrMin= 6.44D-05
 ErrMax= 6.44D-05  0.00D+00 EMaxC= 1.00D-01 BMatC= 2.75D-07 BMatP= 2.75D-07
 IDIUse=1 WtCom= 1.00D+00 WtEn= 0.00D+00
 Coeff-Com:  0.100D+01
 Coeff:      0.100D+01
 Gap=     0.178 Goal=   None    Shift=    0.000
 RMSDP=4.65D-06 MaxDP=2.03D-04 DE= 1.89D-05 OVMax= 2.31D-04

 Cycle  10  Pass 1  IDiag  1:
 RMSU=  1.62D-05    CP:  1.00D+00
 E= -3031.23937531752     Delta-E=        0.000000080247 Rises=F Damp=F
 DIIS: error= 3.92D-05 at cycle   2 NSaved=   2.
 NSaved= 2 IEnMin= 1 EnMin= -3031.23937539776     IErMin= 2 ErrMin= 3.92D-05
 ErrMax= 3.92D-05  0.00D+00 EMaxC= 1.00D-01 BMatC= 2.70D-07 BMatP= 2.75D-07
 IDIUse=1 WtCom= 1.00D+00 WtEn= 0.00D+00
 Coeff-Com:  0.497D+00 0.503D+00
 Coeff:      0.497D+00 0.503D+00
 Gap=     0.178 Goal=   None    Shift=    0.000
 RMSDP=3.55D-06 MaxDP=1.66D-04 DE= 8.02D-08 OVMax= 2.43D-04

 Cycle  11  Pass 1  IDiag  1:
 RMSU=  3.48D-06    CP:  1.00D+00  9.57D-01
 E= -3031.23937551440     Delta-E=       -0.000000196882 Rises=F Damp=F
 DIIS: error= 2.43D-05 at cycle   3 NSaved=   3.
 NSaved= 3 IEnMin= 3 EnMin= -3031.23937551440     IErMin= 3 ErrMin= 2.43D-05
 ErrMax= 2.43D-05  0.00D+00 EMaxC= 1.00D-01 BMatC= 7.04D-08 BMatP= 2.70D-07
 IDIUse=1 WtCom= 1.00D+00 WtEn= 0.00D+00
 Coeff-Com:  0.256D-01 0.335D+00 0.639D+00
 Coeff:      0.256D-01 0.335D+00 0.639D+00
 Gap=     0.178 Goal=   None    Shift=    0.000
 RMSDP=1.40D-06 MaxDP=5.73D-05 DE=-1.97D-07 OVMax= 9.43D-05

 Cycle  12  Pass 1  IDiag  1:
 RMSU=  5.51D-07    CP:  1.00D+00  9.83D-01  6.49D-01
 E= -3031.23937558254     Delta-E=       -0.000000068142 Rises=F Damp=F
 DIIS: error= 5.67D-06 at cycle   4 NSaved=   4.
 NSaved= 4 IEnMin= 4 EnMin= -3031.23937558254     IErMin= 4 ErrMin= 5.67D-06
 ErrMax= 5.67D-06  0.00D+00 EMaxC= 1.00D-01 BMatC= 5.32D-09 BMatP= 7.04D-08
 IDIUse=1 WtCom= 1.00D+00 WtEn= 0.00D+00
 Coeff-Com: -0.301D-03 0.196D+00 0.404D+00 0.400D+00
 Coeff:     -0.301D-03 0.196D+00 0.404D+00 0.400D+00
 Gap=     0.178 Goal=   None    Shift=    0.000
 RMSDP=3.65D-07 MaxDP=1.17D-05 DE=-6.81D-08 OVMax= 2.05D-05

 Cycle  13  Pass 1  IDiag  1:
 RMSU=  1.46D-07    CP:  1.00D+00  9.81D-01  6.75D-01  4.17D-01
 E= -3031.23937558720     Delta-E=       -0.000000004663 Rises=F Damp=F
 DIIS: error= 1.18D-06 at cycle   5 NSaved=   5.
 NSaved= 5 IEnMin= 5 EnMin= -3031.23937558720     IErMin= 5 ErrMin= 1.18D-06
 ErrMax= 1.18D-06  0.00D+00 EMaxC= 1.00D-01 BMatC= 2.09D-10 BMatP= 5.32D-09
 IDIUse=1 WtCom= 1.00D+00 WtEn= 0.00D+00
 Coeff-Com: -0.146D-02 0.102D+00 0.213D+00 0.244D+00 0.443D+00
 Coeff:     -0.146D-02 0.102D+00 0.213D+00 0.244D+00 0.443D+00
 Gap=     0.178 Goal=   None    Shift=    0.000
 RMSDP=8.40D-08 MaxDP=3.82D-06 DE=-4.66D-09 OVMax= 3.96D-06

 Cycle  14  Pass 1  IDiag  1:
 RMSU=  4.35D-08    CP:  1.00D+00  9.82D-01  6.73D-01  4.48D-01  5.26D-01
 E= -3031.23937558737     Delta-E=       -0.000000000170 Rises=F Damp=F
 DIIS: error= 2.53D-07 at cycle   6 NSaved=   6.
 NSaved= 6 IEnMin= 6 EnMin= -3031.23937558737     IErMin= 6 ErrMin= 2.53D-07
 ErrMax= 2.53D-07  0.00D+00 EMaxC= 1.00D-01 BMatC= 8.56D-12 BMatP= 2.09D-10
 IDIUse=1 WtCom= 1.00D+00 WtEn= 0.00D+00
 Coeff-Com: -0.785D-03 0.458D-01 0.955D-01 0.114D+00 0.247D+00 0.498D+00
 Coeff:     -0.785D-03 0.458D-01 0.955D-01 0.114D+00 0.247D+00 0.498D+00
 Gap=     0.178 Goal=   None    Shift=    0.000
 RMSDP=1.80D-08 MaxDP=6.85D-07 DE=-1.70D-10 OVMax= 8.54D-07

 Cycle  15  Pass 1  IDiag  1:
 RMSU=  1.33D-08    CP:  1.00D+00  9.82D-01  6.72D-01  4.50D-01  5.53D-01
                    CP:  7.45D-01
 E= -3031.23937558739     Delta-E=       -0.000000000020 Rises=F Damp=F
 DIIS: error= 9.21D-08 at cycle   7 NSaved=   7.
 NSaved= 7 IEnMin= 7 EnMin= -3031.23937558739     IErMin= 7 ErrMin= 9.21D-08
 ErrMax= 9.21D-08  0.00D+00 EMaxC= 1.00D-01 BMatC= 7.96D-13 BMatP= 8.56D-12
 IDIUse=1 WtCom= 1.00D+00 WtEn= 0.00D+00
 Coeff-Com: -0.251D-03 0.131D-01 0.273D-01 0.341D-01 0.818D-01 0.273D+00
 Coeff-Com:  0.571D+00
 Coeff:     -0.251D-03 0.131D-01 0.273D-01 0.341D-01 0.818D-01 0.273D+00
 Coeff:      0.571D+00
 Gap=     0.178 Goal=   None    Shift=    0.000
 RMSDP=5.38D-09 MaxDP=2.16D-07 DE=-2.00D-11 OVMax= 3.66D-07

 SCF Done:  E(RB3LYP) =  -3031.23937559     A.U. after   15 cycles
            NFock= 15  Conv=0.54D-08     -V/T= 2.0065
 KE= 3.011532257936D+03 PE=-8.875797077485D+03 EE= 1.997062009679D+03
 Leave Link  502 at Tue Sep 17 09:44:17 2024, MaxMem=  1342177280 cpu:              81.5 elap:              10.9
 (Enter /groups/ReismanLab/Software/Gaussian16_RevC/Linux_Binary_AVX2-enabled-CPU/g16/l508.exe)
 QCSCF skips out because SCF is already converged.
 Leave Link  508 at Tue Sep 17 09:44:17 2024, MaxMem=  1342177280 cpu:               0.1 elap:               0.0
 (Enter /groups/ReismanLab/Software/Gaussian16_RevC/Linux_Binary_AVX2-enabled-CPU/g16/l601.exe)
 Copying SCF densities to generalized density rwf, IOpCl= 0 IROHF=0.

 **********************************************************************

            Population analysis using the SCF Density.

 **********************************************************************

 Orbital symmetries:
       Occupied  (A) (A) (A) (A) (A) (A) (A) (A) (A) (A) (A) (A)
                 (A) (A) (A) (A) (A) (A) (A) (A) (A) (A) (A) (A)
                 (A) (A) (A) (A) (A) (A) (A) (A) (A) (A) (A) (A)
                 (A) (A) (A) (A) (A) (A) (A) (A) (A) (A) (A) (A)
                 (A) (A) (A) (A) (A)
       Virtual   (A) (A) (A) (A) (A) (A) (A) (A) (A) (A) (A) (A)
                 (A) (A) (A) (A) (A) (A) (A) (A) (A) (A) (A) (A)
                 (A) (A) (A) (A) (A) (A) (A) (A) (A) (A) (A) (A)
                 (A) (A) (A) (A) (A) (A) (A) (A) (A) (A) (A) (A)
                 (A) (A) (A) (A) (A) (A) (A) (A) (A) (A) (A) (A)
                 (A) (A) (A) (A) (A) (A) (A) (A) (A) (A) (A) (A)
                 (A) (A) (A) (A) (A) (A) (A) (A) (A) (A) (A) (A)
                 (A) (A) (A) (A) (A) (A) (A) (A) (A) (A) (A) (A)
                 (A) (A) (A) (A) (A) (A) (A) (A) (A) (A) (A) (A)
                 (A) (A) (A) (A) (A) (A) (A) (A) (A) (A) (A) (A)
                 (A) (A) (A) (A) (A) (A) (A) (A) (A) (A) (A) (A)
                 (A) (A) (A) (A) (A) (A) (A) (A) (A) (A) (A) (A)
                 (A) (A) (A) (A) (A) (A) (A) (A) (A) (A) (A) (A)
                 (A) (A) (A) (A) (A) (A)
 The electronic state is 1-A.
 Alpha  occ. eigenvalues -- -482.90987 -61.87135 -56.39277 -56.38842 -56.38841
 Alpha  occ. eigenvalues --  -19.20532 -19.14186 -10.28254 -10.27071 -10.26063
 Alpha  occ. eigenvalues --  -10.24888 -10.21555 -10.21133 -10.21050 -10.20247
 Alpha  occ. eigenvalues --   -8.58253  -6.53673  -6.52378  -6.52304  -2.65241
 Alpha  occ. eigenvalues --   -2.64882  -2.64825  -2.63791  -2.63790  -1.09854
 Alpha  occ. eigenvalues --   -1.04435  -0.88778  -0.81630  -0.78531  -0.74511
 Alpha  occ. eigenvalues --   -0.72614  -0.64617  -0.62610  -0.57644  -0.55889
 Alpha  occ. eigenvalues --   -0.51812  -0.49206  -0.48506  -0.46708  -0.44791
 Alpha  occ. eigenvalues --   -0.43388  -0.42671  -0.41935  -0.40257  -0.39234
 Alpha  occ. eigenvalues --   -0.37870  -0.34598  -0.33792  -0.31805  -0.28092
 Alpha  occ. eigenvalues --   -0.25912  -0.25344  -0.23550
 Alpha virt. eigenvalues --   -0.05750  -0.02152   0.01049   0.04552   0.07939
 Alpha virt. eigenvalues --    0.09930   0.11817   0.12501   0.14414   0.14935
 Alpha virt. eigenvalues --    0.16331   0.17088   0.20332   0.22677   0.24663
 Alpha virt. eigenvalues --    0.27339   0.28009   0.31252   0.32799   0.35449
 Alpha virt. eigenvalues --    0.37557   0.44150   0.46066   0.46283   0.46470
 Alpha virt. eigenvalues --    0.46853   0.46885   0.48041   0.49779   0.49992
 Alpha virt. eigenvalues --    0.51322   0.51886   0.53822   0.55234   0.56407
 Alpha virt. eigenvalues --    0.56497   0.57414   0.59520   0.61223   0.62932
 Alpha virt. eigenvalues --    0.66052   0.66513   0.67255   0.71325   0.72415
 Alpha virt. eigenvalues --    0.74461   0.77523   0.78685   0.79774   0.80797
 Alpha virt. eigenvalues --    0.80901   0.81290   0.82149   0.84957   0.85665
 Alpha virt. eigenvalues --    0.88057   0.89606   0.92225   0.94657   0.97009
 Alpha virt. eigenvalues --    0.99422   1.00176   1.01368   1.03000   1.07308
 Alpha virt. eigenvalues --    1.11030   1.13683   1.18125   1.21046   1.21140
 Alpha virt. eigenvalues --    1.21506   1.26053   1.29052   1.30082   1.33925
 Alpha virt. eigenvalues --    1.37131   1.38026   1.38234   1.42353   1.45724
 Alpha virt. eigenvalues --    1.47226   1.47936   1.52922   1.59078   1.59599
 Alpha virt. eigenvalues --    1.65056   1.67639   1.74300   1.74394   1.78267
 Alpha virt. eigenvalues --    1.78781   1.82120   1.85394   1.86625   1.88878
 Alpha virt. eigenvalues --    1.90191   1.90515   1.91916   1.92173   1.97215
 Alpha virt. eigenvalues --    1.99577   2.00197   2.01478   2.01793   2.04102
 Alpha virt. eigenvalues --    2.05231   2.06617   2.08990   2.14188   2.14570
 Alpha virt. eigenvalues --    2.22034   2.24891   2.27292   2.28317   2.33818
 Alpha virt. eigenvalues --    2.38904   2.41334   2.42647   2.45893   2.47573
 Alpha virt. eigenvalues --    2.47808   2.50135   2.52785   2.55370   2.56245
 Alpha virt. eigenvalues --    2.58684   2.60108   2.64953   2.68786   2.69378
 Alpha virt. eigenvalues --    2.71286   2.74929   2.77022   2.79823   2.85442
 Alpha virt. eigenvalues --    2.87784   2.95090   2.97001   3.00507   3.01674
 Alpha virt. eigenvalues --    3.13612   3.16365   3.22195   3.29511   3.32561
 Alpha virt. eigenvalues --    3.38641   3.41774   3.42936   3.50664   3.76894
 Alpha virt. eigenvalues --    3.95599   4.05683   4.11905   4.13387   4.26268
 Alpha virt. eigenvalues --    4.36871   4.39652   4.45993   4.54417   4.83290
 Alpha virt. eigenvalues --    8.61891  72.99218
          Condensed to atoms (all electrons):
               1          2          3          4          5          6
     1  C    4.724794   0.242003  -0.034700  -0.007422   0.000694  -0.000033
     2  O    0.242003   8.184515   0.309014  -0.059735   0.003849   0.000068
     3  C   -0.034700   0.309014   4.621020   0.462802  -0.013639  -0.035078
     4  C   -0.007422  -0.059735   0.462802   5.032290   0.479918  -0.014989
     5  C    0.000694   0.003849  -0.013639   0.479918   4.935379   0.498618
     6  C   -0.000033   0.000068  -0.035078  -0.014989   0.498618   5.113423
     7  C   -0.000000  -0.000000   0.000182   0.004998  -0.030926   0.266233
     8  O    0.000000  -0.000000  -0.000002  -0.000100   0.003174  -0.085202
     9  C   -0.000059   0.003030  -0.027165  -0.048153  -0.062089   0.447446
    10  C    0.006647  -0.080027   0.454062  -0.063073  -0.034031  -0.029028
    11  Br   0.000514  -0.002342  -0.060911   0.006936   0.000210   0.005084
    12  H    0.368186  -0.026300  -0.012721   0.007047  -0.000400   0.000002
    13  H    0.393419  -0.037267   0.001417   0.000346  -0.000006  -0.000000
    14  H    0.393566  -0.037060   0.001438   0.000341  -0.000006  -0.000000
    15  H   -0.001634  -0.004958  -0.040591   0.358446  -0.027425   0.002923
    16  H   -0.000005  -0.000049   0.003446  -0.037953   0.363413  -0.043049
    17  H    0.000000  -0.000000  -0.000038  -0.000087  -0.001881  -0.132112
    18  H    0.000002  -0.000043   0.005002  -0.000092   0.006907  -0.043866
               7          8          9         10         11         12
     1  C   -0.000000   0.000000  -0.000059   0.006647   0.000514   0.368186
     2  O   -0.000000  -0.000000   0.003030  -0.080027  -0.002342  -0.026300
     3  C    0.000182  -0.000002  -0.027165   0.454062  -0.060911  -0.012721
     4  C    0.004998  -0.000100  -0.048153  -0.063073   0.006936   0.007047
     5  C   -0.030926   0.003174  -0.062089  -0.034031   0.000210  -0.000400
     6  C    0.266233  -0.085202   0.447446  -0.029028   0.005084   0.000002
     7  C    4.614668   0.566945  -0.033645   0.007997  -0.000126   0.000000
     8  O    0.566945   7.967362   0.005105   0.001200   0.000002   0.000000
     9  C   -0.033645   0.005105   5.008545   0.491475  -0.064209  -0.000020
    10  C    0.007997   0.001200   0.491475   5.021506   0.261764  -0.000655
    11  Br  -0.000126   0.000002  -0.064209   0.261764  34.956195   0.000021
    12  H    0.000000   0.000000  -0.000020  -0.000655   0.000021   0.612894
    13  H   -0.000000   0.000000   0.000006  -0.000043   0.000001  -0.034144
    14  H   -0.000000   0.000000   0.000006  -0.000061  -0.000001  -0.034074
    15  H   -0.000137   0.000000   0.000973   0.004157  -0.000165   0.004450
    16  H   -0.006815   0.000067   0.006203   0.000592   0.000010   0.000033
    17  H    0.362731  -0.057662   0.009956   0.000056   0.000002   0.000000
    18  H   -0.009441   0.014653   0.366297  -0.040014  -0.002293   0.000000
              13         14         15         16         17         18
     1  C    0.393419   0.393566  -0.001634  -0.000005   0.000000   0.000002
     2  O   -0.037267  -0.037060  -0.004958  -0.000049  -0.000000  -0.000043
     3  C    0.001417   0.001438  -0.040591   0.003446  -0.000038   0.005002
     4  C    0.000346   0.000341   0.358446  -0.037953  -0.000087  -0.000092
     5  C   -0.000006  -0.000006  -0.027425   0.363413  -0.001881   0.006907
     6  C   -0.000000  -0.000000   0.002923  -0.043049  -0.132112  -0.043866
     7  C   -0.000000  -0.000000  -0.000137  -0.006815   0.362731  -0.009441
     8  O    0.000000   0.000000   0.000000   0.000067  -0.057662   0.014653
     9  C    0.000006   0.000006   0.000973   0.006203   0.009956   0.366297
    10  C   -0.000043  -0.000061   0.004157   0.000592   0.000056  -0.040014
    11  Br   0.000001  -0.000001  -0.000165   0.000010   0.000002  -0.002293
    12  H   -0.034144  -0.034074   0.004450   0.000033   0.000000   0.000000
    13  H    0.579234  -0.038750  -0.000044  -0.000000   0.000000  -0.000000
    14  H   -0.038750   0.578841  -0.000043  -0.000000   0.000000  -0.000000
    15  H   -0.000044  -0.000043   0.612490  -0.006182   0.000012   0.000017
    16  H   -0.000000  -0.000000  -0.006182   0.612386   0.009638  -0.000144
    17  H    0.000000   0.000000   0.000012   0.009638   0.755326   0.000760
    18  H   -0.000000  -0.000000   0.000017  -0.000144   0.000760   0.565931
 Mulliken charges:
               1
     1  C   -0.085972
     2  O   -0.494697
     3  C    0.366462
     4  C   -0.121521
     5  C   -0.121760
     6  C    0.049563
     7  C    0.257337
     8  O   -0.415542
     9  C   -0.103699
    10  C   -0.002527
    11  Br  -0.100694
    12  H    0.115678
    13  H    0.135830
    14  H    0.135803
    15  H    0.097709
    16  H    0.098409
    17  H    0.053298
    18  H    0.136324
 Sum of Mulliken charges =  -0.00000
 Mulliken charges with hydrogens summed into heavy atoms:
               1
     1  C    0.301339
     2  O   -0.494697
     3  C    0.366462
     4  C   -0.023811
     5  C   -0.023351
     6  C    0.049563
     7  C    0.310634
     8  O   -0.415542
     9  C    0.032624
    10  C   -0.002527
    11  Br  -0.100694
 Electronic spatial extent (au):  <R**2>=           2689.6087
 Charge=             -0.0000 electrons
 Dipole moment (field-independent basis, Debye):
    X=             -2.4947    Y=              5.0673    Z=              0.0054  Tot=              5.6481
 Quadrupole moment (field-independent basis, Debye-Ang):
   XX=            -80.4876   YY=            -66.0567   ZZ=            -76.1810
   XY=              2.5717   XZ=             -0.0974   YZ=              0.0363
 Traceless Quadrupole moment (field-independent basis, Debye-Ang):
   XX=             -6.2458   YY=              8.1851   ZZ=             -1.9393
   XY=              2.5717   XZ=             -0.0974   YZ=              0.0363
 Octapole moment (field-independent basis, Debye-Ang**2):
  XXX=           -108.5492  YYY=            -19.9078  ZZZ=              0.0586  XYY=            -36.1663
  XXY=             33.9315  XXZ=             -0.0994  XZZ=            -16.4068  YZZ=            -17.3424
  YYZ=              0.0039  XYZ=             -0.0312
 Hexadecapole moment (field-independent basis, Debye-Ang**3):
 XXXX=          -2208.8992 YYYY=           -997.2345 ZZZZ=            -82.3865 XXXY=            156.7276
 XXXZ=             -0.9804 YYYX=             29.8425 YYYZ=              0.0035 ZZZX=              0.1284
 ZZZY=              0.0852 XXYY=           -484.3696 XXZZ=           -345.7304 YYZZ=           -201.1193
 XXYZ=              0.4007 YYXZ=             -0.2190 ZZXY=              6.4578
 N-N= 8.359634342825D+02 E-N=-8.875797086095D+03  KE= 3.011532257936D+03
 No NMR shielding tensors so no spin-rotation constants.
 Leave Link  601 at Tue Sep 17 09:44:17 2024, MaxMem=  1342177280 cpu:               0.8 elap:               0.2
 (Enter /groups/ReismanLab/Software/Gaussian16_RevC/Linux_Binary_AVX2-enabled-CPU/g16/l701.exe)
 ... and contract with generalized density number  0.
 Compute integral first derivatives.
 R6Disp: Adding Grimme-D3(BJ) dispersion energy 1st derivatives to the gradient.
 Leave Link  701 at Tue Sep 17 09:44:17 2024, MaxMem=  1342177280 cpu:               0.8 elap:               0.2
 (Enter /groups/ReismanLab/Software/Gaussian16_RevC/Linux_Binary_AVX2-enabled-CPU/g16/l702.exe)
 L702 exits ... SP integral derivatives will be done elsewhere.
 Leave Link  702 at Tue Sep 17 09:44:17 2024, MaxMem=  1342177280 cpu:               0.1 elap:               0.0
 (Enter /groups/ReismanLab/Software/Gaussian16_RevC/Linux_Binary_AVX2-enabled-CPU/g16/l703.exe)
 Integral derivatives from FoFJK, PRISM(SPDF).
 Compute integral first derivatives, UseDBF=F ICtDFT=           0.
 Calling FoFJK, ICntrl=      2127 FMM=F ISym2X=0 I1Cent= 0 IOpClX= 0 NMat=1 NMatS=1 NMatT=0.
 FoFJK:  IHMeth= 1 ICntrl=    2127 DoSepK=F KAlg= 0 I1Cent=           0 FoldK=F
 IRaf=         0 NMat=       1 IRICut=       1 DoRegI=T DoRafI=F ISym2E= 0 IDoP0=0 IntGTp=1.
 FoFCou: FMM=F IPFlag=           0 FMFlag=      100000 FMFlg1=         800
         NFxFlg=           0 DoJE=F BraDBF=F KetDBF=F FulRan=T
         wScrn=  0.000000 ICntrl=      2127 IOpCl=  0 I1Cent=           0 NGrid=           0
         NMat0=    1 NMatS0=      1 NMatT0=    0 NMatD0=    1 NMtDS0=    0 NMtDT0=    0
 Symmetry not used in FoFCou.
 Leave Link  703 at Tue Sep 17 09:44:20 2024, MaxMem=  1342177280 cpu:              23.3 elap:               3.0
 (Enter /groups/ReismanLab/Software/Gaussian16_RevC/Linux_Binary_AVX2-enabled-CPU/g16/l716.exe)
 Dipole        =-9.81508205D-01 1.99362187D+00 2.13720737D-03
 ***** Axes restored to original set *****
 -------------------------------------------------------------------
 Center     Atomic                   Forces (Hartrees/Bohr)
 Number     Number              X              Y              Z
 -------------------------------------------------------------------
      1        6          -0.002169035    0.005797140    0.000111431
      2        8          -0.000868407   -0.002293189   -0.000130190
      3        6           0.001216465   -0.003627370   -0.000016793
      4        6          -0.005249179    0.009529598    0.000020320
      5        6           0.005480377   -0.002882046    0.000026445
      6        6          -0.002528940   -0.000943866    0.000010882
      7        6           0.000962548    0.019032861   -0.000188132
      8        8           0.002825533   -0.021336680    0.000112336
      9        6           0.001502741   -0.002552224    0.000030920
     10        6          -0.007005804   -0.003048078   -0.000029574
     11       35          -0.002109308   -0.005997206    0.000037195
     12        1           0.001466173    0.001610219    0.000006600
     13        1          -0.000208889    0.000992995    0.000832903
     14        1          -0.000206123    0.000990534   -0.000854743
     15        1          -0.000925747    0.003246579   -0.000015645
     16        1           0.003991001    0.002557381    0.000003090
     17        1           0.003717102    0.001879739    0.000020063
     18        1           0.000109492   -0.002956387    0.000022892
 -------------------------------------------------------------------
 Cartesian Forces:  Max     0.021336680 RMS     0.004763288
 Leave Link  716 at Tue Sep 17 09:44:20 2024, MaxMem=  1342177280 cpu:               0.1 elap:               0.0
 (Enter /groups/ReismanLab/Software/Gaussian16_RevC/Linux_Binary_AVX2-enabled-CPU/g16/l103.exe)

 GradGradGradGradGradGradGradGradGradGradGradGradGradGradGradGradGradGrad
 Berny optimization.
 FormGI is forming the generalized inverse of G from B-inverse, IUseBI=4.
 Internal  Forces:  Max     0.021506949 RMS     0.004338875
 Search for a local minimum.
 Step number   1 out of a maximum of   89
 All quantities printed in internal units (Hartrees-Bohrs-Radians)
 RMS Force = .43389D-02 SwitMx=.10000D-02 MixMth= 1
 Mixed Optimization -- RFO/linear search
 Second derivative matrix not updated -- first step.
 ITU=  0
     Eigenvalues ---    0.01241   0.01241   0.01542   0.01871   0.02085
     Eigenvalues ---    0.02157   0.02208   0.02217   0.02251   0.02268
     Eigenvalues ---    0.02287   0.02333   0.02467   0.10058   0.10669
     Eigenvalues ---    0.16000   0.16000   0.16000   0.16000   0.16000
     Eigenvalues ---    0.16000   0.16000   0.18457   0.22000   0.22370
     Eigenvalues ---    0.23485   0.24608   0.25000   0.25000   0.25000
     Eigenvalues ---    0.25000   0.32755   0.34564   0.34580   0.35083
     Eigenvalues ---    0.35986   0.36048   0.36142   0.36453   0.41870
     Eigenvalues ---    0.43018   0.43795   0.45873   0.46195   0.47813
     Eigenvalues ---    0.50059   0.56899   1.02655
 RFO step:  Lambda=-3.52461393D-03 EMin= 1.24055390D-02
 Linear search not attempted -- first point.
 Iteration  1 RMS(Cart)=  0.04817635 RMS(Int)=  0.00061382
 Iteration  2 RMS(Cart)=  0.00157519 RMS(Int)=  0.00001010
 Iteration  3 RMS(Cart)=  0.00000118 RMS(Int)=  0.00001009
 Iteration  4 RMS(Cart)=  0.00000000 RMS(Int)=  0.00001009
 ITry= 1 IFail=0 DXMaxC= 2.24D-01 DCOld= 1.00D+10 DXMaxT= 3.00D-01 DXLimC= 3.00D+00 Rises=F
 Variable       Old X    -DE/DX   Delta X   Delta X   Delta X     New X
                                 (Linear)    (Quad)   (Total)
    R1        2.66700   0.00937   0.00000   0.02122   0.02122   2.68822
    R2        2.05541   0.00215   0.00000   0.00606   0.00606   2.06147
    R3        2.06388   0.00096   0.00000   0.00275   0.00275   2.06663
    R4        2.06362   0.00099   0.00000   0.00282   0.00282   2.06644
    R5        2.53483   0.00414   0.00000   0.00724   0.00724   2.54206
    R6        2.63574   0.00632   0.00000   0.01380   0.01380   2.64955
    R7        2.65976   0.01139   0.00000   0.02579   0.02581   2.68556
    R8        2.60966   0.00951   0.00000   0.01928   0.01926   2.62892
    R9        2.03861   0.00329   0.00000   0.00902   0.00902   2.04763
   R10        2.63114   0.00419   0.00000   0.00852   0.00850   2.63964
   R11        2.04103   0.00474   0.00000   0.01303   0.01303   2.05406
   R12        2.76679   0.00695   0.00000   0.01888   0.01888   2.78567
   R13        2.64285   0.00672   0.00000   0.01421   0.01421   2.65707
   R14        2.27594   0.02151   0.00000   0.02088   0.02088   2.29682
   R15        2.09484   0.00404   0.00000   0.01220   0.01220   2.10705
   R16        2.59200   0.00808   0.00000   0.01586   0.01588   2.60788
   R17        2.04007   0.00295   0.00000   0.00811   0.00811   2.04818
   R18        3.58255   0.00507   0.00000   0.02698   0.02698   3.60953
    A1        1.98091  -0.00011   0.00000  -0.00152  -0.00152   1.97939
    A2        1.88295   0.00103   0.00000   0.00674   0.00672   1.88968
    A3        1.88307   0.00097   0.00000   0.00625   0.00623   1.88930
    A4        1.90588  -0.00084   0.00000  -0.00585  -0.00585   1.90003
    A5        1.90628  -0.00084   0.00000  -0.00601  -0.00601   1.90027
    A6        1.90340  -0.00018   0.00000   0.00074   0.00071   1.90411
    A7        2.15222  -0.00488   0.00000  -0.01924  -0.01924   2.13298
    A8        2.22591  -0.01141   0.00000  -0.04561  -0.04562   2.18029
    A9        2.00358   0.00892   0.00000   0.03457   0.03456   2.03815
   A10        2.05369   0.00249   0.00000   0.01104   0.01106   2.06475
   A11        2.10453  -0.00100   0.00000  -0.00388  -0.00389   2.10064
   A12        2.10709  -0.00026   0.00000  -0.00270  -0.00270   2.10440
   A13        2.07156   0.00126   0.00000   0.00658   0.00659   2.07815
   A14        2.11403  -0.00031   0.00000  -0.00221  -0.00223   2.11180
   A15        2.08208   0.00037   0.00000   0.00241   0.00242   2.08450
   A16        2.08707  -0.00006   0.00000  -0.00020  -0.00019   2.08688
   A17        2.11579  -0.00259   0.00000  -0.00957  -0.00956   2.10622
   A18        2.07580   0.00127   0.00000   0.00373   0.00372   2.07952
   A19        2.09160   0.00132   0.00000   0.00583   0.00584   2.09744
   A20        2.18842  -0.00197   0.00000  -0.00882  -0.00882   2.17960
   A21        1.98063   0.00205   0.00000   0.01090   0.01090   1.99152
   A22        2.11413  -0.00007   0.00000  -0.00207  -0.00207   2.11206
   A23        2.08885   0.00193   0.00000   0.00792   0.00794   2.09679
   A24        2.07928  -0.00079   0.00000  -0.00291  -0.00291   2.07637
   A25        2.11505  -0.00114   0.00000  -0.00502  -0.00503   2.11003
   A26        2.12946  -0.00437   0.00000  -0.01662  -0.01659   2.11287
   A27        2.04815   0.00905   0.00000   0.03537   0.03535   2.08350
   A28        2.10558  -0.00468   0.00000  -0.01875  -0.01877   2.08681
    D1        0.00763   0.00001   0.00000  -0.00048  -0.00048   0.00715
    D2       -2.10662   0.00041   0.00000   0.00315   0.00317  -2.10345
    D3        2.12247  -0.00045   0.00000  -0.00466  -0.00469   2.11778
    D4       -0.01703   0.00005   0.00000   0.00158   0.00158  -0.01545
    D5        3.12644   0.00004   0.00000   0.00131   0.00131   3.12775
    D6       -3.14143   0.00001   0.00000   0.00064   0.00064  -3.14078
    D7       -0.00014  -0.00001   0.00000   0.00010   0.00010  -0.00003
    D8       -0.00175   0.00002   0.00000   0.00094   0.00094  -0.00081
    D9        3.13954   0.00001   0.00000   0.00040   0.00040   3.13994
   D10       -3.14141  -0.00003   0.00000  -0.00082  -0.00081   3.14096
   D11        0.00036  -0.00004   0.00000  -0.00115  -0.00115  -0.00079
   D12        0.00186  -0.00002   0.00000  -0.00100  -0.00100   0.00086
   D13       -3.13956  -0.00003   0.00000  -0.00133  -0.00133  -3.14089
   D14        0.00013   0.00000   0.00000   0.00013   0.00014   0.00027
   D15       -3.14142  -0.00001   0.00000  -0.00044  -0.00044   3.14133
   D16       -3.14116   0.00001   0.00000   0.00067   0.00067  -3.14049
   D17        0.00047   0.00000   0.00000   0.00009   0.00010   0.00057
   D18       -3.13950  -0.00003   0.00000  -0.00141  -0.00141  -3.14091
   D19        0.00145  -0.00003   0.00000  -0.00121  -0.00121   0.00024
   D20        0.00205  -0.00002   0.00000  -0.00084  -0.00084   0.00122
   D21       -3.14018  -0.00002   0.00000  -0.00063  -0.00063  -3.14081
   D22        3.13954  -0.00000   0.00000  -0.00006  -0.00006   3.13948
   D23       -0.00232   0.00003   0.00000   0.00191   0.00191  -0.00041
   D24       -0.00140  -0.00001   0.00000  -0.00026  -0.00027  -0.00167
   D25        3.13992   0.00003   0.00000   0.00171   0.00171  -3.14156
   D26       -0.00136   0.00003   0.00000   0.00116   0.00116  -0.00020
   D27        3.14066   0.00002   0.00000   0.00090   0.00090   3.14156
   D28        3.13960   0.00003   0.00000   0.00135   0.00135   3.14096
   D29       -0.00157   0.00003   0.00000   0.00110   0.00110  -0.00047
   D30       -0.00031  -0.00000   0.00000  -0.00005  -0.00005  -0.00036
   D31        3.14110   0.00000   0.00000   0.00029   0.00029   3.14139
   D32        3.14086   0.00001   0.00000   0.00021   0.00021   3.14107
   D33       -0.00092   0.00001   0.00000   0.00055   0.00055  -0.00036
         Item               Value     Threshold  Converged?
 Maximum Force            0.021507     0.000450     NO 
 RMS     Force            0.004339     0.000300     NO 
 Maximum Displacement     0.224054     0.001800     NO 
 RMS     Displacement     0.049186     0.001200     NO 
 Predicted change in Energy=-1.781117D-03
 Lowest energy point so far.  Saving SCF results.
 GradGradGradGradGradGradGradGradGradGradGradGradGradGradGradGradGradGrad

 Leave Link  103 at Tue Sep 17 09:44:21 2024, MaxMem=  1342177280 cpu:               0.2 elap:               0.1
 (Enter /groups/ReismanLab/Software/Gaussian16_RevC/Linux_Binary_AVX2-enabled-CPU/g16/l202.exe)
                          Input orientation:                          
 ---------------------------------------------------------------------
 Center     Atomic      Atomic             Coordinates (Angstroms)
 Number     Number       Type             X           Y           Z
 ---------------------------------------------------------------------
      1          6           0       -1.848834    3.108006    0.009942
      2          8           0       -1.552696    1.716699   -0.004200
      3          6           0       -0.290211    1.252268   -0.003108
      4          6           0        0.859966    2.054084   -0.006116
      5          6           0        2.123231    1.471421   -0.005609
      6          6           0        2.274969    0.082851   -0.002442
      7          6           0        3.616980   -0.527081   -0.001059
      8          8           0        3.837233   -1.722373    0.003771
      9          6           0        1.128625   -0.731330   -0.000038
     10          6           0       -0.127361   -0.159508   -0.000576
     11         35           0       -1.673509   -1.281033    0.002387
     12          1           0       -0.959913    3.740326    0.014328
     13          1           0       -2.440475    3.323535    0.904088
     14          1           0       -2.443995    3.340464   -0.877480
     15          1           0        0.778564    3.134576   -0.009649
     16          1           0        3.004759    2.107336   -0.008218
     17          1           0        4.452677    0.211047   -0.003162
     18          1           0        1.249759   -1.808387    0.002382
 ---------------------------------------------------------------------
                    Distance matrix (angstroms):
                    1          2          3          4          5
     1  C    0.000000
     2  O    1.422544   0.000000
     3  C    2.423477   1.345202   0.000000
     4  C    2.906648   2.436138   1.402079   0.000000
     5  C    4.296039   3.684101   2.423372   1.391163   0.000000
     6  C    5.114437   4.161788   2.819163   2.426522   1.396839
     7  C    6.564228   5.635611   4.293277   3.776714   2.495058
     8  O    7.460828   6.393638   5.087664   4.808934   3.624667
     9  C    4.858586   3.630750   2.438804   2.798347   2.416895
    10  C    3.693268   2.356214   1.421139   2.423806   2.779409
    11  Br   4.392545   3.000172   2.886374   4.188266   4.689488
    12  H    1.090884   2.108744   2.576673   2.481086   3.828068
    13  H    1.093613   2.048185   3.120383   3.651422   5.008521
    14  H    1.093513   2.047839   3.124720   3.651055   5.011290
    15  H    2.627605   2.728585   2.164580   1.083560   2.138745
    16  H    4.955706   4.574167   3.404114   2.145455   1.086962
    17  H    6.935530   6.191243   4.855834   4.037867   2.648559
    18  H    5.811390   4.503335   3.426243   3.882099   3.394135
                    6          7          8          9         10
     6  C    0.000000
     7  C    1.474114   0.000000
     8  O    2.387371   1.215425   0.000000
     9  C    1.406059   2.496724   2.884222   0.000000
    10  C    2.414525   3.762340   4.261522   1.380030   0.000000
    11  Br   4.177401   5.343943   5.528387   2.855545   1.910078
    12  H    4.882813   6.257711   7.270062   4.935373   3.987740
    13  H    5.793033   7.234590   8.104404   5.477029   4.277909
    14  H    5.800547   7.243026   8.115586   5.487533   4.287838
    15  H    3.398868   4.632970   5.739825   3.881735   3.416398
    16  H    2.152014   2.704629   3.919161   3.402641   3.866369
    17  H    2.181478   1.115001   2.029023   3.455055   4.595004
    18  H    2.151246   2.691746   2.588904   1.083850   2.148318
                   11         12         13         14         15
    11  Br   0.000000
    12  H    5.071825   0.000000
    13  H    4.754298   1.776921   0.000000
    14  H    4.767184   1.776995   1.781652   0.000000
    15  H    5.050783   1.841144   3.351541   3.343711   0.000000
    16  H    5.776447   4.287865   5.653495   5.653772   2.451768
    17  H    6.305275   6.461598   7.617494   7.623763   4.695335
    18  H    2.970454   5.972521   6.384945   6.397549   4.965386
                   16         17         18
    16  H    0.000000
    17  H    2.385876   0.000000
    18  H    4.291040   3.786401   0.000000
 Stoichiometry    C8H7BrO2
 Framework group  C1[X(C8H7BrO2)]
 Deg. of freedom    48
 Full point group                 C1      NOp   1
 RotChk:  IX=0 Diff= 2.56D-02
 Largest Abelian subgroup         C1      NOp   1
 Largest concise Abelian subgroup C1      NOp   1
                         Standard orientation:                         
 ---------------------------------------------------------------------
 Center     Atomic      Atomic             Coordinates (Angstroms)
 Number     Number       Type             X           Y           Z
 ---------------------------------------------------------------------
      1          6           0       -2.465419    2.618868    0.009381
      2          8           0       -1.918131    1.305896   -0.005216
      3          6           0       -0.591713    1.081888   -0.003293
      4          6           0        0.391144    2.081795   -0.004923
      5          6           0        1.740100    1.741721   -0.003645
      6          6           0        2.144941    0.404838   -0.001053
      7          6           0        3.576318    0.052461    0.001154
      8          8           0        4.012910   -1.081834    0.005564
      9          6           0        1.168129   -0.606516   -0.000031
     10          6           0       -0.171677   -0.275758   -0.001339
     11         35           0       -1.484861   -1.662822   -0.000250
     12          1           0       -1.708143    3.404063    0.014838
     13          1           0       -3.087290    2.721178    0.903136
     14          1           0       -3.092554    2.738334   -0.878426
     15          1           0        0.112168    3.128822   -0.007978
     16          1           0        2.489453    2.529093   -0.005187
     17          1           0        4.261801    0.931858    0.000131
     18          1           0        1.485525   -1.642849    0.001947
 ---------------------------------------------------------------------
 Rotational constants (GHZ):           1.0157053           0.5717111           0.3666589
 Leave Link  202 at Tue Sep 17 09:44:21 2024, MaxMem=  1342177280 cpu:               0.1 elap:               0.0
 (Enter /groups/ReismanLab/Software/Gaussian16_RevC/Linux_Binary_AVX2-enabled-CPU/g16/l301.exe)
 Standard basis: 6-31G(d,p) (6D, 7F)
 Ernie: Thresh=  0.10000D-02 Tol=  0.10000D-05 Strict=F.
 There are   215 symmetry adapted cartesian basis functions of A   symmetry.
 There are   215 symmetry adapted basis functions of A   symmetry.
   215 basis functions,   412 primitive gaussians,   215 cartesian basis functions
    53 alpha electrons       53 beta electrons
       nuclear repulsion energy       828.5184424707 Hartrees.
 IExCor=  402 DFT=T Ex+Corr=B3LYP ExCW=0 ScaHFX=  0.200000
 ScaDFX=  0.800000  0.720000  1.000000  0.810000 ScalE2=  1.000000  1.000000
 IRadAn=      5 IRanWt=     -1 IRanGd=            0 ICorTp=0 IEmpDi=141
 NAtoms=   18 NActive=   18 NUniq=   18 SFac= 1.00D+00 NAtFMM=   60 NAOKFM=F Big=F
 Integral buffers will be    131072 words long.
 Raffenetti 2 integral format.
 Two-electron integral symmetry is turned on.
 R6Disp:  Grimme-D3(BJ) Dispersion energy=       -0.0361164395 Hartrees.
 Nuclear repulsion after empirical dispersion term =      828.4823260312 Hartrees.
 Leave Link  301 at Tue Sep 17 09:44:21 2024, MaxMem=  1342177280 cpu:               0.1 elap:               0.1
 (Enter /groups/ReismanLab/Software/Gaussian16_RevC/Linux_Binary_AVX2-enabled-CPU/g16/l302.exe)
 NPDir=0 NMtPBC=     1 NCelOv=     1 NCel=       1 NClECP=     1 NCelD=      1
         NCelK=      1 NCelE2=     1 NClLst=     1 CellRange=     0.0.
 One-electron integrals computed using PRISM.
 One-electron integral symmetry used in STVInt
 NBasis=   215 RedAO= T EigKep=  4.05D-04  NBF=   215
 NBsUse=   215 1.00D-06 EigRej= -1.00D+00 NBFU=   215
 Precomputing XC quadrature grid using
 IXCGrd= 4 IRadAn=           5 IRanWt=          -1 IRanGd=           0 AccXCQ= 0.00D+00.
 Generated NRdTot=       0 NPtTot=           0 NUsed=           0 NTot=          32
 NSgBfM=   214   214   214   214   214 MxSgAt=    18 MxSgA2=    18.
 Leave Link  302 at Tue Sep 17 09:44:21 2024, MaxMem=  1342177280 cpu:               1.0 elap:               0.2
 (Enter /groups/ReismanLab/Software/Gaussian16_RevC/Linux_Binary_AVX2-enabled-CPU/g16/l303.exe)
 DipDrv:  MaxL=1.
 Leave Link  303 at Tue Sep 17 09:44:21 2024, MaxMem=  1342177280 cpu:               0.1 elap:               0.0
 (Enter /groups/ReismanLab/Software/Gaussian16_RevC/Linux_Binary_AVX2-enabled-CPU/g16/l401.exe)
 Initial guess from the checkpoint file:  "smiles_00118_conf_2.chk"
 B after Tr=     0.000000    0.000000   -0.000000
         Rot=    0.999996    0.000042   -0.000015    0.002812 Ang=   0.32 deg.
 Guess basis will be translated and rotated to current coordinates.
 JPrj=2 DoOrth=T DoCkMO=T.
 Generating alternative initial guess.
 ExpMin= 1.43D-01 ExpMax= 5.74D+05 ExpMxC= 5.74D+03 IAcc=3 IRadAn=         5 AccDes= 0.00D+00
 Harris functional with IExCor=  402 and IRadAn=       5 diagonalized for initial guess.
 HarFok:  IExCor=  402 AccDes= 0.00D+00 IRadAn=         5 IDoV= 1 UseB2=F ITyADJ=14
 ICtDFT=  3500011 ScaDFX=  1.000000  1.000000  1.000000  1.000000
 FoFCou: FMM=F IPFlag=           0 FMFlag=      100000 FMFlg1=           0
         NFxFlg=           0 DoJE=T BraDBF=F KetDBF=T FulRan=T
         wScrn=  0.000000 ICntrl=       500 IOpCl=  0 I1Cent=   200000004 NGrid=           0
         NMat0=    1 NMatS0=      1 NMatT0=    0 NMatD0=    1 NMtDS0=    0 NMtDT0=    0
 Petite list used in FoFCou.
 Harris En= -3031.34984515171    
 Leave Link  401 at Tue Sep 17 09:44:22 2024, MaxMem=  1342177280 cpu:               4.2 elap:               0.6
 (Enter /groups/ReismanLab/Software/Gaussian16_RevC/Linux_Binary_AVX2-enabled-CPU/g16/l502.exe)
 Integral symmetry usage will be decided dynamically.
 Closed shell SCF:
 Using DIIS extrapolation, IDIIS=  1040.
 NGot=  1342177280 LenX=  1342080394 LenY=  1342033728
 Requested convergence on RMS density matrix=1.00D-08 within  32 cycles.
 Requested convergence on MAX density matrix=1.00D-06.
 Requested convergence on             energy=1.00D-06.
 No special actions if energy rises.
 Fock matrices will be formed incrementally for  20 cycles.
 Integral accuracy reduced to 1.0D-05 until final iterations.

 Cycle   1  Pass 0  IDiag  1:
 FoFJK:  IHMeth= 1 ICntrl=       0 DoSepK=F KAlg= 0 I1Cent=           0 FoldK=F
 IRaf= 860000000 NMat=       1 IRICut=       1 DoRegI=T DoRafI=F ISym2E= 0 IDoP0=0 IntGTp=1.
 FoFCou: FMM=F IPFlag=           0 FMFlag=      100000 FMFlg1=           0
         NFxFlg=           0 DoJE=F BraDBF=F KetDBF=F FulRan=T
         wScrn=  0.000000 ICntrl=         0 IOpCl=  0 I1Cent=           0 NGrid=           0
         NMat0=    1 NMatS0=      1 NMatT0=    0 NMatD0=    1 NMtDS0=    0 NMtDT0=    0
 Symmetry not used in FoFCou.
 E= -3031.23758218178    
 DIIS: error= 5.37D-03 at cycle   1 NSaved=   1.
 NSaved= 1 IEnMin= 1 EnMin= -3031.23758218178     IErMin= 1 ErrMin= 5.37D-03
 ErrMax= 5.37D-03  0.00D+00 EMaxC= 1.00D-01 BMatC= 6.01D-03 BMatP= 6.01D-03
 IDIUse=3 WtCom= 9.46D-01 WtEn= 5.37D-02
 Coeff-Com:  0.100D+01
 Coeff-En:   0.100D+01
 Coeff:      0.100D+01
 Gap=     1.837 Goal=   None    Shift=    0.000
 GapD=    1.837 DampG=2.000 DampE=1.000 DampFc=2.0000 IDamp=-1.
 RMSDP=3.80D-04 MaxDP=8.14D-03              OVMax= 1.35D-02

 Cycle   2  Pass 0  IDiag  1:
 RMSU=  3.79D-04    CP:  1.00D+00
 E= -3031.24052895973     Delta-E=       -0.002946777952 Rises=F Damp=F
 DIIS: error= 4.12D-04 at cycle   2 NSaved=   2.
 NSaved= 2 IEnMin= 2 EnMin= -3031.24052895973     IErMin= 2 ErrMin= 4.12D-04
 ErrMax= 4.12D-04  0.00D+00 EMaxC= 1.00D-01 BMatC= 6.67D-05 BMatP= 6.01D-03
 IDIUse=3 WtCom= 9.96D-01 WtEn= 4.12D-03
 Coeff-Com:  0.953D-03 0.999D+00
 Coeff-En:   0.000D+00 0.100D+01
 Coeff:      0.949D-03 0.999D+00
 Gap=     0.176 Goal=   None    Shift=    0.000
 RMSDP=9.39D-05 MaxDP=2.41D-03 DE=-2.95D-03 OVMax= 3.35D-03

 Cycle   3  Pass 0  IDiag  1:
 RMSU=  9.33D-05    CP:  1.00D+00  1.03D+00
 E= -3031.24051687381     Delta-E=        0.000012085921 Rises=F Damp=F
 DIIS: error= 4.60D-04 at cycle   3 NSaved=   3.
 NSaved= 3 IEnMin= 2 EnMin= -3031.24052895973     IErMin= 2 ErrMin= 4.12D-04
 ErrMax= 4.60D-04  0.00D+00 EMaxC= 1.00D-01 BMatC= 8.67D-05 BMatP= 6.67D-05
 IDIUse=3 WtCom= 3.18D-01 WtEn= 6.82D-01
 Coeff-Com: -0.990D-02 0.541D+00 0.469D+00
 Coeff-En:   0.000D+00 0.538D+00 0.462D+00
 Coeff:     -0.315D-02 0.539D+00 0.464D+00
 Gap=     0.176 Goal=   None    Shift=    0.000
 RMSDP=5.83D-05 MaxDP=1.76D-03 DE= 1.21D-05 OVMax= 2.20D-03

 Cycle   4  Pass 0  IDiag  1:
 RMSU=  2.69D-05    CP:  1.00D+00  1.04D+00  4.49D-01
 E= -3031.24060185656     Delta-E=       -0.000084982752 Rises=F Damp=F
 DIIS: error= 2.14D-04 at cycle   4 NSaved=   4.
 NSaved= 4 IEnMin= 4 EnMin= -3031.24060185656     IErMin= 4 ErrMin= 2.14D-04
 ErrMax= 2.14D-04  0.00D+00 EMaxC= 1.00D-01 BMatC= 6.38D-06 BMatP= 6.67D-05
 IDIUse=3 WtCom= 9.98D-01 WtEn= 2.14D-03
 Coeff-Com: -0.532D-02 0.216D+00 0.262D+00 0.527D+00
 Coeff-En:   0.000D+00 0.000D+00 0.000D+00 0.100D+01
 Coeff:     -0.531D-02 0.216D+00 0.262D+00 0.528D+00
 Gap=     0.177 Goal=   None    Shift=    0.000
 RMSDP=1.56D-05 MaxDP=6.45D-04 DE=-8.50D-05 OVMax= 1.02D-03

 Cycle   5  Pass 0  IDiag  1:
 RMSU=  1.10D-05    CP:  1.00D+00  1.05D+00  4.87D-01  6.11D-01
 E= -3031.24060778659     Delta-E=       -0.000005930034 Rises=F Damp=F
 DIIS: error= 8.98D-05 at cycle   5 NSaved=   5.
 NSaved= 5 IEnMin= 5 EnMin= -3031.24060778659     IErMin= 5 ErrMin= 8.98D-05
 ErrMax= 8.98D-05  0.00D+00 EMaxC= 1.00D-01 BMatC= 9.37D-07 BMatP= 6.38D-06
 IDIUse=1 WtCom= 1.00D+00 WtEn= 0.00D+00
 Coeff-Com: -0.119D-02 0.232D-01 0.653D-01 0.309D+00 0.604D+00
 Coeff:     -0.119D-02 0.232D-01 0.653D-01 0.309D+00 0.604D+00
 Gap=     0.176 Goal=   None    Shift=    0.000
 RMSDP=6.65D-06 MaxDP=1.83D-04 DE=-5.93D-06 OVMax= 5.08D-04

 Initial convergence to 1.0D-05 achieved.  Increase integral accuracy.
 Cycle   6  Pass 1  IDiag  1:
 E= -3031.24057611667     Delta-E=        0.000031669922 Rises=F Damp=F
 DIIS: error= 5.18D-05 at cycle   1 NSaved=   1.
 NSaved= 1 IEnMin= 1 EnMin= -3031.24057611667     IErMin= 1 ErrMin= 5.18D-05
 ErrMax= 5.18D-05  0.00D+00 EMaxC= 1.00D-01 BMatC= 2.99D-07 BMatP= 2.99D-07
 IDIUse=1 WtCom= 1.00D+00 WtEn= 0.00D+00
 Coeff-Com:  0.100D+01
 Coeff:      0.100D+01
 Gap=     0.176 Goal=   None    Shift=    0.000
 RMSDP=6.65D-06 MaxDP=1.83D-04 DE= 3.17D-05 OVMax= 3.95D-04

 Cycle   7  Pass 1  IDiag  1:
 RMSU=  1.32D-05    CP:  1.00D+00
 E= -3031.24057579213     Delta-E=        0.000000324542 Rises=F Damp=F
 DIIS: error= 6.16D-05 at cycle   2 NSaved=   2.
 NSaved= 2 IEnMin= 1 EnMin= -3031.24057611667     IErMin= 1 ErrMin= 5.18D-05
 ErrMax= 6.16D-05  0.00D+00 EMaxC= 1.00D-01 BMatC= 5.61D-07 BMatP= 2.99D-07
 IDIUse=1 WtCom= 1.00D+00 WtEn= 0.00D+00
 Coeff-Com:  0.594D+00 0.406D+00
 Coeff:      0.594D+00 0.406D+00
 Gap=     0.176 Goal=   None    Shift=    0.000
 RMSDP=4.95D-06 MaxDP=1.95D-04 DE= 3.25D-07 OVMax= 3.28D-04

 Cycle   8  Pass 1  IDiag  1:
 RMSU=  4.66D-06    CP:  1.00D+00  8.74D-01
 E= -3031.24057630886     Delta-E=       -0.000000516726 Rises=F Damp=F
 DIIS: error= 2.32D-05 at cycle   3 NSaved=   3.
 NSaved= 3 IEnMin= 3 EnMin= -3031.24057630886     IErMin= 3 ErrMin= 2.32D-05
 ErrMax= 2.32D-05  0.00D+00 EMaxC= 1.00D-01 BMatC= 5.66D-08 BMatP= 2.99D-07
 IDIUse=1 WtCom= 1.00D+00 WtEn= 0.00D+00
 Coeff-Com:  0.895D-01 0.241D+00 0.669D+00
 Coeff:      0.895D-01 0.241D+00 0.669D+00
 Gap=     0.176 Goal=   None    Shift=    0.000
 RMSDP=1.30D-06 MaxDP=5.22D-05 DE=-5.17D-07 OVMax= 8.12D-05

 Cycle   9  Pass 1  IDiag  1:
 RMSU=  8.55D-07    CP:  1.00D+00  9.05D-01  8.09D-01
 E= -3031.24057635075     Delta-E=       -0.000000041894 Rises=F Damp=F
 DIIS: error= 9.50D-06 at cycle   4 NSaved=   4.
 NSaved= 4 IEnMin= 4 EnMin= -3031.24057635075     IErMin= 4 ErrMin= 9.50D-06
 ErrMax= 9.50D-06  0.00D+00 EMaxC= 1.00D-01 BMatC= 1.11D-08 BMatP= 5.66D-08
 IDIUse=1 WtCom= 1.00D+00 WtEn= 0.00D+00
 Coeff-Com:  0.379D-02 0.120D+00 0.428D+00 0.448D+00
 Coeff:      0.379D-02 0.120D+00 0.428D+00 0.448D+00
 Gap=     0.176 Goal=   None    Shift=    0.000
 RMSDP=4.64D-07 MaxDP=1.82D-05 DE=-4.19D-08 OVMax= 3.00D-05

 Cycle  10  Pass 1  IDiag  1:
 RMSU=  1.84D-07    CP:  1.00D+00  9.08D-01  8.07D-01  5.05D-01
 E= -3031.24057636047     Delta-E=       -0.000000009724 Rises=F Damp=F
 DIIS: error= 1.49D-06 at cycle   5 NSaved=   5.
 NSaved= 5 IEnMin= 5 EnMin= -3031.24057636047     IErMin= 5 ErrMin= 1.49D-06
 ErrMax= 1.49D-06  0.00D+00 EMaxC= 1.00D-01 BMatC= 3.53D-10 BMatP= 1.11D-08
 IDIUse=1 WtCom= 1.00D+00 WtEn= 0.00D+00
 Coeff-Com: -0.117D-02 0.618D-01 0.227D+00 0.261D+00 0.451D+00
 Coeff:     -0.117D-02 0.618D-01 0.227D+00 0.261D+00 0.451D+00
 Gap=     0.176 Goal=   None    Shift=    0.000
 RMSDP=1.05D-07 MaxDP=3.69D-06 DE=-9.72D-09 OVMax= 6.82D-06

 Cycle  11  Pass 1  IDiag  1:
 RMSU=  6.08D-08    CP:  1.00D+00  9.09D-01  8.06D-01  5.06D-01  5.41D-01
 E= -3031.24057636075     Delta-E=       -0.000000000272 Rises=F Damp=F
 DIIS: error= 3.19D-07 at cycle   6 NSaved=   6.
 NSaved= 6 IEnMin= 6 EnMin= -3031.24057636075     IErMin= 6 ErrMin= 3.19D-07
 ErrMax= 3.19D-07  0.00D+00 EMaxC= 1.00D-01 BMatC= 2.32D-11 BMatP= 3.53D-10
 IDIUse=1 WtCom= 1.00D+00 WtEn= 0.00D+00
 Coeff-Com: -0.946D-03 0.288D-01 0.107D+00 0.125D+00 0.270D+00 0.469D+00
 Coeff:     -0.946D-03 0.288D-01 0.107D+00 0.125D+00 0.270D+00 0.469D+00
 Gap=     0.176 Goal=   None    Shift=    0.000
 RMSDP=2.87D-08 MaxDP=8.08D-07 DE=-2.72D-10 OVMax= 2.05D-06

 Cycle  12  Pass 1  IDiag  1:
 RMSU=  1.84D-08    CP:  1.00D+00  9.09D-01  8.07D-01  5.07D-01  5.68D-01
                    CP:  6.50D-01
 E= -3031.24057636077     Delta-E=       -0.000000000020 Rises=F Damp=F
 DIIS: error= 5.51D-08 at cycle   7 NSaved=   7.
 NSaved= 7 IEnMin= 7 EnMin= -3031.24057636077     IErMin= 7 ErrMin= 5.51D-08
 ErrMax= 5.51D-08  0.00D+00 EMaxC= 1.00D-01 BMatC= 1.11D-12 BMatP= 2.32D-11
 IDIUse=1 WtCom= 1.00D+00 WtEn= 0.00D+00
 Coeff-Com: -0.385D-03 0.101D-01 0.378D-01 0.443D-01 0.103D+00 0.241D+00
 Coeff-Com:  0.565D+00
 Coeff:     -0.385D-03 0.101D-01 0.378D-01 0.443D-01 0.103D+00 0.241D+00
 Coeff:      0.565D+00
 Gap=     0.176 Goal=   None    Shift=    0.000
 RMSDP=6.94D-09 MaxDP=2.12D-07 DE=-2.00D-11 OVMax= 5.33D-07

 SCF Done:  E(RB3LYP) =  -3031.24057636     A.U. after   12 cycles
            NFock= 12  Conv=0.69D-08     -V/T= 2.0066
 KE= 3.011250177389D+03 PE=-8.860560106402D+03 EE= 1.989587026621D+03
[...]
   XX=  2221.8069   YX=   568.0269   ZX=     0.0047
   XY=   568.4927   YY=  2362.5250   ZY=     0.0051
   XZ=     0.0082   YZ=     0.0077   ZZ=  1941.6979
   Eigenvalues:  1719.5670  1941.6979  2864.7649
     12  H    Isotropic =    28.0665   Anisotropy =     8.8204
   XX=    26.0465   YX=    -2.1361   ZX=    -0.8615
   XY=    -0.2756   YY=    31.3676   ZY=     4.0532
   XZ=    -1.2431   YZ=     3.8272   ZZ=    26.7854
   Eigenvalues:    24.4461    25.8067    33.9467
     13  H    Isotropic =    27.5592   Anisotropy =     8.5313
   XX=    31.0958   YX=    -1.9856   ZX=     0.0000
   XY=    -4.2706   YY=    28.6975   ZY=    -0.0002
   XZ=    -0.0001   YZ=    -0.0003   ZZ=    22.8842
   Eigenvalues:    22.8842    26.5466    33.2467
     14  H    Isotropic =    28.0667   Anisotropy =     8.8205
   XX=    26.0463   YX=    -2.1359   ZX=     0.8619
   XY=    -0.2759   YY=    31.3667   ZY=    -4.0536
   XZ=     1.2437   YZ=    -3.8277   ZZ=    26.7871
   Eigenvalues:    24.4466    25.8064    33.9470
     15  H    Isotropic =    24.1739   Anisotropy =     8.7317
   XX=    29.3950   YX=     2.3035   ZX=     0.0001
   XY=     1.7893   YY=    23.0154   ZY=     0.0001
   XZ=    -0.0000   YZ=    -0.0002   ZZ=    20.1112
   Eigenvalues:    20.1112    22.4154    29.9950
     16  H    Isotropic =    23.2919   Anisotropy =     5.4238
   XX=    25.1619   YX=    -2.8392   ZX=    -0.0001
   XY=    -1.8744   YY=    23.7265   ZY=     0.0000
   XZ=     0.0001   YZ=     0.0000   ZZ=    20.9875
   Eigenvalues:    20.9875    21.9805    26.9078
     17  H    Isotropic =    21.1694   Anisotropy =     4.2432
   XX=    23.3493   YX=    -3.1040   ZX=    -0.0001
   XY=     0.3665   YY=    21.1108   ZY=    -0.0000
   XZ=     0.0001   YZ=    -0.0001   ZZ=    19.0481
   Eigenvalues:    19.0481    20.4619    23.9982
     18  H    Isotropic =    22.7775   Anisotropy =    11.3892
   XX=    30.2890   YX=     0.6307   ZX=    -0.0000
   XY=     1.1987   YY=    20.0728   ZY=     0.0000
   XZ=    -0.0002   YZ=     0.0001   ZZ=    17.9706
   Eigenvalues:    17.9706    19.9916    30.3703
 End of Minotr F.D. properties file   721 does not exist.
 End of Minotr F.D. properties file   722 does not exist.
 End of Minotr F.D. properties file   788 does not exist.
 Leave Link 1002 at Tue Sep 17 10:50:40 2024, MaxMem=  1342177280 cpu:             806.3 elap:             810.9
 (Enter /groups/ReismanLab/Software/Gaussian16_RevC/Linux_Binary_AVX2-enabled-CPU/g16/l601.exe)
 Copying SCF densities to generalized density rwf, IOpCl= 0 IROHF=0.

 **********************************************************************

            Population analysis using the SCF Density.

 **********************************************************************

 Orbital symmetries:
       Occupied  (A) (A) (A) (A) (A) (A) (A) (A) (A) (A) (A) (A)
                 (A) (A) (A) (A) (A) (A) (A) (A) (A) (A) (A) (A)
                 (A) (A) (A) (A) (A) (A) (A) (A) (A) (A) (A) (A)
                 (A) (A) (A) (A) (A) (A) (A) (A) (A) (A) (A) (A)
                 (A) (A) (A) (A) (A)
       Virtual   (A) (A) (A) (A) (A) (A) (A) (A) (A) (A) (A) (A)
                 (A) (A) (A) (A) (A) (A) (A) (A) (A) (A) (A) (A)
                 (A) (A) (A) (A) (A) (A) (A) (A) (A) (A) (A) (A)
                 (A) (A) (A) (A) (A) (A) (A) (A) (A) (A) (A) (A)
                 (A) (A) (A) (A) (A) (A) (A) (A) (A) (A) (A) (A)
                 (A) (A) (A) (A) (A) (A) (A) (A) (A) (A) (A) (A)
                 (A) (A) (A) (A) (A) (A) (A) (A) (A) (A) (A) (A)
                 (A) (A) (A) (A) (A) (A) (A) (A) (A) (A) (A) (A)
                 (A) (A) (A) (A) (A) (A) (A) (A) (A) (A) (A) (A)
                 (A) (A) (A) (A) (A) (A) (A) (A) (A) (A) (A) (A)
                 (A) (A) (A) (A) (A) (A) (A) (A) (A) (A) (A) (A)
                 (A) (A) (A) (A) (A) (A) (A) (A) (A) (A) (A) (A)
                 (A) (A) (A) (A) (A) (A) (A) (A) (A) (A) (A) (A)
                 (A) (A) (A) (A) (A) (A) (A) (A) (A) (A) (A) (A)
                 (A) (A) (A) (A) (A) (A) (A) (A) (A) (A) (A) (A)
                 (A) (A) (A) (A) (A) (A) (A) (A) (A) (A) (A) (A)
                 (A) (A) (A) (A) (A) (A) (A) (A) (A) (A) (A) (A)
                 (A) (A) (A) (A) (A) (A) (A) (A) (A) (A) (A) (A)
                 (A) (A) (A) (A) (A) (A) (A) (A) (A) (A) (A) (A)
                 (A) (A) (A) (A) (A) (A) (A) (A) (A) (A) (A) (A)
                 (A) (A) (A) (A) (A) (A) (A) (A) (A) (A) (A) (A)
                 (A) (A) (A) (A) (A) (A) (A) (A) (A) (A) (A) (A)
                 (A) (A) (A) (A) (A) (A) (A) (A) (A) (A) (A) (A)
                 (A) (A) (A) (A) (A) (A) (A) (A) (A) (A) (A) (A)
                 (A) (A) (A) (A) (A) (A) (A) (A) (A) (A) (A) (A)
                 (A) (A) (A) (A) (A) (A) (A) (A) (A) (A) (A) (A)
                 (A) (A) (A) (A) (A) (A) (A) (A) (A) (A) (A) (A)
                 (A) (A) (A) (A) (A) (A) (A) (A) (A) (A) (A) (A)
                 (A) (A) (A) (A) (A) (A) (A) (A) (A) (A) (A)
 The electronic state is 1-A.
 Alpha  occ. eigenvalues -- -485.37740 -63.36206 -57.18159 -57.17916 -57.17902
 Alpha  occ. eigenvalues --  -19.67814 -19.62636 -10.63633 -10.63156 -10.60892
 Alpha  occ. eigenvalues --  -10.59838 -10.56962 -10.56770 -10.56222 -10.55948
 Alpha  occ. eigenvalues --   -9.02846  -6.85280  -6.84376  -6.84329  -2.88657
 Alpha  occ. eigenvalues --   -2.88337  -2.88288  -2.87446  -2.87445  -1.21437
 Alpha  occ. eigenvalues --   -1.16854  -0.98911  -0.91311  -0.87627  -0.83490
 Alpha  occ. eigenvalues --   -0.81312  -0.73103  -0.70764  -0.65774  -0.62458
 Alpha  occ. eigenvalues --   -0.59303  -0.56587  -0.56105  -0.53143  -0.52820
 Alpha  occ. eigenvalues --   -0.50065  -0.49110  -0.49008  -0.46814  -0.46243
 Alpha  occ. eigenvalues --   -0.44230  -0.40758  -0.40738  -0.38484  -0.35216
 Alpha  occ. eigenvalues --   -0.33631  -0.31700  -0.29254
 Alpha virt. eigenvalues --   -0.03298  -0.00083   0.03627   0.07261   0.07329
 Alpha virt. eigenvalues --    0.09099   0.10713   0.12309   0.13022   0.13569
 Alpha virt. eigenvalues --    0.14725   0.15560   0.16062   0.17105   0.17797
 Alpha virt. eigenvalues --    0.20416   0.21966   0.22399   0.22622   0.23847
 Alpha virt. eigenvalues --    0.24308   0.25484   0.26131   0.26722   0.27190
 Alpha virt. eigenvalues --    0.27656   0.30185   0.30464   0.31297   0.31342
 Alpha virt. eigenvalues --    0.32442   0.33228   0.34228   0.35054   0.35763
 Alpha virt. eigenvalues --    0.36571   0.36601   0.36704   0.38833   0.39899
 Alpha virt. eigenvalues --    0.40164   0.41669   0.42713   0.43625   0.44341
 Alpha virt. eigenvalues --    0.44869   0.47094   0.47293   0.48166   0.48673
 Alpha virt. eigenvalues --    0.49782   0.50415   0.51539   0.52619   0.53063
 Alpha virt. eigenvalues --    0.55536   0.56194   0.57455   0.58194   0.59522
 Alpha virt. eigenvalues --    0.59838   0.61545   0.63107   0.63724   0.64552
 Alpha virt. eigenvalues --    0.65902   0.67027   0.68745   0.71159   0.71635
 Alpha virt. eigenvalues --    0.72226   0.73844   0.76051   0.76438   0.77105
 Alpha virt. eigenvalues --    0.78463   0.79750   0.81624   0.82797   0.83735
 Alpha virt. eigenvalues --    0.84680   0.86345   0.87452   0.89697   0.90278
 Alpha virt. eigenvalues --    0.90625   0.93438   0.94199   0.98317   0.99611
 Alpha virt. eigenvalues --    1.00009   1.00280   1.03489   1.03508   1.05593
 Alpha virt. eigenvalues --    1.06833   1.09122   1.10751   1.12012   1.15245
 Alpha virt. eigenvalues --    1.16321   1.17333   1.22070   1.22276   1.23180
 Alpha virt. eigenvalues --    1.24917   1.26849   1.28321   1.28707   1.33448
 Alpha virt. eigenvalues --    1.34576   1.38006   1.38742   1.38759   1.40079
 Alpha virt. eigenvalues --    1.42548   1.44864   1.46233   1.47951   1.48524
 Alpha virt. eigenvalues --    1.49539   1.49974   1.51209   1.51709   1.52458
 Alpha virt. eigenvalues --    1.53962   1.55837   1.56443   1.57619   1.58304
 Alpha virt. eigenvalues --    1.58648   1.60639   1.60949   1.62129   1.62370
 Alpha virt. eigenvalues --    1.65241   1.66239   1.66319   1.67084   1.68548
 Alpha virt. eigenvalues --    1.71541   1.72459   1.74129   1.75039   1.76537
 Alpha virt. eigenvalues --    1.79072   1.80949   1.81805   1.83559   1.84828
 Alpha virt. eigenvalues --    1.85375   1.87361   1.88588   1.90641   1.91176
 Alpha virt. eigenvalues --    1.93715   1.95271   1.97367   1.97745   2.00652
 Alpha virt. eigenvalues --    2.01620   2.01745   2.04042   2.08534   2.08830
 Alpha virt. eigenvalues --    2.10670   2.13032   2.13048   2.15182   2.17112
 Alpha virt. eigenvalues --    2.17728   2.23405   2.26754   2.28593   2.30344
 Alpha virt. eigenvalues --    2.30694   2.33895   2.35670   2.36733   2.38698
 Alpha virt. eigenvalues --    2.41780   2.42933   2.43344   2.46702   2.48482
 Alpha virt. eigenvalues --    2.52396   2.53057   2.54936   2.55833   2.57803
 Alpha virt. eigenvalues --    2.58238   2.62623   2.64475   2.65576   2.66684
 Alpha virt. eigenvalues --    2.68065   2.68242   2.70577   2.70746   2.73819
 Alpha virt. eigenvalues --    2.76639   2.76926   2.77869   2.78582   2.79897
 Alpha virt. eigenvalues --    2.81119   2.82600   2.83185   2.85587   2.86079
 Alpha virt. eigenvalues --    2.89924   2.90631   2.93624   2.93727   2.94568
 Alpha virt. eigenvalues --    2.96256   2.98747   2.98938   3.01725   3.02673
 Alpha virt. eigenvalues --    3.06632   3.06795   3.08812   3.10799   3.11928
 Alpha virt. eigenvalues --    3.13717   3.15429   3.16857   3.16930   3.19171
 Alpha virt. eigenvalues --    3.19209   3.20117   3.21493   3.24409   3.24591
 Alpha virt. eigenvalues --    3.26411   3.26763   3.29379   3.30165   3.30952
 Alpha virt. eigenvalues --    3.32724   3.34684   3.34905   3.35732   3.37847
 Alpha virt. eigenvalues --    3.38698   3.40224   3.42131   3.42902   3.43545
 Alpha virt. eigenvalues --    3.46864   3.47732   3.48587   3.50734   3.51554
 Alpha virt. eigenvalues --    3.54840   3.56312   3.56985   3.58785   3.60241
 Alpha virt. eigenvalues --    3.60827   3.64136   3.66182   3.70530   3.75905
 Alpha virt. eigenvalues --    3.76792   3.83533   3.84148   3.86667   3.87438
 Alpha virt. eigenvalues --    3.88142   3.99983   4.03035   4.06324   4.06374
 Alpha virt. eigenvalues --    4.08598   4.12041   4.12464   4.13733   4.14076
 Alpha virt. eigenvalues --    4.15804   4.15958   4.17162   4.18034   4.20785
 Alpha virt. eigenvalues --    4.21940   4.24815   4.25144   4.30895   4.35864
 Alpha virt. eigenvalues --    4.38860   4.40660   4.43319   4.46394   4.50369
 Alpha virt. eigenvalues --    4.53341   4.54104   4.56853   4.57919   4.61327
 Alpha virt. eigenvalues --    4.73433   4.80592   4.83225   4.84274   4.93550
 Alpha virt. eigenvalues --    5.02331   5.06960   5.12907   5.20843   5.23903
 Alpha virt. eigenvalues --    5.24518   5.32696   5.34505   5.36620   5.46638
 Alpha virt. eigenvalues --    5.55891   5.56080   5.68616   5.73030   5.88930
 Alpha virt. eigenvalues --    5.98683   6.05497   6.27866   6.32943   6.35369
 Alpha virt. eigenvalues --    6.44285   6.48116   6.49360   6.61747   6.77754
 Alpha virt. eigenvalues --    6.78578   6.83144   6.97540   7.04791   7.13681
 Alpha virt. eigenvalues --    7.35685   7.88691  22.21140  22.46677  22.76500
 Alpha virt. eigenvalues --   22.81995  22.86808  22.98575  23.07891  23.40211
 Alpha virt. eigenvalues --   43.98232  44.34566
          Condensed to atoms (all electrons):
               1          2          3          4          5          6
     1  C    4.930452   0.221044  -0.082721   0.008892  -0.006082   0.001104
     2  O    0.221044   7.936590   0.416316  -0.077125   0.006448  -0.000859
     3  C   -0.082721   0.416316   4.959875   0.399445   0.002674  -0.121385
     4  C    0.008892  -0.077125   0.399445   5.242918   0.350804   0.027099
     5  C   -0.006082   0.006448   0.002674   0.350804   5.112048   0.425948
     6  C    0.001104  -0.000859  -0.121385   0.027099   0.425948   5.911408
     7  C    0.000002   0.000017   0.007878  -0.007558  -0.021031   0.084289
     8  O   -0.000000  -0.000000   0.000897  -0.001874   0.007679  -0.183545
     9  C   -0.000725   0.004704   0.069656  -0.108649  -0.026398   0.045469
    10  C    0.005610  -0.131334   0.181721   0.019931  -0.048460   0.032457
    11  Br   0.000786  -0.004856  -0.145217   0.015121  -0.001606   0.014757
    12  H    0.417219  -0.036366  -0.010981   0.004913  -0.000454   0.000033
    13  H    0.401044  -0.029809   0.005656  -0.000790   0.000245  -0.000044
    14  H    0.417221  -0.036369  -0.010964   0.004901  -0.000456   0.000033
    15  H    0.004494  -0.003478  -0.027516   0.397624  -0.004738   0.000548
    16  H    0.000017  -0.000103   0.002408  -0.011707   0.385122  -0.036359
    17  H    0.000001  -0.000000   0.001375  -0.003826   0.005516  -0.205892
    18  H    0.000039   0.000033   0.020416  -0.005193   0.010949  -0.063237
               7          8          9         10         11         12
     1  C    0.000002  -0.000000  -0.000725   0.005610   0.000786   0.417219
     2  O    0.000017  -0.000000   0.004704  -0.131334  -0.004856  -0.036366
     3  C    0.007878   0.000897   0.069656   0.181721  -0.145217  -0.010981
     4  C   -0.007558  -0.001874  -0.108649   0.019931   0.015121   0.004913
     5  C   -0.021031   0.007679  -0.026398  -0.048460  -0.001606  -0.000454
     6  C    0.084289  -0.183545   0.045469   0.032457   0.014757   0.000033
     7  C    4.707551   0.634256   0.014068  -0.001754  -0.000224  -0.000001
     8  O    0.634256   7.858782   0.037978   0.003763   0.000030   0.000000
     9  C    0.014068   0.037978   5.417568   0.373178  -0.107001  -0.000080
    10  C   -0.001754   0.003763   0.373178   5.212602   0.432863  -0.001114
    11  Br  -0.000224   0.000030  -0.107001   0.432863  34.883252  -0.000061
    12  H   -0.000001   0.000000  -0.000080  -0.001114  -0.000061   0.532524
    13  H    0.000000   0.000000   0.000101   0.000471   0.000072  -0.017642
    14  H   -0.000001   0.000000  -0.000081  -0.001110  -0.000061  -0.052007
    15  H   -0.000247   0.000002   0.001432  -0.001678  -0.000211  -0.002539
    16  H   -0.000643  -0.000014   0.012413  -0.001618   0.000036  -0.000013
    17  H    0.488034  -0.055649   0.039735  -0.001388   0.000025  -0.000000
    18  H   -0.000878   0.020523   0.413538  -0.043092  -0.002548  -0.000000
              13         14         15         16         17         18
     1  C    0.401044   0.417221   0.004494   0.000017   0.000001   0.000039
     2  O   -0.029809  -0.036369  -0.003478  -0.000103  -0.000000   0.000033
     3  C    0.005656  -0.010964  -0.027516   0.002408   0.001375   0.020416
     4  C   -0.000790   0.004901   0.397624  -0.011707  -0.003826  -0.005193
     5  C    0.000245  -0.000456  -0.004738   0.385122   0.005516   0.010949
     6  C   -0.000044   0.000033   0.000548  -0.036359  -0.205892  -0.063237
     7  C    0.000000  -0.000001  -0.000247  -0.000643   0.488034  -0.000878
     8  O    0.000000   0.000000   0.000002  -0.000014  -0.055649   0.020523
     9  C    0.000101  -0.000081   0.001432   0.012413   0.039735   0.413538
    10  C    0.000471  -0.001110  -0.001678  -0.001618  -0.001388  -0.043092
    11  Br   0.000072  -0.000061  -0.000211   0.000036   0.000025  -0.002548
    12  H   -0.017642  -0.052007  -0.002539  -0.000013  -0.000000  -0.000000
    13  H    0.486612  -0.017640   0.000024   0.000002   0.000000  -0.000000
    14  H   -0.017640   0.532510  -0.002539  -0.000013  -0.000000  -0.000000
    15  H    0.000024  -0.002539   0.452989  -0.001929  -0.000075   0.000023
    16  H    0.000002  -0.000013  -0.001929   0.472273   0.006576  -0.000005
    17  H    0.000000  -0.000000  -0.000075   0.006576   0.616035   0.001977
    18  H   -0.000000  -0.000000   0.000023  -0.000005   0.001977   0.453779
 Mulliken charges:
               1
     1  C   -0.318397
     2  O   -0.264855
     3  C    0.330467
     4  C   -0.254927
     5  C   -0.198207
     6  C    0.068175
     7  C    0.096240
     8  O   -0.322828
     9  C   -0.186907
    10  C   -0.031050
    11  Br  -0.085157
    12  H    0.166569
    13  H    0.171699
    14  H    0.166578
    15  H    0.187814
    16  H    0.173558
    17  H    0.107555
    18  H    0.193673
 Sum of Mulliken charges =  -0.00000
 Mulliken charges with hydrogens summed into heavy atoms:
               1
     1  C    0.186449
     2  O   -0.264855
     3  C    0.330467
     4  C   -0.067113
     5  C   -0.024650
     6  C    0.068175
     7  C    0.203796
     8  O   -0.322828
     9  C    0.006766
    10  C   -0.031050
    11  Br  -0.085157
 Electronic spatial extent (au):  <R**2>=           2715.0037
 Charge=              0.0000 electrons
 Dipole moment (field-independent basis, Debye):
    X=             -2.0889    Y=              6.0598    Z=              0.0000  Tot=              6.4097
 Quadrupole moment (field-independent basis, Debye-Ang):
   XX=            -82.5575   YY=            -65.5649   ZZ=            -78.4586
   XY=              4.7181   XZ=              0.0010   YZ=             -0.0003
 Traceless Quadrupole moment (field-independent basis, Debye-Ang):
   XX=             -7.0305   YY=              9.9621   ZZ=             -2.9316
   XY=              4.7181   XZ=              0.0010   YZ=             -0.0003
 Octapole moment (field-independent basis, Debye-Ang**2):
  XXX=           -106.9421  YYY=             -9.8753  ZZZ=             -0.0005  XYY=            -38.5572
  XXY=             43.8582  XXZ=              0.0016  XZZ=            -16.9653  YZZ=            -17.3011
  YYZ=              0.0000  XYZ=              0.0005
 Hexadecapole moment (field-independent basis, Debye-Ang**3):
 XXXX=          -2205.8177 YYYY=          -1051.5492 ZZZZ=            -93.2838 XXXY=            201.9356
 XXXZ=              0.0109 YYYX=             31.4315 YYYZ=              0.0004 ZZZX=             -0.0008
 ZZZY=             -0.0010 XXYY=           -498.2308 XXZZ=           -358.9066 YYZZ=           -214.9892
 XXYZ=             -0.0037 YYXZ=              0.0032 ZZXY=              9.5891
 N-N= 8.307137510436D+02 E-N=-8.885786094833D+03  KE= 3.027985543949D+03
 Calculating spin-rotation constants.
 Leave Link  601 at Tue Sep 17 10:50:45 2024, MaxMem=  1342177280 cpu:               4.6 elap:               4.6
 (Enter /groups/ReismanLab/Software/Gaussian16_RevC/Linux_Binary_AVX2-enabled-CPU/g16/l9999.exe)
 Unable to Open any file for archive entry.
 1\1\GINC-HPC-82-23\SP\RM062X\def2TZVP\C8H7Br1O2\MANTIND\17-Sep-2024\0\
 \#p M062X/def2tzvp geom=check guess=read scf(xqc,tight) integral(grid=
 ultrafine) scrf(SMD, solvent=1,4-Dioxane) nmr=giao\\spe\\0,1\C,0,-1.80
 16268677,3.0897097941,0.0625013987\O,0,-1.5778262442,1.6858201786,0.11
 83604805\C,0,-0.3093991731,1.231269561,0.0573616376\C,0,0.8212246773,2
 .0520269277,-0.0585682101\C,0,2.0910973178,1.4853934091,-0.1139949095\
 C,0,2.2582826585,0.1002983597,-0.0554645258\C,0,3.605325915,-0.4938965
 415,-0.1146233298\O,0,3.8390862687,-1.6873014269,-0.0701617958\C,0,1.1
 29062014,-0.7271070472,0.0607213479\C,0,-0.1323602785,-0.1698599756,0.
 1160744224\Br,0,-1.6615800869,-1.290795786,0.2734416839\H,0,-1.3208040
 999,3.6033646389,0.9029836181\H,0,-2.8816570635,3.2180144602,0.1274485
 836\H,0,-1.4387620541,3.5136007413,-0.8809469837\H,0,0.7096834995,3.12
 76638756,-0.1052328909\H,0,2.9627047837,2.1281002385,-0.203862531\H,0,
 4.4301411945,0.247623714,-0.2063404062\H,0,1.2671755068,-1.8010216292,
 0.1055444837\\Version=ES64L-G16RevC.02\State=1-A\HF=-3033.6856706\RMSD
 =1.228e-09\Dipole=-0.4216115,2.484393,-0.0969774\Quadrupole=-3.7574157
 ,5.8881183,-2.1307026,5.3388323,-0.1633426,-0.7585121\PG=C01 [X(C8H7Br
 1O2)]\\@
 The archive entry for this job was punched.


 A DANDELION FROM A LOVER MEANS MORE THAN AN ORCHID FROM A FRIEND.
 Job cpu time:       0 days  0 hours 14 minutes 53.0 seconds.
 Elapsed time:       0 days  0 hours 14 minutes 58.7 seconds.
 File lengths (MBytes):  RWF=    264 Int=      0 D2E=      0 Chk=     24 Scr=     16
 Normal termination of Gaussian 16 at Tue Sep 17 10:50:45 2024.
