 Entering Gaussian System, Link 0=g16
 Input=smiles_00011_conf_3.gjf
 Output=smiles_00011_conf_3.log
 Initial command:
 /groups/ReismanLab/Software/Gaussian16_RevC/Linux_Binary_AVX2-enabled-CPU/g16/l1.exe "/central/groups/ReismanLab/DM/dft_final/smiles_00011/Gau-827341.inp" -scrdir="/central/groups/ReismanLab/DM/dft_final/smiles_00011/"
 Entering Link 1 = /groups/ReismanLab/Software/Gaussian16_RevC/Linux_Binary_AVX2-enabled-CPU/g16/l1.exe PID=    827344.
  
 Copyright (c) 1988-2021, Gaussian, Inc.  All Rights Reserved.
  
 This is part of the Gaussian(R) 16 program.  It is based on
 the Gaussian(R) 09 system (copyright 2009, Gaussian, Inc.),
 the Gaussian(R) 03 system (copyright 2003, Gaussian, Inc.),
 the Gaussian(R) 98 system (copyright 1998, Gaussian, Inc.),
 the Gaussian(R) 94 system (copyright 1995, Gaussian, Inc.),
 the Gaussian 92(TM) system (copyright 1992, Gaussian, Inc.),
 the Gaussian 90(TM) system (copyright 1990, Gaussian, Inc.),
 the Gaussian 88(TM) system (copyright 1988, Gaussian, Inc.),
 the Gaussian 86(TM) system (copyright 1986, Carnegie Mellon
 University), and the Gaussian 82(TM) system (copyright 1983,
 Carnegie Mellon University). Gaussian is a federally registered
 trademark of Gaussian, Inc.
  
 This software contains proprietary and confidential information,
 including trade secrets, belonging to Gaussian, Inc.
  
 This software is provided under written license and may be
 used, copied, transmitted, or stored only in accord with that
 written license.
  
 The following legend is applicable only to US Government
 contracts under FAR:
  
                    RESTRICTED RIGHTS LEGEND
  
 Use, reproduction and disclosure by the US Government is
 subject to restrictions as set forth in subparagraphs (a)
 and (c) of the Commercial Computer Software - Restricted
 Rights clause in FAR 52.227-19.
  
 Gaussian, Inc.
 340 Quinnipiac St., Bldg. 40, Wallingford CT 06492
  
  
 ---------------------------------------------------------------
 Warning -- This program may not be used in any manner that
 competes with the business of Gaussian, Inc. or will provide
 assistance to any competitor of Gaussian, Inc.  The licensee
 of this program is prohibited from giving any competitor of
 Gaussian, Inc. access to this program.  By using this program,
 the user acknowledges that Gaussian, Inc. is engaged in the
 business of creating and licensing software in the field of
 computational chemistry and represents and warrants to the
 licensee that it is not a competitor of Gaussian, Inc. and that
 it will not use this program in any manner prohibited above.
 ---------------------------------------------------------------
  

 Cite this work as:
 Gaussian 16, Revision C.02,
 M. J. Frisch, G. W. Trucks, H. B. Schlegel, G. E. Scuseria, 
 M. A. Robb, J. R. Cheeseman, G. Scalmani, V. Barone, 
 G. A. Petersson, H. Nakatsuji, X. Li, M. Caricato, A. V. Marenich, 
 J. Bloino, B. G. Janesko, R. Gomperts, B. Mennucci, H. P. Hratchian, 
 J. V. Ortiz, A. F. Izmaylov, J. L. Sonnenberg, D. Williams-Young, 
 F. Ding, F. Lipparini, F. Egidi, J. Goings, B. Peng, A. Petrone, 
 T. Henderson, D. Ranasinghe, V. G. Zakrzewski, J. Gao, N. Rega, 
 G. Zheng, W. Liang, M. Hada, M. Ehara, K. Toyota, R. Fukuda, 
 J. Hasegawa, M. Ishida, T. Nakajima, Y. Honda, O. Kitao, H. Nakai, 
 T. Vreven, K. Throssell, J. A. Montgomery, Jr., J. E. Peralta, 
 F. Ogliaro, M. J. Bearpark, J. J. Heyd, E. N. Brothers, K. N. Kudin, 
 V. N. Staroverov, T. A. Keith, R. Kobayashi, J. Normand, 
 K. Raghavachari, A. P. Rendell, J. C. Burant, S. S. Iyengar, 
 J. Tomasi, M. Cossi, J. M. Millam, M. Klene, C. Adamo, R. Cammi, 
 J. W. Ochterski, R. L. Martin, K. Morokuma, O. Farkas, 
 J. B. Foresman, and D. J. Fox, Gaussian, Inc., Wallingford CT, 2019.
 
 ******************************************
 Gaussian 16:  ES64L-G16RevC.02  7-Dec-2021
                17-Sep-2024 
 ******************************************
 %nprocshared=8
 Will use up to    8 processors via shared memory.
 %Mem=10GB
 %Chk=smiles_00011_conf_3.chk
 ----------------------------------------------------------------------
 #p B3LYP/6-31G(d,p) EmpiricalDispersion=GD3BJ opt freq scf(xqc,tight) 
 integral(grid=ultrafine)
 ----------------------------------------------------------------------
 1/18=20,19=15,26=4,38=1/1,3;
 2/9=110,12=2,17=6,18=5,40=1/2;
 3/5=1,6=6,7=101,11=2,25=1,30=1,71=1,74=-5,75=-5,124=41/1,2,3;
 4//1;
 5/5=2,8=3,13=1,32=2,38=5/2,8;
 6/7=2,8=2,9=2,10=2,28=1/1;
 7//1,2,3,16;
 1/18=20,19=15,26=4/3(2);
 2/9=110/2;
 99//99;
 2/9=110/2;
 3/5=1,6=6,7=101,11=2,25=1,30=1,71=1,74=-5,75=-5,124=41/1,2,3;
 4/5=5,16=3,69=1/1;
 5/5=2,8=3,13=1,32=2,38=5/2,8;
 7//1,2,3,16;
 1/18=20,19=15,26=4/3(-5);
 2/9=110/2;
 6/7=2,8=2,9=2,10=2,19=2,28=1/1;
 99/9=1/99;
 Leave Link    1 at Tue Sep 17 09:54:49 2024, MaxMem=  1342177280 cpu:               0.2 elap:               0.9
 (Enter /groups/ReismanLab/Software/Gaussian16_RevC/Linux_Binary_AVX2-enabled-CPU/g16/l101.exe)
 ----------------------------------
 opt-freq conformers_unique/conf_ad
 ----------------------------------
 Symbolic Z-matrix:
 Charge =  0 Multiplicity = 1
 Br                    3.54365   0.03715  -0.43008 
 C                     1.6705    0.01006  -0.11717 
 C                     0.94324  -1.17214  -0.17152 
 N                    -0.35148  -1.19714   0.04485 
 C                    -0.95526  -0.02559   0.32371 
 N                    -2.27041  -0.063     0.55051 
 C                    -2.97604  -1.32623   0.44981 
 C                    -4.47487  -1.11232   0.61106 
 C                    -4.96318  -0.04662  -0.36783 
 C                    -4.16694   1.26391  -0.21821 
 C                    -3.0439    1.12573   0.81176 
 N                    -0.32492   1.16198   0.39478 
 C                     0.96878   1.17315   0.17597 
 H                     1.41329  -2.12126  -0.39463 
 H                    -2.7602   -1.77097  -0.52806 
 H                    -2.59384  -2.01504   1.21168 
 H                    -4.98749  -2.05548   0.4185 
 H                    -4.70463  -0.81595   1.63518 
 H                    -4.84882  -0.43177  -1.3824 
 H                    -6.02641   0.13328  -0.20527 
 H                    -4.81987   2.08034   0.09138 
 H                    -3.72692   1.53973  -1.17715 
 H                    -3.46069   1.07382   1.82356 
 H                    -2.36626   1.97785   0.76076 
 H                     1.45967   2.13595   0.23594 
 
 ITRead=  0  0  0  0  0  0  0  0  0  0  0  0  0  0  0  0  0  0  0  0
 ITRead=  0  0  0  0  0
 MicOpt= -1 -1 -1 -1 -1 -1 -1 -1 -1 -1 -1 -1 -1 -1 -1 -1 -1 -1 -1 -1
 MicOpt= -1 -1 -1 -1 -1
 NAtoms=     25 NQM=       25 NQMF=       0 NMMI=      0 NMMIF=      0
                NMic=       0 NMicF=      0.
                    Isotopes and Nuclear Properties:
 (Nuclear quadrupole moments (NQMom) in fm**2, nuclear magnetic moments (NMagM)
  in nuclear magnetons)

  Atom         1           2           3           4           5           6           7           8           9          10
 IAtWgt=          79          12          12          14          12          14          12          12          12          12
 AtmWgt=  78.9183361  12.0000000  12.0000000  14.0030740  12.0000000  14.0030740  12.0000000  12.0000000  12.0000000  12.0000000
 NucSpn=           3           0           0           2           0           2           0           0           0           0
 AtZEff=  -0.0000000  -0.0000000  -0.0000000  -0.0000000  -0.0000000  -0.0000000  -0.0000000  -0.0000000  -0.0000000  -0.0000000
 NQMom=   31.3000000   0.0000000   0.0000000   2.0440000   0.0000000   2.0440000   0.0000000   0.0000000   0.0000000   0.0000000
 NMagM=    2.1063990   0.0000000   0.0000000   0.4037610   0.0000000   0.4037610   0.0000000   0.0000000   0.0000000   0.0000000
 AtZNuc=  35.0000000   6.0000000   6.0000000   7.0000000   6.0000000   7.0000000   6.0000000   6.0000000   6.0000000   6.0000000

  Atom        11          12          13          14          15          16          17          18          19          20
 IAtWgt=          12          14          12           1           1           1           1           1           1           1
 AtmWgt=  12.0000000  14.0030740  12.0000000   1.0078250   1.0078250   1.0078250   1.0078250   1.0078250   1.0078250   1.0078250
 NucSpn=           0           2           0           1           1           1           1           1           1           1
 AtZEff=  -0.0000000  -0.0000000  -0.0000000  -0.0000000  -0.0000000  -0.0000000  -0.0000000  -0.0000000  -0.0000000  -0.0000000
 NQMom=    0.0000000   2.0440000   0.0000000   0.0000000   0.0000000   0.0000000   0.0000000   0.0000000   0.0000000   0.0000000
 NMagM=    0.0000000   0.4037610   0.0000000   2.7928460   2.7928460   2.7928460   2.7928460   2.7928460   2.7928460   2.7928460
 AtZNuc=   6.0000000   7.0000000   6.0000000   1.0000000   1.0000000   1.0000000   1.0000000   1.0000000   1.0000000   1.0000000

  Atom        21          22          23          24          25
 IAtWgt=           1           1           1           1           1
 AtmWgt=   1.0078250   1.0078250   1.0078250   1.0078250   1.0078250
 NucSpn=           1           1           1           1           1
 AtZEff=  -0.0000000  -0.0000000  -0.0000000  -0.0000000  -0.0000000
 NQMom=    0.0000000   0.0000000   0.0000000   0.0000000   0.0000000
 NMagM=    2.7928460   2.7928460   2.7928460   2.7928460   2.7928460
 AtZNuc=   1.0000000   1.0000000   1.0000000   1.0000000   1.0000000
 Leave Link  101 at Tue Sep 17 09:54:49 2024, MaxMem=  1342177280 cpu:               0.2 elap:               0.2
 (Enter /groups/ReismanLab/Software/Gaussian16_RevC/Linux_Binary_AVX2-enabled-CPU/g16/l103.exe)

 GradGradGradGradGradGradGradGradGradGradGradGradGradGradGradGradGradGrad
 Berny optimization.
 Initialization pass.
                           ----------------------------
                           !    Initial Parameters    !
                           ! (Angstroms and Degrees)  !
 --------------------------                            --------------------------
 ! Name  Definition              Value          Derivative Info.                !
 --------------------------------------------------------------------------------
 ! R1    R(1,2)                  1.8993         estimate D2E/DX2                !
 ! R2    R(2,3)                  1.3891         estimate D2E/DX2                !
 ! R3    R(2,13)                 1.3896         estimate D2E/DX2                !
 ! R4    R(3,4)                  1.3129         estimate D2E/DX2                !
 ! R5    R(3,14)                 1.0824         estimate D2E/DX2                !
 ! R6    R(4,5)                  1.3472         estimate D2E/DX2                !
 ! R7    R(5,6)                  1.3351         estimate D2E/DX2                !
 ! R8    R(5,12)                 1.3464         estimate D2E/DX2                !
 ! R9    R(6,7)                  1.4505         estimate D2E/DX2                !
 ! R10   R(6,11)                 1.4421         estimate D2E/DX2                !
 ! R11   R(7,8)                  1.5226         estimate D2E/DX2                !
 ! R12   R(7,15)                 1.0957         estimate D2E/DX2                !
 ! R13   R(7,16)                 1.0959         estimate D2E/DX2                !
 ! R14   R(8,9)                  1.5272         estimate D2E/DX2                !
 ! R15   R(8,17)                 1.0906         estimate D2E/DX2                !
 ! R16   R(8,18)                 1.0906         estimate D2E/DX2                !
 ! R17   R(9,10)                 1.5407         estimate D2E/DX2                !
 ! R18   R(9,19)                 1.0912         estimate D2E/DX2                !
 ! R19   R(9,20)                 1.0905         estimate D2E/DX2                !
 ! R20   R(10,11)                1.5301         estimate D2E/DX2                !
 ! R21   R(10,21)                1.0903         estimate D2E/DX2                !
 ! R22   R(10,22)                1.0905         estimate D2E/DX2                !
 ! R23   R(11,23)                1.0955         estimate D2E/DX2                !
 ! R24   R(11,24)                1.0899         estimate D2E/DX2                !
 ! R25   R(12,13)                1.3121         estimate D2E/DX2                !
 ! R26   R(13,25)                1.0824         estimate D2E/DX2                !
 ! A1    A(1,2,3)              121.47           estimate D2E/DX2                !
 ! A2    A(1,2,13)             121.388          estimate D2E/DX2                !
 ! A3    A(3,2,13)             117.142          estimate D2E/DX2                !
 ! A4    A(2,3,4)              121.7403         estimate D2E/DX2                !
 ! A5    A(2,3,14)             121.8025         estimate D2E/DX2                !
 ! A6    A(4,3,14)             116.4572         estimate D2E/DX2                !
 ! A7    A(3,4,5)              117.3571         estimate D2E/DX2                !
 ! A8    A(4,5,6)              116.891          estimate D2E/DX2                !
 ! A9    A(4,5,12)             124.6225         estimate D2E/DX2                !
 ! A10   A(6,5,12)             118.4854         estimate D2E/DX2                !
 ! A11   A(5,6,7)              119.4614         estimate D2E/DX2                !
 ! A12   A(5,6,11)             122.4145         estimate D2E/DX2                !
 ! A13   A(7,6,11)             118.0048         estimate D2E/DX2                !
 ! A14   A(6,7,8)              110.4379         estimate D2E/DX2                !
 ! A15   A(6,7,15)             108.6402         estimate D2E/DX2                !
 ! A16   A(6,7,16)             109.2367         estimate D2E/DX2                !
 ! A17   A(8,7,15)             110.2094         estimate D2E/DX2                !
 ! A18   A(8,7,16)             110.9775         estimate D2E/DX2                !
 ! A19   A(15,7,16)            107.2541         estimate D2E/DX2                !
 ! A20   A(7,8,9)              110.1762         estimate D2E/DX2                !
 ! A21   A(7,8,17)             108.8146         estimate D2E/DX2                !
 ! A22   A(7,8,18)             110.1825         estimate D2E/DX2                !
 ! A23   A(9,8,17)             109.8777         estimate D2E/DX2                !
 ! A24   A(9,8,18)             110.1757         estimate D2E/DX2                !
 ! A25   A(17,8,18)            107.5639         estimate D2E/DX2                !
 ! A26   A(8,9,10)             111.4733         estimate D2E/DX2                !
 ! A27   A(8,9,19)             108.4293         estimate D2E/DX2                !
 ! A28   A(8,9,20)             109.3477         estimate D2E/DX2                !
 ! A29   A(10,9,19)            109.6545         estimate D2E/DX2                !
 ! A30   A(10,9,20)            110.43           estimate D2E/DX2                !
 ! A31   A(19,9,20)            107.3971         estimate D2E/DX2                !
 ! A32   A(9,10,11)            111.5836         estimate D2E/DX2                !
 ! A33   A(9,10,21)            110.7956         estimate D2E/DX2                !
 ! A34   A(9,10,22)            109.7713         estimate D2E/DX2                !
 ! A35   A(11,10,21)           108.4229         estimate D2E/DX2                !
 ! A36   A(11,10,22)           108.5784         estimate D2E/DX2                !
 ! A37   A(21,10,22)           107.5738         estimate D2E/DX2                !
 ! A38   A(6,11,10)            110.2535         estimate D2E/DX2                !
 ! A39   A(6,11,23)            109.4102         estimate D2E/DX2                !
 ! A40   A(6,11,24)            107.6081         estimate D2E/DX2                !
 ! A41   A(10,11,23)           110.2883         estimate D2E/DX2                !
 ! A42   A(10,11,24)           110.7465         estimate D2E/DX2                !
 ! A43   A(23,11,24)           108.47           estimate D2E/DX2                !
 ! A44   A(5,12,13)            117.4071         estimate D2E/DX2                !
 ! A45   A(2,13,12)            121.731          estimate D2E/DX2                !
 ! A46   A(2,13,25)            121.814          estimate D2E/DX2                !
 ! A47   A(12,13,25)           116.455          estimate D2E/DX2                !
 ! D1    D(1,2,3,4)            179.9483         estimate D2E/DX2                !
 ! D2    D(1,2,3,14)            -0.0687         estimate D2E/DX2                !
 ! D3    D(13,2,3,4)            -0.0587         estimate D2E/DX2                !
 ! D4    D(13,2,3,14)          179.9244         estimate D2E/DX2                !
 ! D5    D(1,2,13,12)         -179.9211         estimate D2E/DX2                !
 ! D6    D(1,2,13,25)            0.0803         estimate D2E/DX2                !
 ! D7    D(3,2,13,12)            0.0859         estimate D2E/DX2                !
 ! D8    D(3,2,13,25)         -179.9128         estimate D2E/DX2                !
 ! D9    D(2,3,4,5)              0.0091         estimate D2E/DX2                !
 ! D10   D(14,3,4,5)          -179.9748         estimate D2E/DX2                !
 ! D11   D(3,4,5,6)           -179.5861         estimate D2E/DX2                !
 ! D12   D(3,4,5,12)             0.0188         estimate D2E/DX2                !
 ! D13   D(4,5,6,7)             -1.753          estimate D2E/DX2                !
 ! D14   D(4,5,6,11)          -177.7011         estimate D2E/DX2                !
 ! D15   D(12,5,6,7)           178.6168         estimate D2E/DX2                !
 ! D16   D(12,5,6,11)            2.6688         estimate D2E/DX2                !
 ! D17   D(4,5,12,13)            0.0071         estimate D2E/DX2                !
 ! D18   D(6,5,12,13)          179.6062         estimate D2E/DX2                !
 ! D19   D(5,6,7,8)           -174.4181         estimate D2E/DX2                !
 ! D20   D(5,6,7,15)           -53.436          estimate D2E/DX2                !
 ! D21   D(5,6,7,16)            63.2596         estimate D2E/DX2                !
 ! D22   D(11,6,7,8)             1.708          estimate D2E/DX2                !
 ! D23   D(11,6,7,15)          122.69           estimate D2E/DX2                !
 ! D24   D(11,6,7,16)         -120.6144         estimate D2E/DX2                !
 ! D25   D(5,6,11,10)          122.0747         estimate D2E/DX2                !
 ! D26   D(5,6,11,23)         -116.4667         estimate D2E/DX2                !
 ! D27   D(5,6,11,24)            1.1943         estimate D2E/DX2                !
 ! D28   D(7,6,11,10)          -53.9296         estimate D2E/DX2                !
 ! D29   D(7,6,11,23)           67.5291         estimate D2E/DX2                !
 ! D30   D(7,6,11,24)         -174.8099         estimate D2E/DX2                !
 ! D31   D(6,7,8,9)             53.0979         estimate D2E/DX2                !
 ! D32   D(6,7,8,17)           173.6212         estimate D2E/DX2                !
 ! D33   D(6,7,8,18)           -68.6751         estimate D2E/DX2                !
 ! D34   D(15,7,8,9)           -66.9451         estimate D2E/DX2                !
 ! D35   D(15,7,8,17)           53.5781         estimate D2E/DX2                !
 ! D36   D(15,7,8,18)          171.2818         estimate D2E/DX2                !
 ! D37   D(16,7,8,9)           174.3928         estimate D2E/DX2                !
 ! D38   D(16,7,8,17)          -65.084          estimate D2E/DX2                !
 ! D39   D(16,7,8,18)           52.6197         estimate D2E/DX2                !
 ! D40   D(7,8,9,10)           -54.6639         estimate D2E/DX2                !
 ! D41   D(7,8,9,19)            66.137          estimate D2E/DX2                !
 ! D42   D(7,8,9,20)          -177.0536         estimate D2E/DX2                !
 ! D43   D(17,8,9,10)         -174.5458         estimate D2E/DX2                !
 ! D44   D(17,8,9,19)          -53.7449         estimate D2E/DX2                !
 ! D45   D(17,8,9,20)           63.0644         estimate D2E/DX2                !
 ! D46   D(18,8,9,10)           67.1132         estimate D2E/DX2                !
 ! D47   D(18,8,9,19)         -172.0859         estimate D2E/DX2                !
 ! D48   D(18,8,9,20)          -55.2765         estimate D2E/DX2                !
 ! D49   D(8,9,10,11)            3.3909         estimate D2E/DX2                !
 ! D50   D(8,9,10,21)         -117.525          estimate D2E/DX2                !
 ! D51   D(8,9,10,22)          123.8079         estimate D2E/DX2                !
 ! D52   D(19,9,10,11)        -116.6903         estimate D2E/DX2                !
 ! D53   D(19,9,10,21)         122.3937         estimate D2E/DX2                !
 ! D54   D(19,9,10,22)           3.7266         estimate D2E/DX2                !
 ! D55   D(20,9,10,11)         125.1559         estimate D2E/DX2                !
 ! D56   D(20,9,10,21)           4.24           estimate D2E/DX2                !
 ! D57   D(20,9,10,22)        -114.4272         estimate D2E/DX2                !
 ! D58   D(9,10,11,6)           49.2991         estimate D2E/DX2                !
 ! D59   D(9,10,11,23)         -71.6361         estimate D2E/DX2                !
 ! D60   D(9,10,11,24)         168.2834         estimate D2E/DX2                !
 ! D61   D(21,10,11,6)         171.589          estimate D2E/DX2                !
 ! D62   D(21,10,11,23)         50.6538         estimate D2E/DX2                !
 ! D63   D(21,10,11,24)        -69.4267         estimate D2E/DX2                !
 ! D64   D(22,10,11,6)         -71.8148         estimate D2E/DX2                !
 ! D65   D(22,10,11,23)        167.25           estimate D2E/DX2                !
 ! D66   D(22,10,11,24)         47.1696         estimate D2E/DX2                !
 ! D67   D(5,12,13,2)           -0.0608         estimate D2E/DX2                !
 ! D68   D(5,12,13,25)         179.9379         estimate D2E/DX2                !
 --------------------------------------------------------------------------------
 Trust Radius=3.00D-01 FncErr=1.00D-07 GrdErr=1.00D-06 EigMax=2.50D+02 EigMin=1.00D-04
 Number of steps in this run=    150 maximum allowed number of steps=    150.
 GradGradGradGradGradGradGradGradGradGradGradGradGradGradGradGradGradGrad

 Leave Link  103 at Tue Sep 17 09:54:49 2024, MaxMem=  1342177280 cpu:               0.1 elap:               0.0
 (Enter /groups/ReismanLab/Software/Gaussian16_RevC/Linux_Binary_AVX2-enabled-CPU/g16/l202.exe)
                          Input orientation:                          
 ---------------------------------------------------------------------
 Center     Atomic      Atomic             Coordinates (Angstroms)
 Number     Number       Type             X           Y           Z
 ---------------------------------------------------------------------
      1         35           0        3.543652    0.037147   -0.430077
      2          6           0        1.670503    0.010060   -0.117173
      3          6           0        0.943239   -1.172139   -0.171525
      4          7           0       -0.351482   -1.197136    0.044847
      5          6           0       -0.955264   -0.025589    0.323709
      6          7           0       -2.270405   -0.062996    0.550505
      7          6           0       -2.976042   -1.326230    0.449808
      8          6           0       -4.474868   -1.112316    0.611056
      9          6           0       -4.963175   -0.046620   -0.367828
     10          6           0       -4.166944    1.263911   -0.218212
     11          6           0       -3.043898    1.125728    0.811763
     12          7           0       -0.324922    1.161981    0.394781
     13          6           0        0.968777    1.173148    0.175966
     14          1           0        1.413287   -2.121257   -0.394633
     15          1           0       -2.760200   -1.770974   -0.528061
     16          1           0       -2.593839   -2.015037    1.211676
     17          1           0       -4.987494   -2.055481    0.418503
     18          1           0       -4.704633   -0.815950    1.635183
     19          1           0       -4.848819   -0.431773   -1.382397
     20          1           0       -6.026409    0.133275   -0.205266
     21          1           0       -4.819869    2.080343    0.091380
     22          1           0       -3.726916    1.539730   -1.177146
     23          1           0       -3.460689    1.073819    1.823555
     24          1           0       -2.366259    1.977847    0.760762
     25          1           0        1.459675    2.135948    0.235942
 ---------------------------------------------------------------------
                    Distance matrix (angstroms):
                    1          2          3          4          5
     1  Br   0.000000
     2  C    1.899297   0.000000
     3  C    2.879474   1.389050   0.000000
     4  N    4.113523   2.360507   1.312914   0.000000
     5  C    4.562058   2.662762   2.272476   1.347160   0.000000
     6  N    5.897019   3.997735   3.475490   2.285657   1.335078
     7  C    6.718587   4.868010   3.971217   2.658754   2.406473
     8  C    8.167123   6.289327   5.474660   4.162944   3.694747
     9  C    8.507467   6.638654   6.015900   4.770922   4.067188
    10  C    7.810450   5.971444   5.661315   4.547934   3.503053
    11  C    6.791391   4.932871   4.705774   3.637714   2.434363
    12  N    4.112361   2.360242   2.716073   2.385077   1.346368
    13  C    2.878848   1.389649   2.371027   2.716344   2.271725
    14  H    3.032889   2.164637   1.082381   2.039989   3.243127
    15  H    6.558769   4.792915   3.768445   2.541542   2.651353
    16  H    6.676496   4.904229   3.890326   2.656806   2.726044
    17  H    8.824943   6.991590   6.025116   4.729586   4.515343
    18  H    8.545600   6.662988   5.940499   4.650204   4.049988
    19  H    8.459336   6.655642   5.963413   4.780047   4.270311
    20  H    9.573184   7.698402   7.090926   5.834153   5.101134
    21  H    8.625256   6.815753   6.622776   5.541707   4.407278
    22  H    7.461704   5.709253   5.493256   4.514118   3.519211
    23  H    7.430635   5.588125   5.330971   4.241250   3.120158
    24  H    6.333361   4.575850   4.663083   3.827843   2.489112
    25  H    3.031750   2.165303   3.372858   3.798191   3.242202
                    6          7          8          9         10
     6  N    0.000000
     7  C    1.450456   0.000000
     8  C    2.442211   1.522577   0.000000
     9  C    2.845104   2.500925   1.527209   0.000000
    10  C    2.438949   2.928025   2.535539   1.540733   0.000000
    11  C    1.442086   2.479458   2.663982   2.539578   1.530090
    12  N    2.304284   3.636297   4.737220   4.853419   3.891951
    13  C    3.487210   4.677978   5.919960   6.080428   5.151626
    14  H    4.324271   4.539974   6.058032   6.705529   6.529125
    15  H    2.078555   1.095725   2.161367   2.802173   3.359385
    16  H    2.086197   1.095891   2.171157   3.461684   3.907780
    17  H    3.371941   2.139796   1.090606   2.157413   3.478084
    18  H    2.769283   2.157203   1.090624   2.161195   2.837253
    19  H    3.243505   2.768451   2.139353   1.091225   2.166939
    20  H    3.836310   3.444418   2.150618   1.090529   2.176262
    21  H    3.362211   3.890103   3.253023   2.180683   1.090284
    22  H    2.770368   3.380017   3.284882   2.167911   1.090530
    23  H    2.080812   2.807543   2.697758   2.883575   2.168812
    24  H    2.053883   3.374233   3.744029   3.480826   2.170383
    25  H    4.341406   5.630986   6.775746   6.810370   5.711878
                   11         12         13         14         15
    11  C    0.000000
    12  N    2.751003   0.000000
    13  C    4.063010   1.312122   0.000000
    14  H    5.644892   3.797921   3.372874   0.000000
    15  H    3.204137   3.922300   4.802997   4.190286   0.000000
    16  H    3.197951   3.988577   4.891774   4.318399   1.764632
    17  H    3.748640   5.664998   6.779383   6.452559   2.436753
    18  H    2.684432   4.963132   6.186551   6.576696   3.061456
    19  H    3.240045   5.115082   6.232872   6.560793   2.624058
    20  H    3.303737   5.824538   7.082323   7.776108   3.794534
    21  H    2.141101   4.597824   5.859913   7.532721   4.411189
    22  H    2.143286   3.766592   4.900493   6.358997   3.509504
    23  H    1.095505   3.447057   4.727006   6.235745   3.756811
    24  H    1.089909   2.228595   3.480229   5.694081   3.983706
    25  H    4.651267   2.039271   1.082387   4.303902   5.801300
                   16         17         18         19         20
    16  H    0.000000
    17  H    2.521972   0.000000
    18  H    2.464269   1.759760   0.000000
    19  H    3.784293   2.428764   3.045352   0.000000
    20  H    4.290164   2.501816   2.456699   1.758304   0.000000
    21  H    4.793997   4.152125   3.284071   2.912660   2.309721
    22  H    4.430204   4.130459   3.796624   2.277635   2.865368
    23  H    3.266015   3.754706   2.270266   3.804187   3.403477
    24  H    4.024704   4.822421   3.746719   4.069706   4.210980
    25  H    5.883341   7.692034   6.976408   7.000665   7.761882
                   21         22         23         24         25
    21  H    0.000000
    22  H    1.759536   0.000000
    23  H    2.420928   3.048304   0.000000
    24  H    2.545344   2.408075   1.773294   0.000000
    25  H    6.281453   5.408606   5.278126   3.864997   0.000000
 Stoichiometry    C9H12BrN3
 Framework group  C1[X(C9H12BrN3)]
 Deg. of freedom    69
 Full point group                 C1      NOp   1
 Largest Abelian subgroup         C1      NOp   1
 Largest concise Abelian subgroup C1      NOp   1
                         Standard orientation:                         
 ---------------------------------------------------------------------
 Center     Atomic      Atomic             Coordinates (Angstroms)
 Number     Number       Type             X           Y           Z
 ---------------------------------------------------------------------
      1         35           0       -3.863865   -0.000619    0.133691
      2          6           0       -1.970886   -0.006140   -0.020999
      3          6           0       -1.239259   -1.183340    0.070567
      4          7           0        0.069237   -1.193428   -0.036572
      5          6           0        0.682846   -0.011513   -0.240042
      6          7           0        2.012686   -0.033626   -0.356098
      7          6           0        2.719662   -1.292980   -0.221808
      8          6           0        4.224577   -1.063727   -0.252057
      9          6           0        4.618572   -0.014789    0.785663
     10          6           0        3.824971    1.292144    0.595968
     11          6           0        2.793753    1.166458   -0.527406
     12          7           0        0.049146    1.172184   -0.340003
     13          6           0       -1.258403    1.168402   -0.230622
     14          1           0       -1.717101   -2.140646    0.234214
     15          1           0        2.426839   -1.759736    0.725296
     16          1           0        2.409498   -1.968797   -1.026822
     17          1           0        4.728400   -2.006557   -0.036059
     18          1           0        4.536602   -0.744237   -1.247057
     19          1           0        4.423210   -0.421920    1.779066
     20          1           0        5.689894    0.176984    0.716776
     21          1           0        4.493588    2.120068    0.358879
     22          1           0        3.303328    1.544367    1.519834
     23          1           0        3.294495    1.139004   -1.501385
     24          1           0        2.105948    2.011862   -0.516475
     25          1           0       -1.751897    2.128272   -0.312316
 ---------------------------------------------------------------------
 Rotational constants (GHZ):           2.4031301           0.2170532           0.2046427
 Leave Link  202 at Tue Sep 17 09:54:49 2024, MaxMem=  1342177280 cpu:               0.1 elap:               0.0
 (Enter /groups/ReismanLab/Software/Gaussian16_RevC/Linux_Binary_AVX2-enabled-CPU/g16/l301.exe)
 Standard basis: 6-31G(d,p) (6D, 7F)
 Ernie: Thresh=  0.10000D-02 Tol=  0.10000D-05 Strict=F.
 There are   270 symmetry adapted cartesian basis functions of A   symmetry.
 There are   270 symmetry adapted basis functions of A   symmetry.
   270 basis functions,   503 primitive gaussians,   270 cartesian basis functions
    61 alpha electrons       61 beta electrons
       nuclear repulsion energy      1050.4805097518 Hartrees.
 IExCor=  402 DFT=T Ex+Corr=B3LYP ExCW=0 ScaHFX=  0.200000
 ScaDFX=  0.800000  0.720000  1.000000  0.810000 ScalE2=  1.000000  1.000000
 IRadAn=      5 IRanWt=     -1 IRanGd=            0 ICorTp=0 IEmpDi=141
 NAtoms=   25 NActive=   25 NUniq=   25 SFac= 1.00D+00 NAtFMM=   60 NAOKFM=F Big=F
 Integral buffers will be    131072 words long.
 Raffenetti 2 integral format.
 Two-electron integral symmetry is turned on.
 R6Disp:  Grimme-D3(BJ) Dispersion energy=       -0.0510947675 Hartrees.
 Nuclear repulsion after empirical dispersion term =     1050.4294149844 Hartrees.
 Leave Link  301 at Tue Sep 17 09:54:49 2024, MaxMem=  1342177280 cpu:               0.1 elap:               0.1
 (Enter /groups/ReismanLab/Software/Gaussian16_RevC/Linux_Binary_AVX2-enabled-CPU/g16/l302.exe)
 NPDir=0 NMtPBC=     1 NCelOv=     1 NCel=       1 NClECP=     1 NCelD=      1
         NCelK=      1 NCelE2=     1 NClLst=     1 CellRange=     0.0.
 One-electron integrals computed using PRISM.
 One-electron integral symmetry used in STVInt
 NBasis=   270 RedAO= T EigKep=  7.53D-04  NBF=   270
 NBsUse=   270 1.00D-06 EigRej= -1.00D+00 NBFU=   270
 Precomputing XC quadrature grid using
 IXCGrd= 4 IRadAn=           5 IRanWt=          -1 IRanGd=           0 AccXCQ= 0.00D+00.
 Generated NRdTot=       0 NPtTot=           0 NUsed=           0 NTot=          32
 NSgBfM=   267   267   267   267   267 MxSgAt=    25 MxSgA2=    25.
 Leave Link  302 at Tue Sep 17 09:54:50 2024, MaxMem=  1342177280 cpu:               1.5 elap:               0.3
 (Enter /groups/ReismanLab/Software/Gaussian16_RevC/Linux_Binary_AVX2-enabled-CPU/g16/l303.exe)
 DipDrv:  MaxL=1.
 Leave Link  303 at Tue Sep 17 09:54:50 2024, MaxMem=  1342177280 cpu:               0.1 elap:               0.1
 (Enter /groups/ReismanLab/Software/Gaussian16_RevC/Linux_Binary_AVX2-enabled-CPU/g16/l401.exe)
 ExpMin= 1.43D-01 ExpMax= 5.74D+05 ExpMxC= 5.74D+03 IAcc=3 IRadAn=         5 AccDes= 0.00D+00
 Harris functional with IExCor=  402 and IRadAn=       5 diagonalized for initial guess.
 HarFok:  IExCor=  402 AccDes= 0.00D+00 IRadAn=         5 IDoV= 1 UseB2=F ITyADJ=14
 ICtDFT=  3500011 ScaDFX=  1.000000  1.000000  1.000000  1.000000
 FoFCou: FMM=F IPFlag=           0 FMFlag=      100000 FMFlg1=           0
         NFxFlg=           0 DoJE=T BraDBF=F KetDBF=T FulRan=T
         wScrn=  0.000000 ICntrl=       500 IOpCl=  0 I1Cent=   200000004 NGrid=           0
         NMat0=    1 NMatS0=      1 NMatT0=    0 NMatD0=    1 NMtDS0=    0 NMtDT0=    0
 Petite list used in FoFCou.
 Harris En= -3086.29133093104    
 JPrj=0 DoOrth=F DoCkMO=F.
 Leave Link  401 at Tue Sep 17 09:54:51 2024, MaxMem=  1342177280 cpu:               8.2 elap:               1.1
 (Enter /groups/ReismanLab/Software/Gaussian16_RevC/Linux_Binary_AVX2-enabled-CPU/g16/l502.exe)
 Integral symmetry usage will be decided dynamically.
 Closed shell SCF:
 Using DIIS extrapolation, IDIIS=  1040.
 NGot=  1342177280 LenX=  1342025818 LenY=  1341952477
 Requested convergence on RMS density matrix=1.00D-08 within  32 cycles.
 Requested convergence on MAX density matrix=1.00D-06.
 Requested convergence on             energy=1.00D-06.
 No special actions if energy rises.
 Fock matrices will be formed incrementally for  20 cycles.
 Integral accuracy reduced to 1.0D-05 until final iterations.

 Cycle   1  Pass 0  IDiag  1:
 FoFJK:  IHMeth= 1 ICntrl=       0 DoSepK=F KAlg= 0 I1Cent=           0 FoldK=F
 IRaf= 830000000 NMat=       1 IRICut=       1 DoRegI=T DoRafI=F ISym2E= 0 IDoP0=0 IntGTp=1.
 FoFCou: FMM=F IPFlag=           0 FMFlag=      100000 FMFlg1=           0
         NFxFlg=           0 DoJE=F BraDBF=F KetDBF=F FulRan=T
         wScrn=  0.000000 ICntrl=         0 IOpCl=  0 I1Cent=           0 NGrid=           0
         NMat0=    1 NMatS0=      1 NMatT0=    0 NMatD0=    1 NMtDS0=    0 NMtDT0=    0
 Symmetry not used in FoFCou.
 E= -3085.94729334876    
 DIIS: error= 2.14D-01 at cycle   1 NSaved=   1.
 NSaved= 1 IEnMin= 1 EnMin= -3085.94729334876     IErMin= 1 ErrMin= 2.14D-01
 ErrMax= 2.14D-01  0.00D+00 EMaxC= 1.00D-01 BMatC= 6.12D-01 BMatP= 6.12D-01
 IDIUse=3 WtCom= 0.00D+00 WtEn= 1.00D+00
 Coeff-Com:  0.100D+01
 Coeff-En:   0.100D+01
 Coeff:      0.100D+01
 Gap=     0.188 Goal=   None    Shift=    0.000
 GapD=    0.188 DampG=1.000 DampE=0.250 DampFc=0.2500 IDamp=-1.
 Damping current iteration by 2.50D-01
 RMSDP=4.49D-03 MaxDP=1.44D-01              OVMax= 1.47D-01

 Cycle   2  Pass 0  IDiag  1:
 RMSU=  1.08D-03    CP:  9.92D-01
 E= -3086.04224146874     Delta-E=       -0.094948119981 Rises=F Damp=T
 DIIS: error= 1.58D-01 at cycle   2 NSaved=   2.
 NSaved= 2 IEnMin= 2 EnMin= -3086.04224146874     IErMin= 2 ErrMin= 1.58D-01
 ErrMax= 1.58D-01  0.00D+00 EMaxC= 1.00D-01 BMatC= 2.62D-01 BMatP= 6.12D-01
 IDIUse=3 WtCom= 0.00D+00 WtEn= 1.00D+00
 Coeff-Com: -0.138D+01 0.238D+01
 Coeff-En:   0.000D+00 0.100D+01
 Coeff:      0.000D+00 0.100D+01
 Gap=     0.177 Goal=   None    Shift=    0.000
 RMSDP=2.34D-03 MaxDP=1.11D-01 DE=-9.49D-02 OVMax= 4.44D-02

 Cycle   3  Pass 0  IDiag  1:
 RMSU=  6.98D-04    CP:  9.69D-01  2.93D+00
 E= -3086.15677844468     Delta-E=       -0.114536975942 Rises=F Damp=F
 DIIS: error= 1.06D-02 at cycle   3 NSaved=   3.
 NSaved= 3 IEnMin= 3 EnMin= -3086.15677844468     IErMin= 3 ErrMin= 1.06D-02
 ErrMax= 1.06D-02  0.00D+00 EMaxC= 1.00D-01 BMatC= 5.80D-02 BMatP= 2.62D-01
 IDIUse=3 WtCom= 8.94D-01 WtEn= 1.06D-01
 Coeff-Com:  0.178D+01-0.230D+01 0.152D+01
 Coeff-En:   0.111D+00 0.000D+00 0.889D+00
 Coeff:      0.160D+01-0.206D+01 0.146D+01
 Gap=     0.176 Goal=   None    Shift=    0.000
 RMSDP=1.10D-03 MaxDP=3.42D-02 DE=-1.15D-01 OVMax= 3.88D-02

 Cycle   4  Pass 0  IDiag  1:
 RMSU=  3.77D-04    CP:  9.71D-01  2.02D+00  1.43D+00
 E= -3086.21083852063     Delta-E=       -0.054060075948 Rises=F Damp=F
 DIIS: error= 2.26D-03 at cycle   4 NSaved=   4.
 NSaved= 4 IEnMin= 4 EnMin= -3086.21083852063     IErMin= 4 ErrMin= 2.26D-03
 ErrMax= 2.26D-03  0.00D+00 EMaxC= 1.00D-01 BMatC= 3.00D-03 BMatP= 5.80D-02
 IDIUse=3 WtCom= 9.77D-01 WtEn= 2.26D-02
 Coeff-Com:  0.797D+00-0.104D+01 0.708D+00 0.539D+00
 Coeff-En:   0.000D+00 0.000D+00 0.000D+00 0.100D+01
 Coeff:      0.779D+00-0.102D+01 0.692D+00 0.549D+00
 Gap=     0.171 Goal=   None    Shift=    0.000
 RMSDP=3.53D-04 MaxDP=1.26D-02 DE=-5.41D-02 OVMax= 3.30D-02

 Cycle   5  Pass 0  IDiag  1:
 RMSU=  1.76D-04    CP:  9.71D-01  2.12D+00  1.41D+00  2.50D-01
 E= -3086.21299792257     Delta-E=       -0.002159401944 Rises=F Damp=F
 DIIS: error= 1.70D-03 at cycle   5 NSaved=   5.
 NSaved= 5 IEnMin= 5 EnMin= -3086.21299792257     IErMin= 5 ErrMin= 1.70D-03
 ErrMax= 1.70D-03  0.00D+00 EMaxC= 1.00D-01 BMatC= 9.87D-04 BMatP= 3.00D-03
 IDIUse=3 WtCom= 9.83D-01 WtEn= 1.70D-02
 Coeff-Com:  0.256D+00-0.337D+00 0.242D+00 0.381D+00 0.459D+00
 Coeff-En:   0.000D+00 0.000D+00 0.000D+00 0.270D+00 0.730D+00
 Coeff:      0.252D+00-0.332D+00 0.238D+00 0.379D+00 0.464D+00
 Gap=     0.173 Goal=   None    Shift=    0.000
 RMSDP=1.39D-04 MaxDP=5.91D-03 DE=-2.16D-03 OVMax= 1.40D-02

 Cycle   6  Pass 0  IDiag  1:
 RMSU=  3.73D-05    CP:  9.71D-01  2.13D+00  1.42D+00  4.82D-01  4.29D-01
 E= -3086.21401124808     Delta-E=       -0.001013325512 Rises=F Damp=F
 DIIS: error= 2.89D-04 at cycle   6 NSaved=   6.
 NSaved= 6 IEnMin= 6 EnMin= -3086.21401124808     IErMin= 6 ErrMin= 2.89D-04
 ErrMax= 2.89D-04  0.00D+00 EMaxC= 1.00D-01 BMatC= 2.99D-05 BMatP= 9.87D-04
 IDIUse=3 WtCom= 9.97D-01 WtEn= 2.89D-03
 Coeff-Com:  0.767D-01-0.101D+00 0.766D-01 0.169D+00 0.246D+00 0.533D+00
 Coeff-En:   0.000D+00 0.000D+00 0.000D+00 0.000D+00 0.000D+00 0.100D+01
 Coeff:      0.765D-01-0.101D+00 0.764D-01 0.169D+00 0.245D+00 0.534D+00
 Gap=     0.173 Goal=   None    Shift=    0.000
 RMSDP=2.11D-05 MaxDP=8.30D-04 DE=-1.01D-03 OVMax= 1.74D-03

 Cycle   7  Pass 0  IDiag  1:
 RMSU=  1.30D-05    CP:  9.71D-01  2.12D+00  1.42D+00  4.87D-01  4.56D-01
                    CP:  5.94D-01
 E= -3086.21403731031     Delta-E=       -0.000026062224 Rises=F Damp=F
 DIIS: error= 5.62D-05 at cycle   7 NSaved=   7.
 NSaved= 7 IEnMin= 7 EnMin= -3086.21403731031     IErMin= 7 ErrMin= 5.62D-05
 ErrMax= 5.62D-05  0.00D+00 EMaxC= 1.00D-01 BMatC= 1.66D-06 BMatP= 2.99D-05
 IDIUse=1 WtCom= 1.00D+00 WtEn= 0.00D+00
 Coeff-Com:  0.110D-01-0.145D-01 0.123D-01 0.428D-01 0.712D-01 0.242D+00
 Coeff-Com:  0.635D+00
 Coeff:      0.110D-01-0.145D-01 0.123D-01 0.428D-01 0.712D-01 0.242D+00
 Coeff:      0.635D+00
 Gap=     0.173 Goal=   None    Shift=    0.000
 RMSDP=6.30D-06 MaxDP=2.11D-04 DE=-2.61D-05 OVMax= 3.37D-04

 Initial convergence to 1.0D-05 achieved.  Increase integral accuracy.
 Cycle   8  Pass 1  IDiag  1:
 E= -3086.21407011320     Delta-E=       -0.000032802895 Rises=F Damp=F
 DIIS: error= 4.88D-05 at cycle   1 NSaved=   1.
 NSaved= 1 IEnMin= 1 EnMin= -3086.21407011320     IErMin= 1 ErrMin= 4.88D-05
 ErrMax= 4.88D-05  0.00D+00 EMaxC= 1.00D-01 BMatC= 4.36D-07 BMatP= 4.36D-07
 IDIUse=1 WtCom= 1.00D+00 WtEn= 0.00D+00
 Coeff-Com:  0.100D+01
 Coeff:      0.100D+01
 Gap=     0.173 Goal=   None    Shift=    0.000
 RMSDP=6.30D-06 MaxDP=2.11D-04 DE=-3.28D-05 OVMax= 3.17D-04

 Cycle   9  Pass 1  IDiag  1:
 RMSU=  1.87D-05    CP:  1.00D+00
 E= -3086.21406988262     Delta-E=        0.000000230580 Rises=F Damp=F
 DIIS: error= 4.27D-05 at cycle   2 NSaved=   2.
 NSaved= 2 IEnMin= 1 EnMin= -3086.21407011320     IErMin= 2 ErrMin= 4.27D-05
 ErrMax= 4.27D-05  0.00D+00 EMaxC= 1.00D-01 BMatC= 6.71D-07 BMatP= 4.36D-07
 IDIUse=1 WtCom= 1.00D+00 WtEn= 0.00D+00
 Coeff-Com:  0.565D+00 0.435D+00
 Coeff:      0.565D+00 0.435D+00
 Gap=     0.173 Goal=   None    Shift=    0.000
 RMSDP=3.74D-06 MaxDP=1.82D-04 DE= 2.31D-07 OVMax= 2.62D-04

 Cycle  10  Pass 1  IDiag  1:
 RMSU=  3.68D-06    CP:  1.00D+00  9.64D-01
 E= -3086.21407043204     Delta-E=       -0.000000549417 Rises=F Damp=F
 DIIS: error= 1.37D-05 at cycle   3 NSaved=   3.
 NSaved= 3 IEnMin= 3 EnMin= -3086.21407043204     IErMin= 3 ErrMin= 1.37D-05
 ErrMax= 1.37D-05  0.00D+00 EMaxC= 1.00D-01 BMatC= 5.28D-08 BMatP= 4.36D-07
 IDIUse=1 WtCom= 1.00D+00 WtEn= 0.00D+00
 Coeff-Com:  0.147D-01 0.219D+00 0.767D+00
 Coeff:      0.147D-01 0.219D+00 0.767D+00
 Gap=     0.173 Goal=   None    Shift=    0.000
 RMSDP=8.87D-07 MaxDP=3.96D-05 DE=-5.49D-07 OVMax= 8.98D-05

 Cycle  11  Pass 1  IDiag  1:
 RMSU=  4.09D-07    CP:  1.00D+00  9.80D-01  8.03D-01
 E= -3086.21407047463     Delta-E=       -0.000000042589 Rises=F Damp=F
 DIIS: error= 3.54D-06 at cycle   4 NSaved=   4.
 NSaved= 4 IEnMin= 4 EnMin= -3086.21407047463     IErMin= 4 ErrMin= 3.54D-06
 ErrMax= 3.54D-06  0.00D+00 EMaxC= 1.00D-01 BMatC= 4.37D-09 BMatP= 5.28D-08
 IDIUse=1 WtCom= 1.00D+00 WtEn= 0.00D+00
 Coeff-Com: -0.261D-02 0.125D+00 0.470D+00 0.407D+00
 Coeff:     -0.261D-02 0.125D+00 0.470D+00 0.407D+00
 Gap=     0.173 Goal=   None    Shift=    0.000
 RMSDP=2.76D-07 MaxDP=8.81D-06 DE=-4.26D-08 OVMax= 2.49D-05

 Cycle  12  Pass 1  IDiag  1:
 RMSU=  1.15D-07    CP:  1.00D+00  9.81D-01  8.05D-01  3.88D-01
 E= -3086.21407047874     Delta-E=       -0.000000004115 Rises=F Damp=F
 DIIS: error= 7.77D-07 at cycle   5 NSaved=   5.
 NSaved= 5 IEnMin= 5 EnMin= -3086.21407047874     IErMin= 5 ErrMin= 7.77D-07
 ErrMax= 7.77D-07  0.00D+00 EMaxC= 1.00D-01 BMatC= 2.09D-10 BMatP= 4.37D-09
 IDIUse=1 WtCom= 1.00D+00 WtEn= 0.00D+00
 Coeff-Com: -0.232D-02 0.666D-01 0.253D+00 0.256D+00 0.427D+00
 Coeff:     -0.232D-02 0.666D-01 0.253D+00 0.256D+00 0.427D+00
 Gap=     0.173 Goal=   None    Shift=    0.000
 RMSDP=6.67D-08 MaxDP=2.96D-06 DE=-4.12D-09 OVMax= 6.96D-06

 Cycle  13  Pass 1  IDiag  1:
 RMSU=  3.76D-08    CP:  1.00D+00  9.81D-01  8.04D-01  4.42D-01  5.64D-01
 E= -3086.21407047898     Delta-E=       -0.000000000240 Rises=F Damp=F
 DIIS: error= 1.39D-07 at cycle   6 NSaved=   6.
 NSaved= 6 IEnMin= 6 EnMin= -3086.21407047898     IErMin= 6 ErrMin= 1.39D-07
 ErrMax= 1.39D-07  0.00D+00 EMaxC= 1.00D-01 BMatC= 7.27D-12 BMatP= 2.09D-10
 IDIUse=1 WtCom= 1.00D+00 WtEn= 0.00D+00
 Coeff-Com: -0.877D-03 0.198D-01 0.768D-01 0.861D-01 0.203D+00 0.615D+00
 Coeff:     -0.877D-03 0.198D-01 0.768D-01 0.861D-01 0.203D+00 0.615D+00
 Gap=     0.173 Goal=   None    Shift=    0.000
 RMSDP=1.21D-08 MaxDP=7.06D-07 DE=-2.40D-10 OVMax= 1.20D-06

 Cycle  14  Pass 1  IDiag  1:
 RMSU=  9.85D-09    CP:  1.00D+00  9.81D-01  8.04D-01  4.40D-01  6.00D-01
                    CP:  8.60D-01
 E= -3086.21407047897     Delta-E=        0.000000000010 Rises=F Damp=F
 DIIS: error= 3.00D-08 at cycle   7 NSaved=   7.
 NSaved= 7 IEnMin= 6 EnMin= -3086.21407047898     IErMin= 7 ErrMin= 3.00D-08
 ErrMax= 3.00D-08  0.00D+00 EMaxC= 1.00D-01 BMatC= 4.74D-13 BMatP= 7.27D-12
 IDIUse=1 WtCom= 1.00D+00 WtEn= 0.00D+00
 Coeff-Com: -0.131D-03 0.166D-02 0.724D-02 0.104D-01 0.343D-01 0.243D+00
 Coeff-Com:  0.703D+00
 Coeff:     -0.131D-03 0.166D-02 0.724D-02 0.104D-01 0.343D-01 0.243D+00
 Coeff:      0.703D+00
 Gap=     0.173 Goal=   None    Shift=    0.000
 RMSDP=3.64D-09 MaxDP=1.46D-07 DE= 1.00D-11 OVMax= 1.87D-07

 SCF Done:  E(RB3LYP) =  -3086.21407048     A.U. after   14 cycles
            NFock= 14  Conv=0.36D-08     -V/T= 2.0066
 KE= 3.066005230054D+03 PE=-9.428140206726D+03 EE= 2.225491491209D+03
 Leave Link  502 at Tue Sep 17 09:55:11 2024, MaxMem=  1342177280 cpu:             150.1 elap:              19.7
 (Enter /groups/ReismanLab/Software/Gaussian16_RevC/Linux_Binary_AVX2-enabled-CPU/g16/l508.exe)
 QCSCF skips out because SCF is already converged.
 Leave Link  508 at Tue Sep 17 09:55:11 2024, MaxMem=  1342177280 cpu:               0.0 elap:               0.0
 (Enter /groups/ReismanLab/Software/Gaussian16_RevC/Linux_Binary_AVX2-enabled-CPU/g16/l601.exe)
 Copying SCF densities to generalized density rwf, IOpCl= 0 IROHF=0.

 **********************************************************************

            Population analysis using the SCF Density.

 **********************************************************************

 Orbital symmetries:
       Occupied  (A) (A) (A) (A) (A) (A) (A) (A) (A) (A) (A) (A)
                 (A) (A) (A) (A) (A) (A) (A) (A) (A) (A) (A) (A)
                 (A) (A) (A) (A) (A) (A) (A) (A) (A) (A) (A) (A)
                 (A) (A) (A) (A) (A) (A) (A) (A) (A) (A) (A) (A)
                 (A) (A) (A) (A) (A) (A) (A) (A) (A) (A) (A) (A)
                 (A)
       Virtual   (A) (A) (A) (A) (A) (A) (A) (A) (A) (A) (A) (A)
                 (A) (A) (A) (A) (A) (A) (A) (A) (A) (A) (A) (A)
                 (A) (A) (A) (A) (A) (A) (A) (A) (A) (A) (A) (A)
                 (A) (A) (A) (A) (A) (A) (A) (A) (A) (A) (A) (A)
                 (A) (A) (A) (A) (A) (A) (A) (A) (A) (A) (A) (A)
                 (A) (A) (A) (A) (A) (A) (A) (A) (A) (A) (A) (A)
                 (A) (A) (A) (A) (A) (A) (A) (A) (A) (A) (A) (A)
                 (A) (A) (A) (A) (A) (A) (A) (A) (A) (A) (A) (A)
                 (A) (A) (A) (A) (A) (A) (A) (A) (A) (A) (A) (A)
                 (A) (A) (A) (A) (A) (A) (A) (A) (A) (A) (A) (A)
                 (A) (A) (A) (A) (A) (A) (A) (A) (A) (A) (A) (A)
                 (A) (A) (A) (A) (A) (A) (A) (A) (A) (A) (A) (A)
                 (A) (A) (A) (A) (A) (A) (A) (A) (A) (A) (A) (A)
                 (A) (A) (A) (A) (A) (A) (A) (A) (A) (A) (A) (A)
                 (A) (A) (A) (A) (A) (A) (A) (A) (A) (A) (A) (A)
                 (A) (A) (A) (A) (A) (A) (A) (A) (A) (A) (A) (A)
                 (A) (A) (A) (A) (A) (A) (A) (A) (A) (A) (A) (A)
                 (A) (A) (A) (A) (A)
 The electronic state is 1-A.
 Alpha  occ. eigenvalues -- -482.91068 -61.87234 -56.39376 -56.38960 -56.38943
 Alpha  occ. eigenvalues --  -14.35992 -14.32992 -14.32818 -10.28393 -10.23987
 Alpha  occ. eigenvalues --  -10.23934 -10.23487 -10.21680 -10.21459 -10.19006
 Alpha  occ. eigenvalues --  -10.18651 -10.18591  -8.58371  -6.53778  -6.52477
 Alpha  occ. eigenvalues --   -6.52471  -2.65349  -2.64972  -2.64966  -2.63929
 Alpha  occ. eigenvalues --   -2.63929  -1.01558  -0.94523  -0.89519  -0.83061
 Alpha  occ. eigenvalues --   -0.80377  -0.76723  -0.73799  -0.67763  -0.67268
 Alpha  occ. eigenvalues --   -0.63492  -0.61682  -0.56489  -0.53332  -0.52984
 Alpha  occ. eigenvalues --   -0.50308  -0.47805  -0.46113  -0.43893  -0.42951
 Alpha  occ. eigenvalues --   -0.42219  -0.41627  -0.41441  -0.40975  -0.38539
 Alpha  occ. eigenvalues --   -0.37396  -0.35372  -0.33294  -0.32769  -0.32398
 Alpha  occ. eigenvalues --   -0.31918  -0.30743  -0.29124  -0.27444  -0.24222
 Alpha  occ. eigenvalues --   -0.20589
 Alpha virt. eigenvalues --   -0.03320  -0.00000   0.01380   0.07656   0.10609
 Alpha virt. eigenvalues --    0.12823   0.13461   0.14169   0.14453   0.15222
 Alpha virt. eigenvalues --    0.15496   0.16069   0.16938   0.17829   0.18998
 Alpha virt. eigenvalues --    0.19219   0.19998   0.21182   0.21608   0.22706
 Alpha virt. eigenvalues --    0.25920   0.26208   0.27451   0.29074   0.31861
 Alpha virt. eigenvalues --    0.34316   0.34921   0.37798   0.38743   0.41362
 Alpha virt. eigenvalues --    0.46451   0.46554   0.46581   0.47862   0.48177
 Alpha virt. eigenvalues --    0.49091   0.49965   0.50731   0.53159   0.53635
 Alpha virt. eigenvalues --    0.54346   0.55306   0.55779   0.58527   0.59225
 Alpha virt. eigenvalues --    0.59948   0.60098   0.62516   0.63168   0.64361
 Alpha virt. eigenvalues --    0.65594   0.66397   0.67783   0.68389   0.71258
 Alpha virt. eigenvalues --    0.73630   0.74359   0.75097   0.75267   0.77637
 Alpha virt. eigenvalues --    0.79510   0.80269   0.80660   0.81175   0.82805
 Alpha virt. eigenvalues --    0.83903   0.84669   0.84833   0.85249   0.86946
 Alpha virt. eigenvalues --    0.88231   0.89241   0.89657   0.90852   0.91938
 Alpha virt. eigenvalues --    0.93239   0.94439   0.96008   0.98604   1.01436
 Alpha virt. eigenvalues --    1.02384   1.07495   1.09472   1.10449   1.10915
 Alpha virt. eigenvalues --    1.16982   1.20910   1.21867   1.24574   1.25819
 Alpha virt. eigenvalues --    1.26892   1.30862   1.37005   1.38861   1.40414
 Alpha virt. eigenvalues --    1.40531   1.42475   1.43867   1.47278   1.49885
 Alpha virt. eigenvalues --    1.52994   1.53541   1.55549   1.56830   1.62440
 Alpha virt. eigenvalues --    1.64059   1.64218   1.67991   1.70812   1.74106
 Alpha virt. eigenvalues --    1.76956   1.77844   1.79751   1.80749   1.81791
 Alpha virt. eigenvalues --    1.85443   1.87296   1.88094   1.89560   1.89676
 Alpha virt. eigenvalues --    1.91735   1.95315   1.97341   1.99490   2.00046
 Alpha virt. eigenvalues --    2.03982   2.05081   2.06519   2.07875   2.09467
 Alpha virt. eigenvalues --    2.11804   2.12779   2.15024   2.15407   2.18415
 Alpha virt. eigenvalues --    2.19695   2.21492   2.22955   2.24695   2.27098
 Alpha virt. eigenvalues --    2.29634   2.30124   2.32422   2.33722   2.35581
 Alpha virt. eigenvalues --    2.36753   2.37533   2.40874   2.42468   2.44087
 Alpha virt. eigenvalues --    2.46155   2.48110   2.49434   2.51471   2.51520
 Alpha virt. eigenvalues --    2.53376   2.56161   2.58184   2.60305   2.60778
 Alpha virt. eigenvalues --    2.62744   2.63704   2.66761   2.68313   2.70994
 Alpha virt. eigenvalues --    2.72498   2.73894   2.74838   2.75503   2.77794
 Alpha virt. eigenvalues --    2.78877   2.82653   2.84629   2.86387   2.87058
 Alpha virt. eigenvalues --    2.89844   2.92698   2.99030   3.02471   3.06431
 Alpha virt. eigenvalues --    3.14829   3.22398   3.27097   3.28119   3.29242
 Alpha virt. eigenvalues --    3.30392   3.34275   3.36335   3.42129   3.43365
 Alpha virt. eigenvalues --    3.47012   3.51193   3.52597   3.57723   3.63621
 Alpha virt. eigenvalues --    4.04813   4.13719   4.16430   4.30415   4.32143
 Alpha virt. eigenvalues --    4.35607   4.40283   4.47625   4.57543   4.61309
 Alpha virt. eigenvalues --    4.69906   4.84630   8.60645  72.79590
          Condensed to atoms (all electrons):
               1          2          3          4          5          6
     1  Br  34.987333   0.234972  -0.049962   0.004089   0.001001   0.000012
     2  C    0.234972   5.087794   0.457432  -0.022905  -0.033747   0.001255
     3  C   -0.049962   0.457432   4.722088   0.482756  -0.060139   0.002180
     4  N    0.004089  -0.022905   0.482756   6.875248   0.427182  -0.108229
     5  C    0.001001  -0.033747  -0.060139   0.427182   4.363185   0.326419
     6  N    0.000012   0.001255   0.002180  -0.108229   0.326419   7.049005
     7  C   -0.000001   0.000015   0.000575  -0.004358  -0.036754   0.298533
     8  C   -0.000000   0.000002  -0.000009   0.001248   0.005929  -0.043173
     9  C    0.000000  -0.000000   0.000000  -0.000054  -0.000287  -0.009107
    10  C    0.000000   0.000001   0.000006  -0.000087   0.001754  -0.058906
    11  C   -0.000000  -0.000078  -0.000072   0.003520  -0.035867   0.311468
    12  N    0.004097  -0.026889  -0.038105  -0.080488   0.432881  -0.104140
    13  C   -0.050587   0.454839  -0.042927  -0.041435  -0.062013   0.001937
    14  H    0.001426  -0.069391   0.393868  -0.052588   0.004690  -0.000096
    15  H    0.000000  -0.000027   0.000203   0.008363  -0.008357  -0.048447
    16  H    0.000000  -0.000026   0.000141   0.006516  -0.006379  -0.046381
    17  H   -0.000000  -0.000000   0.000000   0.000003  -0.000057   0.003995
    18  H    0.000000  -0.000000   0.000000  -0.000025  -0.000310  -0.004294
    19  H    0.000000  -0.000000  -0.000000  -0.000006  -0.000116  -0.000401
    20  H   -0.000000   0.000000  -0.000000   0.000000   0.000017   0.000105
    21  H   -0.000000   0.000000  -0.000000   0.000002  -0.000133   0.004890
    22  H   -0.000000   0.000001   0.000000  -0.000038   0.001653  -0.001288
    23  H   -0.000000   0.000000   0.000005  -0.000080   0.002264  -0.052931
    24  H   -0.000001   0.000105   0.000010   0.000582  -0.010439  -0.034395
    25  H    0.001370  -0.070028   0.004121  -0.000575   0.004389  -0.000147
               7          8          9         10         11         12
     1  Br  -0.000001  -0.000000   0.000000   0.000000  -0.000000   0.004097
     2  C    0.000015   0.000002  -0.000000   0.000001  -0.000078  -0.026889
     3  C    0.000575  -0.000009   0.000000   0.000006  -0.000072  -0.038105
     4  N   -0.004358   0.001248  -0.000054  -0.000087   0.003520  -0.080488
     5  C   -0.036754   0.005929  -0.000287   0.001754  -0.035867   0.432881
     6  N    0.298533  -0.043173  -0.009107  -0.058906   0.311468  -0.104140
     7  C    4.761817   0.359975  -0.041879  -0.016821  -0.049519   0.003673
     8  C    0.359975   4.959586   0.378589  -0.050019  -0.008128  -0.000075
     9  C   -0.041879   0.378589   4.921405   0.359192  -0.049860  -0.000044
    10  C   -0.016821  -0.050019   0.359192   4.968185   0.377012   0.000584
    11  C   -0.049519  -0.008128  -0.049860   0.377012   4.809888  -0.018902
    12  N    0.003673  -0.000075  -0.000044   0.000584  -0.018902   6.864468
    13  C   -0.000019   0.000002   0.000001  -0.000021   0.000733   0.486480
    14  H   -0.000034  -0.000001   0.000000  -0.000000   0.000005  -0.000475
    15  H    0.389064  -0.037582  -0.007270   0.000331   0.004177   0.000126
    16  H    0.386829  -0.034868   0.005217  -0.000262   0.001673   0.000047
    17  H   -0.031651   0.383347  -0.031415   0.005748   0.000103   0.000002
    18  H   -0.032772   0.379326  -0.041083  -0.005179   0.003136  -0.000001
    19  H   -0.004538  -0.040581   0.387313  -0.036567   0.002086   0.000003
    20  H    0.004700  -0.031924   0.381762  -0.033039   0.003103  -0.000000
    21  H    0.000080   0.002019  -0.032103   0.370915  -0.031684  -0.000012
    22  H    0.000927   0.002472  -0.036742   0.383399  -0.036115   0.000143
    23  H   -0.001519  -0.000200  -0.004991  -0.053278   0.387082   0.001093
    24  H    0.005067  -0.000009   0.004403  -0.026279   0.383646   0.024647
    25  H    0.000005  -0.000000   0.000000  -0.000001   0.000047  -0.053051
              13         14         15         16         17         18
     1  Br  -0.050587   0.001426   0.000000   0.000000  -0.000000   0.000000
     2  C    0.454839  -0.069391  -0.000027  -0.000026  -0.000000  -0.000000
     3  C   -0.042927   0.393868   0.000203   0.000141   0.000000   0.000000
     4  N   -0.041435  -0.052588   0.008363   0.006516   0.000003  -0.000025
     5  C   -0.062013   0.004690  -0.008357  -0.006379  -0.000057  -0.000310
     6  N    0.001937  -0.000096  -0.048447  -0.046381   0.003995  -0.004294
     7  C   -0.000019  -0.000034   0.389064   0.386829  -0.031651  -0.032772
     8  C    0.000002  -0.000001  -0.037582  -0.034868   0.383347   0.379326
     9  C    0.000001   0.000000  -0.007270   0.005217  -0.031415  -0.041083
    10  C   -0.000021  -0.000000   0.000331  -0.000262   0.005748  -0.005179
    11  C    0.000733   0.000005   0.004177   0.001673   0.000103   0.003136
    12  N    0.486480  -0.000475   0.000126   0.000047   0.000002  -0.000001
    13  C    4.725200   0.003885   0.000010   0.000015  -0.000000   0.000000
    14  H    0.003885   0.601670  -0.000010  -0.000004  -0.000000   0.000000
    15  H    0.000010  -0.000010   0.622726  -0.046433  -0.004653   0.005842
    16  H    0.000015  -0.000004  -0.046433   0.627506  -0.000912  -0.006171
    17  H   -0.000000  -0.000000  -0.004653  -0.000912   0.613317  -0.033893
    18  H    0.000000   0.000000   0.005842  -0.006171  -0.033893   0.630173
    19  H    0.000000   0.000000   0.005397  -0.000062  -0.005518   0.006312
    20  H   -0.000000  -0.000000   0.000001  -0.000191  -0.001840  -0.005399
    21  H    0.000001   0.000000  -0.000038   0.000033  -0.000154   0.000675
    22  H   -0.000009   0.000000  -0.000182   0.000027  -0.000168  -0.000119
    23  H   -0.000017  -0.000000  -0.000536   0.001613  -0.000008  -0.001899
    24  H    0.000361   0.000001  -0.000176  -0.000200  -0.000011   0.000034
    25  H    0.394362  -0.000170   0.000000   0.000000   0.000000  -0.000000
              19         20         21         22         23         24
     1  Br   0.000000  -0.000000  -0.000000  -0.000000  -0.000000  -0.000001
     2  C   -0.000000   0.000000   0.000000   0.000001   0.000000   0.000105
     3  C   -0.000000  -0.000000  -0.000000   0.000000   0.000005   0.000010
     4  N   -0.000006   0.000000   0.000002  -0.000038  -0.000080   0.000582
     5  C   -0.000116   0.000017  -0.000133   0.001653   0.002264  -0.010439
     6  N   -0.000401   0.000105   0.004890  -0.001288  -0.052931  -0.034395
     7  C   -0.004538   0.004700   0.000080   0.000927  -0.001519   0.005067
     8  C   -0.040581  -0.031924   0.002019   0.002472  -0.000200  -0.000009
     9  C    0.387313   0.381762  -0.032103  -0.036742  -0.004991   0.004403
    10  C   -0.036567  -0.033039   0.370915   0.383399  -0.053278  -0.026279
    11  C    0.002086   0.003103  -0.031684  -0.036115   0.387082   0.383646
    12  N    0.000003  -0.000000  -0.000012   0.000143   0.001093   0.024647
    13  C    0.000000  -0.000000   0.000001  -0.000009  -0.000017   0.000361
    14  H    0.000000  -0.000000   0.000000   0.000000  -0.000000   0.000001
    15  H    0.005397   0.000001  -0.000038  -0.000182  -0.000536  -0.000176
    16  H   -0.000062  -0.000191   0.000033   0.000027   0.001613  -0.000200
    17  H   -0.005518  -0.001840  -0.000154  -0.000168  -0.000008  -0.000011
    18  H    0.006312  -0.005399   0.000675  -0.000119  -0.001899   0.000034
    19  H    0.628751  -0.036038   0.004353  -0.012588  -0.000157  -0.000115
    20  H   -0.036038   0.628455  -0.012890   0.004188   0.000477  -0.000120
    21  H    0.004353  -0.012890   0.630096  -0.032676  -0.002153  -0.000228
    22  H   -0.012588   0.004188  -0.032676   0.617725   0.006170  -0.006037
    23  H   -0.000157   0.000477  -0.002153   0.006170   0.647525  -0.031868
    24  H   -0.000115  -0.000120  -0.000228  -0.006037  -0.031868   0.543344
    25  H   -0.000000  -0.000000   0.000000  -0.000001  -0.000002  -0.000140
              25
     1  Br   0.001370
     2  C   -0.070028
     3  C    0.004121
     4  N   -0.000575
     5  C    0.004389
     6  N   -0.000147
     7  C    0.000005
     8  C   -0.000000
     9  C    0.000000
    10  C   -0.000001
    11  C    0.000047
    12  N   -0.053051
    13  C    0.394362
    14  H   -0.000170
    15  H    0.000000
    16  H    0.000000
    17  H    0.000000
    18  H   -0.000000
    19  H   -0.000000
    20  H   -0.000000
    21  H    0.000000
    22  H   -0.000001
    23  H   -0.000002
    24  H   -0.000140
    25  H    0.602932
 Mulliken charges:
               1
     1  Br  -0.133750
     2  C   -0.013325
     3  C    0.127828
     4  N   -0.498639
     5  C    0.683233
     6  N   -0.487864
     7  C    0.008606
     8  C   -0.225925
     9  C   -0.183046
    10  C   -0.186668
    11  C   -0.057453
    12  N   -0.496063
    13  C    0.129202
    14  H    0.117223
    15  H    0.117471
    16  H    0.112270
    17  H    0.103766
    18  H    0.105645
    19  H    0.102474
    20  H    0.098634
    21  H    0.099008
    22  H    0.109258
    23  H    0.103408
    24  H    0.147818
    25  H    0.116887
 Sum of Mulliken charges =  -0.00000
 Mulliken charges with hydrogens summed into heavy atoms:
               1
     1  Br  -0.133750
     2  C   -0.013325
     3  C    0.245051
     4  N   -0.498639
     5  C    0.683233
     6  N   -0.487864
     7  C    0.238348
     8  C   -0.016514
     9  C    0.018063
    10  C    0.021598
    11  C    0.193773
    12  N   -0.496063
    13  C    0.246089
 Electronic spatial extent (au):  <R**2>=           4821.9130
 Charge=             -0.0000 electrons
 Dipole moment (field-independent basis, Debye):
    X=              2.8157    Y=              0.0272    Z=              0.0164  Tot=              2.8159
 Quadrupole moment (field-independent basis, Debye-Ang):
   XX=            -82.2246   YY=            -88.0478   ZZ=            -89.3004
   XY=             -0.1979   XZ=             -0.4850   YZ=             -0.1958
 Traceless Quadrupole moment (field-independent basis, Debye-Ang):
   XX=              4.2996   YY=             -1.5235   ZZ=             -2.7762
   XY=             -0.1979   XZ=             -0.4850   YZ=             -0.1958
 Octapole moment (field-independent basis, Debye-Ang**2):
  XXX=            -69.3755  YYY=              0.1639  ZZZ=              3.5502  XYY=            -40.0295
  XXY=             -0.4601  XXZ=             -1.8227  XZZ=            -34.0379  YZZ=             -0.7644
  YYZ=              1.6015  XYZ=              0.2500
 Hexadecapole moment (field-independent basis, Debye-Ang**3):
 XXXX=          -4701.6578 YYYY=           -577.1162 ZZZZ=           -196.7326 XXXY=              0.2954
 XXXZ=            -38.7964 YYYX=             -2.8622 YYYZ=             -3.0240 ZZZX=            -18.3793
 ZZZY=              0.3017 XXYY=           -878.3422 XXZZ=           -851.0184 YYZZ=           -132.6242
 XXYZ=             -8.0730 YYXZ=             -6.2443 ZZXY=             -1.2494
 N-N= 1.050429414984D+03 E-N=-9.428140218094D+03  KE= 3.066005230054D+03
 No NMR shielding tensors so no spin-rotation constants.
 Leave Link  601 at Tue Sep 17 09:55:11 2024, MaxMem=  1342177280 cpu:               1.1 elap:               0.2
 (Enter /groups/ReismanLab/Software/Gaussian16_RevC/Linux_Binary_AVX2-enabled-CPU/g16/l701.exe)
 ... and contract with generalized density number  0.
 Compute integral first derivatives.
 R6Disp: Adding Grimme-D3(BJ) dispersion energy 1st derivatives to the gradient.
 Leave Link  701 at Tue Sep 17 09:55:11 2024, MaxMem=  1342177280 cpu:               0.7 elap:               0.1
 (Enter /groups/ReismanLab/Software/Gaussian16_RevC/Linux_Binary_AVX2-enabled-CPU/g16/l702.exe)
 L702 exits ... SP integral derivatives will be done elsewhere.
 Leave Link  702 at Tue Sep 17 09:55:11 2024, MaxMem=  1342177280 cpu:               0.1 elap:               0.0
 (Enter /groups/ReismanLab/Software/Gaussian16_RevC/Linux_Binary_AVX2-enabled-CPU/g16/l703.exe)
 Integral derivatives from FoFJK, PRISM(SPDF).
 Compute integral first derivatives, UseDBF=F ICtDFT=           0.
 Calling FoFJK, ICntrl=      2127 FMM=F ISym2X=0 I1Cent= 0 IOpClX= 0 NMat=1 NMatS=1 NMatT=0.
 FoFJK:  IHMeth= 1 ICntrl=    2127 DoSepK=F KAlg= 0 I1Cent=           0 FoldK=F
 IRaf=         0 NMat=       1 IRICut=       1 DoRegI=T DoRafI=F ISym2E= 0 IDoP0=0 IntGTp=1.
 FoFCou: FMM=F IPFlag=           0 FMFlag=      100000 FMFlg1=         800
         NFxFlg=           0 DoJE=F BraDBF=F KetDBF=F FulRan=T
         wScrn=  0.000000 ICntrl=      2127 IOpCl=  0 I1Cent=           0 NGrid=           0
         NMat0=    1 NMatS0=      1 NMatT0=    0 NMatD0=    1 NMtDS0=    0 NMtDT0=    0
 Symmetry not used in FoFCou.
 Leave Link  703 at Tue Sep 17 09:55:17 2024, MaxMem=  1342177280 cpu:              46.5 elap:               5.9
 (Enter /groups/ReismanLab/Software/Gaussian16_RevC/Linux_Binary_AVX2-enabled-CPU/g16/l716.exe)
 Dipole        = 1.10778941D+00 1.07192287D-02 6.46529707D-03
 ***** Axes restored to original set *****
 -------------------------------------------------------------------
 Center     Atomic                   Forces (Hartrees/Bohr)
 Number     Number              X              Y              Z
 -------------------------------------------------------------------
      1       35           0.001699952    0.000027778   -0.000240206
      2        6           0.008219694   -0.000646457   -0.001528498
      3        6           0.009833602    0.000334600   -0.001765518
      4        7          -0.013540867   -0.009788511    0.000871232
      5        6           0.013917622    0.000723844   -0.001192640
      6        7          -0.011026486    0.000010730    0.001621251
      7        6          -0.002346838   -0.009305657    0.002133672
      8        6           0.000456357   -0.000314979   -0.003989999
      9        6          -0.003305087   -0.000846302    0.001368971
     10        6           0.001121855    0.001396196    0.001721814
     11        6          -0.002568462    0.010729892   -0.000781975
     12        7          -0.011391238    0.009555188    0.003314280
     13        6           0.008441267    0.000823670   -0.001481202
     14        1           0.004218528   -0.002261512   -0.001041921
     15        1          -0.000289459   -0.002229344    0.000366042
     16        1           0.000313720   -0.002240934   -0.001337505
     17        1          -0.000733691   -0.002608629    0.001550812
     18        1          -0.001456902   -0.000708214    0.003232138
     19        1          -0.001223542   -0.001264564   -0.002784796
     20        1          -0.002982383   -0.000165101   -0.001682049
     21        1          -0.001332797    0.003211020   -0.000087156
     22        1           0.001093176    0.002262340   -0.001774931
     23        1           0.000008766    0.001723315    0.001709291
     24        1          -0.001396752   -0.000753288    0.002182937
     25        1           0.004269965    0.002334918   -0.000384044
 -------------------------------------------------------------------
 Cartesian Forces:  Max     0.013917622 RMS     0.004433425
 Leave Link  716 at Tue Sep 17 09:55:17 2024, MaxMem=  1342177280 cpu:               0.1 elap:               0.0
 (Enter /groups/ReismanLab/Software/Gaussian16_RevC/Linux_Binary_AVX2-enabled-CPU/g16/l103.exe)

 GradGradGradGradGradGradGradGradGradGradGradGradGradGradGradGradGradGrad
 Berny optimization.
 FormGI is forming the generalized inverse of G from B-inverse, IUseBI=4.
 Internal  Forces:  Max     0.025901784 RMS     0.004107067
 Search for a local minimum.
 Step number   1 out of a maximum of  150
 All quantities printed in internal units (Hartrees-Bohrs-Radians)
 RMS Force = .41071D-02 SwitMx=.10000D-02 MixMth= 1
 Mixed Optimization -- RFO/linear search
 Second derivative matrix not updated -- first step.
 ITU=  0
     Eigenvalues ---    0.00371   0.00764   0.01105   0.01390   0.02230
     Eigenvalues ---    0.02286   0.02388   0.02415   0.02447   0.02466
     Eigenvalues ---    0.02551   0.02570   0.02612   0.02834   0.03854
     Eigenvalues ---    0.04336   0.04690   0.04821   0.05097   0.05491
     Eigenvalues ---    0.05859   0.06231   0.06739   0.07942   0.08100
     Eigenvalues ---    0.08104   0.09113   0.09272   0.09284   0.10067
     Eigenvalues ---    0.12046   0.12408   0.16000   0.16000   0.18285
     Eigenvalues ---    0.18583   0.20431   0.22234   0.23181   0.23424
     Eigenvalues ---    0.24921   0.25000   0.25000   0.25000   0.26988
     Eigenvalues ---    0.27677   0.29053   0.29431   0.34141   0.34159
     Eigenvalues ---    0.34184   0.34672   0.34741   0.34743   0.34752
     Eigenvalues ---    0.34752   0.34780   0.34823   0.35707   0.35708
     Eigenvalues ---    0.36301   0.37973   0.44659   0.46501   0.53485
     Eigenvalues ---    0.54655   0.58322   0.60459   0.63836
 RFO step:  Lambda=-5.41830360D-03 EMin= 3.71011468D-03
 Linear search not attempted -- first point.
 Iteration  1 RMS(Cart)=  0.03290840 RMS(Int)=  0.00012456
 Iteration  2 RMS(Cart)=  0.00015425 RMS(Int)=  0.00004013
 Iteration  3 RMS(Cart)=  0.00000002 RMS(Int)=  0.00004013
 ITry= 1 IFail=0 DXMaxC= 1.31D-01 DCOld= 1.00D+10 DXMaxT= 3.00D-01 DXLimC= 3.00D+00 Rises=F
 Variable       Old X    -DE/DX   Delta X   Delta X   Delta X     New X
                                 (Linear)    (Quad)   (Total)
    R1        3.58915   0.00172   0.00000   0.00912   0.00912   3.59827
    R2        2.62492   0.00480   0.00000   0.00919   0.00918   2.63410
    R3        2.62606   0.00569   0.00000   0.01104   0.01103   2.63708
    R4        2.48105   0.01911   0.00000   0.02974   0.02974   2.51078
    R5        2.04540   0.00403   0.00000   0.01112   0.01112   2.05652
    R6        2.54576   0.01067   0.00000   0.01972   0.01974   2.56550
    R7        2.52293   0.02590   0.00000   0.04400   0.04400   2.56693
    R8        2.54427   0.01130   0.00000   0.02077   0.02078   2.56505
    R9        2.74096   0.01380   0.00000   0.03714   0.03714   2.77810
   R10        2.72515   0.01329   0.00000   0.03532   0.03535   2.76050
   R11        2.87725   0.00480   0.00000   0.01458   0.01455   2.89180
   R12        2.07062   0.00052   0.00000   0.00150   0.00150   2.07212
   R13        2.07093   0.00059   0.00000   0.00170   0.00170   2.07263
   R14        2.88601   0.00595   0.00000   0.01881   0.01882   2.90482
   R15        2.06095   0.00233   0.00000   0.00660   0.00660   2.06754
   R16        2.06098   0.00315   0.00000   0.00893   0.00893   2.06991
   R17        2.91156   0.00907   0.00000   0.02928   0.02928   2.94084
   R18        2.06212   0.00291   0.00000   0.00826   0.00826   2.07037
   R19        2.06080   0.00263   0.00000   0.00745   0.00745   2.06825
   R20        2.89145   0.00355   0.00000   0.01143   0.01144   2.90289
   R21        2.06034   0.00318   0.00000   0.00900   0.00900   2.06933
   R22        2.06080   0.00257   0.00000   0.00729   0.00729   2.06810
   R23        2.07020   0.00149   0.00000   0.00430   0.00430   2.07450
   R24        2.05963  -0.00156   0.00000  -0.00441  -0.00441   2.05522
   R25        2.47955   0.01815   0.00000   0.02813   0.02813   2.50768
   R26        2.04541   0.00399   0.00000   0.01101   0.01101   2.05643
    A1        2.12005   0.00037   0.00000   0.00322   0.00324   2.12329
    A2        2.11862   0.00033   0.00000   0.00308   0.00309   2.12171
    A3        2.04451  -0.00070   0.00000  -0.00630  -0.00633   2.03818
    A4        2.12477   0.00211   0.00000   0.00725   0.00724   2.13201
    A5        2.12585  -0.00390   0.00000  -0.02085  -0.02084   2.10501
    A6        2.03256   0.00179   0.00000   0.01359   0.01360   2.04616
    A7        2.04827  -0.00073   0.00000  -0.00119  -0.00117   2.04710
    A8        2.04013   0.00008   0.00000  -0.00090  -0.00092   2.03921
    A9        2.17507  -0.00214   0.00000  -0.00589  -0.00587   2.16920
   A10        2.06796   0.00206   0.00000   0.00684   0.00681   2.07477
   A11        2.08499   0.00054   0.00000  -0.00055  -0.00055   2.08445
   A12        2.13654   0.00125   0.00000   0.00222   0.00223   2.13876
   A13        2.05957  -0.00179   0.00000  -0.00119  -0.00122   2.05835
   A14        1.92751  -0.00032   0.00000   0.00521   0.00505   1.93256
   A15        1.89613   0.00057   0.00000   0.00643   0.00650   1.90262
   A16        1.90654   0.00128   0.00000   0.01438   0.01434   1.92088
   A17        1.92352  -0.00056   0.00000  -0.00976  -0.00976   1.91376
   A18        1.93692   0.00027   0.00000   0.00323   0.00312   1.94004
   A19        1.87194  -0.00124   0.00000  -0.01989  -0.01995   1.85199
   A20        1.92294   0.00208   0.00000   0.01422   0.01413   1.93706
   A21        1.89917  -0.00154   0.00000  -0.00567  -0.00581   1.89336
   A22        1.92305  -0.00010   0.00000  -0.00296  -0.00303   1.92002
   A23        1.91773   0.00094   0.00000   0.01187   0.01186   1.92959
   A24        1.92293  -0.00086   0.00000  -0.00080  -0.00077   1.92216
   A25        1.87734  -0.00060   0.00000  -0.01738  -0.01742   1.85993
   A26        1.94558   0.00020   0.00000   0.00338   0.00328   1.94886
   A27        1.89245  -0.00053   0.00000  -0.00270  -0.00264   1.88981
   A28        1.90848   0.00070   0.00000   0.00758   0.00750   1.91598
   A29        1.91383   0.00060   0.00000   0.00104   0.00104   1.91487
   A30        1.92737  -0.00006   0.00000   0.00716   0.00714   1.93451
   A31        1.87443  -0.00097   0.00000  -0.01742  -0.01740   1.85703
   A32        1.94750   0.00110   0.00000   0.00714   0.00706   1.95456
   A33        1.93375   0.00024   0.00000   0.00602   0.00599   1.93974
   A34        1.91587   0.00027   0.00000   0.00541   0.00547   1.92134
   A35        1.89234  -0.00054   0.00000   0.00117   0.00114   1.89348
   A36        1.89505  -0.00057   0.00000  -0.00728  -0.00732   1.88772
   A37        1.87752  -0.00058   0.00000  -0.01353  -0.01356   1.86396
   A38        1.92429   0.00033   0.00000   0.00840   0.00827   1.93256
   A39        1.90957   0.00014   0.00000   0.00159   0.00165   1.91122
   A40        1.87812   0.00035   0.00000   0.00726   0.00716   1.88527
   A41        1.92489  -0.00048   0.00000  -0.00556  -0.00555   1.91934
   A42        1.93289   0.00085   0.00000   0.00740   0.00732   1.94021
   A43        1.89316  -0.00119   0.00000  -0.01925  -0.01924   1.87392
   A44        2.04914  -0.00063   0.00000  -0.00096  -0.00094   2.04820
   A45        2.12461   0.00210   0.00000   0.00709   0.00707   2.13168
   A46        2.12606  -0.00392   0.00000  -0.02091  -0.02091   2.10515
   A47        2.03252   0.00182   0.00000   0.01382   0.01383   2.04635
    D1        3.14069  -0.00004   0.00000  -0.00139  -0.00139   3.13930
    D2       -0.00120  -0.00002   0.00000  -0.00059  -0.00059  -0.00179
    D3       -0.00102  -0.00001   0.00000  -0.00042  -0.00042  -0.00144
    D4        3.14027   0.00001   0.00000   0.00039   0.00038   3.14066
    D5       -3.14022   0.00005   0.00000   0.00183   0.00182  -3.13839
    D6        0.00140   0.00002   0.00000   0.00089   0.00089   0.00229
    D7        0.00150   0.00003   0.00000   0.00085   0.00085   0.00234
    D8       -3.14007  -0.00000   0.00000  -0.00009  -0.00008  -3.14016
    D9        0.00016  -0.00002   0.00000  -0.00036  -0.00035  -0.00019
   D10       -3.14115  -0.00004   0.00000  -0.00112  -0.00112   3.14091
   D11       -3.13437  -0.00026   0.00000  -0.00859  -0.00856   3.14026
   D12        0.00033   0.00003   0.00000   0.00081   0.00079   0.00112
   D13       -0.03060   0.00001   0.00000   0.00572   0.00574  -0.02486
   D14       -3.10147   0.00008   0.00000  -0.00251  -0.00250  -3.10397
   D15        3.11745  -0.00025   0.00000  -0.00302  -0.00304   3.11441
   D16        0.04658  -0.00018   0.00000  -0.01126  -0.01127   0.03531
   D17        0.00012  -0.00002   0.00000  -0.00040  -0.00039  -0.00027
   D18        3.13472   0.00027   0.00000   0.00911   0.00911  -3.13936
   D19       -3.04417   0.00039   0.00000   0.00263   0.00268  -3.04149
   D20       -0.93263  -0.00014   0.00000  -0.00209  -0.00208  -0.93472
   D21        1.10409  -0.00059   0.00000  -0.01430  -0.01433   1.08976
   D22        0.02981   0.00044   0.00000   0.01064   0.01067   0.04048
   D23        2.14134  -0.00008   0.00000   0.00592   0.00591   2.14726
   D24       -2.10512  -0.00053   0.00000  -0.00629  -0.00634  -2.11145
   D25        2.13060   0.00087   0.00000   0.01980   0.01983   2.15043
   D26       -2.03273   0.00056   0.00000   0.01929   0.01931  -2.01342
   D27        0.02085  -0.00058   0.00000   0.00132   0.00130   0.02215
   D28       -0.94125   0.00084   0.00000   0.01165   0.01169  -0.92956
   D29        1.17860   0.00054   0.00000   0.01114   0.01116   1.18977
   D30       -3.05101  -0.00060   0.00000  -0.00682  -0.00684  -3.05784
   D31        0.92673  -0.00124   0.00000  -0.02441  -0.02442   0.90232
   D32        3.03026   0.00022   0.00000  -0.00468  -0.00473   3.02553
   D33       -1.19861  -0.00148   0.00000  -0.03083  -0.03082  -1.22942
   D34       -1.16841  -0.00139   0.00000  -0.02947  -0.02943  -1.19784
   D35        0.93511   0.00007   0.00000  -0.00974  -0.00974   0.92538
   D36        2.98943  -0.00163   0.00000  -0.03589  -0.03582   2.95361
   D37        3.04373   0.00033   0.00000  -0.00057  -0.00058   3.04314
   D38       -1.13593   0.00180   0.00000   0.01916   0.01910  -1.11683
   D39        0.91839   0.00009   0.00000  -0.00699  -0.00698   0.91141
   D40       -0.95406  -0.00044   0.00000   0.01325   0.01336  -0.94071
   D41        1.15431   0.00008   0.00000   0.01488   0.01495   1.16926
   D42       -3.09017  -0.00098   0.00000  -0.00327  -0.00320  -3.09337
   D43       -3.04640  -0.00044   0.00000   0.00384   0.00382  -3.04258
   D44       -0.93803   0.00008   0.00000   0.00547   0.00542  -0.93261
   D45        1.10068  -0.00098   0.00000  -0.01268  -0.01274   1.08795
   D46        1.17135   0.00025   0.00000   0.01839   0.01844   1.18979
   D47       -3.00347   0.00077   0.00000   0.02002   0.02003  -2.98343
   D48       -0.96476  -0.00029   0.00000   0.00187   0.00188  -0.96287
   D49        0.05918  -0.00056   0.00000   0.00353   0.00358   0.06276
   D50       -2.05120  -0.00078   0.00000  -0.00695  -0.00695  -2.05815
   D51        2.16085  -0.00039   0.00000   0.00264   0.00266   2.16352
   D52       -2.03663  -0.00043   0.00000   0.00405   0.00409  -2.03254
   D53        2.13617  -0.00065   0.00000  -0.00643  -0.00644   2.12974
   D54        0.06504  -0.00025   0.00000   0.00316   0.00318   0.06822
   D55        2.18438   0.00043   0.00000   0.02045   0.02050   2.20488
   D56        0.07400   0.00020   0.00000   0.00997   0.00997   0.08397
   D57       -1.99713   0.00060   0.00000   0.01956   0.01958  -1.97755
   D58        0.86043  -0.00058   0.00000  -0.01865  -0.01867   0.84176
   D59       -1.25029  -0.00065   0.00000  -0.02250  -0.02249  -1.27278
   D60        2.93710   0.00061   0.00000   0.00039   0.00041   2.93751
   D61        2.99479   0.00007   0.00000  -0.00571  -0.00573   2.98906
   D62        0.88408  -0.00000   0.00000  -0.00956  -0.00955   0.87453
   D63       -1.21172   0.00125   0.00000   0.01333   0.01335  -1.19838
   D64       -1.25340  -0.00123   0.00000  -0.02507  -0.02505  -1.27846
   D65        2.91906  -0.00130   0.00000  -0.02891  -0.02887   2.89020
   D66        0.82326  -0.00004   0.00000  -0.00602  -0.00597   0.81729
   D67       -0.00106  -0.00001   0.00000  -0.00047  -0.00047  -0.00153
   D68        3.14051   0.00001   0.00000   0.00043   0.00043   3.14094
         Item               Value     Threshold  Converged?
 Maximum Force            0.025902     0.000450     NO 
 RMS     Force            0.004107     0.000300     NO 
 Maximum Displacement     0.130885     0.001800     NO 
 RMS     Displacement     0.032878     0.001200     NO 
[...]
 Alpha virt. eigenvalues --    0.20353   0.21523   0.22511   0.23055   0.23665
 Alpha virt. eigenvalues --    0.24134   0.24512   0.24856   0.26471   0.26563
 Alpha virt. eigenvalues --    0.26745   0.26985   0.28216   0.28791   0.30054
 Alpha virt. eigenvalues --    0.30275   0.31102   0.32378   0.32992   0.33744
 Alpha virt. eigenvalues --    0.34441   0.35507   0.36144   0.36620   0.37264
 Alpha virt. eigenvalues --    0.37922   0.38378   0.38963   0.40645   0.41580
 Alpha virt. eigenvalues --    0.42204   0.43313   0.43755   0.44020   0.44462
 Alpha virt. eigenvalues --    0.44606   0.44938   0.45378   0.46142   0.46627
 Alpha virt. eigenvalues --    0.47904   0.48500   0.48932   0.49800   0.50762
 Alpha virt. eigenvalues --    0.50864   0.51903   0.52522   0.53420   0.53779
 Alpha virt. eigenvalues --    0.54290   0.55010   0.55395   0.55939   0.59114
 Alpha virt. eigenvalues --    0.59501   0.60593   0.61127   0.62005   0.63309
 Alpha virt. eigenvalues --    0.64351   0.64783   0.66538   0.67680   0.68292
 Alpha virt. eigenvalues --    0.69258   0.69922   0.70910   0.71190   0.71479
 Alpha virt. eigenvalues --    0.72904   0.74272   0.75106   0.75849   0.78004
 Alpha virt. eigenvalues --    0.78446   0.79339   0.82114   0.82985   0.85435
 Alpha virt. eigenvalues --    0.85620   0.88609   0.90609   0.90969   0.92949
 Alpha virt. eigenvalues --    0.93404   0.95022   0.95818   0.96797   0.97982
 Alpha virt. eigenvalues --    0.98654   0.99015   1.01573   1.02096   1.02890
 Alpha virt. eigenvalues --    1.04111   1.06474   1.07740   1.08513   1.10404
 Alpha virt. eigenvalues --    1.11423   1.12272   1.13122   1.14768   1.17175
 Alpha virt. eigenvalues --    1.18320   1.19130   1.21074   1.22560   1.23478
 Alpha virt. eigenvalues --    1.24088   1.25029   1.25418   1.26428   1.28864
 Alpha virt. eigenvalues --    1.29247   1.30712   1.32889   1.35723   1.36291
 Alpha virt. eigenvalues --    1.38515   1.39536   1.39823   1.42411   1.43274
 Alpha virt. eigenvalues --    1.43873   1.45644   1.45941   1.48277   1.49139
 Alpha virt. eigenvalues --    1.50117   1.52610   1.54205   1.55581   1.56557
 Alpha virt. eigenvalues --    1.56874   1.57309   1.57719   1.58936   1.59644
 Alpha virt. eigenvalues --    1.59948   1.60686   1.61198   1.61781   1.62914
 Alpha virt. eigenvalues --    1.64773   1.65555   1.66018   1.66289   1.67796
 Alpha virt. eigenvalues --    1.68429   1.70103   1.70848   1.71432   1.71868
 Alpha virt. eigenvalues --    1.72711   1.73301   1.74337   1.76339   1.76756
 Alpha virt. eigenvalues --    1.76877   1.78107   1.79972   1.81008   1.81553
 Alpha virt. eigenvalues --    1.82450   1.82766   1.84532   1.85494   1.87171
 Alpha virt. eigenvalues --    1.88572   1.90622   1.91439   1.92600   1.94789
 Alpha virt. eigenvalues --    1.95748   1.96963   1.98611   1.99145   2.01021
 Alpha virt. eigenvalues --    2.01863   2.03843   2.04485   2.05178   2.05743
 Alpha virt. eigenvalues --    2.07454   2.09942   2.10629   2.14360   2.17267
 Alpha virt. eigenvalues --    2.18985   2.20634   2.23588   2.25279   2.26397
 Alpha virt. eigenvalues --    2.28097   2.29674   2.31742   2.31931   2.34702
 Alpha virt. eigenvalues --    2.37608   2.37823   2.40223   2.40446   2.41139
 Alpha virt. eigenvalues --    2.42053   2.44605   2.45865   2.46703   2.48085
 Alpha virt. eigenvalues --    2.48740   2.50783   2.52296   2.53617   2.54535
 Alpha virt. eigenvalues --    2.55196   2.56440   2.58601   2.59984   2.60191
 Alpha virt. eigenvalues --    2.61634   2.62660   2.63542   2.64775   2.66471
 Alpha virt. eigenvalues --    2.66687   2.69414   2.69851   2.70375   2.71185
 Alpha virt. eigenvalues --    2.71892   2.72764   2.73849   2.75971   2.77199
 Alpha virt. eigenvalues --    2.77846   2.79927   2.80436   2.82900   2.83507
 Alpha virt. eigenvalues --    2.84678   2.86888   2.87014   2.88848   2.89228
 Alpha virt. eigenvalues --    2.92577   2.94034   2.95614   2.97258   2.98203
 Alpha virt. eigenvalues --    2.99732   3.01300   3.01613   3.02502   3.04165
 Alpha virt. eigenvalues --    3.05159   3.07480   3.08221   3.09826   3.10332
 Alpha virt. eigenvalues --    3.11467   3.11945   3.13495   3.14902   3.16749
 Alpha virt. eigenvalues --    3.17958   3.18693   3.21037   3.21216   3.22609
 Alpha virt. eigenvalues --    3.24190   3.24350   3.26148   3.26779   3.28175
 Alpha virt. eigenvalues --    3.28592   3.28733   3.29860   3.31035   3.32046
 Alpha virt. eigenvalues --    3.33602   3.35549   3.36124   3.36623   3.38045
 Alpha virt. eigenvalues --    3.38822   3.39612   3.40547   3.41371   3.42116
 Alpha virt. eigenvalues --    3.42968   3.43622   3.45854   3.48025   3.50085
 Alpha virt. eigenvalues --    3.50799   3.52115   3.54658   3.55019   3.56361
 Alpha virt. eigenvalues --    3.57932   3.60334   3.61765   3.63163   3.65361
 Alpha virt. eigenvalues --    3.65853   3.68603   3.71486   3.72807   3.75064
 Alpha virt. eigenvalues --    3.77996   3.81637   3.82722   3.84493   3.84678
 Alpha virt. eigenvalues --    3.85855   3.87669   3.88536   3.89706   3.92755
 Alpha virt. eigenvalues --    3.94660   3.96603   3.98121   4.00564   4.01624
 Alpha virt. eigenvalues --    4.03793   4.05127   4.05876   4.08721   4.11099
 Alpha virt. eigenvalues --    4.11976   4.12526   4.13338   4.13783   4.14267
 Alpha virt. eigenvalues --    4.15265   4.20590   4.21297   4.22571   4.24003
 Alpha virt. eigenvalues --    4.28331   4.31610   4.32526   4.34316   4.36827
 Alpha virt. eigenvalues --    4.39462   4.39499   4.42303   4.43916   4.45796
 Alpha virt. eigenvalues --    4.48333   4.51782   4.52421   4.56039   4.58556
 Alpha virt. eigenvalues --    4.61871   4.65173   4.67595   4.69304   4.71442
 Alpha virt. eigenvalues --    4.72534   4.74828   4.75678   4.80409   4.82199
 Alpha virt. eigenvalues --    4.85073   4.89518   4.90919   4.95854   4.98815
 Alpha virt. eigenvalues --    4.99420   5.01662   5.06193   5.08672   5.10784
 Alpha virt. eigenvalues --    5.13242   5.14942   5.19780   5.22117   5.24808
 Alpha virt. eigenvalues --    5.26782   5.31331   5.35427   5.35896   5.38115
 Alpha virt. eigenvalues --    5.42681   5.44446   5.47348   5.47994   5.60045
 Alpha virt. eigenvalues --    5.68886   5.70045   5.70791   5.75686   5.88452
 Alpha virt. eigenvalues --    5.97537   6.01162   6.46334   7.85198  22.49949
 Alpha virt. eigenvalues --   22.57966  22.61705  22.64191  22.66850  22.74260
 Alpha virt. eigenvalues --   22.80924  23.00271  23.40683  32.51512  32.69474
 Alpha virt. eigenvalues --   33.19929
          Condensed to atoms (all electrons):
               1          2          3          4          5          6
     1  Br  34.908481   0.321722  -0.067907   0.007324   0.000599  -0.000004
     2  C    0.321722   5.073141   0.453449  -0.049282  -0.053554   0.000382
     3  C   -0.067907   0.453449   4.847562   0.534148  -0.088514   0.004980
     4  N    0.007324  -0.049282   0.534148   6.653177   0.431236  -0.116500
     5  C    0.000599  -0.053554  -0.088514   0.431236   4.662849   0.455030
     6  N   -0.000004   0.000382   0.004980  -0.116500   0.455030   6.670158
     7  C   -0.000013  -0.000161  -0.001823  -0.030378  -0.074786   0.256180
     8  C   -0.000001   0.000036   0.000290   0.004813   0.008688  -0.062859
     9  C    0.000000  -0.000001   0.000051  -0.000054  -0.004991   0.008566
    10  C   -0.000000   0.000020   0.000012  -0.000300   0.002908  -0.043121
    11  C    0.000001  -0.000236  -0.001126   0.002299  -0.067346   0.209106
    12  N    0.007675  -0.045474  -0.031171  -0.060041   0.421455  -0.109814
    13  C   -0.069745   0.458453  -0.027277  -0.026132  -0.092945   0.002845
    14  H   -0.000540  -0.076925   0.441357  -0.032508   0.008543   0.000075
    15  H   -0.000001   0.000161  -0.000096   0.011248  -0.022489  -0.051017
    16  H    0.000000  -0.000168   0.000558   0.007376   0.002209  -0.045161
    17  H   -0.000000   0.000001   0.000004   0.000037   0.000005   0.006467
    18  H    0.000000   0.000000  -0.000016  -0.000184  -0.001308  -0.002536
    19  H   -0.000000  -0.000001  -0.000008  -0.000044  -0.000226  -0.000276
    20  H   -0.000000   0.000000   0.000001   0.000003   0.000169  -0.000246
    21  H   -0.000000  -0.000000   0.000000   0.000018   0.000264   0.007622
    22  H   -0.000000  -0.000007   0.000004   0.000004   0.000441   0.001195
    23  H    0.000000  -0.000048   0.000077   0.000280   0.006908  -0.050165
    24  H   -0.000010   0.000632  -0.000217   0.000497  -0.028101  -0.021670
    25  H   -0.000512  -0.073024   0.004078  -0.001993   0.009100   0.000042
               7          8          9         10         11         12
     1  Br  -0.000013  -0.000001   0.000000  -0.000000   0.000001   0.007675
     2  C   -0.000161   0.000036  -0.000001   0.000020  -0.000236  -0.045474
     3  C   -0.001823   0.000290   0.000051   0.000012  -0.001126  -0.031171
     4  N   -0.030378   0.004813  -0.000054  -0.000300   0.002299  -0.060041
     5  C   -0.074786   0.008688  -0.004991   0.002908  -0.067346   0.421455
     6  N    0.256180  -0.062859   0.008566  -0.043121   0.209106  -0.109814
     7  C    5.125978   0.241516  -0.037338  -0.007060  -0.036543   0.004709
     8  C    0.241516   5.211197   0.220162  -0.046112   0.000924  -0.000305
     9  C   -0.037338   0.220162   5.215467   0.247290  -0.035006  -0.000143
    10  C   -0.007060  -0.046112   0.247290   5.197772   0.222189   0.003031
    11  C   -0.036543   0.000924  -0.035006   0.222189   5.239134  -0.033685
    12  N    0.004709  -0.000305  -0.000143   0.003031  -0.033685   6.655532
    13  C   -0.000830  -0.000022  -0.000124   0.000360  -0.001679   0.535952
    14  H    0.000087  -0.000024  -0.000001   0.000002   0.000021  -0.002107
    15  H    0.436152  -0.025599  -0.008784   0.000676   0.009414   0.000424
    16  H    0.424896  -0.050613   0.010818  -0.002088  -0.002651   0.000199
    17  H   -0.044767   0.433676  -0.036884   0.008510  -0.002590   0.000019
    18  H   -0.049304   0.441394  -0.051474  -0.002155   0.002477  -0.000015
    19  H   -0.000852  -0.045450   0.428977  -0.049388   0.003201  -0.000020
    20  H    0.006590  -0.041609   0.433409  -0.044190   0.008750  -0.000005
    21  H    0.000390   0.000087  -0.041563   0.426569  -0.050923  -0.000000
    22  H   -0.000199   0.008127  -0.053461   0.430068  -0.035923   0.001009
    23  H   -0.005411  -0.007837  -0.001614  -0.071273   0.439298   0.002299
    24  H    0.005017  -0.001083   0.006788  -0.034530   0.425560   0.023003
    25  H    0.000024   0.000002   0.000003  -0.000022   0.000308  -0.031887
              13         14         15         16         17         18
     1  Br  -0.069745  -0.000540  -0.000001   0.000000  -0.000000   0.000000
     2  C    0.458453  -0.076925   0.000161  -0.000168   0.000001   0.000000
     3  C   -0.027277   0.441357  -0.000096   0.000558   0.000004  -0.000016
     4  N   -0.026132  -0.032508   0.011248   0.007376   0.000037  -0.000184
     5  C   -0.092945   0.008543  -0.022489   0.002209   0.000005  -0.001308
     6  N    0.002845   0.000075  -0.051017  -0.045161   0.006467  -0.002536
     7  C   -0.000830   0.000087   0.436152   0.424896  -0.044767  -0.049304
     8  C   -0.000022  -0.000024  -0.025599  -0.050613   0.433676   0.441394
     9  C   -0.000124  -0.000001  -0.008784   0.010818  -0.036884  -0.051474
    10  C    0.000360   0.000002   0.000676  -0.002088   0.008510  -0.002155
    11  C   -0.001679   0.000021   0.009414  -0.002651  -0.002590   0.002477
    12  N    0.535952  -0.002107   0.000424   0.000199   0.000019  -0.000015
    13  C    4.843147   0.004699  -0.000236   0.000167  -0.000002  -0.000002
    14  H    0.004699   0.479563  -0.000174  -0.000003  -0.000000   0.000000
    15  H   -0.000236  -0.000174   0.518512  -0.037539  -0.006617   0.006059
    16  H    0.000167  -0.000003  -0.037539   0.541554   0.000054  -0.007746
    17  H   -0.000002  -0.000000  -0.006617   0.000054   0.512527  -0.019396
    18  H   -0.000002   0.000000   0.006059  -0.007746  -0.019396   0.523710
    19  H    0.000003   0.000001   0.002097  -0.000012  -0.002961   0.006459
    20  H   -0.000000  -0.000000  -0.000259  -0.000198  -0.004920  -0.002835
    21  H    0.000008   0.000000  -0.000118   0.000215  -0.000287   0.001543
    22  H    0.000113   0.000000  -0.000202   0.000148  -0.000240  -0.000241
    23  H    0.000232   0.000000  -0.001500   0.005277   0.000348  -0.004948
    24  H    0.001035   0.000010  -0.000172  -0.000402   0.000061   0.000104
    25  H    0.437936  -0.000126   0.000003   0.000001   0.000000  -0.000000
              19         20         21         22         23         24
     1  Br  -0.000000  -0.000000  -0.000000  -0.000000   0.000000  -0.000010
     2  C   -0.000001   0.000000  -0.000000  -0.000007  -0.000048   0.000632
     3  C   -0.000008   0.000001   0.000000   0.000004   0.000077  -0.000217
     4  N   -0.000044   0.000003   0.000018   0.000004   0.000280   0.000497
     5  C   -0.000226   0.000169   0.000264   0.000441   0.006908  -0.028101
     6  N   -0.000276  -0.000246   0.007622   0.001195  -0.050165  -0.021670
     7  C   -0.000852   0.006590   0.000390  -0.000199  -0.005411   0.005017
     8  C   -0.045450  -0.041609   0.000087   0.008127  -0.007837  -0.001083
     9  C    0.428977   0.433409  -0.041563  -0.053461  -0.001614   0.006788
    10  C   -0.049388  -0.044190   0.426569   0.430068  -0.071273  -0.034530
    11  C    0.003201   0.008750  -0.050923  -0.035923   0.439298   0.425560
    12  N   -0.000020  -0.000005  -0.000000   0.001009   0.002299   0.023003
    13  C    0.000003  -0.000000   0.000008   0.000113   0.000232   0.001035
    14  H    0.000001  -0.000000   0.000000   0.000000   0.000000   0.000010
    15  H    0.002097  -0.000259  -0.000118  -0.000202  -0.001500  -0.000172
    16  H   -0.000012  -0.000198   0.000215   0.000148   0.005277  -0.000402
    17  H   -0.002961  -0.004920  -0.000287  -0.000240   0.000348   0.000061
    18  H    0.006459  -0.002835   0.001543  -0.000241  -0.004948   0.000104
    19  H    0.527492  -0.019824   0.005164  -0.007702  -0.000001  -0.000297
    20  H   -0.019824   0.521166  -0.008566   0.000936  -0.000305  -0.000126
    21  H    0.005164  -0.008566   0.538360  -0.019230  -0.000211  -0.000292
    22  H   -0.007702   0.000936  -0.019230   0.526266   0.005512  -0.005708
    23  H   -0.000001  -0.000305  -0.000211   0.005512   0.524435  -0.014820
    24  H   -0.000297  -0.000126  -0.000292  -0.005708  -0.014820   0.454277
    25  H   -0.000000   0.000000  -0.000000  -0.000005  -0.000006  -0.000441
              25
     1  Br  -0.000512
     2  C   -0.073024
     3  C    0.004078
     4  N   -0.001993
     5  C    0.009100
     6  N    0.000042
     7  C    0.000024
     8  C    0.000002
     9  C    0.000003
    10  C   -0.000022
    11  C    0.000308
    12  N   -0.031887
    13  C    0.437936
    14  H   -0.000126
    15  H    0.000003
    16  H    0.000001
    17  H    0.000000
    18  H   -0.000000
    19  H   -0.000000
    20  H    0.000000
    21  H   -0.000000
    22  H   -0.000005
    23  H   -0.000006
    24  H   -0.000441
    25  H    0.477864
 Mulliken charges:
               1
     1  Br  -0.107068
     2  C   -0.009119
     3  C   -0.068413
     4  N   -0.335045
     5  C    0.423856
     6  N   -0.119282
     7  C   -0.212076
     8  C   -0.289400
     9  C   -0.300092
    10  C   -0.239169
    11  C   -0.294974
    12  N   -0.340638
    13  C   -0.065954
    14  H    0.178048
    15  H    0.170057
    16  H    0.153109
    17  H    0.156957
    18  H    0.160414
    19  H    0.153669
    20  H    0.152058
    21  H    0.140952
    22  H    0.149095
    23  H    0.173472
    24  H    0.190887
    25  H    0.178656
 Sum of Mulliken charges =  -0.00000
 Mulliken charges with hydrogens summed into heavy atoms:
               1
     1  Br  -0.107068
     2  C   -0.009119
     3  C    0.109635
     4  N   -0.335045
     5  C    0.423856
     6  N   -0.119282
     7  C    0.111090
     8  C    0.027971
     9  C    0.005636
    10  C    0.050878
    11  C    0.069385
    12  N   -0.340638
    13  C    0.112702
 Electronic spatial extent (au):  <R**2>=           4860.6484
 Charge=             -0.0000 electrons
 Dipole moment (field-independent basis, Debye):
    X=              2.9881    Y=              0.0036    Z=             -0.0562  Tot=              2.9886
 Quadrupole moment (field-independent basis, Debye-Ang):
   XX=            -81.9095   YY=            -88.8768   ZZ=            -91.0899
   XY=             -0.3512   XZ=             -0.7360   YZ=             -0.4442
 Traceless Quadrupole moment (field-independent basis, Debye-Ang):
   XX=              5.3825   YY=             -1.5847   ZZ=             -3.7978
   XY=             -0.3512   XZ=             -0.7360   YZ=             -0.4442
 Octapole moment (field-independent basis, Debye-Ang**2):
  XXX=            -55.4938  YYY=              0.0273  ZZZ=              3.4909  XYY=            -41.0554
  XXY=             -1.0897  XXZ=             -1.9764  XZZ=            -32.6947  YZZ=             -0.4256
  YYZ=              2.2638  XYZ=             -0.1888
 Hexadecapole moment (field-independent basis, Debye-Ang**3):
 XXXX=          -4763.2630 YYYY=           -605.1342 ZZZZ=           -220.1307 XXXY=             -2.6113
 XXXZ=            -35.8086 YYYX=             -6.7913 YYYZ=             -4.3472 ZZZX=            -23.6459
 ZZZY=              1.2578 XXYY=           -892.8714 XXZZ=           -868.8943 YYZZ=           -141.3840
 XXYZ=             -9.2205 YYXZ=             -6.5697 ZZXY=             -0.8440
 N-N= 1.043955653427D+03 E-N=-9.435813942130D+03  KE= 3.082469703010D+03
 Calculating spin-rotation constants.
 Leave Link  601 at Tue Sep 17 11:33:59 2024, MaxMem=  1342177280 cpu:               7.0 elap:               7.1
 (Enter /groups/ReismanLab/Software/Gaussian16_RevC/Linux_Binary_AVX2-enabled-CPU/g16/l9999.exe)
 Unable to Open any file for archive entry.
 1\1\GINC-HPC-35-23\SP\RM062X\def2TZVP\C9H12Br1N3\MANTIND\17-Sep-2024\0
 \\#p M062X/def2tzvp geom=check guess=read scf(xqc,tight) integral(grid
 =ultrafine) scrf(SMD, solvent=1,4-Dioxane) nmr=giao\\spe\\0,1\Br,0,3.5
 435533625,0.0195631441,-0.5668534466\C,0,1.6775460043,-0.0041370631,-0
 .201767497\C,0,0.9578632455,-1.1957378656,-0.1590908176\N,0,-0.3454836
 227,-1.2272973286,0.1008609197\C,0,-0.9526266413,-0.0339471449,0.31631
 94835\N,0,-2.2881997412,-0.0652158674,0.562804571\C,0,-3.0003973557,-1
 .3480779051,0.5860796481\C,0,-4.5150280143,-1.1157375634,0.5428998474\
 C,0,-4.8547447751,-0.0404356016,-0.4945319724\C,0,-4.219190355,1.31809
 30228,-0.1088910417\C,0,-3.0557254577,1.1350663529,0.880523731\N,0,-0.
 3330726487,1.1723328432,0.3003862571\C,0,0.9688789186,1.1719749486,0.0
 430318167\H,0,1.4512138427,-2.1489415938,-0.3358935685\H,0,-2.68485513
 65,-1.9285389802,-0.2855296703\H,0,-2.7100984047,-1.930795977,1.470617
 7319\H,0,-5.0035107974,-2.0648727958,0.3011975419\H,0,-4.8885433147,-0
 .8166558236,1.5295622894\H,0,-4.467193052,-0.3660520124,-1.4671293135\
 H,0,-5.938533959,0.0588754565,-0.6085063992\H,0,-4.9625176214,1.976405
 8951,0.354634978\H,0,-3.858296973,1.8290376273,-1.0069315206\H,0,-3.44
 14456156,1.0453947981,1.904938401\H,0,-2.3750723377,1.9830843323,0.859
 34246\H,0,1.4724817715,2.1360546912,0.0290435814\\Version=ES64L-G16Rev
 C.02\State=1-A\HF=-3088.6196189\RMSD=1.064e-09\Dipole=-1.1669446,-0.00
 50134,0.1440495\Quadrupole=3.8114625,-1.17116,-2.6403024,0.3179171,-1.
 2436131,0.2855473\PG=C01 [X(C9H12Br1N3)]\\@
 The archive entry for this job was punched.


 "TIGER, TIGER BURNING BRIGHT
 IN THE FOREST OF THE NIGHT.
 WHAT IMMORTAL HAND OR EYE
 CAN FRAME THY FEARFUL SYMMETRYE?"
                     - WILLIAM BLAKE
 Job cpu time:       0 days  0 hours 23 minutes 55.7 seconds.
 Elapsed time:       0 days  0 hours 24 minutes  1.1 seconds.
 File lengths (MBytes):  RWF=    320 Int=      0 D2E=      0 Chk=     32 Scr=     16
 Normal termination of Gaussian 16 at Tue Sep 17 11:33:59 2024.
