 Entering Gaussian System, Link 0=g16
 Input=smiles_00011_conf_0.gjf
 Output=smiles_00011_conf_0.log
 Initial command:
 /groups/ReismanLab/Software/Gaussian16_RevC/Linux_Binary_AVX2-enabled-CPU/g16/l1.exe "/central/groups/ReismanLab/DM/dft_final/smiles_00011/Gau-823888.inp" -scrdir="/central/groups/ReismanLab/DM/dft_final/smiles_00011/"
 Entering Link 1 = /groups/ReismanLab/Software/Gaussian16_RevC/Linux_Binary_AVX2-enabled-CPU/g16/l1.exe PID=    823890.
  
 Copyright (c) 1988-2021, Gaussian, Inc.  All Rights Reserved.
  
 This is part of the Gaussian(R) 16 program.  It is based on
 the Gaussian(R) 09 system (copyright 2009, Gaussian, Inc.),
 the Gaussian(R) 03 system (copyright 2003, Gaussian, Inc.),
 the Gaussian(R) 98 system (copyright 1998, Gaussian, Inc.),
 the Gaussian(R) 94 system (copyright 1995, Gaussian, Inc.),
 the Gaussian 92(TM) system (copyright 1992, Gaussian, Inc.),
 the Gaussian 90(TM) system (copyright 1990, Gaussian, Inc.),
 the Gaussian 88(TM) system (copyright 1988, Gaussian, Inc.),
 the Gaussian 86(TM) system (copyright 1986, Carnegie Mellon
 University), and the Gaussian 82(TM) system (copyright 1983,
 Carnegie Mellon University). Gaussian is a federally registered
 trademark of Gaussian, Inc.
  
 This software contains proprietary and confidential information,
 including trade secrets, belonging to Gaussian, Inc.
  
 This software is provided under written license and may be
 used, copied, transmitted, or stored only in accord with that
 written license.
  
 The following legend is applicable only to US Government
 contracts under FAR:
  
                    RESTRICTED RIGHTS LEGEND
  
 Use, reproduction and disclosure by the US Government is
 subject to restrictions as set forth in subparagraphs (a)
 and (c) of the Commercial Computer Software - Restricted
 Rights clause in FAR 52.227-19.
  
 Gaussian, Inc.
 340 Quinnipiac St., Bldg. 40, Wallingford CT 06492
  
  
 ---------------------------------------------------------------
 Warning -- This program may not be used in any manner that
 competes with the business of Gaussian, Inc. or will provide
 assistance to any competitor of Gaussian, Inc.  The licensee
 of this program is prohibited from giving any competitor of
 Gaussian, Inc. access to this program.  By using this program,
 the user acknowledges that Gaussian, Inc. is engaged in the
 business of creating and licensing software in the field of
 computational chemistry and represents and warrants to the
 licensee that it is not a competitor of Gaussian, Inc. and that
 it will not use this program in any manner prohibited above.
 ---------------------------------------------------------------
  

 Cite this work as:
 Gaussian 16, Revision C.02,
 M. J. Frisch, G. W. Trucks, H. B. Schlegel, G. E. Scuseria, 
 M. A. Robb, J. R. Cheeseman, G. Scalmani, V. Barone, 
 G. A. Petersson, H. Nakatsuji, X. Li, M. Caricato, A. V. Marenich, 
 J. Bloino, B. G. Janesko, R. Gomperts, B. Mennucci, H. P. Hratchian, 
 J. V. Ortiz, A. F. Izmaylov, J. L. Sonnenberg, D. Williams-Young, 
 F. Ding, F. Lipparini, F. Egidi, J. Goings, B. Peng, A. Petrone, 
 T. Henderson, D. Ranasinghe, V. G. Zakrzewski, J. Gao, N. Rega, 
 G. Zheng, W. Liang, M. Hada, M. Ehara, K. Toyota, R. Fukuda, 
 J. Hasegawa, M. Ishida, T. Nakajima, Y. Honda, O. Kitao, H. Nakai, 
 T. Vreven, K. Throssell, J. A. Montgomery, Jr., J. E. Peralta, 
 F. Ogliaro, M. J. Bearpark, J. J. Heyd, E. N. Brothers, K. N. Kudin, 
 V. N. Staroverov, T. A. Keith, R. Kobayashi, J. Normand, 
 K. Raghavachari, A. P. Rendell, J. C. Burant, S. S. Iyengar, 
 J. Tomasi, M. Cossi, J. M. Millam, M. Klene, C. Adamo, R. Cammi, 
 J. W. Ochterski, R. L. Martin, K. Morokuma, O. Farkas, 
 J. B. Foresman, and D. J. Fox, Gaussian, Inc., Wallingford CT, 2019.
 
 ******************************************
 Gaussian 16:  ES64L-G16RevC.02  7-Dec-2021
                17-Sep-2024 
 ******************************************
 %nprocshared=8
 Will use up to    8 processors via shared memory.
 %Mem=10GB
 %Chk=smiles_00011_conf_0.chk
 ----------------------------------------------------------------------
 #p B3LYP/6-31G(d,p) EmpiricalDispersion=GD3BJ opt freq scf(xqc,tight) 
 integral(grid=ultrafine)
 ----------------------------------------------------------------------
 1/18=20,19=15,26=4,38=1/1,3;
 2/9=110,12=2,17=6,18=5,40=1/2;
 3/5=1,6=6,7=101,11=2,25=1,30=1,71=1,74=-5,75=-5,124=41/1,2,3;
 4//1;
 5/5=2,8=3,13=1,32=2,38=5/2,8;
 6/7=2,8=2,9=2,10=2,28=1/1;
 7//1,2,3,16;
 1/18=20,19=15,26=4/3(2);
 2/9=110/2;
 99//99;
 2/9=110/2;
 3/5=1,6=6,7=101,11=2,25=1,30=1,71=1,74=-5,75=-5,124=41/1,2,3;
 4/5=5,16=3,69=1/1;
 5/5=2,8=3,13=1,32=2,38=5/2,8;
 7//1,2,3,16;
 1/18=20,19=15,26=4/3(-5);
 2/9=110/2;
 6/7=2,8=2,9=2,10=2,19=2,28=1/1;
 99/9=1/99;
 Leave Link    1 at Tue Sep 17 09:54:58 2024, MaxMem=  1342177280 cpu:               0.1 elap:               9.5
 (Enter /groups/ReismanLab/Software/Gaussian16_RevC/Linux_Binary_AVX2-enabled-CPU/g16/l101.exe)
 ----------------------------------
 opt-freq conformers_unique/conf_aa
 ----------------------------------
 Symbolic Z-matrix:
 Charge =  0 Multiplicity = 1
 Br                    3.52047   0.00015   0.17272 
 C                     1.63565  -0.00004  -0.05891 
 C                     0.91528  -1.18475  -0.14579 
 N                    -0.38734  -1.19068  -0.30405 
 C                    -1.01179  -0.00024  -0.38273 
 N                    -2.33428  -0.00041  -0.57929 
 C                    -3.11231  -1.21682  -0.5738 
 C                    -4.023    -1.24914   0.6546 
 C                    -4.89996   0.00038   0.68571 
 C                    -4.02327   1.25005   0.65272 
 C                    -3.11239   1.21593  -0.5755 
 N                    -0.38765   1.19029  -0.3032 
 C                     0.91492   1.18452  -0.1444 
 H                     1.39727  -2.15193  -0.08425 
 H                    -3.72132  -1.24123  -1.48503 
 H                    -2.42484  -2.0619   -0.57659 
 H                    -4.63924  -2.14847   0.62684 
 H                    -3.40535  -1.28578   1.55392 
 H                    -5.56454  -0.00036  -0.18163 
 H                    -5.52024   0.00101   1.58351 
 H                    -3.40576   1.2883    1.55206 
 H                    -4.63971   2.14919   0.62338 
 H                    -2.425     2.06107  -0.57942 
 H                    -3.72129   1.23897  -1.48686 
 H                     1.39684   2.15175  -0.08313 
 
 ITRead=  0  0  0  0  0  0  0  0  0  0  0  0  0  0  0  0  0  0  0  0
 ITRead=  0  0  0  0  0
 MicOpt= -1 -1 -1 -1 -1 -1 -1 -1 -1 -1 -1 -1 -1 -1 -1 -1 -1 -1 -1 -1
 MicOpt= -1 -1 -1 -1 -1
 NAtoms=     25 NQM=       25 NQMF=       0 NMMI=      0 NMMIF=      0
                NMic=       0 NMicF=      0.
                    Isotopes and Nuclear Properties:
 (Nuclear quadrupole moments (NQMom) in fm**2, nuclear magnetic moments (NMagM)
  in nuclear magnetons)

  Atom         1           2           3           4           5           6           7           8           9          10
 IAtWgt=          79          12          12          14          12          14          12          12          12          12
 AtmWgt=  78.9183361  12.0000000  12.0000000  14.0030740  12.0000000  14.0030740  12.0000000  12.0000000  12.0000000  12.0000000
 NucSpn=           3           0           0           2           0           2           0           0           0           0
 AtZEff=  -0.0000000  -0.0000000  -0.0000000  -0.0000000  -0.0000000  -0.0000000  -0.0000000  -0.0000000  -0.0000000  -0.0000000
 NQMom=   31.3000000   0.0000000   0.0000000   2.0440000   0.0000000   2.0440000   0.0000000   0.0000000   0.0000000   0.0000000
 NMagM=    2.1063990   0.0000000   0.0000000   0.4037610   0.0000000   0.4037610   0.0000000   0.0000000   0.0000000   0.0000000
 AtZNuc=  35.0000000   6.0000000   6.0000000   7.0000000   6.0000000   7.0000000   6.0000000   6.0000000   6.0000000   6.0000000

  Atom        11          12          13          14          15          16          17          18          19          20
 IAtWgt=          12          14          12           1           1           1           1           1           1           1
 AtmWgt=  12.0000000  14.0030740  12.0000000   1.0078250   1.0078250   1.0078250   1.0078250   1.0078250   1.0078250   1.0078250
 NucSpn=           0           2           0           1           1           1           1           1           1           1
 AtZEff=  -0.0000000  -0.0000000  -0.0000000  -0.0000000  -0.0000000  -0.0000000  -0.0000000  -0.0000000  -0.0000000  -0.0000000
 NQMom=    0.0000000   2.0440000   0.0000000   0.0000000   0.0000000   0.0000000   0.0000000   0.0000000   0.0000000   0.0000000
 NMagM=    0.0000000   0.4037610   0.0000000   2.7928460   2.7928460   2.7928460   2.7928460   2.7928460   2.7928460   2.7928460
 AtZNuc=   6.0000000   7.0000000   6.0000000   1.0000000   1.0000000   1.0000000   1.0000000   1.0000000   1.0000000   1.0000000

  Atom        21          22          23          24          25
 IAtWgt=           1           1           1           1           1
 AtmWgt=   1.0078250   1.0078250   1.0078250   1.0078250   1.0078250
 NucSpn=           1           1           1           1           1
 AtZEff=  -0.0000000  -0.0000000  -0.0000000  -0.0000000  -0.0000000
 NQMom=    0.0000000   0.0000000   0.0000000   0.0000000   0.0000000
 NMagM=    2.7928460   2.7928460   2.7928460   2.7928460   2.7928460
 AtZNuc=   1.0000000   1.0000000   1.0000000   1.0000000   1.0000000
 Leave Link  101 at Tue Sep 17 09:54:58 2024, MaxMem=  1342177280 cpu:               0.2 elap:               0.2
 (Enter /groups/ReismanLab/Software/Gaussian16_RevC/Linux_Binary_AVX2-enabled-CPU/g16/l103.exe)

 GradGradGradGradGradGradGradGradGradGradGradGradGradGradGradGradGradGrad
 Berny optimization.
 Initialization pass.
                           ----------------------------
                           !    Initial Parameters    !
                           ! (Angstroms and Degrees)  !
 --------------------------                            --------------------------
 ! Name  Definition              Value          Derivative Info.                !
 --------------------------------------------------------------------------------
 ! R1    R(1,2)                  1.899          estimate D2E/DX2                !
 ! R2    R(2,3)                  1.3893         estimate D2E/DX2                !
 ! R3    R(2,13)                 1.3892         estimate D2E/DX2                !
 ! R4    R(3,4)                  1.3122         estimate D2E/DX2                !
 ! R5    R(3,14)                 1.0824         estimate D2E/DX2                !
 ! R6    R(4,5)                  1.3466         estimate D2E/DX2                !
 ! R7    R(5,6)                  1.337          estimate D2E/DX2                !
 ! R8    R(5,12)                 1.3466         estimate D2E/DX2                !
 ! R9    R(6,7)                  1.444          estimate D2E/DX2                !
 ! R10   R(6,11)                 1.4439         estimate D2E/DX2                !
 ! R11   R(7,8)                  1.5295         estimate D2E/DX2                !
 ! R12   R(7,15)                 1.0963         estimate D2E/DX2                !
 ! R13   R(7,16)                 1.0894         estimate D2E/DX2                !
 ! R14   R(8,9)                  1.5269         estimate D2E/DX2                !
 ! R15   R(8,17)                 1.0906         estimate D2E/DX2                !
 ! R16   R(8,18)                 1.0916         estimate D2E/DX2                !
 ! R17   R(9,10)                 1.5269         estimate D2E/DX2                !
 ! R18   R(9,19)                 1.0927         estimate D2E/DX2                !
 ! R19   R(9,20)                 1.0912         estimate D2E/DX2                !
 ! R20   R(10,11)                1.5295         estimate D2E/DX2                !
 ! R21   R(10,21)                1.0916         estimate D2E/DX2                !
 ! R22   R(10,22)                1.0906         estimate D2E/DX2                !
 ! R23   R(11,23)                1.0894         estimate D2E/DX2                !
 ! R24   R(11,24)                1.0963         estimate D2E/DX2                !
 ! R25   R(12,13)                1.3122         estimate D2E/DX2                !
 ! R26   R(13,25)                1.0824         estimate D2E/DX2                !
 ! A1    A(1,2,3)              121.4918         estimate D2E/DX2                !
 ! A2    A(1,2,13)             121.49           estimate D2E/DX2                !
 ! A3    A(3,2,13)             117.0179         estimate D2E/DX2                !
 ! A4    A(2,3,4)              121.745          estimate D2E/DX2                !
 ! A5    A(2,3,14)             121.8395         estimate D2E/DX2                !
 ! A6    A(4,3,14)             116.4154         estimate D2E/DX2                !
 ! A7    A(3,4,5)              117.606          estimate D2E/DX2                !
 ! A8    A(4,5,6)              117.8503         estimate D2E/DX2                !
 ! A9    A(4,5,12)             124.279          estimate D2E/DX2                !
 ! A10   A(6,5,12)             117.8567         estimate D2E/DX2                !
 ! A11   A(5,6,7)              122.1751         estimate D2E/DX2                !
 ! A12   A(5,6,11)             122.1765         estimate D2E/DX2                !
 ! A13   A(7,6,11)             114.7883         estimate D2E/DX2                !
 ! A14   A(6,7,8)              109.9794         estimate D2E/DX2                !
 ! A15   A(6,7,15)             108.3557         estimate D2E/DX2                !
 ! A16   A(6,7,16)             108.2679         estimate D2E/DX2                !
 ! A17   A(8,7,15)             109.6535         estimate D2E/DX2                !
 ! A18   A(8,7,16)             111.1866         estimate D2E/DX2                !
 ! A19   A(15,7,16)            109.3393         estimate D2E/DX2                !
 ! A20   A(7,8,9)              109.9407         estimate D2E/DX2                !
 ! A21   A(7,8,17)             109.4779         estimate D2E/DX2                !
 ! A22   A(7,8,18)             108.9942         estimate D2E/DX2                !
 ! A23   A(9,8,17)             110.5379         estimate D2E/DX2                !
 ! A24   A(9,8,18)             109.6126         estimate D2E/DX2                !
 ! A25   A(17,8,18)            108.2411         estimate D2E/DX2                !
 ! A26   A(8,9,10)             109.8502         estimate D2E/DX2                !
 ! A27   A(8,9,19)             109.4266         estimate D2E/DX2                !
 ! A28   A(8,9,20)             110.1026         estimate D2E/DX2                !
 ! A29   A(10,9,19)            109.4282         estimate D2E/DX2                !
 ! A30   A(10,9,20)            110.1012         estimate D2E/DX2                !
 ! A31   A(19,9,20)            107.8997         estimate D2E/DX2                !
 ! A32   A(9,10,11)            109.94           estimate D2E/DX2                !
 ! A33   A(9,10,21)            109.6141         estimate D2E/DX2                !
 ! A34   A(9,10,22)            110.5373         estimate D2E/DX2                !
 ! A35   A(11,10,21)           108.9947         estimate D2E/DX2                !
 ! A36   A(11,10,22)           109.4767         estimate D2E/DX2                !
 ! A37   A(21,10,22)           108.2416         estimate D2E/DX2                !
 ! A38   A(6,11,10)            109.9882         estimate D2E/DX2                !
 ! A39   A(6,11,23)            108.2686         estimate D2E/DX2                !
 ! A40   A(6,11,24)            108.35           estimate D2E/DX2                !
 ! A41   A(10,11,23)           111.1836         estimate D2E/DX2                !
 ! A42   A(10,11,24)           109.6526         estimate D2E/DX2                !
 ! A43   A(23,11,24)           109.3394         estimate D2E/DX2                !
 ! A44   A(5,12,13)            117.6032         estimate D2E/DX2                !
 ! A45   A(2,13,12)            121.7481         estimate D2E/DX2                !
 ! A46   A(2,13,25)            121.8358         estimate D2E/DX2                !
 ! A47   A(12,13,25)           116.4161         estimate D2E/DX2                !
 ! D1    D(1,2,3,4)            179.9073         estimate D2E/DX2                !
 ! D2    D(1,2,3,14)             0.059          estimate D2E/DX2                !
 ! D3    D(13,2,3,4)             0.125          estimate D2E/DX2                !
 ! D4    D(13,2,3,14)         -179.7233         estimate D2E/DX2                !
 ! D5    D(1,2,13,12)         -179.9357         estimate D2E/DX2                !
 ! D6    D(1,2,13,25)            0.0296         estimate D2E/DX2                !
 ! D7    D(3,2,13,12)           -0.1533         estimate D2E/DX2                !
 ! D8    D(3,2,13,25)          179.8119         estimate D2E/DX2                !
 ! D9    D(2,3,4,5)              0.1035         estimate D2E/DX2                !
 ! D10   D(14,3,4,5)           179.9596         estimate D2E/DX2                !
 ! D11   D(3,4,5,6)            178.2735         estimate D2E/DX2                !
 ! D12   D(3,4,5,12)            -0.3326         estimate D2E/DX2                !
 ! D13   D(4,5,6,7)              6.2987         estimate D2E/DX2                !
 ! D14   D(4,5,6,11)           175.1249         estimate D2E/DX2                !
 ! D15   D(12,5,6,7)          -175.004          estimate D2E/DX2                !
 ! D16   D(12,5,6,11)           -6.1778         estimate D2E/DX2                !
 ! D17   D(4,5,12,13)            0.3056         estimate D2E/DX2                !
 ! D18   D(6,5,12,13)         -178.3005         estimate D2E/DX2                !
 ! D19   D(5,6,7,8)            111.2976         estimate D2E/DX2                !
 ! D20   D(5,6,7,15)          -128.8555         estimate D2E/DX2                !
 ! D21   D(5,6,7,16)           -10.3687         estimate D2E/DX2                !
 ! D22   D(11,6,7,8)           -58.2937         estimate D2E/DX2                !
 ! D23   D(11,6,7,15)           61.5532         estimate D2E/DX2                !
 ! D24   D(11,6,7,16)         -179.96           estimate D2E/DX2                !
 ! D25   D(5,6,11,10)         -111.3027         estimate D2E/DX2                !
 ! D26   D(5,6,11,23)           10.3656         estimate D2E/DX2                !
 ! D27   D(5,6,11,24)          128.8499         estimate D2E/DX2                !
 ! D28   D(7,6,11,10)           58.2885         estimate D2E/DX2                !
 ! D29   D(7,6,11,23)          179.9568         estimate D2E/DX2                !
 ! D30   D(7,6,11,24)          -61.559          estimate D2E/DX2                !
 ! D31   D(6,7,8,9)             55.8159         estimate D2E/DX2                !
 ! D32   D(6,7,8,17)           177.4285         estimate D2E/DX2                !
 ! D33   D(6,7,8,18)           -64.3502         estimate D2E/DX2                !
 ! D34   D(15,7,8,9)           -63.2393         estimate D2E/DX2                !
 ! D35   D(15,7,8,17)           58.3733         estimate D2E/DX2                !
 ! D36   D(15,7,8,18)          176.5946         estimate D2E/DX2                !
 ! D37   D(16,7,8,9)           175.7254         estimate D2E/DX2                !
 ! D38   D(16,7,8,17)          -62.662          estimate D2E/DX2                !
 ! D39   D(16,7,8,18)           55.5593         estimate D2E/DX2                !
 ! D40   D(7,8,9,10)           -56.1641         estimate D2E/DX2                !
 ! D41   D(7,8,9,19)            63.9886         estimate D2E/DX2                !
 ! D42   D(7,8,9,20)          -177.5786         estimate D2E/DX2                !
 ! D43   D(17,8,9,10)         -177.1417         estimate D2E/DX2                !
 ! D44   D(17,8,9,19)          -56.989          estimate D2E/DX2                !
 ! D45   D(17,8,9,20)           61.4439         estimate D2E/DX2                !
 ! D46   D(18,8,9,10)           63.6265         estimate D2E/DX2                !
 ! D47   D(18,8,9,19)         -176.2208         estimate D2E/DX2                !
 ! D48   D(18,8,9,20)          -57.788          estimate D2E/DX2                !
 ! D49   D(8,9,10,11)           56.1538         estimate D2E/DX2                !
 ! D50   D(8,9,10,21)          -63.6378         estimate D2E/DX2                !
 ! D51   D(8,9,10,22)          177.1291         estimate D2E/DX2                !
 ! D52   D(19,9,10,11)         -63.998          estimate D2E/DX2                !
 ! D53   D(19,9,10,21)         176.2104         estimate D2E/DX2                !
 ! D54   D(19,9,10,22)          56.9773         estimate D2E/DX2                !
 ! D55   D(20,9,10,11)         177.5691         estimate D2E/DX2                !
 ! D56   D(20,9,10,21)          57.7775         estimate D2E/DX2                !
 ! D57   D(20,9,10,22)         -61.4556         estimate D2E/DX2                !
 ! D58   D(9,10,11,6)          -55.8008         estimate D2E/DX2                !
 ! D59   D(9,10,11,23)        -175.7149         estimate D2E/DX2                !
 ! D60   D(9,10,11,24)          63.2522         estimate D2E/DX2                !
 ! D61   D(21,10,11,6)          64.367          estimate D2E/DX2                !
 ! D62   D(21,10,11,23)        -55.5471         estimate D2E/DX2                !
 ! D63   D(21,10,11,24)       -176.58           estimate D2E/DX2                !
 ! D64   D(22,10,11,6)        -177.4115         estimate D2E/DX2                !
 ! D65   D(22,10,11,23)         62.6744         estimate D2E/DX2                !
 ! D66   D(22,10,11,24)        -58.3585         estimate D2E/DX2                !
 ! D67   D(5,12,13,2)           -0.0494         estimate D2E/DX2                !
 ! D68   D(5,12,13,25)         179.9835         estimate D2E/DX2                !
 --------------------------------------------------------------------------------
 Trust Radius=3.00D-01 FncErr=1.00D-07 GrdErr=1.00D-06 EigMax=2.50D+02 EigMin=1.00D-04
 Number of steps in this run=    150 maximum allowed number of steps=    150.
 GradGradGradGradGradGradGradGradGradGradGradGradGradGradGradGradGradGrad

 Leave Link  103 at Tue Sep 17 09:54:58 2024, MaxMem=  1342177280 cpu:               0.0 elap:               0.1
 (Enter /groups/ReismanLab/Software/Gaussian16_RevC/Linux_Binary_AVX2-enabled-CPU/g16/l202.exe)
                          Input orientation:                          
 ---------------------------------------------------------------------
 Center     Atomic      Atomic             Coordinates (Angstroms)
 Number     Number       Type             X           Y           Z
 ---------------------------------------------------------------------
      1         35           0        3.520472    0.000149    0.172722
      2          6           0        1.635654   -0.000043   -0.058911
      3          6           0        0.915279   -1.184752   -0.145789
      4          7           0       -0.387339   -1.190682   -0.304046
      5          6           0       -1.011785   -0.000235   -0.382730
      6          7           0       -2.334284   -0.000409   -0.579295
      7          6           0       -3.112308   -1.216820   -0.573796
      8          6           0       -4.023000   -1.249144    0.654598
      9          6           0       -4.899960    0.000384    0.685706
     10          6           0       -4.023266    1.250049    0.652716
     11          6           0       -3.112391    1.215930   -0.575498
     12          7           0       -0.387654    1.190294   -0.303201
     13          6           0        0.914917    1.184519   -0.144400
     14          1           0        1.397274   -2.151930   -0.084251
     15          1           0       -3.721315   -1.241230   -1.485028
     16          1           0       -2.424841   -2.061901   -0.576589
     17          1           0       -4.639240   -2.148468    0.626843
     18          1           0       -3.405348   -1.285783    1.553916
     19          1           0       -5.564539   -0.000356   -0.181635
     20          1           0       -5.520239    0.001010    1.583508
     21          1           0       -3.405758    1.288301    1.552064
     22          1           0       -4.639705    2.149187    0.623383
     23          1           0       -2.424996    2.061072   -0.579415
     24          1           0       -3.721288    1.238971   -1.486856
     25          1           0        1.396845    2.151753   -0.083134
 ---------------------------------------------------------------------
                    Distance matrix (angstroms):
                    1          2          3          4          5
     1  Br   0.000000
     2  C    1.898998   0.000000
     3  C    2.879665   1.389253   0.000000
     4  N    4.112951   2.360129   1.312209   0.000000
     5  C    4.566167   2.667169   2.274378   1.346583   0.000000
     6  N    5.902855   4.003899   3.485722   2.298501   1.337027
     7  C    6.784695   4.928366   4.050392   2.738414   2.434909
     8  C    7.661390   5.838639   5.003135   3.760378   3.420999
     9  C    8.436044   6.577895   5.992740   4.770954   4.032302
    10  C    7.661633   5.838879   5.563730   4.482469   3.421166
    11  C    6.784750   4.928426   4.708508   3.645734   2.434905
    12  N    4.112955   2.360160   2.713532   2.380976   1.346560
    13  C    2.879621   1.389229   2.369271   2.713472   2.274340
    14  H    3.034048   2.165198   1.082376   2.038909   3.243832
    15  H    7.532107   5.680798   4.826464   3.537326   3.177528
    16  H    6.337213   4.583325   3.480140   2.232648   2.506945
    17  H    8.450069   6.667854   5.690200   4.456744   4.335039
    18  H    7.178322   5.446654   4.644030   3.545342   3.336521
    19  H    9.091920   7.201239   6.587270   5.313687   4.557193
    20  H    9.150125   7.341958   6.768485   5.597290   4.918562
    21  H    7.178759   5.447101   5.260234   4.324507   3.336894
    22  H    8.450441   6.668196   6.524157   5.486116   4.335214
    23  H    6.337327   4.583448   4.677697   3.847308   2.506958
    24  H    7.532063   5.680757   5.400986   4.291558   3.177441
    25  H    3.033918   2.165143   3.371662   3.795258   3.243811
                    6          7          8          9         10
     6  N    0.000000
     7  C    1.443956   0.000000
     8  C    2.435896   1.529495   0.000000
     9  C    2.860581   2.502725   1.526876   0.000000
    10  C    2.436012   2.901658   2.499194   1.526874   0.000000
    11  C    1.443934   2.432750   2.901540   2.502716   1.529499
    12  N    2.298558   3.645704   4.481514   4.770191   3.759657
    13  C    3.485756   4.708434   5.562745   5.991999   5.002533
    14  H    4.335740   4.631460   5.544392   6.699287   6.441959
    15  H    2.069745   1.096279   2.160804   2.764578   3.296603
    16  H    2.063482   1.089395   2.174972   3.460148   3.877521
    17  H    3.373685   2.154303   1.090553   2.165411   3.453985
    18  H    2.711080   2.148904   1.091609   2.154502   2.761236
    19  H    3.254640   2.765323   2.152928   1.092678   2.152946
    20  H    3.850718   3.454736   2.160437   1.091236   2.160417
    21  H    2.711369   3.298641   2.761352   2.154518   1.091607
    22  H    3.373746   3.885381   3.453977   2.165403   1.090554
    23  H    2.063476   3.349180   3.877362   3.460118   2.174942
    24  H    2.069664   2.689878   3.296600   2.764668   2.160806
    25  H    4.335816   5.649823   6.440890   6.698452   5.543658
                   11         12         13         14         15
    11  C    0.000000
    12  N    2.738429   0.000000
    13  C    4.050438   1.312228   0.000000
    14  H    5.649857   3.795309   3.371672   0.000000
    15  H    2.689920   4.292123   5.401499   5.384376   0.000000
    16  H    3.349165   3.847290   4.677608   3.854746   1.783146
    17  H    3.885365   5.485279   6.523210   6.078253   2.475008
    18  H    3.298302   4.322767   5.258456   5.147716   3.055650
    19  H    2.765413   5.313432   6.587008   7.287359   2.576058
    20  H    3.454717   5.596204   6.767392   7.434283   3.767651
    21  H    2.148912   3.544089   4.642951   6.130403   3.965102
    22  H    2.154292   4.456228   5.689807   7.446171   4.096799
    23  H    1.089400   2.232781   3.480317   5.710020   3.661390
    24  H    1.096293   3.537870   4.826961   6.298031   2.480202
    25  H    4.631565   2.038939   1.082382   4.303683   6.298667
                   16         17         18         19         20
    16  H    0.000000
    17  H    2.521766   0.000000
    18  H    2.470386   1.768100   0.000000
    19  H    3.776727   2.474712   3.053942   0.000000
    20  H    4.301524   2.512294   2.475778   1.765699   0.000000
    21  H    4.088670   3.766815   2.574085   3.053962   2.475710
    22  H    4.907018   4.297657   3.766768   2.474653   2.512339
    23  H    4.122975   4.906951   4.088231   3.776831   4.301468
    24  H    3.661301   4.096963   3.964908   2.576259   3.767746
    25  H    5.709962   7.445152   6.128429   7.287122   7.432997
                   21         22         23         24         25
    21  H    0.000000
    22  H    1.768106   0.000000
    23  H    2.470278   2.521790   0.000000
    24  H    3.055655   2.474892   1.783163   0.000000
    25  H    5.146301   6.077755   3.854995   5.385061   0.000000
 Stoichiometry    C9H12BrN3
 Framework group  C1[X(C9H12BrN3)]
 Deg. of freedom    69
 Full point group                 C1      NOp   1
 Largest Abelian subgroup         C1      NOp   1
 Largest concise Abelian subgroup C1      NOp   1
                         Standard orientation:                         
 ---------------------------------------------------------------------
 Center     Atomic      Atomic             Coordinates (Angstroms)
 Number     Number       Type             X           Y           Z
 ---------------------------------------------------------------------
      1         35           0       -3.810223   -0.000169    0.202497
      2          6           0       -1.927205    0.000025   -0.043343
      3          6           0       -1.207514    1.184736   -0.135698
      4          7           0        0.093873    1.190667   -0.303774
      5          6           0        0.717716    0.000221   -0.387117
      6          7           0        2.038695    0.000395   -0.593650
      7          6           0        2.816731    1.216812   -0.594067
      8          6           0        3.736659    1.249190    0.627423
      9          6           0        4.613838   -0.000332    0.651967
     10          6           0        3.736928   -1.250003    0.625638
     11          6           0        2.816817   -1.215938   -0.595674
     12          7           0        0.094211   -1.190309   -0.302838
     13          6           0       -1.207126   -1.184535   -0.134219
     14          1           0       -1.689038    2.151912   -0.070565
     15          1           0        3.418849    1.241190   -1.509866
     16          1           0        2.129256    2.061889   -0.591708
     17          1           0        4.352667    2.148517    0.594987
     18          1           0        3.125807    1.285860    1.531373
     19          1           0        5.271858    0.000379   -0.220361
     20          1           0        5.240870   -0.000918    1.545066
     21          1           0        3.126220   -1.288224    1.529619
     22          1           0        4.353134   -2.149138    0.591693
     23          1           0        2.129417   -2.061085   -0.594374
     24          1           0        3.418824   -1.239012   -1.511596
     25          1           0       -1.688572   -2.151771   -0.069283
 ---------------------------------------------------------------------
 Rotational constants (GHZ):           2.2058111           0.2242559           0.2119456
 Leave Link  202 at Tue Sep 17 09:54:58 2024, MaxMem=  1342177280 cpu:               0.0 elap:               0.0
 (Enter /groups/ReismanLab/Software/Gaussian16_RevC/Linux_Binary_AVX2-enabled-CPU/g16/l301.exe)
 Standard basis: 6-31G(d,p) (6D, 7F)
 Ernie: Thresh=  0.10000D-02 Tol=  0.10000D-05 Strict=F.
 There are   270 symmetry adapted cartesian basis functions of A   symmetry.
 There are   270 symmetry adapted basis functions of A   symmetry.
   270 basis functions,   503 primitive gaussians,   270 cartesian basis functions
    61 alpha electrons       61 beta electrons
       nuclear repulsion energy      1055.1404352753 Hartrees.
 IExCor=  402 DFT=T Ex+Corr=B3LYP ExCW=0 ScaHFX=  0.200000
 ScaDFX=  0.800000  0.720000  1.000000  0.810000 ScalE2=  1.000000  1.000000
 IRadAn=      5 IRanWt=     -1 IRanGd=            0 ICorTp=0 IEmpDi=141
 NAtoms=   25 NActive=   25 NUniq=   25 SFac= 1.00D+00 NAtFMM=   60 NAOKFM=F Big=F
 Integral buffers will be    131072 words long.
 Raffenetti 2 integral format.
 Two-electron integral symmetry is turned on.
 R6Disp:  Grimme-D3(BJ) Dispersion energy=       -0.0515260183 Hartrees.
 Nuclear repulsion after empirical dispersion term =     1055.0889092570 Hartrees.
 Leave Link  301 at Tue Sep 17 09:54:58 2024, MaxMem=  1342177280 cpu:               0.1 elap:               0.0
 (Enter /groups/ReismanLab/Software/Gaussian16_RevC/Linux_Binary_AVX2-enabled-CPU/g16/l302.exe)
 NPDir=0 NMtPBC=     1 NCelOv=     1 NCel=       1 NClECP=     1 NCelD=      1
         NCelK=      1 NCelE2=     1 NClLst=     1 CellRange=     0.0.
 One-electron integrals computed using PRISM.
 One-electron integral symmetry used in STVInt
 NBasis=   270 RedAO= T EigKep=  7.53D-04  NBF=   270
 NBsUse=   270 1.00D-06 EigRej= -1.00D+00 NBFU=   270
 Precomputing XC quadrature grid using
 IXCGrd= 4 IRadAn=           5 IRanWt=          -1 IRanGd=           0 AccXCQ= 0.00D+00.
 Generated NRdTot=       0 NPtTot=           0 NUsed=           0 NTot=          32
 NSgBfM=   267   267   267   267   267 MxSgAt=    25 MxSgA2=    25.
 Leave Link  302 at Tue Sep 17 09:54:58 2024, MaxMem=  1342177280 cpu:               1.5 elap:               0.2
 (Enter /groups/ReismanLab/Software/Gaussian16_RevC/Linux_Binary_AVX2-enabled-CPU/g16/l303.exe)
 DipDrv:  MaxL=1.
 Leave Link  303 at Tue Sep 17 09:54:58 2024, MaxMem=  1342177280 cpu:               0.1 elap:               0.0
 (Enter /groups/ReismanLab/Software/Gaussian16_RevC/Linux_Binary_AVX2-enabled-CPU/g16/l401.exe)
 ExpMin= 1.43D-01 ExpMax= 5.74D+05 ExpMxC= 5.74D+03 IAcc=3 IRadAn=         5 AccDes= 0.00D+00
 Harris functional with IExCor=  402 and IRadAn=       5 diagonalized for initial guess.
 HarFok:  IExCor=  402 AccDes= 0.00D+00 IRadAn=         5 IDoV= 1 UseB2=F ITyADJ=14
 ICtDFT=  3500011 ScaDFX=  1.000000  1.000000  1.000000  1.000000
 FoFCou: FMM=F IPFlag=           0 FMFlag=      100000 FMFlg1=           0
         NFxFlg=           0 DoJE=T BraDBF=F KetDBF=T FulRan=T
         wScrn=  0.000000 ICntrl=       500 IOpCl=  0 I1Cent=   200000004 NGrid=           0
         NMat0=    1 NMatS0=      1 NMatT0=    0 NMatD0=    1 NMtDS0=    0 NMtDT0=    0
 Petite list used in FoFCou.
 Harris En= -3086.29930763811    
 JPrj=0 DoOrth=F DoCkMO=F.
 Leave Link  401 at Tue Sep 17 09:54:59 2024, MaxMem=  1342177280 cpu:               7.1 elap:               1.1
 (Enter /groups/ReismanLab/Software/Gaussian16_RevC/Linux_Binary_AVX2-enabled-CPU/g16/l502.exe)
 Integral symmetry usage will be decided dynamically.
 Closed shell SCF:
 Using DIIS extrapolation, IDIIS=  1040.
 NGot=  1342177280 LenX=  1342025818 LenY=  1341952477
 Requested convergence on RMS density matrix=1.00D-08 within  32 cycles.
 Requested convergence on MAX density matrix=1.00D-06.
 Requested convergence on             energy=1.00D-06.
 No special actions if energy rises.
 Fock matrices will be formed incrementally for  20 cycles.
 Integral accuracy reduced to 1.0D-05 until final iterations.

 Cycle   1  Pass 0  IDiag  1:
 FoFJK:  IHMeth= 1 ICntrl=       0 DoSepK=F KAlg= 0 I1Cent=           0 FoldK=F
 IRaf= 840000000 NMat=       1 IRICut=       1 DoRegI=T DoRafI=F ISym2E= 0 IDoP0=0 IntGTp=1.
 FoFCou: FMM=F IPFlag=           0 FMFlag=      100000 FMFlg1=           0
         NFxFlg=           0 DoJE=F BraDBF=F KetDBF=F FulRan=T
         wScrn=  0.000000 ICntrl=         0 IOpCl=  0 I1Cent=           0 NGrid=           0
         NMat0=    1 NMatS0=      1 NMatT0=    0 NMatD0=    1 NMtDS0=    0 NMtDT0=    0
 Symmetry not used in FoFCou.
 E= -3085.94957219992    
 DIIS: error= 2.08D-01 at cycle   1 NSaved=   1.
 NSaved= 1 IEnMin= 1 EnMin= -3085.94957219992     IErMin= 1 ErrMin= 2.08D-01
 ErrMax= 2.08D-01  0.00D+00 EMaxC= 1.00D-01 BMatC= 6.17D-01 BMatP= 6.17D-01
 IDIUse=3 WtCom= 0.00D+00 WtEn= 1.00D+00
 Coeff-Com:  0.100D+01
 Coeff-En:   0.100D+01
 Coeff:      0.100D+01
 Gap=     0.185 Goal=   None    Shift=    0.000
 GapD=    0.185 DampG=1.000 DampE=0.250 DampFc=0.2500 IDamp=-1.
 Damping current iteration by 2.50D-01
 RMSDP=4.55D-03 MaxDP=1.44D-01              OVMax= 1.64D-01

 Cycle   2  Pass 0  IDiag  1:
 RMSU=  1.10D-03    CP:  9.92D-01
 E= -3086.04657497840     Delta-E=       -0.097002778479 Rises=F Damp=T
 DIIS: error= 1.54D-01 at cycle   2 NSaved=   2.
 NSaved= 2 IEnMin= 2 EnMin= -3086.04657497840     IErMin= 2 ErrMin= 1.54D-01
 ErrMax= 1.54D-01  0.00D+00 EMaxC= 1.00D-01 BMatC= 2.62D-01 BMatP= 6.17D-01
 IDIUse=3 WtCom= 0.00D+00 WtEn= 1.00D+00
 Coeff-Com: -0.136D+01 0.236D+01
 Coeff-En:   0.000D+00 0.100D+01
 Coeff:      0.000D+00 0.100D+01
 Gap=     0.175 Goal=   None    Shift=    0.000
 RMSDP=2.36D-03 MaxDP=1.11D-01 DE=-9.70D-02 OVMax= 4.90D-02

 Cycle   3  Pass 0  IDiag  1:
 RMSU=  7.04D-04    CP:  9.69D-01  2.92D+00
 E= -3086.16250395275     Delta-E=       -0.115928974352 Rises=F Damp=F
 DIIS: error= 1.11D-02 at cycle   3 NSaved=   3.
 NSaved= 3 IEnMin= 3 EnMin= -3086.16250395275     IErMin= 3 ErrMin= 1.11D-02
 ErrMax= 1.11D-02  0.00D+00 EMaxC= 1.00D-01 BMatC= 5.97D-02 BMatP= 2.62D-01
 IDIUse=3 WtCom= 8.89D-01 WtEn= 1.11D-01
 Coeff-Com:  0.178D+01-0.230D+01 0.152D+01
 Coeff-En:   0.116D+00 0.000D+00 0.884D+00
 Coeff:      0.159D+01-0.205D+01 0.145D+01
 Gap=     0.176 Goal=   None    Shift=    0.000
 RMSDP=1.12D-03 MaxDP=3.46D-02 DE=-1.16D-01 OVMax= 4.40D-02

 Cycle   4  Pass 0  IDiag  1:
 RMSU=  3.75D-04    CP:  9.71D-01  2.00D+00  1.42D+00
 E= -3086.21845409296     Delta-E=       -0.055950140206 Rises=F Damp=F
 DIIS: error= 2.26D-03 at cycle   4 NSaved=   4.
 NSaved= 4 IEnMin= 4 EnMin= -3086.21845409296     IErMin= 4 ErrMin= 2.26D-03
 ErrMax= 2.26D-03  0.00D+00 EMaxC= 1.00D-01 BMatC= 2.87D-03 BMatP= 5.97D-02
 IDIUse=3 WtCom= 9.77D-01 WtEn= 2.26D-02
 Coeff-Com:  0.772D+00-0.101D+01 0.691D+00 0.548D+00
 Coeff-En:   0.000D+00 0.000D+00 0.000D+00 0.100D+01
 Coeff:      0.755D+00-0.989D+00 0.675D+00 0.559D+00
 Gap=     0.170 Goal=   None    Shift=    0.000
 RMSDP=3.50D-04 MaxDP=1.24D-02 DE=-5.60D-02 OVMax= 3.28D-02

 Cycle   5  Pass 0  IDiag  1:
 RMSU=  1.80D-04    CP:  9.71D-01  2.11D+00  1.40D+00  2.64D-01
 E= -3086.22044111052     Delta-E=       -0.001987017558 Rises=F Damp=F
 DIIS: error= 1.80D-03 at cycle   5 NSaved=   5.
 NSaved= 5 IEnMin= 5 EnMin= -3086.22044111052     IErMin= 5 ErrMin= 1.80D-03
 ErrMax= 1.80D-03  0.00D+00 EMaxC= 1.00D-01 BMatC= 1.02D-03 BMatP= 2.87D-03
 IDIUse=3 WtCom= 9.82D-01 WtEn= 1.80D-02
 Coeff-Com:  0.246D+00-0.324D+00 0.236D+00 0.390D+00 0.452D+00
 Coeff-En:   0.000D+00 0.000D+00 0.000D+00 0.283D+00 0.717D+00
 Coeff:      0.241D+00-0.318D+00 0.231D+00 0.388D+00 0.457D+00
 Gap=     0.172 Goal=   None    Shift=    0.000
 RMSDP=1.40D-04 MaxDP=6.05D-03 DE=-1.99D-03 OVMax= 1.42D-02

 Cycle   6  Pass 0  IDiag  1:
 RMSU=  3.76D-05    CP:  9.71D-01  2.11D+00  1.41D+00  4.91D-01  4.18D-01
 E= -3086.22148754424     Delta-E=       -0.001046433725 Rises=F Damp=F
 DIIS: error= 3.43D-04 at cycle   6 NSaved=   6.
 NSaved= 6 IEnMin= 6 EnMin= -3086.22148754424     IErMin= 6 ErrMin= 3.43D-04
 ErrMax= 3.43D-04  0.00D+00 EMaxC= 1.00D-01 BMatC= 2.74D-05 BMatP= 1.02D-03
 IDIUse=3 WtCom= 9.97D-01 WtEn= 3.43D-03
 Coeff-Com:  0.688D-01-0.907D-01 0.707D-01 0.168D+00 0.235D+00 0.548D+00
 Coeff-En:   0.000D+00 0.000D+00 0.000D+00 0.000D+00 0.000D+00 0.100D+01
 Coeff:      0.685D-01-0.903D-01 0.704D-01 0.167D+00 0.235D+00 0.549D+00
 Gap=     0.172 Goal=   None    Shift=    0.000
 RMSDP=2.11D-05 MaxDP=7.91D-04 DE=-1.05D-03 OVMax= 1.72D-03

 Cycle   7  Pass 0  IDiag  1:
 RMSU=  1.32D-05    CP:  9.71D-01  2.11D+00  1.41D+00  4.99D-01  4.46D-01
                    CP:  6.03D-01
 E= -3086.22151149375     Delta-E=       -0.000023949508 Rises=F Damp=F
 DIIS: error= 7.96D-05 at cycle   7 NSaved=   7.
 NSaved= 7 IEnMin= 7 EnMin= -3086.22151149375     IErMin= 7 ErrMin= 7.96D-05
 ErrMax= 7.96D-05  0.00D+00 EMaxC= 1.00D-01 BMatC= 1.87D-06 BMatP= 2.74D-05
 IDIUse=1 WtCom= 1.00D+00 WtEn= 0.00D+00
 Coeff-Com:  0.101D-01-0.133D-01 0.118D-01 0.445D-01 0.709D-01 0.260D+00
 Coeff-Com:  0.616D+00
 Coeff:      0.101D-01-0.133D-01 0.118D-01 0.445D-01 0.709D-01 0.260D+00
 Coeff:      0.616D+00
 Gap=     0.172 Goal=   None    Shift=    0.000
 RMSDP=6.41D-06 MaxDP=2.07D-04 DE=-2.39D-05 OVMax= 3.48D-04

 Initial convergence to 1.0D-05 achieved.  Increase integral accuracy.
 Cycle   8  Pass 1  IDiag  1:
 E= -3086.22152263159     Delta-E=       -0.000011137837 Rises=F Damp=F
 DIIS: error= 8.78D-05 at cycle   1 NSaved=   1.
 NSaved= 1 IEnMin= 1 EnMin= -3086.22152263159     IErMin= 1 ErrMin= 8.78D-05
 ErrMax= 8.78D-05  0.00D+00 EMaxC= 1.00D-01 BMatC= 4.32D-07 BMatP= 4.32D-07
 IDIUse=1 WtCom= 1.00D+00 WtEn= 0.00D+00
 Coeff-Com:  0.100D+01
 Coeff:      0.100D+01
 Gap=     0.172 Goal=   None    Shift=    0.000
 RMSDP=6.41D-06 MaxDP=2.07D-04 DE=-1.11D-05 OVMax= 3.01D-04

 Cycle   9  Pass 1  IDiag  1:
 RMSU=  2.34D-05    CP:  1.00D+00
 E= -3086.22152253875     Delta-E=        0.000000092839 Rises=F Damp=F
 DIIS: error= 4.74D-05 at cycle   2 NSaved=   2.
 NSaved= 2 IEnMin= 1 EnMin= -3086.22152263159     IErMin= 2 ErrMin= 4.74D-05
 ErrMax= 4.74D-05  0.00D+00 EMaxC= 1.00D-01 BMatC= 5.38D-07 BMatP= 4.32D-07
 IDIUse=1 WtCom= 1.00D+00 WtEn= 0.00D+00
 Coeff-Com:  0.535D+00 0.465D+00
 Coeff:      0.535D+00 0.465D+00
 Gap=     0.172 Goal=   None    Shift=    0.000
 RMSDP=3.57D-06 MaxDP=1.72D-04 DE= 9.28D-08 OVMax= 2.50D-04

 Cycle  10  Pass 1  IDiag  1:
 RMSU=  3.55D-06    CP:  1.00D+00  9.83D-01
 E= -3086.22152295097     Delta-E=       -0.000000412218 Rises=F Damp=F
 DIIS: error= 1.74D-05 at cycle   3 NSaved=   3.
 NSaved= 3 IEnMin= 3 EnMin= -3086.22152295097     IErMin= 3 ErrMin= 1.74D-05
 ErrMax= 1.74D-05  0.00D+00 EMaxC= 1.00D-01 BMatC= 7.29D-08 BMatP= 4.32D-07
 IDIUse=1 WtCom= 1.00D+00 WtEn= 0.00D+00
 Coeff-Com:  0.128D-01 0.268D+00 0.719D+00
 Coeff:      0.128D-01 0.268D+00 0.719D+00
 Gap=     0.172 Goal=   None    Shift=    0.000
 RMSDP=1.04D-06 MaxDP=4.45D-05 DE=-4.12D-07 OVMax= 9.83D-05

 Cycle  11  Pass 1  IDiag  1:
 RMSU=  4.18D-07    CP:  1.00D+00  9.97D-01  7.50D-01
 E= -3086.22152301183     Delta-E=       -0.000000060863 Rises=F Damp=F
 DIIS: error= 3.77D-06 at cycle   4 NSaved=   4.
 NSaved= 4 IEnMin= 4 EnMin= -3086.22152301183     IErMin= 4 ErrMin= 3.77D-06
 ErrMax= 3.77D-06  0.00D+00 EMaxC= 1.00D-01 BMatC= 3.76D-09 BMatP= 7.29D-08
 IDIUse=1 WtCom= 1.00D+00 WtEn= 0.00D+00
 Coeff-Com: -0.244D-02 0.151D+00 0.429D+00 0.422D+00
 Coeff:     -0.244D-02 0.151D+00 0.429D+00 0.422D+00
 Gap=     0.172 Goal=   None    Shift=    0.000
 RMSDP=2.64D-07 MaxDP=7.95D-06 DE=-6.09D-08 OVMax= 2.43D-05

 Cycle  12  Pass 1  IDiag  1:
 RMSU=  1.21D-07    CP:  1.00D+00  9.97D-01  7.51D-01  4.39D-01
 E= -3086.22152301534     Delta-E=       -0.000000003509 Rises=F Damp=F
 DIIS: error= 7.82D-07 at cycle   5 NSaved=   5.
 NSaved= 5 IEnMin= 5 EnMin= -3086.22152301534     IErMin= 5 ErrMin= 7.82D-07
 ErrMax= 7.82D-07  0.00D+00 EMaxC= 1.00D-01 BMatC= 2.23D-10 BMatP= 3.76D-09
 IDIUse=1 WtCom= 1.00D+00 WtEn= 0.00D+00
 Coeff-Com: -0.226D-02 0.817D-01 0.235D+00 0.270D+00 0.415D+00
 Coeff:     -0.226D-02 0.817D-01 0.235D+00 0.270D+00 0.415D+00
 Gap=     0.172 Goal=   None    Shift=    0.000
 RMSDP=6.92D-08 MaxDP=3.02D-06 DE=-3.51D-09 OVMax= 6.93D-06

 Cycle  13  Pass 1  IDiag  1:
 RMSU=  3.68D-08    CP:  1.00D+00  9.98D-01  7.50D-01  4.78D-01  5.35D-01
 E= -3086.22152301557     Delta-E=       -0.000000000228 Rises=F Damp=F
 DIIS: error= 1.64D-07 at cycle   6 NSaved=   6.
 NSaved= 6 IEnMin= 6 EnMin= -3086.22152301557     IErMin= 6 ErrMin= 1.64D-07
 ErrMax= 1.64D-07  0.00D+00 EMaxC= 1.00D-01 BMatC= 7.30D-12 BMatP= 2.23D-10
 IDIUse=1 WtCom= 1.00D+00 WtEn= 0.00D+00
 Coeff-Com: -0.917D-03 0.284D-01 0.829D-01 0.102D+00 0.202D+00 0.585D+00
 Coeff:     -0.917D-03 0.284D-01 0.829D-01 0.102D+00 0.202D+00 0.585D+00
 Gap=     0.172 Goal=   None    Shift=    0.000
 RMSDP=1.25D-08 MaxDP=7.56D-07 DE=-2.28D-10 OVMax= 1.28D-06

 Cycle  14  Pass 1  IDiag  1:
 RMSU=  1.08D-08    CP:  1.00D+00  9.98D-01  7.51D-01  4.76D-01  5.70D-01
                    CP:  8.88D-01
 E= -3086.22152301563     Delta-E=       -0.000000000059 Rises=F Damp=F
 DIIS: error= 4.08D-08 at cycle   7 NSaved=   7.
 NSaved= 7 IEnMin= 7 EnMin= -3086.22152301563     IErMin= 7 ErrMin= 4.08D-08
 ErrMax= 4.08D-08  0.00D+00 EMaxC= 1.00D-01 BMatC= 5.94D-13 BMatP= 7.30D-12
 IDIUse=1 WtCom= 1.00D+00 WtEn= 0.00D+00
 Coeff-Com: -0.115D-03 0.216D-02 0.700D-02 0.104D-01 0.254D-01 0.245D+00
 Coeff-Com:  0.710D+00
 Coeff:     -0.115D-03 0.216D-02 0.700D-02 0.104D-01 0.254D-01 0.245D+00
 Coeff:      0.710D+00
 Gap=     0.172 Goal=   None    Shift=    0.000
 RMSDP=3.92D-09 MaxDP=1.55D-07 DE=-5.91D-11 OVMax= 1.76D-07

 SCF Done:  E(RB3LYP) =  -3086.22152302     A.U. after   14 cycles
            NFock= 14  Conv=0.39D-08     -V/T= 2.0066
 KE= 3.066012397951D+03 PE=-9.437407763990D+03 EE= 2.230084933767D+03
 Leave Link  502 at Tue Sep 17 09:55:17 2024, MaxMem=  1342177280 cpu:             129.3 elap:              17.2
 (Enter /groups/ReismanLab/Software/Gaussian16_RevC/Linux_Binary_AVX2-enabled-CPU/g16/l508.exe)
 QCSCF skips out because SCF is already converged.
 Leave Link  508 at Tue Sep 17 09:55:17 2024, MaxMem=  1342177280 cpu:               0.0 elap:               0.0
 (Enter /groups/ReismanLab/Software/Gaussian16_RevC/Linux_Binary_AVX2-enabled-CPU/g16/l601.exe)
 Copying SCF densities to generalized density rwf, IOpCl= 0 IROHF=0.

 **********************************************************************

            Population analysis using the SCF Density.

 **********************************************************************

 Orbital symmetries:
       Occupied  (A) (A) (A) (A) (A) (A) (A) (A) (A) (A) (A) (A)
                 (A) (A) (A) (A) (A) (A) (A) (A) (A) (A) (A) (A)
                 (A) (A) (A) (A) (A) (A) (A) (A) (A) (A) (A) (A)
                 (A) (A) (A) (A) (A) (A) (A) (A) (A) (A) (A) (A)
                 (A) (A) (A) (A) (A) (A) (A) (A) (A) (A) (A) (A)
                 (A)
       Virtual   (A) (A) (A) (A) (A) (A) (A) (A) (A) (A) (A) (A)
                 (A) (A) (A) (A) (A) (A) (A) (A) (A) (A) (A) (A)
                 (A) (A) (A) (A) (A) (A) (A) (A) (A) (A) (A) (A)
                 (A) (A) (A) (A) (A) (A) (A) (A) (A) (A) (A) (A)
                 (A) (A) (A) (A) (A) (A) (A) (A) (A) (A) (A) (A)
                 (A) (A) (A) (A) (A) (A) (A) (A) (A) (A) (A) (A)
                 (A) (A) (A) (A) (A) (A) (A) (A) (A) (A) (A) (A)
                 (A) (A) (A) (A) (A) (A) (A) (A) (A) (A) (A) (A)
                 (A) (A) (A) (A) (A) (A) (A) (A) (A) (A) (A) (A)
                 (A) (A) (A) (A) (A) (A) (A) (A) (A) (A) (A) (A)
                 (A) (A) (A) (A) (A) (A) (A) (A) (A) (A) (A) (A)
                 (A) (A) (A) (A) (A) (A) (A) (A) (A) (A) (A) (A)
                 (A) (A) (A) (A) (A) (A) (A) (A) (A) (A) (A) (A)
                 (A) (A) (A) (A) (A) (A) (A) (A) (A) (A) (A) (A)
                 (A) (A) (A) (A) (A) (A) (A) (A) (A) (A) (A) (A)
                 (A) (A) (A) (A) (A) (A) (A) (A) (A) (A) (A) (A)
                 (A) (A) (A) (A) (A) (A) (A) (A) (A) (A) (A) (A)
                 (A) (A) (A) (A) (A)
 The electronic state is 1-A.
 Alpha  occ. eigenvalues -- -482.91152 -61.87318 -56.39461 -56.39044 -56.39027
 Alpha  occ. eigenvalues --  -14.36131 -14.33038 -14.33037 -10.28799 -10.24106
 Alpha  occ. eigenvalues --  -10.24103 -10.23561 -10.21429 -10.21427 -10.18527
 Alpha  occ. eigenvalues --  -10.18520 -10.18490  -8.58455  -6.53864  -6.52561
 Alpha  occ. eigenvalues --   -6.52555  -2.65434  -2.65057  -2.65051  -2.64012
 Alpha  occ. eigenvalues --   -2.64012  -1.01703  -0.94736  -0.89644  -0.83114
 Alpha  occ. eigenvalues --   -0.80354  -0.76679  -0.74118  -0.67766  -0.67243
 Alpha  occ. eigenvalues --   -0.62884  -0.61634  -0.58151  -0.53929  -0.53038
 Alpha  occ. eigenvalues --   -0.48061  -0.46194  -0.46175  -0.46039  -0.43349
 Alpha  occ. eigenvalues --   -0.42522  -0.41990  -0.41561  -0.40837  -0.38784
 Alpha  occ. eigenvalues --   -0.35776  -0.35675  -0.33634  -0.33059  -0.32557
 Alpha  occ. eigenvalues --   -0.32120  -0.30896  -0.29194  -0.27697  -0.24228
 Alpha  occ. eigenvalues --   -0.20655
 Alpha virt. eigenvalues --   -0.03490  -0.00105   0.01286   0.09124   0.10740
 Alpha virt. eigenvalues --    0.13356   0.13977   0.14248   0.15142   0.15206
 Alpha virt. eigenvalues --    0.15511   0.16042   0.16455   0.17580   0.17951
 Alpha virt. eigenvalues --    0.19063   0.19678   0.22003   0.23029   0.23037
 Alpha virt. eigenvalues --    0.24551   0.25948   0.26791   0.27316   0.27728
 Alpha virt. eigenvalues --    0.34227   0.34709   0.36940   0.38394   0.41330
 Alpha virt. eigenvalues --    0.46373   0.46494   0.46526   0.47575   0.48886
 Alpha virt. eigenvalues --    0.49058   0.50217   0.50805   0.51065   0.53715
 Alpha virt. eigenvalues --    0.54457   0.54612   0.55414   0.57952   0.58977
 Alpha virt. eigenvalues --    0.59797   0.59992   0.62033   0.62659   0.64270
 Alpha virt. eigenvalues --    0.64818   0.66455   0.67011   0.70881   0.70978
 Alpha virt. eigenvalues --    0.73863   0.74798   0.75184   0.75257   0.77804
 Alpha virt. eigenvalues --    0.78535   0.79474   0.80334   0.82089   0.82100
 Alpha virt. eigenvalues --    0.84212   0.85747   0.86184   0.86813   0.87520
 Alpha virt. eigenvalues --    0.87857   0.89530   0.89802   0.91337   0.93094
 Alpha virt. eigenvalues --    0.93727   0.94384   0.98386   0.99971   1.03260
 Alpha virt. eigenvalues --    1.04484   1.05651   1.08758   1.09839   1.11817
 Alpha virt. eigenvalues --    1.18069   1.19674   1.20706   1.22291   1.24584
 Alpha virt. eigenvalues --    1.27014   1.33671   1.33767   1.38539   1.40215
 Alpha virt. eigenvalues --    1.40234   1.45053   1.45951   1.47398   1.47557
 Alpha virt. eigenvalues --    1.51652   1.52963   1.55672   1.58441   1.60421
 Alpha virt. eigenvalues --    1.62292   1.63405   1.65094   1.68619   1.74217
 Alpha virt. eigenvalues --    1.76750   1.77682   1.82045   1.82798   1.83036
 Alpha virt. eigenvalues --    1.86359   1.88046   1.88760   1.88977   1.90483
 Alpha virt. eigenvalues --    1.90672   1.94768   1.95099   1.98369   1.99980
 Alpha virt. eigenvalues --    2.01278   2.06106   2.08535   2.09215   2.10615
 Alpha virt. eigenvalues --    2.11160   2.13673   2.14401   2.17315   2.18330
 Alpha virt. eigenvalues --    2.18937   2.19995   2.20234   2.25563   2.27372
 Alpha virt. eigenvalues --    2.28120   2.30421   2.32104   2.33607   2.35628
 Alpha virt. eigenvalues --    2.35719   2.37440   2.39784   2.41290   2.42856
 Alpha virt. eigenvalues --    2.44665   2.45519   2.45880   2.50579   2.51472
 Alpha virt. eigenvalues --    2.52066   2.54265   2.57416   2.60017   2.60421
 Alpha virt. eigenvalues --    2.61179   2.65647   2.66364   2.66971   2.69390
 Alpha virt. eigenvalues --    2.71825   2.73035   2.73236   2.77490   2.79194
 Alpha virt. eigenvalues --    2.79661   2.81773   2.82993   2.86992   2.89656
 Alpha virt. eigenvalues --    2.93353   2.94287   2.96165   2.98918   3.05213
 Alpha virt. eigenvalues --    3.14568   3.22187   3.26931   3.27652   3.29893
 Alpha virt. eigenvalues --    3.31799   3.33590   3.34544   3.41539   3.47126
 Alpha virt. eigenvalues --    3.48793   3.49068   3.52999   3.58652   3.63324
 Alpha virt. eigenvalues --    4.05001   4.13679   4.18065   4.31193   4.32787
 Alpha virt. eigenvalues --    4.36660   4.38938   4.45605   4.57235   4.67915
 Alpha virt. eigenvalues --    4.74142   4.76571   8.60557  72.79450
          Condensed to atoms (all electrons):
               1          2          3          4          5          6
     1  Br  34.985844   0.234909  -0.050049   0.004102   0.000958   0.000010
     2  C    0.234909   5.087947   0.456195  -0.024737  -0.032228   0.001261
     3  C   -0.050049   0.456195   4.722250   0.484358  -0.062446   0.002285
     4  N    0.004102  -0.024737   0.484358   6.870801   0.430092  -0.100868
     5  C    0.000958  -0.032228  -0.062446   0.430092   4.360071   0.316706
     6  N    0.000010   0.001261   0.002285  -0.100868   0.316706   7.020326
     7  C   -0.000000  -0.000063   0.000724  -0.018494  -0.035817   0.314327
     8  C    0.000000  -0.000002  -0.000022   0.000544   0.000107  -0.059784
     9  C    0.000000  -0.000000   0.000001  -0.000010  -0.000339  -0.016192
    10  C    0.000000  -0.000002   0.000008  -0.000088   0.000094  -0.059736
    11  C   -0.000000  -0.000063  -0.000090   0.003464  -0.035816   0.314307
    12  N    0.004102  -0.024737  -0.040640  -0.081216   0.430075  -0.100866
    13  C   -0.050052   0.456227  -0.042877  -0.040642  -0.062447   0.002286
    14  H    0.001468  -0.069402   0.394280  -0.052911   0.004353  -0.000124
    15  H   -0.000000   0.000001  -0.000017   0.000829   0.003624  -0.051888
    16  H   -0.000001   0.000092   0.000376   0.024211  -0.009791  -0.032709
    17  H   -0.000000   0.000000   0.000001  -0.000021  -0.000121   0.004990
    18  H   -0.000000   0.000002  -0.000016   0.000423   0.002555  -0.002759
    19  H   -0.000000   0.000000  -0.000000  -0.000002   0.000020  -0.000741
    20  H   -0.000000   0.000000  -0.000000   0.000000   0.000018  -0.000093
    21  H   -0.000000   0.000002  -0.000000  -0.000070   0.002554  -0.002764
    22  H   -0.000000   0.000000  -0.000000   0.000001  -0.000121   0.004988
    23  H   -0.000001   0.000092   0.000019   0.000574  -0.009793  -0.032703
    24  H   -0.000000   0.000001   0.000005  -0.000088   0.003634  -0.051916
    25  H    0.001467  -0.069404   0.003988  -0.000528   0.004353  -0.000124
               7          8          9         10         11         12
     1  Br  -0.000000   0.000000   0.000000   0.000000  -0.000000   0.004102
     2  C   -0.000063  -0.000002  -0.000000  -0.000002  -0.000063  -0.024737
     3  C    0.000724  -0.000022   0.000001   0.000008  -0.000090  -0.040640
     4  N   -0.018494   0.000544  -0.000010  -0.000088   0.003464  -0.081216
     5  C   -0.035817   0.000107  -0.000339   0.000094  -0.035816   0.430075
     6  N    0.314327  -0.059784  -0.016192  -0.059736   0.314307  -0.100866
     7  C    4.831078   0.374018  -0.041257  -0.014000  -0.048386   0.003465
     8  C    0.374018   4.943967   0.382457  -0.043862  -0.014012  -0.000087
     9  C   -0.041257   0.382457   4.920580   0.382474  -0.041269  -0.000010
    10  C   -0.014000  -0.043862   0.382474   4.943924   0.374024   0.000542
    11  C   -0.048386  -0.014012  -0.041269   0.374024   4.831011  -0.018473
    12  N    0.003465  -0.000087  -0.000010   0.000542  -0.018473   6.870856
    13  C   -0.000090   0.000008   0.000001  -0.000022   0.000724   0.484331
    14  H    0.000051  -0.000000   0.000000  -0.000000   0.000004  -0.000528
    15  H    0.381039  -0.053251  -0.008027  -0.002091  -0.004889  -0.000089
    16  H    0.381108  -0.028235   0.003964   0.000079   0.004000   0.000575
    17  H   -0.032510   0.371896  -0.034021   0.005209   0.000159   0.000001
    18  H   -0.037438   0.381951  -0.042853  -0.005446  -0.000977  -0.000070
    19  H   -0.005136  -0.042509   0.379743  -0.042505  -0.005131  -0.000002
    20  H    0.005032  -0.033685   0.382268  -0.033689   0.005032   0.000000
    21  H   -0.000977  -0.005445  -0.042847   0.381951  -0.037428   0.000427
    22  H    0.000159   0.005209  -0.034023   0.371895  -0.032508  -0.000021
    23  H    0.004000   0.000079   0.003965  -0.028238   0.381106   0.024200
    24  H   -0.004901  -0.002090  -0.008024  -0.053255   0.381053   0.000828
    25  H    0.000004  -0.000000   0.000000  -0.000000   0.000051  -0.052907
              13         14         15         16         17         18
     1  Br  -0.050052   0.001468  -0.000000  -0.000001  -0.000000  -0.000000
     2  C    0.456227  -0.069402   0.000001   0.000092   0.000000   0.000002
     3  C   -0.042877   0.394280  -0.000017   0.000376   0.000001  -0.000016
     4  N   -0.040642  -0.052911   0.000829   0.024211  -0.000021   0.000423
     5  C   -0.062447   0.004353   0.003624  -0.009791  -0.000121   0.002555
     6  N    0.002286  -0.000124  -0.051888  -0.032709   0.004990  -0.002759
     7  C   -0.000090   0.000051   0.381039   0.381108  -0.032510  -0.037438
     8  C    0.000008  -0.000000  -0.053251  -0.028235   0.371896   0.381951
     9  C    0.000001   0.000000  -0.008027   0.003964  -0.034021  -0.042853
    10  C   -0.000022  -0.000000  -0.002091   0.000079   0.005209  -0.005446
    11  C    0.000724   0.000004  -0.004889   0.004000   0.000159  -0.000977
    12  N    0.484331  -0.000528  -0.000089   0.000575   0.000001  -0.000070
    13  C    4.722265   0.003988   0.000005   0.000019  -0.000000  -0.000000
    14  H    0.003988   0.601416  -0.000002  -0.000138  -0.000000  -0.000002
    15  H    0.000005  -0.000002   0.644581  -0.027555  -0.001295   0.006235
    16  H    0.000019  -0.000138  -0.027555   0.542148  -0.001563  -0.004257
    17  H   -0.000000  -0.000000  -0.001295  -0.001563   0.631099  -0.031692
    18  H   -0.000000  -0.000002   0.006235  -0.004257  -0.031692   0.621715
    19  H   -0.000000  -0.000000   0.006287  -0.000002  -0.003826   0.006255
    20  H   -0.000000  -0.000000  -0.000066  -0.000157  -0.003661  -0.004499
    21  H   -0.000016  -0.000000   0.000226  -0.000024   0.000024   0.005511
    22  H    0.000001   0.000000   0.000061   0.000014  -0.000162   0.000024
    23  H    0.000376   0.000001  -0.000022  -0.000245   0.000014  -0.000024
    24  H   -0.000017  -0.000000   0.008184  -0.000022   0.000061   0.000226
    25  H    0.394280  -0.000170  -0.000000   0.000001   0.000000  -0.000000
              19         20         21         22         23         24
     1  Br  -0.000000  -0.000000  -0.000000  -0.000000  -0.000001  -0.000000
     2  C    0.000000   0.000000   0.000002   0.000000   0.000092   0.000001
     3  C   -0.000000  -0.000000  -0.000000  -0.000000   0.000019   0.000005
     4  N   -0.000002   0.000000  -0.000070   0.000001   0.000574  -0.000088
     5  C    0.000020   0.000018   0.002554  -0.000121  -0.009793   0.003634
     6  N   -0.000741  -0.000093  -0.002764   0.004988  -0.032703  -0.051916
     7  C   -0.005136   0.005032  -0.000977   0.000159   0.004000  -0.004901
     8  C   -0.042509  -0.033685  -0.005445   0.005209   0.000079  -0.002090
     9  C    0.379743   0.382268  -0.042847  -0.034023   0.003965  -0.008024
    10  C   -0.042505  -0.033689   0.381951   0.371895  -0.028238  -0.053255
    11  C   -0.005131   0.005032  -0.037428  -0.032508   0.381106   0.381053
    12  N   -0.000002   0.000000   0.000427  -0.000021   0.024200   0.000828
    13  C   -0.000000  -0.000000  -0.000016   0.000001   0.000376  -0.000017
    14  H   -0.000000  -0.000000  -0.000000   0.000000   0.000001  -0.000000
    15  H    0.006287  -0.000066   0.000226   0.000061  -0.000022   0.008184
    16  H   -0.000002  -0.000157  -0.000024   0.000014  -0.000245  -0.000022
    17  H   -0.003826  -0.003661   0.000024  -0.000162   0.000014   0.000061
    18  H    0.006255  -0.004499   0.005511   0.000024  -0.000024   0.000226
    19  H    0.642784  -0.035569   0.006254  -0.003829  -0.000002   0.006284
    20  H   -0.035569   0.631633  -0.004501  -0.003659  -0.000157  -0.000066
    21  H    0.006254  -0.004501   0.621683  -0.031692  -0.004260   0.006235
    22  H   -0.003829  -0.003659  -0.031692   0.631105  -0.001561  -0.001298
    23  H   -0.000002  -0.000157  -0.004260  -0.001561   0.542181  -0.027556
    24  H    0.006284  -0.000066   0.006235  -0.001298  -0.027556   0.644605
    25  H   -0.000000  -0.000000  -0.000002  -0.000000  -0.000138  -0.000002
              25
     1  Br   0.001467
     2  C   -0.069404
     3  C    0.003988
     4  N   -0.000528
     5  C    0.004353
     6  N   -0.000124
     7  C    0.000004
     8  C   -0.000000
     9  C    0.000000
    10  C   -0.000000
    11  C    0.000051
    12  N   -0.052907
    13  C    0.394280
    14  H   -0.000170
    15  H   -0.000000
    16  H    0.000001
    17  H    0.000000
    18  H   -0.000000
    19  H   -0.000000
    20  H   -0.000000
    21  H   -0.000002
    22  H   -0.000000
    23  H   -0.000138
    24  H   -0.000002
    25  H    0.601415
 Mulliken charges:
               1
     1  Br  -0.132757
     2  C   -0.016091
     3  C    0.131666
     4  N   -0.499726
     5  C    0.689704
     6  N   -0.468219
     7  C   -0.055937
     8  C   -0.177248
     9  C   -0.186580
    10  C   -0.177265
    11  C   -0.055893
    12  N   -0.499756
    13  C    0.131652
    14  H    0.117716
    15  H    0.098118
    16  H    0.148112
    17  H    0.095420
    18  H    0.105137
    19  H    0.091627
    20  H    0.095817
    21  H    0.105159
    22  H    0.095417
    23  H    0.148092
    24  H    0.098120
    25  H    0.117715
 Sum of Mulliken charges =  -0.00000
 Mulliken charges with hydrogens summed into heavy atoms:
               1
     1  Br  -0.132757
     2  C   -0.016091
     3  C    0.249382
     4  N   -0.499726
     5  C    0.689704
     6  N   -0.468219
     7  C    0.190294
     8  C    0.023309
     9  C    0.000864
    10  C    0.023311
    11  C    0.190319
    12  N   -0.499756
    13  C    0.249366
 Electronic spatial extent (au):  <R**2>=           4690.1047
 Charge=             -0.0000 electrons
 Dipole moment (field-independent basis, Debye):
    X=              2.5428    Y=              0.0002    Z=              0.1018  Tot=              2.5449
 Quadrupole moment (field-independent basis, Debye-Ang):
   XX=            -83.5172   YY=            -87.8989   ZZ=            -89.4988
   XY=              0.0005   XZ=             -0.4026   YZ=              0.0025
 Traceless Quadrupole moment (field-independent basis, Debye-Ang):
   XX=              3.4545   YY=             -0.9273   ZZ=             -2.5272
   XY=              0.0005   XZ=             -0.4026   YZ=              0.0025
 Octapole moment (field-independent basis, Debye-Ang**2):
  XXX=            -77.4015  YYY=             -0.0029  ZZZ=              5.8552  XYY=            -40.3324
  XXY=              0.0031  XXZ=             -0.7444  XZZ=            -32.9022  YZZ=             -0.0058
  YYZ=              2.0063  XYZ=              0.0067
 Hexadecapole moment (field-independent basis, Debye-Ang**3):
 XXXX=          -4553.4850 YYYY=           -584.2360 ZZZZ=           -234.3371 XXXY=              0.0301
 XXXZ=            -47.2902 YYYX=              0.0258 YYYZ=              0.0122 ZZZX=            -24.6476
 ZZZY=             -0.0020 XXYY=           -849.9488 XXZZ=           -814.7248 YYZZ=           -142.8396
 XXYZ=              0.0000 YYXZ=            -10.6879 ZZXY=              0.0009
 N-N= 1.055088909257D+03 E-N=-9.437407773193D+03  KE= 3.066012397951D+03
 No NMR shielding tensors so no spin-rotation constants.
 Leave Link  601 at Tue Sep 17 09:55:17 2024, MaxMem=  1342177280 cpu:               0.6 elap:               0.1
 (Enter /groups/ReismanLab/Software/Gaussian16_RevC/Linux_Binary_AVX2-enabled-CPU/g16/l701.exe)
 ... and contract with generalized density number  0.
 Compute integral first derivatives.
 R6Disp: Adding Grimme-D3(BJ) dispersion energy 1st derivatives to the gradient.
 Leave Link  701 at Tue Sep 17 09:55:17 2024, MaxMem=  1342177280 cpu:               0.7 elap:               0.1
 (Enter /groups/ReismanLab/Software/Gaussian16_RevC/Linux_Binary_AVX2-enabled-CPU/g16/l702.exe)
 L702 exits ... SP integral derivatives will be done elsewhere.
 Leave Link  702 at Tue Sep 17 09:55:17 2024, MaxMem=  1342177280 cpu:               0.0 elap:               0.0
 (Enter /groups/ReismanLab/Software/Gaussian16_RevC/Linux_Binary_AVX2-enabled-CPU/g16/l703.exe)
 Integral derivatives from FoFJK, PRISM(SPDF).
 Compute integral first derivatives, UseDBF=F ICtDFT=           0.
 Calling FoFJK, ICntrl=      2127 FMM=F ISym2X=0 I1Cent= 0 IOpClX= 0 NMat=1 NMatS=1 NMatT=0.
 FoFJK:  IHMeth= 1 ICntrl=    2127 DoSepK=F KAlg= 0 I1Cent=           0 FoldK=F
 IRaf=         0 NMat=       1 IRICut=       1 DoRegI=T DoRafI=F ISym2E= 0 IDoP0=0 IntGTp=1.
 FoFCou: FMM=F IPFlag=           0 FMFlag=      100000 FMFlg1=         800
         NFxFlg=           0 DoJE=F BraDBF=F KetDBF=F FulRan=T
         wScrn=  0.000000 ICntrl=      2127 IOpCl=  0 I1Cent=           0 NGrid=           0
         NMat0=    1 NMatS0=      1 NMatT0=    0 NMatD0=    1 NMtDS0=    0 NMtDT0=    0
 Symmetry not used in FoFCou.
 Leave Link  703 at Tue Sep 17 09:55:21 2024, MaxMem=  1342177280 cpu:              35.3 elap:               4.5
 (Enter /groups/ReismanLab/Software/Gaussian16_RevC/Linux_Binary_AVX2-enabled-CPU/g16/l716.exe)
 Dipole        = 1.00042761D+00 7.27820404D-05 4.00496916D-02
 ***** Axes restored to original set *****
 -------------------------------------------------------------------
 Center     Atomic                   Forces (Hartrees/Bohr)
 Number     Number              X              Y              Z
 -------------------------------------------------------------------
      1       35           0.001619277   -0.000001376    0.000200129
      2        6           0.008385420   -0.000008369    0.000982870
      3        6           0.009085289   -0.000117092    0.001376523
      4        7          -0.012246852   -0.009558954   -0.000737933
      5        6           0.015305769   -0.000015706   -0.000532117
      6        7          -0.012150819   -0.000004115   -0.004831260
      7        6          -0.000626029   -0.010373053    0.003112780
      8        6          -0.003260418    0.000018773   -0.004556455
      9        6           0.001917598    0.000004278    0.006570671
     10        6          -0.003251463   -0.000028041   -0.004562178
     11        6          -0.000637135    0.010392825    0.003103396
     12        7          -0.012249930    0.009559074   -0.000687551
     13        6           0.009108912    0.000139008    0.001170436
     14        1           0.004294797   -0.002310870    0.000472847
     15        1          -0.000781509   -0.001134504   -0.001777707
     16        1          -0.001432738    0.000407418   -0.001958024
     17        1          -0.001074523   -0.003517451    0.000837943
     18        1           0.001907206   -0.001566616    0.002566943
     19        1          -0.003349560   -0.000001026   -0.002142241
     20        1          -0.003460920   -0.000000729    0.001169303
     21        1           0.001906633    0.001568675    0.002564135
     22        1          -0.001073784    0.003518521    0.000834306
     23        1          -0.001432911   -0.000412423   -0.001954941
     24        1          -0.000780754    0.001131567   -0.001772078
     25        1           0.004278445    0.002310186    0.000550204
 -------------------------------------------------------------------
 Cartesian Forces:  Max     0.015305769 RMS     0.004662710
 Leave Link  716 at Tue Sep 17 09:55:21 2024, MaxMem=  1342177280 cpu:               0.0 elap:               0.0
 (Enter /groups/ReismanLab/Software/Gaussian16_RevC/Linux_Binary_AVX2-enabled-CPU/g16/l103.exe)

 GradGradGradGradGradGradGradGradGradGradGradGradGradGradGradGradGradGrad
 Berny optimization.
 FormGI is forming the generalized inverse of G from B-inverse, IUseBI=4.
 Internal  Forces:  Max     0.027692473 RMS     0.004147065
 Search for a local minimum.
 Step number   1 out of a maximum of  150
 All quantities printed in internal units (Hartrees-Bohrs-Radians)
 RMS Force = .41471D-02 SwitMx=.10000D-02 MixMth= 1
 Mixed Optimization -- RFO/linear search
 Second derivative matrix not updated -- first step.
 ITU=  0
     Eigenvalues ---    0.00661   0.00662   0.01209   0.01569   0.02231
     Eigenvalues ---    0.02287   0.02390   0.02417   0.02443   0.02462
     Eigenvalues ---    0.02525   0.02571   0.02615   0.02955   0.04198
     Eigenvalues ---    0.04492   0.04615   0.05004   0.05102   0.05706
     Eigenvalues ---    0.06005   0.06304   0.06800   0.07855   0.07859
     Eigenvalues ---    0.07865   0.08176   0.09156   0.09227   0.09351
     Eigenvalues ---    0.11893   0.12317   0.15932   0.16000   0.16000
     Eigenvalues ---    0.16188   0.18300   0.22426   0.23182   0.23423
     Eigenvalues ---    0.24411   0.24997   0.24997   0.25000   0.28015
     Eigenvalues ---    0.28801   0.29013   0.29470   0.34095   0.34097
     Eigenvalues ---    0.34505   0.34627   0.34628   0.34670   0.34749
     Eigenvalues ---    0.34749   0.34882   0.34883   0.35708   0.35709
     Eigenvalues ---    0.37668   0.37913   0.44688   0.46512   0.53534
     Eigenvalues ---    0.54677   0.57876   0.60530   0.63911
 RFO step:  Lambda=-5.65881210D-03 EMin= 6.61490275D-03
 Linear search not attempted -- first point.
 Iteration  1 RMS(Cart)=  0.03338501 RMS(Int)=  0.00022154
 Iteration  2 RMS(Cart)=  0.00022712 RMS(Int)=  0.00008562
 Iteration  3 RMS(Cart)=  0.00000004 RMS(Int)=  0.00008562
 ITry= 1 IFail=0 DXMaxC= 1.16D-01 DCOld= 1.00D+10 DXMaxT= 3.00D-01 DXLimC= 3.00D+00 Rises=F
 Variable       Old X    -DE/DX   Delta X   Delta X   Delta X     New X
                                 (Linear)    (Quad)   (Total)
    R1        3.58859   0.00163   0.00000   0.00865   0.00865   3.59724
    R2        2.62531   0.00507   0.00000   0.00973   0.00970   2.63501
    R3        2.62526   0.00508   0.00000   0.00975   0.00972   2.63498
    R4        2.47972   0.01854   0.00000   0.02876   0.02876   2.50847
    R5        2.04539   0.00400   0.00000   0.01104   0.01104   2.05643
    R6        2.54467   0.01101   0.00000   0.02028   0.02032   2.56499
    R7        2.52661   0.02769   0.00000   0.04738   0.04738   2.57400
    R8        2.54463   0.01102   0.00000   0.02030   0.02033   2.56496
    R9        2.72868   0.01304   0.00000   0.03293   0.03301   2.76169
   R10        2.72864   0.01305   0.00000   0.03294   0.03302   2.76166
   R11        2.89033   0.00421   0.00000   0.01401   0.01401   2.90434
   R12        2.07167   0.00194   0.00000   0.00559   0.00559   2.07726
   R13        2.05866  -0.00122   0.00000  -0.00343  -0.00343   2.05523
   R14        2.88538   0.00607   0.00000   0.02001   0.01994   2.90532
   R15        2.06085   0.00349   0.00000   0.00987   0.00987   2.07072
   R16        2.06284   0.00325   0.00000   0.00922   0.00922   2.07207
   R17        2.88537   0.00607   0.00000   0.02002   0.01995   2.90532
   R18        2.06486   0.00374   0.00000   0.01066   0.01066   2.07552
   R19        2.06214   0.00293   0.00000   0.00831   0.00831   2.07045
   R20        2.89033   0.00420   0.00000   0.01399   0.01399   2.90433
   R21        2.06284   0.00325   0.00000   0.00922   0.00922   2.07206
   R22        2.06085   0.00349   0.00000   0.00987   0.00987   2.07072
   R23        2.05867  -0.00122   0.00000  -0.00343  -0.00343   2.05524
   R24        2.07169   0.00193   0.00000   0.00557   0.00557   2.07726
   R25        2.47975   0.01854   0.00000   0.02875   0.02875   2.50850
   R26        2.04541   0.00400   0.00000   0.01103   0.01103   2.05643
    A1        2.12043   0.00040   0.00000   0.00339   0.00341   2.12384
    A2        2.12040   0.00041   0.00000   0.00341   0.00343   2.12383
    A3        2.04235  -0.00081   0.00000  -0.00680  -0.00685   2.03549
    A4        2.12485   0.00217   0.00000   0.00739   0.00737   2.13222
    A5        2.12650  -0.00397   0.00000  -0.02112  -0.02112   2.10538
    A6        2.03183   0.00180   0.00000   0.01374   0.01374   2.04558
    A7        2.05261  -0.00049   0.00000  -0.00038  -0.00031   2.05230
    A8        2.05688   0.00130   0.00000   0.00406   0.00386   2.06074
    A9        2.16908  -0.00255   0.00000  -0.00728  -0.00738   2.16170
   A10        2.05699   0.00127   0.00000   0.00392   0.00372   2.06070
   A11        2.13236   0.00120   0.00000   0.00392   0.00393   2.13629
   A12        2.13238   0.00118   0.00000   0.00384   0.00386   2.13624
   A13        2.00343  -0.00241   0.00000  -0.00743  -0.00746   1.99597
   A14        1.91950   0.00011   0.00000   0.00937   0.00923   1.92873
   A15        1.89116   0.00013   0.00000  -0.00300  -0.00297   1.88819
   A16        1.88963   0.00019   0.00000   0.00707   0.00697   1.89660
   A17        1.91381  -0.00049   0.00000  -0.00704  -0.00700   1.90682
   A18        1.94057   0.00103   0.00000   0.00904   0.00893   1.94951
   A19        1.90833  -0.00098   0.00000  -0.01570  -0.01568   1.89265
   A20        1.91883   0.00132   0.00000   0.01463   0.01434   1.93317
   A21        1.91075  -0.00000   0.00000   0.00221   0.00212   1.91287
   A22        1.90231  -0.00119   0.00000  -0.01167  -0.01164   1.89067
   A23        1.92925   0.00007   0.00000   0.00700   0.00699   1.93624
   A24        1.91310   0.00024   0.00000   0.00084   0.00095   1.91405
   A25        1.88916  -0.00050   0.00000  -0.01372  -0.01377   1.87539
   A26        1.91725   0.00173   0.00000   0.01501   0.01449   1.93173
   A27        1.90985  -0.00088   0.00000  -0.01009  -0.00992   1.89993
   A28        1.92165   0.00032   0.00000   0.01119   0.01101   1.93266
   A29        1.90988  -0.00088   0.00000  -0.01011  -0.00995   1.89993
   A30        1.92163   0.00032   0.00000   0.01121   0.01103   1.93266
   A31        1.88320  -0.00068   0.00000  -0.01807  -0.01805   1.86515
   A32        1.91882   0.00133   0.00000   0.01463   0.01434   1.93316
   A33        1.91313   0.00024   0.00000   0.00083   0.00095   1.91407
   A34        1.92924   0.00007   0.00000   0.00700   0.00699   1.93623
   A35        1.90232  -0.00119   0.00000  -0.01167  -0.01163   1.89068
   A36        1.91073  -0.00000   0.00000   0.00221   0.00212   1.91285
   A37        1.88917  -0.00050   0.00000  -0.01372  -0.01377   1.87540
   A38        1.91966   0.00010   0.00000   0.00929   0.00915   1.92881
   A39        1.88964   0.00019   0.00000   0.00706   0.00696   1.89660
   A40        1.89106   0.00013   0.00000  -0.00295  -0.00292   1.88815
   A41        1.94052   0.00103   0.00000   0.00902   0.00892   1.94944
   A42        1.91380  -0.00049   0.00000  -0.00703  -0.00699   1.90681
   A43        1.90833  -0.00098   0.00000  -0.01567  -0.01564   1.89269
   A44        2.05256  -0.00048   0.00000  -0.00033  -0.00026   2.05230
   A45        2.12490   0.00216   0.00000   0.00734   0.00732   2.13223
   A46        2.12644  -0.00396   0.00000  -0.02107  -0.02106   2.10538
   A47        2.03184   0.00180   0.00000   0.01372   0.01373   2.04558
    D1        3.13997   0.00000   0.00000   0.00008   0.00008   3.14006
    D2        0.00103  -0.00002   0.00000  -0.00076  -0.00076   0.00027
    D3        0.00218   0.00007   0.00000   0.00252   0.00252   0.00470
    D4       -3.13676   0.00004   0.00000   0.00167   0.00168  -3.13508
    D5       -3.14047   0.00002   0.00000   0.00072   0.00072  -3.13975
    D6        0.00052  -0.00003   0.00000  -0.00117  -0.00116  -0.00064
    D7       -0.00268  -0.00005   0.00000  -0.00172  -0.00172  -0.00439
    D8        3.13831  -0.00010   0.00000  -0.00361  -0.00360   3.13471
    D9        0.00181   0.00011   0.00000   0.00325   0.00325   0.00505
   D10        3.14089   0.00013   0.00000   0.00400   0.00401  -3.13829
   D11        3.11146   0.00075   0.00000   0.02443   0.02437   3.13583
   D12       -0.00581  -0.00033   0.00000  -0.01054  -0.01049  -0.01629
   D13        0.10993  -0.00025   0.00000  -0.01734  -0.01741   0.09253
   D14        3.05651  -0.00073   0.00000  -0.01601  -0.01607   3.04044
   D15       -3.05440   0.00070   0.00000   0.01519   0.01524  -3.03915
   D16       -0.10782   0.00023   0.00000   0.01651   0.01658  -0.09124
   D17        0.00533   0.00036   0.00000   0.01131   0.01125   0.01658
   D18       -3.11193  -0.00072   0.00000  -0.02367  -0.02361  -3.13554
   D19        1.94251   0.00076   0.00000   0.01139   0.01143   1.95394
   D20       -2.24895   0.00031   0.00000   0.00653   0.00653  -2.24243
   D21       -0.18097  -0.00068   0.00000  -0.00989  -0.00993  -0.19090
   D22       -1.01742   0.00087   0.00000   0.00909   0.00912  -1.00830
   D23        1.07431   0.00041   0.00000   0.00423   0.00422   1.07852
   D24       -3.14089  -0.00058   0.00000  -0.01220  -0.01224   3.13006
   D25       -1.94260  -0.00077   0.00000  -0.01135  -0.01138  -1.95398
   D26        0.18091   0.00068   0.00000   0.00988   0.00991   0.19083
   D27        2.24885  -0.00031   0.00000  -0.00649  -0.00648   2.24237
   D28        1.01733  -0.00087   0.00000  -0.00903  -0.00906   1.00826
   D29        3.14084   0.00058   0.00000   0.01220   0.01223  -3.13012
   D30       -1.07441  -0.00041   0.00000  -0.00417  -0.00416  -1.07857
   D31        0.97417  -0.00057   0.00000  -0.02172  -0.02185   0.95233
   D32        3.09671   0.00036   0.00000  -0.00227  -0.00235   3.09436
   D33       -1.12312  -0.00094   0.00000  -0.02442  -0.02443  -1.14755
   D34       -1.10373  -0.00049   0.00000  -0.01943  -0.01949  -1.12322
   D35        1.01881   0.00044   0.00000   0.00002   0.00001   1.01882
   D36        3.08216  -0.00086   0.00000  -0.02213  -0.02207   3.06009
   D37        3.06699   0.00040   0.00000  -0.00092  -0.00095   3.06603
   D38       -1.09366   0.00133   0.00000   0.01853   0.01854  -1.07512
   D39        0.96969   0.00003   0.00000  -0.00362  -0.00354   0.96615
   D40       -0.98025   0.00157   0.00000   0.04396   0.04409  -0.93616
   D41        1.11681   0.00101   0.00000   0.03451   0.03453   1.15134
   D42       -3.09933  -0.00016   0.00000   0.01301   0.01302  -3.08631
   D43       -3.09171   0.00066   0.00000   0.02708   0.02715  -3.06456
   D44       -0.99465   0.00010   0.00000   0.01764   0.01758  -0.97706
   D45        1.07240  -0.00107   0.00000  -0.00387  -0.00393   1.06847
   D46        1.11049   0.00107   0.00000   0.03916   0.03924   1.14973
   D47       -3.07563   0.00052   0.00000   0.02972   0.02968  -3.04595
   D48       -1.00859  -0.00065   0.00000   0.00821   0.00817  -1.00043
   D49        0.98007  -0.00156   0.00000  -0.04386  -0.04399   0.93607
   D50       -1.11069  -0.00107   0.00000  -0.03907  -0.03915  -1.14984
   D51        3.09149  -0.00065   0.00000  -0.02699  -0.02705   3.06444
   D52       -1.11698  -0.00101   0.00000  -0.03443  -0.03445  -1.15142
   D53        3.07545  -0.00052   0.00000  -0.02964  -0.02960   3.04585
   D54        0.99444  -0.00010   0.00000  -0.01756  -0.01750   0.97694
   D55        3.09917   0.00017   0.00000  -0.01292  -0.01293   3.08623
   D56        1.00841   0.00065   0.00000  -0.00813  -0.00809   1.00032
   D57       -1.07260   0.00107   0.00000   0.00395   0.00401  -1.06859
   D58       -0.97391   0.00056   0.00000   0.02157   0.02170  -0.95221
   D59       -3.06680  -0.00040   0.00000   0.00084   0.00088  -3.06593
   D60        1.10396   0.00049   0.00000   0.01931   0.01937   1.12333
   D61        1.12342   0.00093   0.00000   0.02427   0.02428   1.14769
   D62       -0.96948  -0.00003   0.00000   0.00354   0.00346  -0.96602
   D63       -3.08190   0.00086   0.00000   0.02201   0.02195  -3.05995
   D64       -3.09641  -0.00036   0.00000   0.00212   0.00220  -3.09421
   D65        1.09387  -0.00133   0.00000  -0.01860  -0.01862   1.07526
   D66       -1.01855  -0.00044   0.00000  -0.00013  -0.00013  -1.01868
   D67       -0.00086  -0.00016   0.00000  -0.00477  -0.00478  -0.00564
   D68        3.14131  -0.00010   0.00000  -0.00297  -0.00295   3.13836
         Item               Value     Threshold  Converged?
 Maximum Force            0.027692     0.000450     NO 
 RMS     Force            0.004147     0.000300     NO 
 Maximum Displacement     0.116463     0.001800     NO 
 RMS     Displacement     0.033333     0.001200     NO 
[...]
 Alpha virt. eigenvalues --    0.16299   0.16844   0.17191   0.18367   0.20242
 Alpha virt. eigenvalues --    0.21767   0.21802   0.22229   0.22935   0.23824
 Alpha virt. eigenvalues --    0.23909   0.25307   0.25321   0.25889   0.26190
 Alpha virt. eigenvalues --    0.26859   0.27173   0.27827   0.28254   0.28424
 Alpha virt. eigenvalues --    0.30104   0.31537   0.32205   0.33279   0.33897
 Alpha virt. eigenvalues --    0.34957   0.35769   0.36557   0.37408   0.37585
 Alpha virt. eigenvalues --    0.37892   0.38082   0.38853   0.41512   0.41814
 Alpha virt. eigenvalues --    0.41821   0.42599   0.44005   0.44115   0.44669
 Alpha virt. eigenvalues --    0.45117   0.45363   0.46494   0.46658   0.47136
 Alpha virt. eigenvalues --    0.48098   0.48220   0.48449   0.49106   0.50340
 Alpha virt. eigenvalues --    0.50681   0.51244   0.51971   0.52899   0.53643
 Alpha virt. eigenvalues --    0.54280   0.54708   0.55413   0.57307   0.58180
 Alpha virt. eigenvalues --    0.60695   0.61042   0.61584   0.62761   0.63545
 Alpha virt. eigenvalues --    0.64307   0.65790   0.66104   0.67098   0.67119
 Alpha virt. eigenvalues --    0.69552   0.70729   0.71175   0.71214   0.72899
 Alpha virt. eigenvalues --    0.73936   0.74656   0.75203   0.76059   0.76729
 Alpha virt. eigenvalues --    0.79747   0.80027   0.82264   0.82707   0.84340
 Alpha virt. eigenvalues --    0.85348   0.87640   0.88550   0.89970   0.91765
 Alpha virt. eigenvalues --    0.92576   0.95723   0.95757   0.96461   0.97000
 Alpha virt. eigenvalues --    0.98284   0.98576   1.01135   1.02446   1.03751
 Alpha virt. eigenvalues --    1.04005   1.06730   1.09350   1.09521   1.10126
 Alpha virt. eigenvalues --    1.12493   1.13570   1.14295   1.14560   1.17334
 Alpha virt. eigenvalues --    1.17911   1.18899   1.20384   1.22576   1.22875
 Alpha virt. eigenvalues --    1.25139   1.25744   1.26587   1.27672   1.27955
 Alpha virt. eigenvalues --    1.30383   1.31139   1.32922   1.33385   1.36087
 Alpha virt. eigenvalues --    1.37190   1.39518   1.39812   1.40368   1.42259
 Alpha virt. eigenvalues --    1.45030   1.45485   1.46170   1.47225   1.48788
 Alpha virt. eigenvalues --    1.50399   1.51901   1.53742   1.55687   1.56274
 Alpha virt. eigenvalues --    1.57168   1.57386   1.57981   1.58149   1.59068
 Alpha virt. eigenvalues --    1.59803   1.60690   1.61065   1.62442   1.63244
 Alpha virt. eigenvalues --    1.64478   1.64857   1.65619   1.66671   1.68206
 Alpha virt. eigenvalues --    1.68216   1.69699   1.70825   1.70978   1.72183
 Alpha virt. eigenvalues --    1.72694   1.73017   1.73544   1.74896   1.75967
 Alpha virt. eigenvalues --    1.77321   1.78335   1.78581   1.80098   1.80698
 Alpha virt. eigenvalues --    1.83672   1.84012   1.84403   1.85948   1.87261
 Alpha virt. eigenvalues --    1.89381   1.90650   1.91799   1.92548   1.93211
 Alpha virt. eigenvalues --    1.96099   1.96501   1.99224   2.00377   2.01448
 Alpha virt. eigenvalues --    2.02202   2.02861   2.03245   2.05133   2.06719
 Alpha virt. eigenvalues --    2.08959   2.13775   2.14249   2.15903   2.16266
 Alpha virt. eigenvalues --    2.19708   2.21467   2.24269   2.25781   2.25819
 Alpha virt. eigenvalues --    2.27395   2.31222   2.31852   2.33543   2.36990
 Alpha virt. eigenvalues --    2.37151   2.38584   2.38713   2.40308   2.42846
 Alpha virt. eigenvalues --    2.43907   2.44281   2.44965   2.45776   2.47198
 Alpha virt. eigenvalues --    2.49610   2.51099   2.52536   2.55327   2.55362
 Alpha virt. eigenvalues --    2.56743   2.56974   2.57624   2.58176   2.59163
 Alpha virt. eigenvalues --    2.59835   2.60850   2.62434   2.63387   2.65154
 Alpha virt. eigenvalues --    2.67397   2.68425   2.69417   2.69899   2.70273
 Alpha virt. eigenvalues --    2.70623   2.71635   2.74298   2.74669   2.75474
 Alpha virt. eigenvalues --    2.76613   2.77786   2.79897   2.81058   2.82920
 Alpha virt. eigenvalues --    2.83004   2.87232   2.87440   2.88132   2.89386
 Alpha virt. eigenvalues --    2.89469   2.92252   2.95646   2.95741   2.98256
 Alpha virt. eigenvalues --    2.99048   3.00397   3.00960   3.01713   3.03704
 Alpha virt. eigenvalues --    3.05174   3.05681   3.08309   3.08692   3.09318
 Alpha virt. eigenvalues --    3.10210   3.11444   3.13280   3.15058   3.17667
 Alpha virt. eigenvalues --    3.19972   3.20705   3.21150   3.21269   3.21851
 Alpha virt. eigenvalues --    3.23396   3.24115   3.25938   3.26071   3.27951
 Alpha virt. eigenvalues --    3.29988   3.30623   3.31004   3.32506   3.34256
 Alpha virt. eigenvalues --    3.35287   3.35673   3.36455   3.37262   3.37911
 Alpha virt. eigenvalues --    3.39780   3.40070   3.41009   3.41320   3.43476
 Alpha virt. eigenvalues --    3.43635   3.44426   3.45154   3.47036   3.48242
 Alpha virt. eigenvalues --    3.50369   3.50674   3.54832   3.55215   3.55438
 Alpha virt. eigenvalues --    3.57011   3.57905   3.61483   3.62601   3.63046
 Alpha virt. eigenvalues --    3.65891   3.66790   3.72149   3.72278   3.74479
 Alpha virt. eigenvalues --    3.75068   3.75099   3.81385   3.82605   3.85777
 Alpha virt. eigenvalues --    3.85866   3.87165   3.91356   3.92923   3.95235
 Alpha virt. eigenvalues --    3.97869   3.98238   3.99026   4.01296   4.01652
 Alpha virt. eigenvalues --    4.03391   4.04274   4.05198   4.07829   4.08719
 Alpha virt. eigenvalues --    4.11984   4.13130   4.13470   4.14152   4.17432
 Alpha virt. eigenvalues --    4.19106   4.20282   4.21525   4.22251   4.24472
 Alpha virt. eigenvalues --    4.31341   4.32006   4.32424   4.32863   4.35293
 Alpha virt. eigenvalues --    4.37376   4.42254   4.42823   4.44141   4.44527
 Alpha virt. eigenvalues --    4.46502   4.50939   4.54937   4.58033   4.61197
 Alpha virt. eigenvalues --    4.62584   4.64288   4.67247   4.68035   4.69263
 Alpha virt. eigenvalues --    4.71796   4.74176   4.75585   4.80276   4.81827
 Alpha virt. eigenvalues --    4.85110   4.89603   4.90046   4.93816   4.98580
 Alpha virt. eigenvalues --    4.98945   5.01825   5.07280   5.08613   5.10010
 Alpha virt. eigenvalues --    5.14664   5.16024   5.19098   5.23011   5.24259
 Alpha virt. eigenvalues --    5.26229   5.27742   5.34805   5.36842   5.37479
 Alpha virt. eigenvalues --    5.42035   5.42245   5.44497   5.47600   5.57870
 Alpha virt. eigenvalues --    5.66799   5.68193   5.70428   5.73493   5.86379
 Alpha virt. eigenvalues --    5.98100   6.00140   6.45811   7.85209  22.53847
 Alpha virt. eigenvalues --   22.58918  22.62874  22.63814  22.65512  22.76066
 Alpha virt. eigenvalues --   22.80738  23.00016  23.38469  32.53025  32.67393
 Alpha virt. eigenvalues --   33.13795
          Condensed to atoms (all electrons):
               1          2          3          4          5          6
     1  Br  34.906426   0.324110  -0.069672   0.007553   0.000667  -0.000012
     2  C    0.324110   5.062893   0.457628  -0.046812  -0.052218   0.000497
     3  C   -0.069672   0.457628   4.842338   0.535147  -0.092182   0.004081
     4  N    0.007553  -0.046812   0.535147   6.658412   0.419688  -0.110217
     5  C    0.000667  -0.052218  -0.092182   0.419688   4.656259   0.443063
     6  N   -0.000012   0.000497   0.004081  -0.110217   0.443063   6.657558
     7  C   -0.000003  -0.000262  -0.001552  -0.031596  -0.053352   0.231097
     8  C    0.000000  -0.000189   0.000441  -0.000362   0.004847  -0.037844
     9  C    0.000000   0.000001  -0.000065   0.000281  -0.003505  -0.022266
    10  C    0.000000  -0.000189   0.000328   0.000176   0.004850  -0.037851
    11  C   -0.000003  -0.000262  -0.001063   0.002431  -0.053358   0.231105
    12  N    0.007553  -0.046806  -0.028473  -0.059708   0.419681  -0.110232
    13  C   -0.069673   0.457623  -0.024111  -0.028470  -0.092186   0.004081
    14  H   -0.000541  -0.073949   0.438157  -0.031883   0.008736   0.000053
    15  H   -0.000000   0.000005   0.000107   0.001716   0.004117  -0.047671
    16  H   -0.000010   0.000637   0.000845   0.021138  -0.026174  -0.022076
    17  H   -0.000000   0.000008  -0.000012  -0.000113  -0.000181   0.007953
    18  H   -0.000001  -0.000055   0.000433   0.002603   0.000943  -0.002845
    19  H   -0.000000  -0.000001   0.000004   0.000002  -0.000170  -0.000848
    20  H   -0.000000  -0.000001   0.000002  -0.000002   0.000185  -0.001276
    21  H   -0.000001  -0.000055   0.000060  -0.000070   0.000944  -0.002843
    22  H   -0.000000   0.000008  -0.000007   0.000014  -0.000181   0.007954
    23  H   -0.000010   0.000637  -0.000246   0.000420  -0.026182  -0.022075
    24  H   -0.000000   0.000005   0.000025   0.000030   0.004116  -0.047669
    25  H   -0.000541  -0.073947   0.004614  -0.002117   0.008737   0.000053
               7          8          9         10         11         12
     1  Br  -0.000003   0.000000   0.000000   0.000000  -0.000003   0.007553
     2  C   -0.000262  -0.000189   0.000001  -0.000189  -0.000262  -0.046806
     3  C   -0.001552   0.000441  -0.000065   0.000328  -0.001063  -0.028473
     4  N   -0.031596  -0.000362   0.000281   0.000176   0.002431  -0.059708
     5  C   -0.053352   0.004847  -0.003505   0.004850  -0.053358   0.419681
     6  N    0.231097  -0.037844  -0.022266  -0.037851   0.231105  -0.110232
     7  C    5.198126   0.228690  -0.033720  -0.003326  -0.050739   0.002432
     8  C    0.228690   5.215281   0.244775  -0.037841  -0.003323   0.000174
     9  C   -0.033720   0.244775   5.213106   0.244772  -0.033718   0.000280
    10  C   -0.003326  -0.037841   0.244772   5.215277   0.228686  -0.000359
    11  C   -0.050739  -0.003323  -0.033718   0.228686   5.198157  -0.031620
    12  N    0.002432   0.000174   0.000280  -0.000359  -0.031620   6.658450
    13  C   -0.001063   0.000328  -0.000065   0.000441  -0.001553   0.535151
    14  H    0.000277   0.000011  -0.000000  -0.000000   0.000036  -0.002117
    15  H    0.439246  -0.066257  -0.008025  -0.001748  -0.005891   0.000031
    16  H    0.425697  -0.042385   0.006583  -0.001062   0.004720   0.000420
    17  H   -0.048040   0.432779  -0.050441   0.009337  -0.001354   0.000014
    18  H   -0.043289   0.424715  -0.049008  -0.002209   0.001825  -0.000069
    19  H    0.002183  -0.053830   0.429566  -0.053832   0.002184   0.000002
    20  H    0.007729  -0.042233   0.434642  -0.042233   0.007728  -0.000002
    21  H    0.001824  -0.002208  -0.049010   0.424714  -0.043288   0.002601
    22  H   -0.001354   0.009336  -0.050442   0.432779  -0.048041  -0.000113
    23  H    0.004719  -0.001062   0.006583  -0.042385   0.425709   0.021140
    24  H   -0.005890  -0.001749  -0.008024  -0.066253   0.439243   0.001718
    25  H    0.000036  -0.000000  -0.000000   0.000011   0.000277  -0.031883
              13         14         15         16         17         18
     1  Br  -0.069673  -0.000541  -0.000000  -0.000010  -0.000000  -0.000001
     2  C    0.457623  -0.073949   0.000005   0.000637   0.000008  -0.000055
     3  C   -0.024111   0.438157   0.000107   0.000845  -0.000012   0.000433
     4  N   -0.028470  -0.031883   0.001716   0.021138  -0.000113   0.002603
     5  C   -0.092186   0.008736   0.004117  -0.026174  -0.000181   0.000943
     6  N    0.004081   0.000053  -0.047671  -0.022076   0.007953  -0.002845
     7  C   -0.001063   0.000277   0.439246   0.425697  -0.048040  -0.043289
     8  C    0.000328   0.000011  -0.066257  -0.042385   0.432779   0.424715
     9  C   -0.000065  -0.000000  -0.008025   0.006583  -0.050441  -0.049008
    10  C    0.000441  -0.000000  -0.001748  -0.001062   0.009337  -0.002209
    11  C   -0.001553   0.000036  -0.005891   0.004720  -0.001354   0.001825
    12  N    0.535151  -0.002117   0.000031   0.000420   0.000014  -0.000069
    13  C    4.842347   0.004614   0.000025  -0.000245  -0.000007   0.000060
    14  H    0.004614   0.478446  -0.000008  -0.000426  -0.000001  -0.000010
    15  H    0.000025  -0.000008   0.513295  -0.011441   0.002143   0.005668
    16  H   -0.000245  -0.000426  -0.011441   0.462532  -0.002877  -0.002307
    17  H   -0.000007  -0.000001   0.002143  -0.002877   0.526403  -0.016057
    18  H    0.000060  -0.000010   0.005668  -0.002307  -0.016057   0.517912
    19  H    0.000004   0.000000   0.002183  -0.000056  -0.002794   0.006444
    20  H    0.000002   0.000000  -0.000256  -0.000246  -0.005106  -0.003619
    21  H    0.000433   0.000001   0.000027  -0.000100  -0.000157   0.001857
    22  H   -0.000012   0.000000   0.000169   0.000123  -0.000141  -0.000157
    23  H    0.000845   0.000007   0.000234  -0.000351   0.000123  -0.000100
    24  H    0.000107  -0.000000   0.003908   0.000235   0.000169   0.000027
    25  H    0.438155  -0.000128  -0.000000   0.000007   0.000000   0.000001
              19         20         21         22         23         24
     1  Br  -0.000000  -0.000000  -0.000001  -0.000000  -0.000010  -0.000000
     2  C   -0.000001  -0.000001  -0.000055   0.000008   0.000637   0.000005
     3  C    0.000004   0.000002   0.000060  -0.000007  -0.000246   0.000025
     4  N    0.000002  -0.000002  -0.000070   0.000014   0.000420   0.000030
     5  C   -0.000170   0.000185   0.000944  -0.000181  -0.026182   0.004116
     6  N   -0.000848  -0.001276  -0.002843   0.007954  -0.022075  -0.047669
     7  C    0.002183   0.007729   0.001824  -0.001354   0.004719  -0.005890
     8  C   -0.053830  -0.042233  -0.002208   0.009336  -0.001062  -0.001749
     9  C    0.429566   0.434642  -0.049010  -0.050442   0.006583  -0.008024
    10  C   -0.053832  -0.042233   0.424714   0.432779  -0.042385  -0.066253
    11  C    0.002184   0.007728  -0.043288  -0.048041   0.425709   0.439243
    12  N    0.000002  -0.000002   0.002601  -0.000113   0.021140   0.001718
    13  C    0.000004   0.000002   0.000433  -0.000012   0.000845   0.000107
    14  H    0.000000   0.000000   0.000001   0.000000   0.000007  -0.000000
    15  H    0.002183  -0.000256   0.000027   0.000169   0.000234   0.003908
    16  H   -0.000056  -0.000246  -0.000100   0.000123  -0.000351   0.000235
    17  H   -0.002794  -0.005106  -0.000157  -0.000141   0.000123   0.000169
    18  H    0.006444  -0.003619   0.001857  -0.000157  -0.000100   0.000027
    19  H    0.536697  -0.020374   0.006445  -0.002794  -0.000056   0.002183
    20  H   -0.020374   0.523787  -0.003619  -0.005106  -0.000246  -0.000256
    21  H    0.006445  -0.003619   0.517920  -0.016058  -0.002307   0.005668
    22  H   -0.002794  -0.005106  -0.016058   0.526404  -0.002877   0.002143
    23  H   -0.000056  -0.000246  -0.002307  -0.002877   0.462512  -0.011442
    24  H    0.002183  -0.000256   0.005668   0.002143  -0.011442   0.513298
    25  H    0.000000   0.000000  -0.000010  -0.000001  -0.000427  -0.000008
              25
     1  Br  -0.000541
     2  C   -0.073947
     3  C    0.004614
     4  N   -0.002117
     5  C    0.008737
     6  N    0.000053
     7  C    0.000036
     8  C   -0.000000
     9  C   -0.000000
    10  C    0.000011
    11  C    0.000277
    12  N   -0.031883
    13  C    0.438155
    14  H   -0.000128
    15  H   -0.000000
    16  H    0.000007
    17  H    0.000000
    18  H    0.000001
    19  H    0.000000
    20  H    0.000000
    21  H   -0.000010
    22  H   -0.000001
    23  H   -0.000427
    24  H   -0.000008
    25  H    0.478446
 Mulliken charges:
               1
     1  Br  -0.105840
     2  C   -0.009306
     3  C   -0.066829
     4  N   -0.338261
     5  C    0.422858
     6  N   -0.121773
     7  C   -0.267869
     8  C   -0.272093
     9  C   -0.272300
    10  C   -0.272084
    11  C   -0.267889
    12  N   -0.338263
    13  C   -0.066830
    14  H    0.178727
    15  H    0.168421
    16  H    0.186818
    17  H    0.148352
    18  H    0.157238
    19  H    0.146858
    20  H    0.150501
    21  H    0.157233
    22  H    0.148353
    23  H    0.186834
    24  H    0.168416
    25  H    0.178726
 Sum of Mulliken charges =  -0.00000
 Mulliken charges with hydrogens summed into heavy atoms:
               1
     1  Br  -0.105840
     2  C   -0.009306
     3  C    0.111898
     4  N   -0.338261
     5  C    0.422858
     6  N   -0.121773
     7  C    0.087371
     8  C    0.033497
     9  C    0.025059
    10  C    0.033502
    11  C    0.087362
    12  N   -0.338263
    13  C    0.111896
 Electronic spatial extent (au):  <R**2>=           4705.1671
 Charge=             -0.0000 electrons
 Dipole moment (field-independent basis, Debye):
    X=              2.7422    Y=             -0.0001    Z=              0.2230  Tot=              2.7512
 Quadrupole moment (field-independent basis, Debye-Ang):
   XX=            -82.9361   YY=            -88.6133   ZZ=            -91.4858
   XY=             -0.0001   XZ=             -0.3097   YZ=             -0.0004
 Traceless Quadrupole moment (field-independent basis, Debye-Ang):
   XX=              4.7423   YY=             -0.9349   ZZ=             -3.8074
   XY=             -0.0001   XZ=             -0.3097   YZ=             -0.0004
 Octapole moment (field-independent basis, Debye-Ang**2):
  XXX=            -62.9955  YYY=             -0.0003  ZZZ=              7.2779  XYY=            -40.3651
  XXY=             -0.0000  XXZ=             -0.8763  XZZ=            -31.6776  YZZ=              0.0009
  YYZ=              2.4221  XYZ=             -0.0019
 Hexadecapole moment (field-independent basis, Debye-Ang**3):
 XXXX=          -4585.5744 YYYY=           -604.0519 ZZZZ=           -268.9899 XXXY=              0.0019
 XXXZ=            -52.6410 YYYX=             -0.0028 YYYZ=             -0.0007 ZZZX=            -27.4791
 ZZZY=             -0.0002 XXYY=           -852.9558 XXZZ=           -827.4102 YYZZ=           -153.4565
 XXYZ=             -0.0001 YYXZ=            -11.8438 ZZXY=              0.0004
 N-N= 1.049427800725D+03 E-N=-9.446719530227D+03  KE= 3.082478593012D+03
 Calculating spin-rotation constants.
 Leave Link  601 at Tue Sep 17 11:17:05 2024, MaxMem=  1342177280 cpu:               6.3 elap:               6.3
 (Enter /groups/ReismanLab/Software/Gaussian16_RevC/Linux_Binary_AVX2-enabled-CPU/g16/l9999.exe)
 Unable to Open any file for archive entry.
 1\1\GINC-HPC-35-27\SP\RM062X\def2TZVP\C9H12Br1N3\MANTIND\17-Sep-2024\0
 \\#p M062X/def2tzvp geom=check guess=read scf(xqc,tight) integral(grid
 =ultrafine) scrf(SMD, solvent=1,4-Dioxane) nmr=giao\\spe\\0,1\Br,0,3.5
 135791488,0.0002735946,0.3021252988\C,0,1.6371782482,0.000058107,-0.00
 23981196\C,0,0.9162536912,-1.1873107238,-0.1139526912\N,0,-0.395173394
 3,-1.2019549843,-0.3224336625\C,0,-1.013120115,-0.0002288319,-0.429344
 1934\N,0,-2.3537586907,-0.0003471408,-0.6761932249\C,0,-3.1443934675,-
 1.2289560019,-0.6306233833\C,0,-4.0018553748,-1.2653353885,0.640954027
 9\C,0,-4.8628428841,0.0002898904,0.7572970814\C,0,-4.0018337865,1.2657
 97287,0.6398531271\C,0,-3.1443608809,1.2283172609,-0.6316867837\N,0,-0
 .3951926605,1.2016425967,-0.323941075\C,0,0.9162233811,1.1872782854,-0
 .1154163631\H,0,1.4153755605,-2.1500204301,-0.0285273884\H,0,-3.793453
 9274,-1.2442405074,-1.5171634491\H,0,-2.466542778,-2.0779462039,-0.684
 4218644\H,0,-4.6310168636,-2.1626894233,0.6328732162\H,0,-3.3345480433
 ,-1.3442561008,1.5082853763\H,0,-5.6108385697,-0.0000552184,-0.0482040
 263\H,0,-5.4184390417,0.0007112123,1.7013124896\H,0,-3.3345363914,1.34
 54580265,1.5071254144\H,0,-4.630980056,2.163155292,0.6309912904\H,0,-2
 .466470421,2.0772349676,-0.6861994801\H,0,-3.7934003431,1.2428890345,-
 1.5182533202\H,0,1.4153304235,2.1501004124,-0.0311760778\\Version=ES64
 L-G16RevC.02\State=1-A\HF=-3088.6256385\RMSD=1.056e-09\Dipole=-1.07986
 29,0.0000389,0.074409\Quadrupole=3.5191319,-0.6950865,-2.8240454,0.000
 2294,0.3085434,-0.0008048\PG=C01 [X(C9H12Br1N3)]\\@
 The archive entry for this job was punched.


 YOU CAN WIPE THE SLATE CLEAN, BUT YOU'LL STILL
 HAVE TO EAT A LITTLE CHALK DUST.
 Job cpu time:       0 days  0 hours 21 minutes 13.0 seconds.
 Elapsed time:       0 days  0 hours 21 minutes 17.0 seconds.
 File lengths (MBytes):  RWF=    320 Int=      0 D2E=      0 Chk=     32 Scr=     16
 Normal termination of Gaussian 16 at Tue Sep 17 11:17:05 2024.
