 Entering Gaussian System, Link 0=g16
 Input=smiles_00096_conf_0.gjf
 Output=smiles_00096_conf_0.log
 Initial command:
 /groups/ReismanLab/Software/Gaussian16_RevC/Linux_Binary_AVX2-enabled-CPU/g16/l1.exe "/central/groups/ReismanLab/DM/dft_final/smiles_00096/Gau-2419023.inp" -scrdir="/central/groups/ReismanLab/DM/dft_final/smiles_00096/"
 Entering Link 1 = /groups/ReismanLab/Software/Gaussian16_RevC/Linux_Binary_AVX2-enabled-CPU/g16/l1.exe PID=   2419032.
  
 Copyright (c) 1988-2021, Gaussian, Inc.  All Rights Reserved.
  
 This is part of the Gaussian(R) 16 program.  It is based on
 the Gaussian(R) 09 system (copyright 2009, Gaussian, Inc.),
 the Gaussian(R) 03 system (copyright 2003, Gaussian, Inc.),
 the Gaussian(R) 98 system (copyright 1998, Gaussian, Inc.),
 the Gaussian(R) 94 system (copyright 1995, Gaussian, Inc.),
 the Gaussian 92(TM) system (copyright 1992, Gaussian, Inc.),
 the Gaussian 90(TM) system (copyright 1990, Gaussian, Inc.),
 the Gaussian 88(TM) system (copyright 1988, Gaussian, Inc.),
 the Gaussian 86(TM) system (copyright 1986, Carnegie Mellon
 University), and the Gaussian 82(TM) system (copyright 1983,
 Carnegie Mellon University). Gaussian is a federally registered
 trademark of Gaussian, Inc.
  
 This software contains proprietary and confidential information,
 including trade secrets, belonging to Gaussian, Inc.
  
 This software is provided under written license and may be
 used, copied, transmitted, or stored only in accord with that
 written license.
  
 The following legend is applicable only to US Government
 contracts under FAR:
  
                    RESTRICTED RIGHTS LEGEND
  
 Use, reproduction and disclosure by the US Government is
 subject to restrictions as set forth in subparagraphs (a)
 and (c) of the Commercial Computer Software - Restricted
 Rights clause in FAR 52.227-19.
  
 Gaussian, Inc.
 340 Quinnipiac St., Bldg. 40, Wallingford CT 06492
  
  
 ---------------------------------------------------------------
 Warning -- This program may not be used in any manner that
 competes with the business of Gaussian, Inc. or will provide
 assistance to any competitor of Gaussian, Inc.  The licensee
 of this program is prohibited from giving any competitor of
 Gaussian, Inc. access to this program.  By using this program,
 the user acknowledges that Gaussian, Inc. is engaged in the
 business of creating and licensing software in the field of
 computational chemistry and represents and warrants to the
 licensee that it is not a competitor of Gaussian, Inc. and that
 it will not use this program in any manner prohibited above.
 ---------------------------------------------------------------
  

 Cite this work as:
 Gaussian 16, Revision C.02,
 M. J. Frisch, G. W. Trucks, H. B. Schlegel, G. E. Scuseria, 
 M. A. Robb, J. R. Cheeseman, G. Scalmani, V. Barone, 
 G. A. Petersson, H. Nakatsuji, X. Li, M. Caricato, A. V. Marenich, 
 J. Bloino, B. G. Janesko, R. Gomperts, B. Mennucci, H. P. Hratchian, 
 J. V. Ortiz, A. F. Izmaylov, J. L. Sonnenberg, D. Williams-Young, 
 F. Ding, F. Lipparini, F. Egidi, J. Goings, B. Peng, A. Petrone, 
 T. Henderson, D. Ranasinghe, V. G. Zakrzewski, J. Gao, N. Rega, 
 G. Zheng, W. Liang, M. Hada, M. Ehara, K. Toyota, R. Fukuda, 
 J. Hasegawa, M. Ishida, T. Nakajima, Y. Honda, O. Kitao, H. Nakai, 
 T. Vreven, K. Throssell, J. A. Montgomery, Jr., J. E. Peralta, 
 F. Ogliaro, M. J. Bearpark, J. J. Heyd, E. N. Brothers, K. N. Kudin, 
 V. N. Staroverov, T. A. Keith, R. Kobayashi, J. Normand, 
 K. Raghavachari, A. P. Rendell, J. C. Burant, S. S. Iyengar, 
 J. Tomasi, M. Cossi, J. M. Millam, M. Klene, C. Adamo, R. Cammi, 
 J. W. Ochterski, R. L. Martin, K. Morokuma, O. Farkas, 
 J. B. Foresman, and D. J. Fox, Gaussian, Inc., Wallingford CT, 2019.
 
 ******************************************
 Gaussian 16:  ES64L-G16RevC.02  7-Dec-2021
                17-Sep-2024 
 ******************************************
 %nprocshared=8
 Will use up to    8 processors via shared memory.
 %Mem=10GB
 %Chk=smiles_00096_conf_0.chk
 ----------------------------------------------------------------------
 #p B3LYP/6-31G(d,p) EmpiricalDispersion=GD3BJ opt freq scf(xqc,tight) 
 integral(grid=ultrafine)
 ----------------------------------------------------------------------
 1/18=20,19=15,26=4,38=1/1,3;
 2/9=110,12=2,17=6,18=5,40=1/2;
 3/5=1,6=6,7=101,11=2,25=1,30=1,71=1,74=-5,75=-5,124=41/1,2,3;
 4//1;
 5/5=2,8=3,13=1,32=2,38=5/2,8;
 6/7=2,8=2,9=2,10=2,28=1/1;
 7//1,2,3,16;
 1/18=20,19=15,26=4/3(2);
 2/9=110/2;
 99//99;
 2/9=110/2;
 3/5=1,6=6,7=101,11=2,25=1,30=1,71=1,74=-5,75=-5,124=41/1,2,3;
 4/5=5,16=3,69=1/1;
 5/5=2,8=3,13=1,32=2,38=5/2,8;
 7//1,2,3,16;
 1/18=20,19=15,26=4/3(-5);
 2/9=110/2;
 6/7=2,8=2,9=2,10=2,19=2,28=1/1;
 99/9=1/99;
 Leave Link    1 at Tue Sep 17 09:51:44 2024, MaxMem=  1342177280 cpu:               0.1 elap:               0.8
 (Enter /groups/ReismanLab/Software/Gaussian16_RevC/Linux_Binary_AVX2-enabled-CPU/g16/l101.exe)
 ----------------------------------
 opt-freq conformers_unique/conf_aa
 ----------------------------------
 Symbolic Z-matrix:
 Charge =  0 Multiplicity = 1
 O                    -4.04214  -0.34043  -0.00097 
 C                    -2.85817  -0.56479  -0.00022 
 C                    -2.20625  -1.93938   0.0008 
 C                    -0.69009  -1.71316   0.00026 
 C                    -0.53488  -0.22697   0.00026 
 C                     0.62203   0.52828   0.0002 
 Br                    2.32113  -0.33945  -0.00016 
 C                     0.55163   1.91338   0.00018 
 C                    -0.68286   2.548     0.00027 
 C                    -1.85528   1.81214   0.00021 
 C                    -1.76645   0.42724   0.00014 
 H                    -2.5453   -2.49033   0.87864 
 H                    -2.5458   -2.49253  -0.87543 
 H                    -0.208    -2.1483    0.87853 
 H                    -0.20846  -2.14813  -0.8784 
 H                     1.46128   2.49442  -0.00007 
 H                    -0.71864   3.62655   0.00041 
 H                    -2.82316   2.28839  -0.00005 
 
 ITRead=  0  0  0  0  0  0  0  0  0  0  0  0  0  0  0  0  0  0
 MicOpt= -1 -1 -1 -1 -1 -1 -1 -1 -1 -1 -1 -1 -1 -1 -1 -1 -1 -1
 NAtoms=     18 NQM=       18 NQMF=       0 NMMI=      0 NMMIF=      0
                NMic=       0 NMicF=      0.
                    Isotopes and Nuclear Properties:
 (Nuclear quadrupole moments (NQMom) in fm**2, nuclear magnetic moments (NMagM)
  in nuclear magnetons)

  Atom         1           2           3           4           5           6           7           8           9          10
 IAtWgt=          16          12          12          12          12          12          79          12          12          12
 AtmWgt=  15.9949146  12.0000000  12.0000000  12.0000000  12.0000000  12.0000000  78.9183361  12.0000000  12.0000000  12.0000000
 NucSpn=           0           0           0           0           0           0           3           0           0           0
 AtZEff=  -0.0000000  -0.0000000  -0.0000000  -0.0000000  -0.0000000  -0.0000000  -0.0000000  -0.0000000  -0.0000000  -0.0000000
 NQMom=    0.0000000   0.0000000   0.0000000   0.0000000   0.0000000   0.0000000  31.3000000   0.0000000   0.0000000   0.0000000
 NMagM=    0.0000000   0.0000000   0.0000000   0.0000000   0.0000000   0.0000000   2.1063990   0.0000000   0.0000000   0.0000000
 AtZNuc=   8.0000000   6.0000000   6.0000000   6.0000000   6.0000000   6.0000000  35.0000000   6.0000000   6.0000000   6.0000000

  Atom        11          12          13          14          15          16          17          18
 IAtWgt=          12           1           1           1           1           1           1           1
 AtmWgt=  12.0000000   1.0078250   1.0078250   1.0078250   1.0078250   1.0078250   1.0078250   1.0078250
 NucSpn=           0           1           1           1           1           1           1           1
 AtZEff=  -0.0000000  -0.0000000  -0.0000000  -0.0000000  -0.0000000  -0.0000000  -0.0000000  -0.0000000
 NQMom=    0.0000000   0.0000000   0.0000000   0.0000000   0.0000000   0.0000000   0.0000000   0.0000000
 NMagM=    0.0000000   2.7928460   2.7928460   2.7928460   2.7928460   2.7928460   2.7928460   2.7928460
 AtZNuc=   6.0000000   1.0000000   1.0000000   1.0000000   1.0000000   1.0000000   1.0000000   1.0000000
 Leave Link  101 at Tue Sep 17 09:51:45 2024, MaxMem=  1342177280 cpu:               0.2 elap:               0.5
 (Enter /groups/ReismanLab/Software/Gaussian16_RevC/Linux_Binary_AVX2-enabled-CPU/g16/l103.exe)

 GradGradGradGradGradGradGradGradGradGradGradGradGradGradGradGradGradGrad
 Berny optimization.
 Initialization pass.
                           ----------------------------
                           !    Initial Parameters    !
                           ! (Angstroms and Degrees)  !
 --------------------------                            --------------------------
 ! Name  Definition              Value          Derivative Info.                !
 --------------------------------------------------------------------------------
 ! R1    R(1,2)                  1.205          estimate D2E/DX2                !
 ! R2    R(2,3)                  1.5213         estimate D2E/DX2                !
 ! R3    R(2,11)                 1.4751         estimate D2E/DX2                !
 ! R4    R(3,4)                  1.5329         estimate D2E/DX2                !
 ! R5    R(3,12)                 1.0905         estimate D2E/DX2                !
 ! R6    R(3,13)                 1.0904         estimate D2E/DX2                !
 ! R7    R(4,5)                  1.4943         estimate D2E/DX2                !
 ! R8    R(4,14)                 1.0923         estimate D2E/DX2                !
 ! R9    R(4,15)                 1.0923         estimate D2E/DX2                !
 ! R10   R(5,6)                  1.3816         estimate D2E/DX2                !
 ! R11   R(5,11)                 1.3945         estimate D2E/DX2                !
 ! R12   R(6,7)                  1.9079         estimate D2E/DX2                !
 ! R13   R(6,8)                  1.3869         estimate D2E/DX2                !
 ! R14   R(8,9)                  1.3881         estimate D2E/DX2                !
 ! R15   R(8,16)                 1.0794         estimate D2E/DX2                !
 ! R16   R(9,10)                 1.3842         estimate D2E/DX2                !
 ! R17   R(9,17)                 1.0791         estimate D2E/DX2                !
 ! R18   R(10,11)                1.3877         estimate D2E/DX2                !
 ! R19   R(10,18)                1.0787         estimate D2E/DX2                !
 ! A1    A(1,2,3)              126.1035         estimate D2E/DX2                !
 ! A2    A(1,2,11)             127.0088         estimate D2E/DX2                !
 ! A3    A(3,2,11)             106.8876         estimate D2E/DX2                !
 ! A4    A(2,3,4)              106.887          estimate D2E/DX2                !
 ! A5    A(2,3,12)             108.8932         estimate D2E/DX2                !
 ! A6    A(2,3,13)             108.9273         estimate D2E/DX2                !
 ! A7    A(4,3,12)             112.4801         estimate D2E/DX2                !
 ! A8    A(4,3,13)             112.4923         estimate D2E/DX2                !
 ! A9    A(12,3,13)            107.0836         estimate D2E/DX2                !
 ! A10   A(3,4,5)              104.4483         estimate D2E/DX2                !
 ! A11   A(3,4,14)             112.1763         estimate D2E/DX2                !
 ! A12   A(3,4,15)             112.1856         estimate D2E/DX2                !
 ! A13   A(5,4,14)             110.5099         estimate D2E/DX2                !
 ! A14   A(5,4,15)             110.5023         estimate D2E/DX2                !
 ! A15   A(14,4,15)            107.0699         estimate D2E/DX2                !
 ! A16   A(4,5,6)              129.0992         estimate D2E/DX2                !
 ! A17   A(4,5,11)             112.0153         estimate D2E/DX2                !
 ! A18   A(6,5,11)             118.8856         estimate D2E/DX2                !
 ! A19   A(5,6,7)              119.8093         estimate D2E/DX2                !
 ! A20   A(5,6,8)              120.228          estimate D2E/DX2                !
 ! A21   A(7,6,8)              119.9627         estimate D2E/DX2                !
 ! A22   A(6,8,9)              120.1157         estimate D2E/DX2                !
 ! A23   A(6,8,16)             119.6592         estimate D2E/DX2                !
 ! A24   A(9,8,16)             120.2252         estimate D2E/DX2                !
 ! A25   A(8,9,10)             120.6797         estimate D2E/DX2                !
 ! A26   A(8,9,17)             119.1069         estimate D2E/DX2                !
 ! A27   A(10,9,17)            120.2134         estimate D2E/DX2                !
 ! A28   A(9,10,11)            118.4439         estimate D2E/DX2                !
 ! A29   A(9,10,18)            121.6859         estimate D2E/DX2                !
 ! A30   A(11,10,18)           119.8702         estimate D2E/DX2                !
 ! A31   A(2,11,5)             109.7618         estimate D2E/DX2                !
 ! A32   A(2,11,10)            128.5909         estimate D2E/DX2                !
 ! A33   A(5,11,10)            121.6473         estimate D2E/DX2                !
 ! D1    D(1,2,3,4)            179.9518         estimate D2E/DX2                !
 ! D2    D(1,2,3,12)           -58.2961         estimate D2E/DX2                !
 ! D3    D(1,2,3,13)            58.1657         estimate D2E/DX2                !
 ! D4    D(11,2,3,4)            -0.059          estimate D2E/DX2                !
 ! D5    D(11,2,3,12)          121.6931         estimate D2E/DX2                !
 ! D6    D(11,2,3,13)         -121.8451         estimate D2E/DX2                !
 ! D7    D(1,2,11,5)          -179.9668         estimate D2E/DX2                !
 ! D8    D(1,2,11,10)            0.0258         estimate D2E/DX2                !
 ! D9    D(3,2,11,5)             0.0441         estimate D2E/DX2                !
 ! D10   D(3,2,11,10)         -179.9633         estimate D2E/DX2                !
 ! D11   D(2,3,4,5)              0.0514         estimate D2E/DX2                !
 ! D12   D(2,3,4,14)           119.7697         estimate D2E/DX2                !
 ! D13   D(2,3,4,15)          -119.6627         estimate D2E/DX2                !
 ! D14   D(12,3,4,5)          -119.4106         estimate D2E/DX2                !
 ! D15   D(12,3,4,14)            0.3077         estimate D2E/DX2                !
 ! D16   D(12,3,4,15)          120.8752         estimate D2E/DX2                !
 ! D17   D(13,3,4,5)           119.5625         estimate D2E/DX2                !
 ! D18   D(13,3,4,14)         -120.7192         estimate D2E/DX2                !
 ! D19   D(13,3,4,15)           -0.1517         estimate D2E/DX2                !
 ! D20   D(3,4,5,6)            179.9829         estimate D2E/DX2                !
 ! D21   D(3,4,5,11)            -0.0262         estimate D2E/DX2                !
 ! D22   D(14,4,5,6)            59.1492         estimate D2E/DX2                !
 ! D23   D(14,4,5,11)         -120.8599         estimate D2E/DX2                !
 ! D24   D(15,4,5,6)           -59.1762         estimate D2E/DX2                !
 ! D25   D(15,4,5,11)          120.8147         estimate D2E/DX2                !
 ! D26   D(4,5,6,7)              0.0086         estimate D2E/DX2                !
 ! D27   D(4,5,6,8)            179.9985         estimate D2E/DX2                !
 ! D28   D(11,5,6,7)          -179.9818         estimate D2E/DX2                !
 ! D29   D(11,5,6,8)             0.0081         estimate D2E/DX2                !
 ! D30   D(4,5,11,2)            -0.0111         estimate D2E/DX2                !
 ! D31   D(4,5,11,10)          179.9957         estimate D2E/DX2                !
 ! D32   D(6,5,11,2)           179.9809         estimate D2E/DX2                !
 ! D33   D(6,5,11,10)           -0.0123         estimate D2E/DX2                !
 ! D34   D(5,6,8,9)              0.0017         estimate D2E/DX2                !
 ! D35   D(5,6,8,16)          -179.9881         estimate D2E/DX2                !
 ! D36   D(7,6,8,9)            179.9916         estimate D2E/DX2                !
 ! D37   D(7,6,8,16)             0.0019         estimate D2E/DX2                !
 ! D38   D(6,8,9,10)            -0.0078         estimate D2E/DX2                !
 ! D39   D(6,8,9,17)           179.9903         estimate D2E/DX2                !
 ! D40   D(16,8,9,10)          179.9819         estimate D2E/DX2                !
 ! D41   D(16,8,9,17)           -0.02           estimate D2E/DX2                !
 ! D42   D(8,9,10,11)            0.0038         estimate D2E/DX2                !
 ! D43   D(8,9,10,18)         -179.9798         estimate D2E/DX2                !
 ! D44   D(17,9,10,11)        -179.9944         estimate D2E/DX2                !
 ! D45   D(17,9,10,18)           0.0221         estimate D2E/DX2                !
 ! D46   D(9,10,11,2)         -179.9855         estimate D2E/DX2                !
 ! D47   D(9,10,11,5)            0.0064         estimate D2E/DX2                !
 ! D48   D(18,10,11,2)          -0.0016         estimate D2E/DX2                !
 ! D49   D(18,10,11,5)         179.9902         estimate D2E/DX2                !
 --------------------------------------------------------------------------------
 Trust Radius=3.00D-01 FncErr=1.00D-07 GrdErr=1.00D-06 EigMax=2.50D+02 EigMin=1.00D-04
 Number of steps in this run=    108 maximum allowed number of steps=    108.
 GradGradGradGradGradGradGradGradGradGradGradGradGradGradGradGradGradGrad

 Leave Link  103 at Tue Sep 17 09:51:45 2024, MaxMem=  1342177280 cpu:               0.1 elap:               0.0
 (Enter /groups/ReismanLab/Software/Gaussian16_RevC/Linux_Binary_AVX2-enabled-CPU/g16/l202.exe)
                          Input orientation:                          
 ---------------------------------------------------------------------
 Center     Atomic      Atomic             Coordinates (Angstroms)
 Number     Number       Type             X           Y           Z
 ---------------------------------------------------------------------
      1          8           0       -4.042137   -0.340435   -0.000966
      2          6           0       -2.858173   -0.564793   -0.000224
      3          6           0       -2.206252   -1.939384    0.000796
      4          6           0       -0.690092   -1.713163    0.000260
      5          6           0       -0.534884   -0.226971    0.000262
      6          6           0        0.622025    0.528281    0.000195
      7         35           0        2.321128   -0.339454   -0.000165
      8          6           0        0.551635    1.913381    0.000179
      9          6           0       -0.682856    2.547997    0.000265
     10          6           0       -1.855285    1.812136    0.000206
     11          6           0       -1.766454    0.427238    0.000138
     12          1           0       -2.545304   -2.490328    0.878638
     13          1           0       -2.545800   -2.492535   -0.875432
     14          1           0       -0.207996   -2.148299    0.878530
     15          1           0       -0.208457   -2.148130   -0.878405
     16          1           0        1.461281    2.494417   -0.000068
     17          1           0       -0.718645    3.626552    0.000410
     18          1           0       -2.823156    2.288391   -0.000052
 ---------------------------------------------------------------------
                    Distance matrix (angstroms):
                    1          2          3          4          5
     1  O    0.000000
     2  C    1.205034   0.000000
     3  C    2.434567   1.521349   0.000000
     4  C    3.622235   2.453432   1.532944   0.000000
     5  C    3.509088   2.347721   2.392870   1.494275   0.000000
     6  C    4.744373   3.647820   3.753468   2.597252   1.381609
     7  Br   6.363265   5.184201   4.801765   3.309762   2.858227
     8  C    5.116876   4.215226   4.738115   3.833236   2.400339
     9  C    4.430328   3.797560   4.738916   4.261166   2.778910
    10  C    3.068532   2.579840   3.767902   3.712871   2.429283
    11  C    2.401678   1.475119   2.407140   2.395803   1.394544
    12  H    2.763376   2.139619   1.090460   2.194845   3.152161
    13  H    2.763195   2.140036   1.090433   2.194974   3.153316
    14  H    4.329264   3.209851   2.192508   1.092300   2.137689
    15  H    4.328368   3.209230   2.192659   1.092347   2.137631
    16  H    6.190638   5.293056   5.754076   4.725689   3.375000
    17  H    5.175190   4.705842   5.761304   5.339791   3.857902
    18  H    2.897696   2.853399   4.272547   4.534578   3.400475
                    6          7          8          9         10
     6  C    0.000000
     7  Br   1.907856   0.000000
     8  C    1.386887   2.864677   0.000000
     9  C    2.404573   4.166689   1.388058   0.000000
    10  C    2.790224   4.698060   2.409048   1.384226   0.000000
    11  C    2.390615   4.158863   2.753571   2.381554   1.387744
    12  H    4.462693   5.392654   5.454848   5.442882   4.445106
    13  H    4.463985   5.393407   5.456454   5.444664   4.446768
    14  H    2.936748   3.231175   4.224427   4.801254   4.378363
    15  H    2.936803   3.231318   4.224396   4.801118   4.378095
    16  H    2.137766   2.961447   1.079379   2.144806   3.386017
    17  H    3.375897   4.996942   2.132737   1.079149   2.141041
    18  H    3.868755   5.776611   3.395562   2.155987   1.078700
                   11         12         13         14         15
    11  C    0.000000
    12  H    3.144926   0.000000
    13  H    3.146280   1.754071   0.000000
    14  H    3.135882   2.362201   2.942824   0.000000
    15  H    3.135557   2.943663   2.362583   1.756935   0.000000
    16  H    3.832949   6.455426   6.456984   5.011311   5.011262
    17  H    3.366528   6.443926   6.445837   5.863511   5.863409
    18  H    2.140212   4.866770   4.868313   5.224480   5.224067
                   16         17         18
    16  H    0.000000
    17  H    2.456380   0.000000
    18  H    4.289387   2.493921   0.000000
 Stoichiometry    C9H7BrO
 Framework group  C1[X(C9H7BrO)]
 Deg. of freedom    48
 Full point group                 C1      NOp   1
 Largest Abelian subgroup         C1      NOp   1
 Largest concise Abelian subgroup C1      NOp   1
                         Standard orientation:                         
 ---------------------------------------------------------------------
 Center     Atomic      Atomic             Coordinates (Angstroms)
 Number     Number       Type             X           Y           Z
 ---------------------------------------------------------------------
      1          8           0       -3.904167   -0.244344   -0.000991
      2          6           0       -2.726866   -0.501383   -0.000249
      3          6           0       -2.113237   -1.893490    0.000771
      4          6           0       -0.591397   -1.709316    0.000235
      5          6           0       -0.395118   -0.227988    0.000237
      6          6           0        0.782251    0.494955    0.000170
      7         35           0        2.456688   -0.419471   -0.000190
      8          6           0        0.750221    1.881473    0.000154
      9          6           0       -0.466233    2.550011    0.000240
     10          6           0       -1.658579    1.846880    0.000181
     11          6           0       -1.608110    0.460055    0.000113
     12          1           0       -2.467407   -2.434839    0.878613
     13          1           0       -2.467964   -2.437031   -0.875457
     14          1           0       -0.121528   -2.157628    0.878505
     15          1           0       -0.121984   -2.157447   -0.878430
     16          1           0        1.675599    2.437112   -0.000093
     17          1           0       -0.472159    3.629144    0.000385
     18          1           0       -2.612898    2.349740   -0.000077
 ---------------------------------------------------------------------
 Rotational constants (GHZ):           1.6184880           0.5201042           0.3955289
 Leave Link  202 at Tue Sep 17 09:51:46 2024, MaxMem=  1342177280 cpu:               0.0 elap:               0.3
 (Enter /groups/ReismanLab/Software/Gaussian16_RevC/Linux_Binary_AVX2-enabled-CPU/g16/l301.exe)
 Standard basis: 6-31G(d,p) (6D, 7F)
 Ernie: Thresh=  0.10000D-02 Tol=  0.10000D-05 Strict=F.
 There are   215 symmetry adapted cartesian basis functions of A   symmetry.
 There are   215 symmetry adapted basis functions of A   symmetry.
   215 basis functions,   412 primitive gaussians,   215 cartesian basis functions
    52 alpha electrons       52 beta electrons
       nuclear repulsion energy       815.8168290378 Hartrees.
 IExCor=  402 DFT=T Ex+Corr=B3LYP ExCW=0 ScaHFX=  0.200000
 ScaDFX=  0.800000  0.720000  1.000000  0.810000 ScalE2=  1.000000  1.000000
 IRadAn=      5 IRanWt=     -1 IRanGd=            0 ICorTp=0 IEmpDi=141
 NAtoms=   18 NActive=   18 NUniq=   18 SFac= 1.00D+00 NAtFMM=   60 NAOKFM=F Big=F
 Integral buffers will be    131072 words long.
 Raffenetti 2 integral format.
 Two-electron integral symmetry is turned on.
 R6Disp:  Grimme-D3(BJ) Dispersion energy=       -0.0400572691 Hartrees.
 Nuclear repulsion after empirical dispersion term =      815.7767717687 Hartrees.
 Leave Link  301 at Tue Sep 17 09:51:46 2024, MaxMem=  1342177280 cpu:               0.1 elap:               0.1
 (Enter /groups/ReismanLab/Software/Gaussian16_RevC/Linux_Binary_AVX2-enabled-CPU/g16/l302.exe)
 NPDir=0 NMtPBC=     1 NCelOv=     1 NCel=       1 NClECP=     1 NCelD=      1
         NCelK=      1 NCelE2=     1 NClLst=     1 CellRange=     0.0.
 One-electron integrals computed using PRISM.
 One-electron integral symmetry used in STVInt
 NBasis=   215 RedAO= T EigKep=  3.43D-04  NBF=   215
 NBsUse=   215 1.00D-06 EigRej= -1.00D+00 NBFU=   215
 Precomputing XC quadrature grid using
 IXCGrd= 4 IRadAn=           5 IRanWt=          -1 IRanGd=           0 AccXCQ= 0.00D+00.
 Generated NRdTot=       0 NPtTot=           0 NUsed=           0 NTot=          32
 NSgBfM=   214   214   214   214   214 MxSgAt=    18 MxSgA2=    18.
 Leave Link  302 at Tue Sep 17 09:51:46 2024, MaxMem=  1342177280 cpu:               1.0 elap:               0.2
 (Enter /groups/ReismanLab/Software/Gaussian16_RevC/Linux_Binary_AVX2-enabled-CPU/g16/l303.exe)
 DipDrv:  MaxL=1.
 Leave Link  303 at Tue Sep 17 09:51:46 2024, MaxMem=  1342177280 cpu:               0.1 elap:               0.1
 (Enter /groups/ReismanLab/Software/Gaussian16_RevC/Linux_Binary_AVX2-enabled-CPU/g16/l401.exe)
 ExpMin= 1.43D-01 ExpMax= 5.74D+05 ExpMxC= 5.74D+03 IAcc=3 IRadAn=         5 AccDes= 0.00D+00
 Harris functional with IExCor=  402 and IRadAn=       5 diagonalized for initial guess.
 HarFok:  IExCor=  402 AccDes= 0.00D+00 IRadAn=         5 IDoV= 1 UseB2=F ITyADJ=14
 ICtDFT=  3500011 ScaDFX=  1.000000  1.000000  1.000000  1.000000
 FoFCou: FMM=F IPFlag=           0 FMFlag=      100000 FMFlg1=           0
         NFxFlg=           0 DoJE=T BraDBF=F KetDBF=T FulRan=T
         wScrn=  0.000000 ICntrl=       500 IOpCl=  0 I1Cent=   200000004 NGrid=           0
         NMat0=    1 NMatS0=      1 NMatT0=    0 NMatD0=    1 NMtDS0=    0 NMtDT0=    0
 Petite list used in FoFCou.
 Harris En= -2994.28345536463    
 JPrj=0 DoOrth=F DoCkMO=F.
 Leave Link  401 at Tue Sep 17 09:51:47 2024, MaxMem=  1342177280 cpu:               4.3 elap:               1.0
 (Enter /groups/ReismanLab/Software/Gaussian16_RevC/Linux_Binary_AVX2-enabled-CPU/g16/l502.exe)
 Integral symmetry usage will be decided dynamically.
 Closed shell SCF:
 Using DIIS extrapolation, IDIIS=  1040.
 NGot=  1342177280 LenX=  1342080394 LenY=  1342033728
 Requested convergence on RMS density matrix=1.00D-08 within  32 cycles.
 Requested convergence on MAX density matrix=1.00D-06.
 Requested convergence on             energy=1.00D-06.
 No special actions if energy rises.
 Fock matrices will be formed incrementally for  20 cycles.
 Integral accuracy reduced to 1.0D-05 until final iterations.

 Cycle   1  Pass 0  IDiag  1:
 FoFJK:  IHMeth= 1 ICntrl=       0 DoSepK=F KAlg= 0 I1Cent=           0 FoldK=F
 IRaf= 900000000 NMat=       1 IRICut=       1 DoRegI=T DoRafI=F ISym2E= 0 IDoP0=0 IntGTp=1.
 FoFCou: FMM=F IPFlag=           0 FMFlag=      100000 FMFlg1=           0
         NFxFlg=           0 DoJE=F BraDBF=F KetDBF=F FulRan=T
         wScrn=  0.000000 ICntrl=         0 IOpCl=  0 I1Cent=           0 NGrid=           0
         NMat0=    1 NMatS0=      1 NMatT0=    0 NMatD0=    1 NMtDS0=    0 NMtDT0=    0
 Symmetry not used in FoFCou.
 E= -2993.92953183260    
 DIIS: error= 1.99D-01 at cycle   1 NSaved=   1.
 NSaved= 1 IEnMin= 1 EnMin= -2993.92953183260     IErMin= 1 ErrMin= 1.99D-01
 ErrMax= 1.99D-01  0.00D+00 EMaxC= 1.00D-01 BMatC= 5.91D-01 BMatP= 5.91D-01
 IDIUse=3 WtCom= 0.00D+00 WtEn= 1.00D+00
 Coeff-Com:  0.100D+01
 Coeff-En:   0.100D+01
 Coeff:      0.100D+01
 Gap=     0.244 Goal=   None    Shift=    0.000
 GapD=    0.244 DampG=1.000 DampE=0.250 DampFc=0.2500 IDamp=-1.
 Damping current iteration by 2.50D-01
 RMSDP=5.99D-03 MaxDP=1.78D-01              OVMax= 1.99D-01

 Cycle   2  Pass 0  IDiag  1:
 RMSU=  1.46D-03    CP:  9.92D-01
 E= -2994.01225037655     Delta-E=       -0.082718543949 Rises=F Damp=T
 DIIS: error= 1.47D-01 at cycle   2 NSaved=   2.
 NSaved= 2 IEnMin= 2 EnMin= -2994.01225037655     IErMin= 2 ErrMin= 1.47D-01
 ErrMax= 1.47D-01  0.00D+00 EMaxC= 1.00D-01 BMatC= 2.50D-01 BMatP= 5.91D-01
 IDIUse=3 WtCom= 0.00D+00 WtEn= 1.00D+00
 Coeff-Com: -0.128D+01 0.228D+01
 Coeff-En:   0.000D+00 0.100D+01
 Coeff:      0.000D+00 0.100D+01
 Gap=     0.215 Goal=   None    Shift=    0.000
 RMSDP=2.99D-03 MaxDP=1.11D-01 DE=-8.27D-02 OVMax= 7.71D-02

 Cycle   3  Pass 0  IDiag  1:
 RMSU=  1.28D-03    CP:  9.67D-01  2.71D+00
 E= -2994.11474924004     Delta-E=       -0.102498863485 Rises=F Damp=F
 DIIS: error= 9.91D-03 at cycle   3 NSaved=   3.
 NSaved= 3 IEnMin= 3 EnMin= -2994.11474924004     IErMin= 3 ErrMin= 9.91D-03
 ErrMax= 9.91D-03  0.00D+00 EMaxC= 1.00D-01 BMatC= 4.99D-02 BMatP= 2.50D-01
 IDIUse=3 WtCom= 9.01D-01 WtEn= 9.91D-02
 Coeff-Com:  0.996D+00-0.119D+01 0.120D+01
 Coeff-En:   0.107D+00 0.000D+00 0.893D+00
 Coeff:      0.908D+00-0.107D+01 0.117D+01
 Gap=     0.173 Goal=   None    Shift=    0.000
 RMSDP=1.68D-03 MaxDP=4.08D-02 DE=-1.02D-01 OVMax= 6.55D-02

 Cycle   4  Pass 0  IDiag  1:
 RMSU=  1.33D-03    CP:  9.68D-01  2.01D+00  1.08D+00
 E= -2994.14203140820     Delta-E=       -0.027282168167 Rises=F Damp=F
 DIIS: error= 1.40D-02 at cycle   4 NSaved=   4.
 NSaved= 4 IEnMin= 4 EnMin= -2994.14203140820     IErMin= 3 ErrMin= 9.91D-03
 ErrMax= 1.40D-02  0.00D+00 EMaxC= 1.00D-01 BMatC= 2.18D-02 BMatP= 4.99D-02
 IDIUse=3 WtCom= 8.60D-01 WtEn= 1.40D-01
 Coeff-Com:  0.792D+00-0.103D+01 0.801D+00 0.440D+00
 Coeff-En:   0.000D+00 0.000D+00 0.251D+00 0.749D+00
 Coeff:      0.682D+00-0.889D+00 0.724D+00 0.483D+00
 Gap=     0.194 Goal=   None    Shift=    0.000
 RMSDP=9.96D-04 MaxDP=3.17D-02 DE=-2.73D-02 OVMax= 3.73D-02

 Cycle   5  Pass 0  IDiag  1:
 RMSU=  2.17D-04    CP:  9.68D-01  1.99D+00  1.22D+00  2.83D-01
 E= -2994.16193350050     Delta-E=       -0.019902092296 Rises=F Damp=F
 DIIS: error= 3.69D-03 at cycle   5 NSaved=   5.
 NSaved= 5 IEnMin= 5 EnMin= -2994.16193350050     IErMin= 5 ErrMin= 3.69D-03
 ErrMax= 3.69D-03  0.00D+00 EMaxC= 1.00D-01 BMatC= 1.50D-03 BMatP= 2.18D-02
 IDIUse=3 WtCom= 9.63D-01 WtEn= 3.69D-02
 Coeff-Com:  0.187D+00-0.244D+00 0.232D+00 0.249D+00 0.576D+00
 Coeff-En:   0.000D+00 0.000D+00 0.000D+00 0.133D-01 0.987D+00
 Coeff:      0.180D+00-0.235D+00 0.223D+00 0.240D+00 0.591D+00
 Gap=     0.192 Goal=   None    Shift=    0.000
 RMSDP=2.39D-04 MaxDP=8.72D-03 DE=-1.99D-02 OVMax= 1.19D-02

 Cycle   6  Pass 0  IDiag  1:
 RMSU=  6.44D-05    CP:  9.68D-01  2.04D+00  1.19D+00  4.25D-01  5.08D-01
 E= -2994.16314743517     Delta-E=       -0.001213934667 Rises=F Damp=F
 DIIS: error= 4.68D-04 at cycle   6 NSaved=   6.
 NSaved= 6 IEnMin= 6 EnMin= -2994.16314743517     IErMin= 6 ErrMin= 4.68D-04
 ErrMax= 4.68D-04  0.00D+00 EMaxC= 1.00D-01 BMatC= 7.29D-05 BMatP= 1.50D-03
 IDIUse=3 WtCom= 9.95D-01 WtEn= 4.68D-03
 Coeff-Com:  0.451D-01-0.587D-01 0.677D-01 0.102D+00 0.346D+00 0.498D+00
 Coeff-En:   0.000D+00 0.000D+00 0.000D+00 0.000D+00 0.000D+00 0.100D+01
 Coeff:      0.449D-01-0.585D-01 0.674D-01 0.101D+00 0.345D+00 0.500D+00
 Gap=     0.186 Goal=   None    Shift=    0.000
 RMSDP=5.24D-05 MaxDP=1.89D-03 DE=-1.21D-03 OVMax= 3.49D-03

 Cycle   7  Pass 0  IDiag  1:
 RMSU=  2.43D-05    CP:  9.68D-01  2.03D+00  1.20D+00  4.10D-01  5.94D-01
                    CP:  4.26D-01
 E= -2994.16321572326     Delta-E=       -0.000068288095 Rises=F Damp=F
 DIIS: error= 1.58D-04 at cycle   7 NSaved=   7.
 NSaved= 7 IEnMin= 7 EnMin= -2994.16321572326     IErMin= 7 ErrMin= 1.58D-04
 ErrMax= 1.58D-04  0.00D+00 EMaxC= 1.00D-01 BMatC= 5.44D-06 BMatP= 7.29D-05
 IDIUse=3 WtCom= 9.98D-01 WtEn= 1.58D-03
 Coeff-Com:  0.104D-01-0.135D-01 0.200D-01 0.385D-01 0.149D+00 0.292D+00
 Coeff-Com:  0.504D+00
 Coeff-En:   0.000D+00 0.000D+00 0.000D+00 0.000D+00 0.000D+00 0.221D-01
 Coeff-En:   0.978D+00
 Coeff:      0.103D-01-0.135D-01 0.200D-01 0.385D-01 0.149D+00 0.291D+00
 Coeff:      0.504D+00
 Gap=     0.186 Goal=   None    Shift=    0.000
 RMSDP=1.62D-05 MaxDP=5.51D-04 DE=-6.83D-05 OVMax= 1.33D-03

 Cycle   8  Pass 0  IDiag  1:
 RMSU=  8.42D-06    CP:  9.68D-01  2.03D+00  1.20D+00  4.11D-01  5.97D-01
                    CP:  5.16D-01  4.92D-01
 E= -2994.16322145375     Delta-E=       -0.000005730484 Rises=F Damp=F
 DIIS: error= 4.10D-05 at cycle   8 NSaved=   8.
 NSaved= 8 IEnMin= 8 EnMin= -2994.16322145375     IErMin= 8 ErrMin= 4.10D-05
 ErrMax= 4.10D-05  0.00D+00 EMaxC= 1.00D-01 BMatC= 5.40D-07 BMatP= 5.44D-06
 IDIUse=1 WtCom= 1.00D+00 WtEn= 0.00D+00
 Coeff-Com: -0.252D-03 0.332D-03 0.259D-02 0.903D-02 0.403D-01 0.103D+00
 Coeff-Com:  0.292D+00 0.553D+00
 Coeff:     -0.252D-03 0.332D-03 0.259D-02 0.903D-02 0.403D-01 0.103D+00
 Coeff:      0.292D+00 0.553D+00
 Gap=     0.186 Goal=   None    Shift=    0.000
 RMSDP=4.15D-06 MaxDP=1.37D-04 DE=-5.73D-06 OVMax= 2.77D-04

 Initial convergence to 1.0D-05 achieved.  Increase integral accuracy.
 Cycle   9  Pass 1  IDiag  1:
 E= -2994.16323273603     Delta-E=       -0.000011282281 Rises=F Damp=F
 DIIS: error= 3.89D-05 at cycle   1 NSaved=   1.
 NSaved= 1 IEnMin= 1 EnMin= -2994.16323273603     IErMin= 1 ErrMin= 3.89D-05
 ErrMax= 3.89D-05  0.00D+00 EMaxC= 1.00D-01 BMatC= 1.45D-07 BMatP= 1.45D-07
 IDIUse=1 WtCom= 1.00D+00 WtEn= 0.00D+00
 Coeff-Com:  0.100D+01
 Coeff:      0.100D+01
 Gap=     0.186 Goal=   None    Shift=    0.000
 RMSDP=4.15D-06 MaxDP=1.37D-04 DE=-1.13D-05 OVMax= 1.33D-04

 Cycle  10  Pass 1  IDiag  1:
 RMSU=  1.25D-05    CP:  1.00D+00
 E= -2994.16323276161     Delta-E=       -0.000000025584 Rises=F Damp=F
 DIIS: error= 1.76D-05 at cycle   2 NSaved=   2.
 NSaved= 2 IEnMin= 2 EnMin= -2994.16323276161     IErMin= 2 ErrMin= 1.76D-05
 ErrMax= 1.76D-05  0.00D+00 EMaxC= 1.00D-01 BMatC= 5.93D-08 BMatP= 1.45D-07
 IDIUse=1 WtCom= 1.00D+00 WtEn= 0.00D+00
 Coeff-Com:  0.342D+00 0.658D+00
 Coeff:      0.342D+00 0.658D+00
 Gap=     0.186 Goal=   None    Shift=    0.000
 RMSDP=2.46D-06 MaxDP=7.71D-05 DE=-2.56D-08 OVMax= 1.77D-04

 Cycle  11  Pass 1  IDiag  1:
 RMSU=  2.46D-06    CP:  1.00D+00  9.88D-01
 E= -2994.16323276821     Delta-E=       -0.000000006597 Rises=F Damp=F
 DIIS: error= 1.68D-05 at cycle   3 NSaved=   3.
 NSaved= 3 IEnMin= 3 EnMin= -2994.16323276821     IErMin= 3 ErrMin= 1.68D-05
 ErrMax= 1.68D-05  0.00D+00 EMaxC= 1.00D-01 BMatC= 5.20D-08 BMatP= 5.93D-08
 IDIUse=1 WtCom= 1.00D+00 WtEn= 0.00D+00
 Coeff-Com:  0.193D-01 0.479D+00 0.501D+00
 Coeff:      0.193D-01 0.479D+00 0.501D+00
 Gap=     0.186 Goal=   None    Shift=    0.000
 RMSDP=1.28D-06 MaxDP=3.71D-05 DE=-6.60D-09 OVMax= 1.04D-04

 Cycle  12  Pass 1  IDiag  1:
 RMSU=  4.18D-07    CP:  1.00D+00  1.00D+00  5.12D-01
 E= -2994.16323282585     Delta-E=       -0.000000057645 Rises=F Damp=F
 DIIS: error= 2.44D-06 at cycle   4 NSaved=   4.
 NSaved= 4 IEnMin= 4 EnMin= -2994.16323282585     IErMin= 4 ErrMin= 2.44D-06
 ErrMax= 2.44D-06  0.00D+00 EMaxC= 1.00D-01 BMatC= 1.55D-09 BMatP= 5.20D-08
 IDIUse=1 WtCom= 1.00D+00 WtEn= 0.00D+00
 Coeff-Com: -0.139D-02 0.253D+00 0.290D+00 0.458D+00
 Coeff:     -0.139D-02 0.253D+00 0.290D+00 0.458D+00
 Gap=     0.186 Goal=   None    Shift=    0.000
 RMSDP=2.29D-07 MaxDP=6.96D-06 DE=-5.76D-08 OVMax= 1.43D-05

 Cycle  13  Pass 1  IDiag  1:
 RMSU=  8.76D-08    CP:  1.00D+00  1.00D+00  5.32D-01  5.09D-01
 E= -2994.16323282737     Delta-E=       -0.000000001521 Rises=F Damp=F
 DIIS: error= 3.92D-07 at cycle   5 NSaved=   5.
 NSaved= 5 IEnMin= 5 EnMin= -2994.16323282737     IErMin= 5 ErrMin= 3.92D-07
 ErrMax= 3.92D-07  0.00D+00 EMaxC= 1.00D-01 BMatC= 6.10D-11 BMatP= 1.55D-09
 IDIUse=1 WtCom= 1.00D+00 WtEn= 0.00D+00
 Coeff-Com: -0.152D-02 0.126D+00 0.147D+00 0.264D+00 0.465D+00
 Coeff:     -0.152D-02 0.126D+00 0.147D+00 0.264D+00 0.465D+00
 Gap=     0.186 Goal=   None    Shift=    0.000
 RMSDP=4.49D-08 MaxDP=1.35D-06 DE=-1.52D-09 OVMax= 2.45D-06

 Cycle  14  Pass 1  IDiag  1:
 RMSU=  2.52D-08    CP:  1.00D+00  1.00D+00  5.31D-01  5.16D-01  5.80D-01
 E= -2994.16323282746     Delta-E=       -0.000000000089 Rises=F Damp=F
 DIIS: error= 1.06D-07 at cycle   6 NSaved=   6.
 NSaved= 6 IEnMin= 6 EnMin= -2994.16323282746     IErMin= 6 ErrMin= 1.06D-07
 ErrMax= 1.06D-07  0.00D+00 EMaxC= 1.00D-01 BMatC= 2.91D-12 BMatP= 6.10D-11
 IDIUse=1 WtCom= 1.00D+00 WtEn= 0.00D+00
 Coeff-Com: -0.729D-03 0.547D-01 0.640D-01 0.118D+00 0.257D+00 0.507D+00
 Coeff:     -0.729D-03 0.547D-01 0.640D-01 0.118D+00 0.257D+00 0.507D+00
 Gap=     0.186 Goal=   None    Shift=    0.000
 RMSDP=1.16D-08 MaxDP=2.78D-07 DE=-8.91D-11 OVMax= 8.51D-07

 Cycle  15  Pass 1  IDiag  1:
 RMSU=  9.05D-09    CP:  1.00D+00  1.00D+00  5.31D-01  5.10D-01  5.94D-01
                    CP:  7.43D-01
 E= -2994.16323282743     Delta-E=        0.000000000034 Rises=F Damp=F
 DIIS: error= 3.48D-08 at cycle   7 NSaved=   7.
 NSaved= 7 IEnMin= 6 EnMin= -2994.16323282746     IErMin= 7 ErrMin= 3.48D-08
 ErrMax= 3.48D-08  0.00D+00 EMaxC= 1.00D-01 BMatC= 2.59D-13 BMatP= 2.91D-12
 IDIUse=1 WtCom= 1.00D+00 WtEn= 0.00D+00
 Coeff-Com: -0.867D-04 0.396D-02 0.476D-02 0.991D-02 0.428D-01 0.251D+00
 Coeff-Com:  0.687D+00
 Coeff:     -0.867D-04 0.396D-02 0.476D-02 0.991D-02 0.428D-01 0.251D+00
 Coeff:      0.687D+00
 Gap=     0.186 Goal=   None    Shift=    0.000
 RMSDP=3.79D-09 MaxDP=1.02D-07 DE= 3.37D-11 OVMax= 2.85D-07

 SCF Done:  E(RB3LYP) =  -2994.16323283     A.U. after   15 cycles
            NFock= 15  Conv=0.38D-08     -V/T= 2.0065
 KE= 2.974744612726D+03 PE=-8.746217913922D+03 EE= 1.961533296600D+03
 Leave Link  502 at Tue Sep 17 09:51:59 2024, MaxMem=  1342177280 cpu:              84.1 elap:              11.4
 (Enter /groups/ReismanLab/Software/Gaussian16_RevC/Linux_Binary_AVX2-enabled-CPU/g16/l508.exe)
 QCSCF skips out because SCF is already converged.
 Leave Link  508 at Tue Sep 17 09:51:59 2024, MaxMem=  1342177280 cpu:               0.1 elap:               0.0
 (Enter /groups/ReismanLab/Software/Gaussian16_RevC/Linux_Binary_AVX2-enabled-CPU/g16/l601.exe)
 Copying SCF densities to generalized density rwf, IOpCl= 0 IROHF=0.

 **********************************************************************

            Population analysis using the SCF Density.

 **********************************************************************

 Orbital symmetries:
       Occupied  (A) (A) (A) (A) (A) (A) (A) (A) (A) (A) (A) (A)
                 (A) (A) (A) (A) (A) (A) (A) (A) (A) (A) (A) (A)
                 (A) (A) (A) (A) (A) (A) (A) (A) (A) (A) (A) (A)
                 (A) (A) (A) (A) (A) (A) (A) (A) (A) (A) (A) (A)
                 (A) (A) (A) (A)
       Virtual   (A) (A) (A) (A) (A) (A) (A) (A) (A) (A) (A) (A)
                 (A) (A) (A) (A) (A) (A) (A) (A) (A) (A) (A) (A)
                 (A) (A) (A) (A) (A) (A) (A) (A) (A) (A) (A) (A)
                 (A) (A) (A) (A) (A) (A) (A) (A) (A) (A) (A) (A)
                 (A) (A) (A) (A) (A) (A) (A) (A) (A) (A) (A) (A)
                 (A) (A) (A) (A) (A) (A) (A) (A) (A) (A) (A) (A)
                 (A) (A) (A) (A) (A) (A) (A) (A) (A) (A) (A) (A)
                 (A) (A) (A) (A) (A) (A) (A) (A) (A) (A) (A) (A)
                 (A) (A) (A) (A) (A) (A) (A) (A) (A) (A) (A) (A)
                 (A) (A) (A) (A) (A) (A) (A) (A) (A) (A) (A) (A)
                 (A) (A) (A) (A) (A) (A) (A) (A) (A) (A) (A) (A)
                 (A) (A) (A) (A) (A) (A) (A) (A) (A) (A) (A) (A)
                 (A) (A) (A) (A) (A) (A) (A) (A) (A) (A) (A) (A)
                 (A) (A) (A) (A) (A) (A) (A)
 The electronic state is 1-A.
 Alpha  occ. eigenvalues -- -482.92043 -61.88186 -56.40307 -56.39895 -56.39884
 Alpha  occ. eigenvalues --  -19.13759 -10.27364 -10.25497 -10.21943 -10.21670
 Alpha  occ. eigenvalues --  -10.20927 -10.20850 -10.20517 -10.20289 -10.19648
 Alpha  occ. eigenvalues --   -8.59284  -6.54663  -6.53409  -6.53372  -2.66236
 Alpha  occ. eigenvalues --   -2.65880  -2.65852  -2.64851  -2.64851  -1.04325
 Alpha  occ. eigenvalues --   -0.90136  -0.83496  -0.81387  -0.74760  -0.73434
 Alpha  occ. eigenvalues --   -0.68877  -0.62956  -0.60272  -0.54955  -0.49983
 Alpha  occ. eigenvalues --   -0.49494  -0.48712  -0.46420  -0.43743  -0.42831
 Alpha  occ. eigenvalues --   -0.40685  -0.40514  -0.39870  -0.38729  -0.37517
 Alpha  occ. eigenvalues --   -0.35746  -0.35000  -0.32077  -0.29532  -0.26800
 Alpha  occ. eigenvalues --   -0.25262  -0.24772
 Alpha virt. eigenvalues --   -0.06158  -0.02071   0.00250   0.03937   0.09430
 Alpha virt. eigenvalues --    0.10787   0.11439   0.14566   0.15370   0.16899
 Alpha virt. eigenvalues --    0.17452   0.18704   0.19976   0.22165   0.24437
 Alpha virt. eigenvalues --    0.25624   0.28758   0.29699   0.31172   0.33133
 Alpha virt. eigenvalues --    0.34776   0.39301   0.43381   0.45207   0.45221
 Alpha virt. eigenvalues --    0.45847   0.46922   0.48125   0.48369   0.50492
 Alpha virt. eigenvalues --    0.51458   0.53236   0.53450   0.55109   0.57088
 Alpha virt. eigenvalues --    0.58549   0.59001   0.59460   0.59757   0.63555
 Alpha virt. eigenvalues --    0.64452   0.64511   0.65172   0.69558   0.69626
 Alpha virt. eigenvalues --    0.72075   0.73902   0.74607   0.77443   0.78085
 Alpha virt. eigenvalues --    0.80716   0.80800   0.81576   0.83226   0.83317
 Alpha virt. eigenvalues --    0.85457   0.86929   0.89022   0.90684   0.91128
 Alpha virt. eigenvalues --    0.92930   0.95775   0.97125   0.99927   1.03142
 Alpha virt. eigenvalues --    1.07169   1.09205   1.12146   1.13891   1.16536
 Alpha virt. eigenvalues --    1.23083   1.23758   1.24835   1.29738   1.31162
 Alpha virt. eigenvalues --    1.34665   1.36937   1.38783   1.39728   1.42039
 Alpha virt. eigenvalues --    1.43848   1.51395   1.57736   1.61227   1.65940
 Alpha virt. eigenvalues --    1.70153   1.71275   1.72349   1.74543   1.75735
 Alpha virt. eigenvalues --    1.76495   1.79298   1.80258   1.84719   1.86490
 Alpha virt. eigenvalues --    1.87207   1.89888   1.91718   1.95162   1.95768
 Alpha virt. eigenvalues --    1.97079   1.98644   1.99819   2.02018   2.07587
 Alpha virt. eigenvalues --    2.07865   2.12914   2.16711   2.16966   2.20962
 Alpha virt. eigenvalues --    2.22350   2.23626   2.27088   2.28653   2.29605
 Alpha virt. eigenvalues --    2.37608   2.37880   2.40945   2.43396   2.44626
 Alpha virt. eigenvalues --    2.47661   2.48710   2.51144   2.52167   2.53118
 Alpha virt. eigenvalues --    2.54077   2.57132   2.61180   2.63385   2.67699
 Alpha virt. eigenvalues --    2.68432   2.74691   2.74794   2.77356   2.79898
 Alpha virt. eigenvalues --    2.84295   2.89438   2.92230   2.96205   3.02079
 Alpha virt. eigenvalues --    3.08035   3.14901   3.22750   3.24376   3.28341
 Alpha virt. eigenvalues --    3.33779   3.34684   3.37960   3.39572   3.52580
 Alpha virt. eigenvalues --    3.79522   3.99966   4.08714   4.13105   4.15957
 Alpha virt. eigenvalues --    4.31556   4.38076   4.42475   4.56727   4.78296
 Alpha virt. eigenvalues --    4.83700   8.61529  73.11870
          Condensed to atoms (all electrons):
               1          2          3          4          5          6
     1  O    8.014066   0.587339  -0.081964   0.004819   0.003367  -0.000137
     2  C    0.587339   4.612908   0.311281  -0.062942  -0.002346   0.008500
     3  C   -0.081964   0.311281   5.282216   0.276821  -0.046517   0.007634
     4  C    0.004819  -0.062942   0.276821   5.107016   0.359167  -0.091034
     5  C    0.003367  -0.002346  -0.046517   0.359167   4.955111   0.442008
     6  C   -0.000137   0.008500   0.007634  -0.091034   0.442008   4.986041
     7  Br   0.000000  -0.000165   0.000629  -0.008619  -0.072708   0.276595
     8  C   -0.000005   0.000037  -0.000465   0.008047  -0.021209   0.484580
     9  C    0.000366   0.007247  -0.000156  -0.000626  -0.041971  -0.017845
    10  C    0.000726  -0.067465   0.012061   0.011956  -0.073526  -0.055014
    11  C   -0.079231   0.276311  -0.155070  -0.045884   0.472126  -0.005264
    12  H    0.000529  -0.020716   0.366757  -0.026452   0.000669  -0.000167
    13  H    0.000540  -0.020693   0.366728  -0.026445   0.000682  -0.000166
    14  H   -0.000036   0.001872  -0.028132   0.373098  -0.027084  -0.003653
    15  H   -0.000036   0.001861  -0.028127   0.373076  -0.027062  -0.003656
    16  H   -0.000000   0.000007   0.000003  -0.000144   0.004420  -0.038276
    17  H    0.000003  -0.000167   0.000005   0.000011   0.001495   0.004006
    18  H    0.006737  -0.005066   0.000512  -0.000297   0.005878   0.000925
               7          8          9         10         11         12
     1  O    0.000000  -0.000005   0.000366   0.000726  -0.079231   0.000529
     2  C   -0.000165   0.000037   0.007247  -0.067465   0.276311  -0.020716
     3  C    0.000629  -0.000465  -0.000156   0.012061  -0.155070   0.366757
     4  C   -0.008619   0.008047  -0.000626   0.011956  -0.045884  -0.026452
     5  C   -0.072708  -0.021209  -0.041971  -0.073526   0.472126   0.000669
     6  C    0.276595   0.484580  -0.017845  -0.055014  -0.005264  -0.000167
     7  Br  34.983075  -0.070598   0.005281   0.000066   0.005994  -0.000007
     8  C   -0.070598   4.920033   0.503449  -0.027054  -0.051662   0.000007
     9  C    0.005281   0.503449   4.863612   0.487411  -0.006219   0.000003
    10  C    0.000066  -0.027054   0.487411   5.000731   0.477007  -0.000200
    11  C    0.005994  -0.051662  -0.006219   0.477007   5.080043   0.004571
    12  H   -0.000007   0.000007   0.000003  -0.000200   0.004571   0.558156
    13  H   -0.000007   0.000007   0.000003  -0.000199   0.004580  -0.021759
    14  H    0.004306  -0.000137   0.000042  -0.000238  -0.000001  -0.006915
    15  H    0.004304  -0.000138   0.000042  -0.000238  -0.000003   0.002658
    16  H   -0.002131   0.369372  -0.037908   0.004508   0.000700  -0.000000
    17  H   -0.000147  -0.036568   0.368945  -0.035974   0.002315  -0.000000
    18  H    0.000012   0.003817  -0.041675   0.362282  -0.035217  -0.000006
              13         14         15         16         17         18
     1  O    0.000540  -0.000036  -0.000036  -0.000000   0.000003   0.006737
     2  C   -0.020693   0.001872   0.001861   0.000007  -0.000167  -0.005066
     3  C    0.366728  -0.028132  -0.028127   0.000003   0.000005   0.000512
     4  C   -0.026445   0.373098   0.373076  -0.000144   0.000011  -0.000297
     5  C    0.000682  -0.027084  -0.027062   0.004420   0.001495   0.005878
     6  C   -0.000166  -0.003653  -0.003656  -0.038276   0.004006   0.000925
     7  Br  -0.000007   0.004306   0.004304  -0.002131  -0.000147   0.000012
     8  C    0.000007  -0.000137  -0.000138   0.369372  -0.036568   0.003817
     9  C    0.000003   0.000042   0.000042  -0.037908   0.368945  -0.041675
    10  C   -0.000199  -0.000238  -0.000238   0.004508  -0.035974   0.362282
    11  C    0.004580  -0.000001  -0.000003   0.000700   0.002315  -0.035217
    12  H   -0.021759  -0.006915   0.002658  -0.000000  -0.000000  -0.000006
    13  H    0.558166   0.002651  -0.006900  -0.000000  -0.000000  -0.000006
    14  H    0.002651   0.581661  -0.033332   0.000000   0.000000   0.000004
    15  H   -0.006900  -0.033332   0.581631   0.000000   0.000000   0.000004
    16  H   -0.000000   0.000000   0.000000   0.592401  -0.005945  -0.000162
    17  H   -0.000000   0.000000   0.000000  -0.005945   0.604557  -0.004141
    18  H   -0.000006   0.000004   0.000004  -0.000162  -0.004141   0.591081
 Mulliken charges:
               1
     1  O   -0.457086
     2  C    0.372199
     3  C   -0.284215
     4  C   -0.251566
     5  C    0.067502
     6  C    0.004922
     7  Br  -0.125881
     8  C   -0.081513
     9  C   -0.090004
    10  C   -0.096839
    11  C    0.054905
    12  H    0.142872
    13  H    0.142819
    14  H    0.135893
    15  H    0.135915
    16  H    0.113154
    17  H    0.101606
    18  H    0.115318
 Sum of Mulliken charges =  -0.00000
 Mulliken charges with hydrogens summed into heavy atoms:
               1
     1  O   -0.457086
     2  C    0.372199
     3  C    0.001477
     4  C    0.020241
     5  C    0.067502
     6  C    0.004922
     7  Br  -0.125881
     8  C    0.031641
     9  C    0.011602
    10  C    0.018479
    11  C    0.054905
 Electronic spatial extent (au):  <R**2>=           2492.0791
 Charge=             -0.0000 electrons
 Dipole moment (field-independent basis, Debye):
    X=              1.8003    Y=              0.2080    Z=              0.0020  Tot=              1.8123
 Quadrupole moment (field-independent basis, Debye-Ang):
   XX=            -90.2798   YY=            -64.7405   ZZ=            -75.2543
   XY=              1.3336   XZ=             -0.0086   YZ=             -0.0011
 Traceless Quadrupole moment (field-independent basis, Debye-Ang):
   XX=            -13.5216   YY=             12.0177   ZZ=              1.5039
   XY=              1.3336   XZ=             -0.0086   YZ=             -0.0011
 Octapole moment (field-independent basis, Debye-Ang**2):
  XXX=            144.0740  YYY=             -1.6057  ZZZ=             -0.0081  XYY=             14.2613
  XXY=             -2.8975  XXZ=              0.0269  XZZ=             18.2816  YZZ=            -11.5950
  YYZ=             -0.0029  XYZ=              0.0037
 Hexadecapole moment (field-independent basis, Debye-Ang**3):
 XXXX=          -2220.3976 YYYY=           -838.3292 ZZZZ=            -89.6896 XXXY=            -58.1274
 XXXZ=             -0.1345 YYYX=            -24.3602 YYYZ=              0.0227 ZZZX=             -0.0038
 ZZZY=             -0.0009 XXYY=           -431.0736 XXZZ=           -327.6105 YYZZ=           -170.4219
 XXYZ=             -0.0071 YYXZ=              0.0014 ZZXY=             -2.6905
 N-N= 8.157767717687D+02 E-N=-8.746217923715D+03  KE= 2.974744612726D+03
 No NMR shielding tensors so no spin-rotation constants.
 Leave Link  601 at Tue Sep 17 09:51:59 2024, MaxMem=  1342177280 cpu:               0.7 elap:               0.2
 (Enter /groups/ReismanLab/Software/Gaussian16_RevC/Linux_Binary_AVX2-enabled-CPU/g16/l701.exe)
 ... and contract with generalized density number  0.
 Compute integral first derivatives.
 R6Disp: Adding Grimme-D3(BJ) dispersion energy 1st derivatives to the gradient.
 Leave Link  701 at Tue Sep 17 09:51:59 2024, MaxMem=  1342177280 cpu:               0.5 elap:               0.2
 (Enter /groups/ReismanLab/Software/Gaussian16_RevC/Linux_Binary_AVX2-enabled-CPU/g16/l702.exe)
 L702 exits ... SP integral derivatives will be done elsewhere.
 Leave Link  702 at Tue Sep 17 09:52:00 2024, MaxMem=  1342177280 cpu:               0.1 elap:               0.2
 (Enter /groups/ReismanLab/Software/Gaussian16_RevC/Linux_Binary_AVX2-enabled-CPU/g16/l703.exe)
 Integral derivatives from FoFJK, PRISM(SPDF).
 Compute integral first derivatives, UseDBF=F ICtDFT=           0.
 Calling FoFJK, ICntrl=      2127 FMM=F ISym2X=0 I1Cent= 0 IOpClX= 0 NMat=1 NMatS=1 NMatT=0.
 FoFJK:  IHMeth= 1 ICntrl=    2127 DoSepK=F KAlg= 0 I1Cent=           0 FoldK=F
 IRaf=         0 NMat=       1 IRICut=       1 DoRegI=T DoRafI=F ISym2E= 0 IDoP0=0 IntGTp=1.
 FoFCou: FMM=F IPFlag=           0 FMFlag=      100000 FMFlg1=         800
         NFxFlg=           0 DoJE=F BraDBF=F KetDBF=F FulRan=T
         wScrn=  0.000000 ICntrl=      2127 IOpCl=  0 I1Cent=           0 NGrid=           0
         NMat0=    1 NMatS0=      1 NMatT0=    0 NMatD0=    1 NMtDS0=    0 NMtDT0=    0
 Symmetry not used in FoFCou.
 Leave Link  703 at Tue Sep 17 09:52:04 2024, MaxMem=  1342177280 cpu:              26.7 elap:               3.8
 (Enter /groups/ReismanLab/Software/Gaussian16_RevC/Linux_Binary_AVX2-enabled-CPU/g16/l716.exe)
 Dipole        = 7.08281715D-01 8.18349111D-02 8.04937627D-04
 ***** Axes restored to original set *****
 -------------------------------------------------------------------
 Center     Atomic                   Forces (Hartrees/Bohr)
 Number     Number              X              Y              Z
 -------------------------------------------------------------------
      1        8          -0.018108584    0.004556009   -0.000014126
      2        6           0.010418194   -0.001873679    0.000016260
      3        6          -0.001468354   -0.007226405   -0.000004599
      4        6           0.001883511   -0.005343483   -0.000006663
      5        6          -0.000885213   -0.000053318    0.000003982
      6        6           0.005348654   -0.001277178   -0.000006306
      7       35           0.000805056   -0.000724523    0.000004462
      8        6           0.007887910    0.000660458   -0.000005971
      9        6          -0.003572881    0.005746508    0.000009994
     10        6          -0.005158722    0.000961818   -0.000020879
     11        6           0.003109548    0.003194329   -0.000001345
     12        1          -0.001685795   -0.001837243    0.001383370
     13        1          -0.001700762   -0.001827671   -0.001383465
     14        1           0.002220117   -0.001402214    0.000481434
     15        1           0.002188121   -0.001400739   -0.000467353
     16        1           0.003061325    0.001629451    0.000009157
     17        1          -0.000090995    0.004424525   -0.000007202
     18        1          -0.004251128    0.001793355    0.000009251
 -------------------------------------------------------------------
 Cartesian Forces:  Max     0.018108584 RMS     0.003893327
 Leave Link  716 at Tue Sep 17 09:52:04 2024, MaxMem=  1342177280 cpu:               0.1 elap:               0.0
 (Enter /groups/ReismanLab/Software/Gaussian16_RevC/Linux_Binary_AVX2-enabled-CPU/g16/l103.exe)

 GradGradGradGradGradGradGradGradGradGradGradGradGradGradGradGradGradGrad
 Berny optimization.
 FormGI is forming the generalized inverse of G from B-inverse, IUseBI=4.
 Internal  Forces:  Max     0.018640362 RMS     0.003465864
 Search for a local minimum.
 Step number   1 out of a maximum of  108
 All quantities printed in internal units (Hartrees-Bohrs-Radians)
 RMS Force = .34659D-02 SwitMx=.10000D-02 MixMth= 1
 Mixed Optimization -- RFO/linear search
 Second derivative matrix not updated -- first step.
 ITU=  0
     Eigenvalues ---    0.00473   0.00730   0.01444   0.01554   0.01875
     Eigenvalues ---    0.02254   0.02263   0.02268   0.02279   0.02287
     Eigenvalues ---    0.02300   0.03861   0.04092   0.05472   0.05842
     Eigenvalues ---    0.08440   0.08461   0.08727   0.10873   0.16000
     Eigenvalues ---    0.16000   0.16000   0.17872   0.22091   0.22726
     Eigenvalues ---    0.23547   0.24764   0.24933   0.25000   0.25000
     Eigenvalues ---    0.28488   0.29535   0.32196   0.34344   0.34543
     Eigenvalues ---    0.34548   0.34760   0.34763   0.36069   0.36097
     Eigenvalues ---    0.36152   0.41088   0.43787   0.46409   0.47780
     Eigenvalues ---    0.47946   0.48612   1.02334
 RFO step:  Lambda=-2.65542257D-03 EMin= 4.72952436D-03
 Linear search not attempted -- first point.
 Iteration  1 RMS(Cart)=  0.01619493 RMS(Int)=  0.00002697
 Iteration  2 RMS(Cart)=  0.00003705 RMS(Int)=  0.00000948
 Iteration  3 RMS(Cart)=  0.00000000 RMS(Int)=  0.00000948
 ITry= 1 IFail=0 DXMaxC= 5.25D-02 DCOld= 1.00D+10 DXMaxT= 3.00D-01 DXLimC= 3.00D+00 Rises=F
 Variable       Old X    -DE/DX   Delta X   Delta X   Delta X     New X
                                 (Linear)    (Quad)   (Total)
    R1        2.27719   0.01864   0.00000   0.01817   0.01817   2.29535
    R2        2.87493   0.00915   0.00000   0.02984   0.02985   2.90478
    R3        2.78757   0.00758   0.00000   0.02202   0.02200   2.80958
    R4        2.89684   0.00803   0.00000   0.02648   0.02650   2.92334
    R5        2.06067   0.00257   0.00000   0.00733   0.00733   2.06800
    R6        2.06062   0.00257   0.00000   0.00733   0.00733   2.06795
    R7        2.82377   0.01041   0.00000   0.03105   0.03105   2.85482
    R8        2.06415   0.00193   0.00000   0.00553   0.00553   2.06968
    R9        2.06424   0.00190   0.00000   0.00545   0.00545   2.06969
   R10        2.61086   0.00854   0.00000   0.01715   0.01714   2.62801
   R11        2.63531   0.00560   0.00000   0.01187   0.01185   2.64715
   R12        3.60533   0.00105   0.00000   0.00577   0.00577   3.61110
   R13        2.62084   0.00786   0.00000   0.01656   0.01656   2.63740
   R14        2.62305   0.01211   0.00000   0.02576   0.02576   2.64881
   R15        2.03973   0.00346   0.00000   0.00951   0.00951   2.04925
   R16        2.61581   0.00843   0.00000   0.01761   0.01761   2.63342
   R17        2.03930   0.00443   0.00000   0.01217   0.01217   2.05146
   R18        2.62246   0.00747   0.00000   0.01533   0.01533   2.63779
   R19        2.03845   0.00461   0.00000   0.01265   0.01265   2.05109
    A1        2.20092   0.00031   0.00000   0.00133   0.00133   2.20225
    A2        2.21672  -0.00221   0.00000  -0.00864  -0.00863   2.20809
    A3        1.86554   0.00190   0.00000   0.00731   0.00730   1.87284
    A4        1.86553  -0.00163   0.00000  -0.00864  -0.00860   1.85693
    A5        1.90054   0.00036   0.00000   0.00092   0.00093   1.90148
    A6        1.90114   0.00035   0.00000   0.00077   0.00078   1.90192
    A7        1.96315   0.00097   0.00000   0.00798   0.00797   1.97112
    A8        1.96336   0.00098   0.00000   0.00808   0.00807   1.97143
    A9        1.86896  -0.00102   0.00000  -0.00919  -0.00921   1.85975
   A10        1.82297   0.00014   0.00000   0.00154   0.00154   1.82451
   A11        1.95785   0.00063   0.00000   0.00720   0.00719   1.96503
   A12        1.95801   0.00062   0.00000   0.00696   0.00695   1.96496
   A13        1.92876  -0.00010   0.00000   0.00082   0.00079   1.92955
   A14        1.92863  -0.00009   0.00000   0.00083   0.00080   1.92943
   A15        1.86872  -0.00116   0.00000  -0.01659  -0.01659   1.85213
   A16        2.25321   0.00062   0.00000   0.00336   0.00337   2.25658
   A17        1.95504   0.00063   0.00000   0.00265   0.00265   1.95768
   A18        2.07494  -0.00125   0.00000  -0.00601  -0.00602   2.06893
   A19        2.09107  -0.00097   0.00000  -0.00387  -0.00387   2.08720
   A20        2.09837   0.00093   0.00000   0.00375   0.00374   2.10211
   A21        2.09374   0.00004   0.00000   0.00012   0.00012   2.09387
   A22        2.09641  -0.00065   0.00000  -0.00123  -0.00123   2.09518
   A23        2.08845   0.00005   0.00000  -0.00111  -0.00111   2.08734
   A24        2.09832   0.00061   0.00000   0.00234   0.00234   2.10067
   A25        2.10626  -0.00099   0.00000  -0.00265  -0.00264   2.10361
   A26        2.07881   0.00044   0.00000   0.00097   0.00097   2.07978
   A27        2.09812   0.00055   0.00000   0.00168   0.00168   2.09980
   A28        2.06724  -0.00064   0.00000  -0.00264  -0.00264   2.06459
   A29        2.12382   0.00059   0.00000   0.00300   0.00300   2.12682
   A30        2.09213   0.00005   0.00000  -0.00036  -0.00036   2.09178
   A31        1.91570  -0.00104   0.00000  -0.00286  -0.00289   1.91282
   A32        2.24434  -0.00157   0.00000  -0.00592  -0.00590   2.23843
   A33        2.12315   0.00261   0.00000   0.00879   0.00879   2.13194
    D1        3.14075   0.00000   0.00000  -0.00008  -0.00008   3.14067
    D2       -1.01746   0.00041   0.00000   0.00493   0.00493  -1.01253
    D3        1.01518  -0.00042   0.00000  -0.00511  -0.00511   1.01007
    D4       -0.00103   0.00000   0.00000   0.00034   0.00034  -0.00069
    D5        2.12395   0.00041   0.00000   0.00534   0.00535   2.12930
    D6       -2.12660  -0.00041   0.00000  -0.00469  -0.00469  -2.13129
    D7       -3.14101  -0.00000   0.00000   0.00006   0.00006  -3.14096
    D8        0.00045  -0.00000   0.00000   0.00013   0.00012   0.00058
    D9        0.00077  -0.00000   0.00000  -0.00036  -0.00037   0.00040
   D10       -3.14095  -0.00000   0.00000  -0.00030  -0.00030  -3.14125
   D11        0.00090  -0.00000   0.00000  -0.00020  -0.00020   0.00070
   D12        2.09038   0.00030   0.00000   0.00554   0.00555   2.09593
   D13       -2.08851  -0.00030   0.00000  -0.00583  -0.00584  -2.09435
   D14       -2.08411   0.00005   0.00000  -0.00039  -0.00038  -2.08449
   D15        0.00537   0.00035   0.00000   0.00535   0.00537   0.01074
   D16        2.10967  -0.00025   0.00000  -0.00602  -0.00602   2.10365
   D17        2.08676  -0.00006   0.00000  -0.00014  -0.00015   2.08661
   D18       -2.10695   0.00025   0.00000   0.00560   0.00560  -2.10135
   D19       -0.00265  -0.00036   0.00000  -0.00577  -0.00579  -0.00844
   D20        3.14129   0.00000   0.00000  -0.00003  -0.00003   3.14126
   D21       -0.00046  -0.00000   0.00000  -0.00003  -0.00003  -0.00048
   D22        1.03235  -0.00078   0.00000  -0.00993  -0.00992   1.02242
   D23       -2.10940  -0.00078   0.00000  -0.00992  -0.00992  -2.11932
   D24       -1.03282   0.00077   0.00000   0.00959   0.00958  -1.02324
   D25        2.10861   0.00077   0.00000   0.00959   0.00959   2.11820
   D26        0.00015  -0.00001   0.00000  -0.00024  -0.00024  -0.00009
   D27        3.14157  -0.00000   0.00000  -0.00005  -0.00005   3.14151
   D28       -3.14128  -0.00001   0.00000  -0.00025  -0.00025  -3.14152
   D29        0.00014   0.00000   0.00000  -0.00006  -0.00006   0.00008
   D30       -0.00019   0.00000   0.00000   0.00025   0.00025   0.00006
   D31        3.14152   0.00000   0.00000   0.00019   0.00019  -3.14148
   D32        3.14126   0.00000   0.00000   0.00025   0.00025   3.14151
   D33       -0.00021   0.00000   0.00000   0.00019   0.00019  -0.00002
   D34        0.00003  -0.00000   0.00000  -0.00010  -0.00010  -0.00007
   D35       -3.14138  -0.00001   0.00000  -0.00021  -0.00021   3.14159
   D36        3.14145   0.00000   0.00000   0.00009   0.00009   3.14154
   D37        0.00003  -0.00000   0.00000  -0.00002  -0.00002   0.00001
   D38       -0.00014   0.00000   0.00000   0.00012   0.00012  -0.00002
   D39        3.14142   0.00000   0.00000   0.00010   0.00010   3.14152
   D40        3.14128   0.00001   0.00000   0.00024   0.00024   3.14152
   D41       -0.00035   0.00001   0.00000   0.00022   0.00022  -0.00013
   D42        0.00007   0.00000   0.00000   0.00001   0.00001   0.00008
   D43       -3.14124  -0.00001   0.00000  -0.00028  -0.00028  -3.14152
   D44       -3.14149   0.00000   0.00000   0.00003   0.00003  -3.14146
   D45        0.00039  -0.00001   0.00000  -0.00026  -0.00026   0.00013
   D46       -3.14134  -0.00000   0.00000  -0.00024  -0.00024  -3.14158
   D47        0.00011  -0.00000   0.00000  -0.00017  -0.00017  -0.00006
   D48       -0.00003   0.00000   0.00000   0.00005   0.00005   0.00002
   D49        3.14142   0.00000   0.00000   0.00012   0.00012   3.14154
         Item               Value     Threshold  Converged?
 Maximum Force            0.018640     0.000450     NO 
 RMS     Force            0.003466     0.000300     NO 
 Maximum Displacement     0.052503     0.001800     NO 
 RMS     Displacement     0.016196     0.001200     NO 
 Predicted change in Energy=-1.337882D-03
 Lowest energy point so far.  Saving SCF results.
 GradGradGradGradGradGradGradGradGradGradGradGradGradGradGradGradGradGrad

 Leave Link  103 at Tue Sep 17 09:52:05 2024, MaxMem=  1342177280 cpu:               0.2 elap:               0.7
 (Enter /groups/ReismanLab/Software/Gaussian16_RevC/Linux_Binary_AVX2-enabled-CPU/g16/l202.exe)
                          Input orientation:                          
 ---------------------------------------------------------------------
 Center     Atomic      Atomic             Coordinates (Angstroms)
 Number     Number       Type             X           Y           Z
 ---------------------------------------------------------------------
      1          8           0       -4.056038   -0.329577   -0.000608
      2          6           0       -2.864734   -0.566570    0.000103
      3          6           0       -2.216849   -1.960503    0.000786
      4          6           0       -0.687011   -1.730936    0.000211
      5          6           0       -0.529037   -0.228511    0.000252
      6          6           0        0.633439    0.534801    0.000209
      7         35           0        2.334217   -0.336364    0.000236
      8          6           0        0.564103    1.928728    0.000164
      9          6           0       -0.682612    2.569385    0.000083
     10          6           0       -1.860858    1.825271    0.000026
     11          6           0       -1.763933    0.432782    0.000146
     12          1           0       -2.564772   -2.513604    0.878625
     13          1           0       -2.565487   -2.515293   -0.875673
     14          1           0       -0.195509   -2.169298    0.875303
     15          1           0       -0.196279   -2.169049   -0.875445
     16          1           0        1.479266    2.510475    0.000137
     17          1           0       -0.719832    3.654335    0.000115
     18          1           0       -2.837494    2.298830   -0.000102
 ---------------------------------------------------------------------
                    Distance matrix (angstroms):
                    1          2          3          4          5
     1  O    0.000000
     2  C    1.214649   0.000000
     3  C    2.458158   1.537143   0.000000
     4  C    3.648856   2.469459   1.546967   0.000000
     5  C    3.528448   2.360034   2.418368   1.510708   0.000000
     6  C    4.768474   3.667455   3.788229   2.622432   1.390682
     7  Br   6.390259   5.204045   4.832187   3.327559   2.865285
     8  C    5.142532   4.240687   4.781193   3.867612   2.418394
     9  C    4.447919   3.820454   4.782654   4.300324   2.802108
    10  C    3.076066   2.593967   3.802475   3.744933   2.447808
    11  C    2.415561   1.486764   2.435764   2.416906   1.400812
    12  H    2.786916   2.157017   1.094336   2.215890   3.183930
    13  H    2.786545   2.157325   1.094313   2.216091   3.184924
    14  H    4.365258   3.234111   2.212281   1.095227   2.154904
    15  H    4.364257   3.233446   2.212233   1.095233   2.154823
    16  H    6.221374   5.323396   5.800941   4.762596   3.396370
    17  H    5.196328   4.734622   5.810979   5.385371   3.887531
    18  H    2.897132   2.865529   4.304315   4.567668   3.422926
                    6          7          8          9         10
     6  C    0.000000
     7  Br   1.910910   0.000000
     8  C    1.395650   2.874708   0.000000
     9  C    2.423122   4.188632   1.401692   0.000000
    10  C    2.808350   4.719250   2.427167   1.393546   0.000000
    11  C    2.399541   4.169703   2.767238   2.394646   1.395858
    12  H    4.504769   5.432498   5.504168   5.491006   4.482552
    13  H    4.505925   5.433419   5.505519   5.492369   4.483730
    14  H    2.960591   3.244211   4.258720   4.843388   4.415436
    15  H    2.960745   3.244836   4.258714   4.843122   4.414959
    16  H    2.149119   2.972446   1.084414   2.162681   3.409683
    17  H    3.400417   5.025226   2.150863   1.085588   2.155787
    18  H    3.893478   5.804382   3.421672   2.171801   1.085393
                   11         12         13         14         15
    11  C    0.000000
    12  H    3.177147   0.000000
    13  H    3.178158   1.754299   0.000000
    14  H    3.161752   2.394152   2.966888   0.000000
    15  H    3.161285   2.967363   2.394374   1.750749   0.000000
    16  H    3.851643   6.509022   6.510408   5.046887   5.046984
    17  H    3.386525   6.497620   6.499058   5.912324   5.912066
    18  H    2.152828   4.899599   4.900652   5.264085   5.263477
                   16         17         18
    16  H    0.000000
    17  H    2.478800   0.000000
    18  H    4.321946   2.514336   0.000000
 Stoichiometry    C9H7BrO
 Framework group  C1[X(C9H7BrO)]
 Deg. of freedom    48
 Full point group                 C1      NOp   1
 RotChk:  IX=0 Diff= 1.64D-03
 Largest Abelian subgroup         C1      NOp   1
 Largest concise Abelian subgroup C1      NOp   1
                         Standard orientation:                         
 ---------------------------------------------------------------------
 Center     Atomic      Atomic             Coordinates (Angstroms)
 Number     Number       Type             X           Y           Z
 ---------------------------------------------------------------------
      1          8           0       -3.922066   -0.231138   -0.000784
      2          6           0       -2.738091   -0.502383   -0.000073
      3          6           0       -2.130668   -1.914418    0.000611
      4          6           0       -0.594847   -1.729058    0.000036
      5          6           0       -0.393618   -0.231812    0.000077
      6          6           0        0.790384    0.497663    0.000034
      7         35           0        2.465336   -0.422181    0.000061
      8          6           0        0.761270    1.893009   -0.000011
      9          6           0       -0.466454    2.569349   -0.000093
     10          6           0       -1.665666    1.859517   -0.000149
     11          6           0       -1.608932    0.464812   -0.000030
     12          1           0       -2.494396   -2.457257    0.878450
     13          1           0       -2.495158   -2.458924   -0.875848
     14          1           0       -0.116190   -2.181410    0.875128
     15          1           0       -0.116952   -2.181139   -0.875621
     16          1           0        1.692827    2.448127   -0.000038
     17          1           0       -0.472375    3.654921   -0.000060
     18          1           0       -2.628241    2.361040   -0.000278
 ---------------------------------------------------------------------
 Rotational constants (GHZ):           1.5932775           0.5156948           0.3914632
 Leave Link  202 at Tue Sep 17 09:52:05 2024, MaxMem=  1342177280 cpu:               0.1 elap:               0.0
 (Enter /groups/ReismanLab/Software/Gaussian16_RevC/Linux_Binary_AVX2-enabled-CPU/g16/l301.exe)
 Standard basis: 6-31G(d,p) (6D, 7F)
 Ernie: Thresh=  0.10000D-02 Tol=  0.10000D-05 Strict=F.
 There are   215 symmetry adapted cartesian basis functions of A   symmetry.
 There are   215 symmetry adapted basis functions of A   symmetry.
   215 basis functions,   412 primitive gaussians,   215 cartesian basis functions
    52 alpha electrons       52 beta electrons
       nuclear repulsion energy       811.1178819106 Hartrees.
 IExCor=  402 DFT=T Ex+Corr=B3LYP ExCW=0 ScaHFX=  0.200000
 ScaDFX=  0.800000  0.720000  1.000000  0.810000 ScalE2=  1.000000  1.000000
 IRadAn=      5 IRanWt=     -1 IRanGd=            0 ICorTp=0 IEmpDi=141
 NAtoms=   18 NActive=   18 NUniq=   18 SFac= 1.00D+00 NAtFMM=   60 NAOKFM=F Big=F
 Integral buffers will be    131072 words long.
 Raffenetti 2 integral format.
 Two-electron integral symmetry is turned on.
 R6Disp:  Grimme-D3(BJ) Dispersion energy=       -0.0398742512 Hartrees.
 Nuclear repulsion after empirical dispersion term =      811.0780076594 Hartrees.
 Leave Link  301 at Tue Sep 17 09:52:05 2024, MaxMem=  1342177280 cpu:               0.1 elap:               0.1
 (Enter /groups/ReismanLab/Software/Gaussian16_RevC/Linux_Binary_AVX2-enabled-CPU/g16/l302.exe)
 NPDir=0 NMtPBC=     1 NCelOv=     1 NCel=       1 NClECP=     1 NCelD=      1
         NCelK=      1 NCelE2=     1 NClLst=     1 CellRange=     0.0.
 One-electron integrals computed using PRISM.
 One-electron integral symmetry used in STVInt
 NBasis=   215 RedAO= T EigKep=  3.72D-04  NBF=   215
 NBsUse=   215 1.00D-06 EigRej= -1.00D+00 NBFU=   215
 Precomputing XC quadrature grid using
 IXCGrd= 4 IRadAn=           5 IRanWt=          -1 IRanGd=           0 AccXCQ= 0.00D+00.
 Generated NRdTot=       0 NPtTot=           0 NUsed=           0 NTot=          32
 NSgBfM=   214   214   214   214   214 MxSgAt=    18 MxSgA2=    18.
 Leave Link  302 at Tue Sep 17 09:52:05 2024, MaxMem=  1342177280 cpu:               1.0 elap:               0.2
 (Enter /groups/ReismanLab/Software/Gaussian16_RevC/Linux_Binary_AVX2-enabled-CPU/g16/l303.exe)
 DipDrv:  MaxL=1.
 Leave Link  303 at Tue Sep 17 09:52:05 2024, MaxMem=  1342177280 cpu:               0.1 elap:               0.0
 (Enter /groups/ReismanLab/Software/Gaussian16_RevC/Linux_Binary_AVX2-enabled-CPU/g16/l401.exe)
 Initial guess from the checkpoint file:  "smiles_00096_conf_0.chk"
 B after Tr=    -0.000000    0.000000    0.000000
         Rot=    1.000000    0.000029    0.000022    0.000543 Ang=   0.06 deg.
 Guess basis will be translated and rotated to current coordinates.
 JPrj=2 DoOrth=T DoCkMO=T.
 Generating alternative initial guess.
 ExpMin= 1.43D-01 ExpMax= 5.74D+05 ExpMxC= 5.74D+03 IAcc=3 IRadAn=         5 AccDes= 0.00D+00
 Harris functional with IExCor=  402 and IRadAn=       5 diagonalized for initial guess.
 HarFok:  IExCor=  402 AccDes= 0.00D+00 IRadAn=         5 IDoV= 1 UseB2=F ITyADJ=14
 ICtDFT=  3500011 ScaDFX=  1.000000  1.000000  1.000000  1.000000
 FoFCou: FMM=F IPFlag=           0 FMFlag=      100000 FMFlg1=           0
         NFxFlg=           0 DoJE=T BraDBF=F KetDBF=T FulRan=T
         wScrn=  0.000000 ICntrl=       500 IOpCl=  0 I1Cent=   200000004 NGrid=           0
         NMat0=    1 NMatS0=      1 NMatT0=    0 NMatD0=    1 NMtDS0=    0 NMtDT0=    0
 Petite list used in FoFCou.
 Harris En= -2994.27684942621    
 Leave Link  401 at Tue Sep 17 09:52:06 2024, MaxMem=  1342177280 cpu:               4.2 elap:               0.6
 (Enter /groups/ReismanLab/Software/Gaussian16_RevC/Linux_Binary_AVX2-enabled-CPU/g16/l502.exe)
 Integral symmetry usage will be decided dynamically.
 Closed shell SCF:
 Using DIIS extrapolation, IDIIS=  1040.
 NGot=  1342177280 LenX=  1342080394 LenY=  1342033728
 Requested convergence on RMS density matrix=1.00D-08 within  32 cycles.
 Requested convergence on MAX density matrix=1.00D-06.
 Requested convergence on             energy=1.00D-06.
 No special actions if energy rises.
 Fock matrices will be formed incrementally for  20 cycles.
 Integral accuracy reduced to 1.0D-05 until final iterations.

 Cycle   1  Pass 0  IDiag  1:
 FoFJK:  IHMeth= 1 ICntrl=       0 DoSepK=F KAlg= 0 I1Cent=           0 FoldK=F
 IRaf= 900000000 NMat=       1 IRICut=       1 DoRegI=T DoRafI=F ISym2E= 0 IDoP0=0 IntGTp=1.
 FoFCou: FMM=F IPFlag=           0 FMFlag=      100000 FMFlg1=           0
         NFxFlg=           0 DoJE=F BraDBF=F KetDBF=F FulRan=T
         wScrn=  0.000000 ICntrl=         0 IOpCl=  0 I1Cent=           0 NGrid=           0
         NMat0=    1 NMatS0=      1 NMatT0=    0 NMatD0=    1 NMtDS0=    0 NMtDT0=    0
 Symmetry not used in FoFCou.
 E= -2994.16403402926    
 DIIS: error= 1.33D-03 at cycle   1 NSaved=   1.
 NSaved= 1 IEnMin= 1 EnMin= -2994.16403402926     IErMin= 1 ErrMin= 1.33D-03
 ErrMax= 1.33D-03  0.00D+00 EMaxC= 1.00D-01 BMatC= 7.98D-04 BMatP= 7.98D-04
 IDIUse=3 WtCom= 9.87D-01 WtEn= 1.33D-02
 Coeff-Com:  0.100D+01
 Coeff-En:   0.100D+01
 Coeff:      0.100D+01
 Gap=     1.963 Goal=   None    Shift=    0.000
 GapD=    1.963 DampG=2.000 DampE=1.000 DampFc=2.0000 IDamp=-1.
 RMSDP=2.51D-04 MaxDP=3.89D-03              OVMax= 3.83D-03

 Cycle   2  Pass 0  IDiag  1:
 RMSU=  2.50D-04    CP:  9.99D-01
 E= -2994.16437618699     Delta-E=       -0.000342157728 Rises=F Damp=F
 DIIS: error= 4.98D-04 at cycle   2 NSaved=   2.
 NSaved= 2 IEnMin= 2 EnMin= -2994.16437618699     IErMin= 2 ErrMin= 4.98D-04
 ErrMax= 4.98D-04  0.00D+00 EMaxC= 1.00D-01 BMatC= 6.24D-05 BMatP= 7.98D-04
 IDIUse=3 WtCom= 9.95D-01 WtEn= 4.98D-03
 Coeff-Com:  0.120D+00 0.880D+00
 Coeff-En:   0.000D+00 0.100D+01
 Coeff:      0.119D+00 0.881D+00
 Gap=     0.184 Goal=   None    Shift=    0.000
 RMSDP=8.82D-05 MaxDP=1.75D-03 DE=-3.42D-04 OVMax= 3.07D-03

 Cycle   3  Pass 0  IDiag  1:
 RMSU=  8.81D-05    CP:  9.99D-01  9.82D-01
 E= -2994.16436484895     Delta-E=        0.000011338037 Rises=F Damp=F
 DIIS: error= 8.11D-04 at cycle   3 NSaved=   3.
 NSaved= 3 IEnMin= 2 EnMin= -2994.16437618699     IErMin= 2 ErrMin= 4.98D-04
 ErrMax= 8.11D-04  0.00D+00 EMaxC= 1.00D-01 BMatC= 7.71D-05 BMatP= 6.24D-05
 IDIUse=3 WtCom= 2.60D-01 WtEn= 7.40D-01
 Coeff-Com:  0.915D-02 0.527D+00 0.464D+00
 Coeff-En:   0.000D+00 0.536D+00 0.464D+00
 Coeff:      0.238D-02 0.533D+00 0.464D+00
 Gap=     0.186 Goal=   None    Shift=    0.000
 RMSDP=5.72D-05 MaxDP=1.87D-03 DE= 1.13D-05 OVMax= 2.18D-03

 Cycle   4  Pass 0  IDiag  1:
 RMSU=  2.65D-05    CP:  9.99D-01  1.01D+00  4.30D-01
 E= -2994.16443504576     Delta-E=       -0.000070196812 Rises=F Damp=F
 DIIS: error= 3.07D-04 at cycle   4 NSaved=   4.
 NSaved= 4 IEnMin= 4 EnMin= -2994.16443504576     IErMin= 4 ErrMin= 3.07D-04
 ErrMax= 3.07D-04  0.00D+00 EMaxC= 1.00D-01 BMatC= 1.00D-05 BMatP= 6.24D-05
 IDIUse=3 WtCom= 9.97D-01 WtEn= 3.07D-03
 Coeff-Com: -0.276D-02 0.298D+00 0.313D+00 0.392D+00
 Coeff-En:   0.000D+00 0.000D+00 0.000D+00 0.100D+01
 Coeff:     -0.275D-02 0.297D+00 0.312D+00 0.394D+00
 Gap=     0.185 Goal=   None    Shift=    0.000
 RMSDP=1.57D-05 MaxDP=8.39D-04 DE=-7.02D-05 OVMax= 8.38D-04

 Cycle   5  Pass 0  IDiag  1:
 RMSU=  6.68D-06    CP:  9.99D-01  1.00D+00  4.46D-01  4.74D-01
 E= -2994.16444261830     Delta-E=       -0.000007572538 Rises=F Damp=F
 DIIS: error= 3.22D-05 at cycle   5 NSaved=   5.
 NSaved= 5 IEnMin= 5 EnMin= -2994.16444261830     IErMin= 5 ErrMin= 3.22D-05
 ErrMax= 3.22D-05  0.00D+00 EMaxC= 1.00D-01 BMatC= 2.09D-07 BMatP= 1.00D-05
 IDIUse=1 WtCom= 1.00D+00 WtEn= 0.00D+00
 Coeff-Com: -0.181D-02 0.912D-01 0.108D+00 0.185D+00 0.618D+00
 Coeff:     -0.181D-02 0.912D-01 0.108D+00 0.185D+00 0.618D+00
 Gap=     0.185 Goal=   None    Shift=    0.000
 RMSDP=3.31D-06 MaxDP=1.10D-04 DE=-7.57D-06 OVMax= 2.08D-04

 Initial convergence to 1.0D-05 achieved.  Increase integral accuracy.
 Cycle   6  Pass 1  IDiag  1:
 E= -2994.16445817293     Delta-E=       -0.000015554625 Rises=F Damp=F
 DIIS: error= 3.03D-05 at cycle   1 NSaved=   1.
 NSaved= 1 IEnMin= 1 EnMin= -2994.16445817293     IErMin= 1 ErrMin= 3.03D-05
 ErrMax= 3.03D-05  0.00D+00 EMaxC= 1.00D-01 BMatC= 1.23D-07 BMatP= 1.23D-07
 IDIUse=1 WtCom= 1.00D+00 WtEn= 0.00D+00
 Coeff-Com:  0.100D+01
 Coeff:      0.100D+01
 Gap=     0.185 Goal=   None    Shift=    0.000
 RMSDP=3.31D-06 MaxDP=1.10D-04 DE=-1.56D-05 OVMax= 1.71D-04

 Cycle   7  Pass 1  IDiag  1:
 RMSU=  9.71D-06    CP:  1.00D+00
 E= -2994.16445816269     Delta-E=        0.000000010241 Rises=F Damp=F
 DIIS: error= 1.83D-05 at cycle   2 NSaved=   2.
 NSaved= 2 IEnMin= 1 EnMin= -2994.16445817293     IErMin= 2 ErrMin= 1.83D-05
 ErrMax= 1.83D-05  0.00D+00 EMaxC= 1.00D-01 BMatC= 8.33D-08 BMatP= 1.23D-07
 IDIUse=1 WtCom= 1.00D+00 WtEn= 0.00D+00
 Coeff-Com:  0.432D+00 0.568D+00
 Coeff:      0.432D+00 0.568D+00
 Gap=     0.185 Goal=   None    Shift=    0.000
 RMSDP=2.59D-06 MaxDP=7.57D-05 DE= 1.02D-08 OVMax= 1.85D-04

 Cycle   8  Pass 1  IDiag  1:
 RMSU=  2.51D-06    CP:  1.00D+00  9.36D-01
 E= -2994.16445820815     Delta-E=       -0.000000045459 Rises=F Damp=F
 DIIS: error= 1.48D-05 at cycle   3 NSaved=   3.
[...]
   XZ=     0.0065   YZ=    -0.0153   ZZ=   151.5830
   Eigenvalues:   -82.9716    -1.3160   151.5830
     12  H    Isotropic =    29.1318   Anisotropy =     8.0136
   XX=    30.9101   YX=     1.1186   ZX=    -1.3495
   XY=     2.3160   YY=    28.0464   ZY=    -3.2620
   XZ=    -3.0981   YZ=    -4.7986   ZZ=    28.4387
   Eigenvalues:    24.1928    28.7283    34.4741
     13  H    Isotropic =    29.1314   Anisotropy =     8.0112
   XX=    30.9109   YX=     1.1184   ZX=     1.3455
   XY=     2.3221   YY=    28.0559   ZY=     3.2636
   XZ=     3.0947   YZ=     4.7961   ZZ=    28.4273
   Eigenvalues:    24.1930    28.7289    34.4722
     14  H    Isotropic =    28.6300   Anisotropy =     6.6243
   XX=    30.6416   YX=     1.6838   ZX=     1.6815
   XY=     0.2968   YY=    27.9310   ZY=    -3.5150
   XZ=     3.1700   YZ=    -6.3438   ZZ=    27.3175
   Eigenvalues:    21.9873    30.8565    33.0462
     15  H    Isotropic =    28.6306   Anisotropy =     6.6275
   XX=    30.6362   YX=     1.6844   ZX=    -1.6811
   XY=     0.2985   YY=    27.9308   ZY=     3.5148
   XZ=    -3.1700   YZ=     6.3471   ZZ=    27.3248
   Eigenvalues:    21.9889    30.8540    33.0490
     16  H    Isotropic =    23.3577   Anisotropy =    10.9851
   XX=    22.1555   YX=    -4.3848   ZX=     0.0005
   XY=    -3.5007   YY=    28.8576   ZY=    -0.0009
   XZ=     0.0008   YZ=    -0.0008   ZZ=    19.0598
   Eigenvalues:    19.0598    20.3321    30.6810
     17  H    Isotropic =    23.6778   Anisotropy =     5.8949
   XX=    27.5931   YX=    -0.0401   ZX=     0.0004
   XY=    -0.4813   YY=    22.9642   ZY=    -0.0003
   XZ=     0.0003   YZ=    -0.0000   ZZ=    20.4761
   Eigenvalues:    20.4761    22.9496    27.6077
     18  H    Isotropic =    23.2204   Anisotropy =     6.1431
   XX=    23.7047   YX=     2.2085   ZX=     0.0003
   XY=     2.2418   YY=    25.9447   ZY=    -0.0005
   XZ=     0.0004   YZ=    -0.0005   ZZ=    20.0119
   Eigenvalues:    20.0119    22.3336    27.3158
 End of Minotr F.D. properties file   721 does not exist.
 End of Minotr F.D. properties file   722 does not exist.
 End of Minotr F.D. properties file   788 does not exist.
 Leave Link 1002 at Tue Sep 17 10:56:29 2024, MaxMem=  1342177280 cpu:             908.5 elap:             911.8
 (Enter /groups/ReismanLab/Software/Gaussian16_RevC/Linux_Binary_AVX2-enabled-CPU/g16/l601.exe)
 Copying SCF densities to generalized density rwf, IOpCl= 0 IROHF=0.

 **********************************************************************

            Population analysis using the SCF Density.

 **********************************************************************

 Orbital symmetries:
       Occupied  (A) (A) (A) (A) (A) (A) (A) (A) (A) (A) (A) (A)
                 (A) (A) (A) (A) (A) (A) (A) (A) (A) (A) (A) (A)
                 (A) (A) (A) (A) (A) (A) (A) (A) (A) (A) (A) (A)
                 (A) (A) (A) (A) (A) (A) (A) (A) (A) (A) (A) (A)
                 (A) (A) (A) (A)
       Virtual   (A) (A) (A) (A) (A) (A) (A) (A) (A) (A) (A) (A)
                 (A) (A) (A) (A) (A) (A) (A) (A) (A) (A) (A) (A)
                 (A) (A) (A) (A) (A) (A) (A) (A) (A) (A) (A) (A)
                 (A) (A) (A) (A) (A) (A) (A) (A) (A) (A) (A) (A)
                 (A) (A) (A) (A) (A) (A) (A) (A) (A) (A) (A) (A)
                 (A) (A) (A) (A) (A) (A) (A) (A) (A) (A) (A) (A)
                 (A) (A) (A) (A) (A) (A) (A) (A) (A) (A) (A) (A)
                 (A) (A) (A) (A) (A) (A) (A) (A) (A) (A) (A) (A)
                 (A) (A) (A) (A) (A) (A) (A) (A) (A) (A) (A) (A)
                 (A) (A) (A) (A) (A) (A) (A) (A) (A) (A) (A) (A)
                 (A) (A) (A) (A) (A) (A) (A) (A) (A) (A) (A) (A)
                 (A) (A) (A) (A) (A) (A) (A) (A) (A) (A) (A) (A)
                 (A) (A) (A) (A) (A) (A) (A) (A) (A) (A) (A) (A)
                 (A) (A) (A) (A) (A) (A) (A) (A) (A) (A) (A) (A)
                 (A) (A) (A) (A) (A) (A) (A) (A) (A) (A) (A) (A)
                 (A) (A) (A) (A) (A) (A) (A) (A) (A) (A) (A) (A)
                 (A) (A) (A) (A) (A) (A) (A) (A) (A) (A) (A) (A)
                 (A) (A) (A) (A) (A) (A) (A) (A) (A) (A) (A) (A)
                 (A) (A) (A) (A) (A) (A) (A) (A) (A) (A) (A) (A)
                 (A) (A) (A) (A) (A) (A) (A) (A) (A) (A) (A) (A)
                 (A) (A) (A) (A) (A) (A) (A) (A) (A) (A) (A) (A)
                 (A) (A) (A) (A) (A) (A) (A) (A) (A) (A) (A) (A)
                 (A) (A) (A) (A) (A) (A) (A) (A) (A) (A) (A) (A)
                 (A) (A) (A) (A) (A) (A) (A) (A) (A) (A) (A) (A)
                 (A) (A) (A) (A) (A) (A) (A) (A) (A) (A) (A) (A)
                 (A) (A) (A) (A) (A) (A) (A) (A) (A) (A) (A) (A)
                 (A) (A) (A) (A) (A) (A) (A) (A) (A) (A) (A) (A)
                 (A) (A) (A) (A) (A) (A) (A) (A) (A) (A) (A) (A)
                 (A) (A) (A) (A) (A) (A) (A) (A) (A) (A) (A) (A)
 The electronic state is 1-A.
 Alpha  occ. eigenvalues -- -485.38277 -63.36748 -57.18692 -57.18459 -57.18451
 Alpha  occ. eigenvalues --  -19.62185 -10.63463 -10.61160 -10.57522 -10.56981
 Alpha  occ. eigenvalues --  -10.56248 -10.56093 -10.55821 -10.55515 -10.54821
 Alpha  occ. eigenvalues --   -9.03384  -6.85786  -6.84921  -6.84893  -2.89163
 Alpha  occ. eigenvalues --   -2.88852  -2.88820  -2.88015  -2.88014  -1.16720
 Alpha  occ. eigenvalues --   -1.00170  -0.92869  -0.90855  -0.83797  -0.82398
 Alpha  occ. eigenvalues --   -0.77475  -0.70933  -0.68136  -0.62679  -0.57628
 Alpha  occ. eigenvalues --   -0.56213  -0.55373  -0.53951  -0.50619  -0.49497
 Alpha  occ. eigenvalues --   -0.47516  -0.47459  -0.46867  -0.44875  -0.43223
 Alpha  occ. eigenvalues --   -0.41310  -0.41196  -0.38563  -0.35854  -0.32575
 Alpha  occ. eigenvalues --   -0.32123  -0.30625
 Alpha virt. eigenvalues --   -0.03652   0.00411   0.03323   0.06919   0.07045
 Alpha virt. eigenvalues --    0.09754   0.10438   0.11731   0.12746   0.13140
 Alpha virt. eigenvalues --    0.14899   0.16875   0.17369   0.17862   0.18582
 Alpha virt. eigenvalues --    0.19175   0.19708   0.22076   0.22616   0.23053
 Alpha virt. eigenvalues --    0.23949   0.25639   0.26207   0.26650   0.27186
 Alpha virt. eigenvalues --    0.28067   0.29106   0.30282   0.30675   0.31542
 Alpha virt. eigenvalues --    0.31707   0.33129   0.33398   0.34319   0.34859
 Alpha virt. eigenvalues --    0.35726   0.36617   0.36792   0.38841   0.40192
 Alpha virt. eigenvalues --    0.40872   0.41620   0.43027   0.43702   0.44393
 Alpha virt. eigenvalues --    0.44603   0.45409   0.46226   0.46634   0.47331
 Alpha virt. eigenvalues --    0.48241   0.48334   0.50093   0.50491   0.50981
 Alpha virt. eigenvalues --    0.53142   0.53542   0.54021   0.55097   0.57443
 Alpha virt. eigenvalues --    0.58579   0.59961   0.61043   0.62294   0.62786
 Alpha virt. eigenvalues --    0.65890   0.66398   0.66778   0.69321   0.70339
 Alpha virt. eigenvalues --    0.72196   0.73114   0.74319   0.74742   0.76151
 Alpha virt. eigenvalues --    0.78113   0.78542   0.79850   0.81416   0.83846
 Alpha virt. eigenvalues --    0.84199   0.86873   0.88684   0.89068   0.90425
 Alpha virt. eigenvalues --    0.92655   0.93791   0.94523   0.95112   0.96846
 Alpha virt. eigenvalues --    0.98912   1.01169   1.01913   1.02772   1.04964
 Alpha virt. eigenvalues --    1.06638   1.07523   1.10146   1.10317   1.10851
 Alpha virt. eigenvalues --    1.13496   1.14089   1.15282   1.18166   1.20559
 Alpha virt. eigenvalues --    1.20998   1.24070   1.26461   1.27264   1.27309
 Alpha virt. eigenvalues --    1.29098   1.30102   1.31094   1.31365   1.34343
 Alpha virt. eigenvalues --    1.36598   1.37571   1.38832   1.40238   1.40265
 Alpha virt. eigenvalues --    1.42410   1.44272   1.46958   1.47137   1.48803
 Alpha virt. eigenvalues --    1.51087   1.51198   1.54279   1.54837   1.55620
 Alpha virt. eigenvalues --    1.57295   1.57544   1.59570   1.60731   1.60791
 Alpha virt. eigenvalues --    1.62367   1.62814   1.64857   1.65823   1.66344
 Alpha virt. eigenvalues --    1.66538   1.67742   1.70302   1.70478   1.73348
 Alpha virt. eigenvalues --    1.73456   1.74706   1.76390   1.78951   1.80235
 Alpha virt. eigenvalues --    1.81767   1.82293   1.83708   1.84103   1.86923
 Alpha virt. eigenvalues --    1.89605   1.90315   1.92340   1.93261   1.96279
 Alpha virt. eigenvalues --    1.97980   1.98294   1.99675   2.00832   2.03730
 Alpha virt. eigenvalues --    2.06593   2.08196   2.08978   2.15686   2.16061
 Alpha virt. eigenvalues --    2.17091   2.21031   2.21080   2.22513   2.24712
 Alpha virt. eigenvalues --    2.24768   2.25165   2.30952   2.31115   2.33890
 Alpha virt. eigenvalues --    2.40104   2.41723   2.42254   2.44724   2.46276
 Alpha virt. eigenvalues --    2.47103   2.47266   2.51469   2.53288   2.53490
 Alpha virt. eigenvalues --    2.55781   2.56135   2.59115   2.62051   2.62403
 Alpha virt. eigenvalues --    2.64742   2.65561   2.67416   2.68725   2.69549
 Alpha virt. eigenvalues --    2.71492   2.73277   2.74248   2.76749   2.78303
 Alpha virt. eigenvalues --    2.78747   2.79812   2.80995   2.82617   2.83338
 Alpha virt. eigenvalues --    2.86530   2.87469   2.87900   2.90068   2.90647
 Alpha virt. eigenvalues --    2.92150   2.92256   2.97128   2.97795   2.98020
 Alpha virt. eigenvalues --    2.99173   3.01317   3.03170   3.06631   3.07301
 Alpha virt. eigenvalues --    3.08517   3.10112   3.11395   3.11644   3.13276
 Alpha virt. eigenvalues --    3.14081   3.14221   3.15427   3.16886   3.17430
 Alpha virt. eigenvalues --    3.19245   3.19467   3.20207   3.23207   3.24581
 Alpha virt. eigenvalues --    3.24707   3.28908   3.29783   3.31669   3.31857
 Alpha virt. eigenvalues --    3.32006   3.35065   3.37819   3.38063   3.38446
 Alpha virt. eigenvalues --    3.40856   3.41218   3.42232   3.45527   3.46111
 Alpha virt. eigenvalues --    3.46643   3.47204   3.48624   3.52009   3.55309
 Alpha virt. eigenvalues --    3.55651   3.57183   3.58496   3.62931   3.63043
 Alpha virt. eigenvalues --    3.66263   3.68088   3.69611   3.72591   3.73222
 Alpha virt. eigenvalues --    3.76659   3.81150   3.81164   3.82893   3.87508
 Alpha virt. eigenvalues --    3.89717   3.91834   3.93465   3.94860   3.97362
 Alpha virt. eigenvalues --    4.00539   4.01127   4.04967   4.06803   4.08865
 Alpha virt. eigenvalues --    4.10243   4.13648   4.15510   4.15844   4.16635
 Alpha virt. eigenvalues --    4.17737   4.22710   4.23508   4.23563   4.23658
 Alpha virt. eigenvalues --    4.24770   4.30221   4.31427   4.33477   4.33702
 Alpha virt. eigenvalues --    4.38939   4.40607   4.46709   4.47385   4.56088
 Alpha virt. eigenvalues --    4.56708   4.60726   4.62538   4.64798   4.68304
 Alpha virt. eigenvalues --    4.68749   4.73996   4.76214   4.82392   4.85201
 Alpha virt. eigenvalues --    4.92609   4.97891   5.02273   5.09338   5.16291
 Alpha virt. eigenvalues --    5.19096   5.22292   5.22900   5.30857   5.44024
 Alpha virt. eigenvalues --    5.45307   5.58848   5.61974   5.74713   6.12441
 Alpha virt. eigenvalues --    6.39309   6.39957   6.57377   6.64845   6.80842
 Alpha virt. eigenvalues --    7.03005   7.08342   7.86880  22.11825  22.60450
 Alpha virt. eigenvalues --   22.68577  22.73984  22.75500  22.90121  23.05347
 Alpha virt. eigenvalues --   23.43707  23.64918  44.09118
          Condensed to atoms (all electrons):
               1          2          3          4          5          6
     1  O    7.811966   0.723814  -0.106708   0.011868   0.000229  -0.000003
     2  C    0.723814   4.841320   0.420384  -0.102608  -0.011515  -0.000562
     3  C   -0.106708   0.420384   5.448009   0.069212   0.008819  -0.000906
     4  C    0.011868  -0.102608   0.069212   5.469235   0.167939  -0.073987
     5  C    0.000229  -0.011515   0.008819   0.167939   5.749360   0.133325
     6  C   -0.000003  -0.000562  -0.000906  -0.073987   0.133325   5.180426
     7  Br   0.000012  -0.000888   0.003601  -0.022530  -0.158203   0.426637
     8  C   -0.000117  -0.004886  -0.001720   0.023400   0.081646   0.367523
     9  C    0.002659   0.012108  -0.000533  -0.005582  -0.144629   0.042186
    10  C    0.023883  -0.056512   0.043681  -0.003999   0.017221  -0.088272
    11  C   -0.163031   0.036419  -0.342759   0.024231   0.118320   0.111326
    12  H    0.004365  -0.031892   0.393928  -0.022686  -0.000100   0.000369
    13  H    0.004372  -0.031978   0.394043  -0.022742  -0.000074   0.000366
    14  H   -0.000152   0.004984  -0.024631   0.402870  -0.037238  -0.001438
    15  H   -0.000152   0.004942  -0.024542   0.402666  -0.037133  -0.001424
    16  H   -0.000001   0.000051   0.000010   0.000341   0.021066  -0.058423
    17  H   -0.000027  -0.000188  -0.000017   0.000104   0.000142   0.003521
    18  H    0.009929  -0.000532   0.002382  -0.001277   0.009815  -0.000891
               7          8          9         10         11         12
     1  O    0.000012  -0.000117   0.002659   0.023883  -0.163031   0.004365
     2  C   -0.000888  -0.004886   0.012108  -0.056512   0.036419  -0.031892
     3  C    0.003601  -0.001720  -0.000533   0.043681  -0.342759   0.393928
     4  C   -0.022530   0.023400  -0.005582  -0.003999   0.024231  -0.022686
     5  C   -0.158203   0.081646  -0.144629   0.017221   0.118320  -0.000100
     6  C    0.426637   0.367523   0.042186  -0.088272   0.111326   0.000369
     7  Br  34.902728  -0.101761   0.019982  -0.005900   0.038810  -0.000057
     8  C   -0.101761   5.121675   0.395327   0.011637  -0.147879   0.000040
     9  C    0.019982   0.395327   5.014351   0.438955   0.014087   0.000056
    10  C   -0.005900   0.011637   0.438955   5.166239   0.299707  -0.001368
    11  C    0.038810  -0.147879   0.014087   0.299707   5.964651   0.013369
    12  H   -0.000057   0.000040   0.000056  -0.001368   0.013369   0.489542
    13  H   -0.000057   0.000040   0.000056  -0.001367   0.013407  -0.012566
    14  H    0.002585  -0.000400   0.000144   0.000042   0.001006  -0.005916
    15  H    0.002583  -0.000402   0.000145   0.000038   0.000996   0.000755
    16  H   -0.005617   0.428033  -0.041457   0.007487  -0.004947  -0.000001
    17  H   -0.000298  -0.032728   0.416340  -0.034047   0.005129  -0.000000
    18  H    0.000019   0.005023  -0.028789   0.403220  -0.038158  -0.000070
              13         14         15         16         17         18
     1  O    0.004372  -0.000152  -0.000152  -0.000001  -0.000027   0.009929
     2  C   -0.031978   0.004984   0.004942   0.000051  -0.000188  -0.000532
     3  C    0.394043  -0.024631  -0.024542   0.000010  -0.000017   0.002382
     4  C   -0.022742   0.402870   0.402666   0.000341   0.000104  -0.001277
     5  C   -0.000074  -0.037238  -0.037133   0.021066   0.000142   0.009815
     6  C    0.000366  -0.001438  -0.001424  -0.058423   0.003521  -0.000891
     7  Br  -0.000057   0.002585   0.002583  -0.005617  -0.000298   0.000019
     8  C    0.000040  -0.000400  -0.000402   0.428033  -0.032728   0.005023
     9  C    0.000056   0.000144   0.000145  -0.041457   0.416340  -0.028789
    10  C   -0.001367   0.000042   0.000038   0.007487  -0.034047   0.403220
    11  C    0.013407   0.001006   0.000996  -0.004947   0.005129  -0.038158
    12  H   -0.012566  -0.005916   0.000755  -0.000001  -0.000000  -0.000070
    13  H    0.489511   0.000747  -0.005909  -0.000001  -0.000000  -0.000070
    14  H    0.000747   0.505667  -0.026400  -0.000006  -0.000002   0.000027
    15  H   -0.005909  -0.026400   0.505709  -0.000006  -0.000002   0.000027
    16  H   -0.000001  -0.000006  -0.000006   0.476688  -0.003229  -0.000098
    17  H   -0.000000  -0.000002  -0.000002  -0.003229   0.476894  -0.002860
    18  H   -0.000070   0.000027   0.000027  -0.000098  -0.002860   0.464698
 Mulliken charges:
               1
     1  O   -0.322904
     2  C    0.197538
     3  C   -0.282251
     4  C   -0.316454
     5  C    0.081010
     6  C   -0.039772
     7  Br  -0.101645
     8  C   -0.144451
     9  C   -0.135404
    10  C   -0.220645
    11  C    0.055316
    12  H    0.172234
    13  H    0.172223
    14  H    0.178113
    15  H    0.178110
    16  H    0.180108
    17  H    0.171269
    18  H    0.177605
 Sum of Mulliken charges =  -0.00000
 Mulliken charges with hydrogens summed into heavy atoms:
               1
     1  O   -0.322904
     2  C    0.197538
     3  C    0.062206
     4  C    0.039769
     5  C    0.081010
     6  C   -0.039772
     7  Br  -0.101645
     8  C    0.035657
     9  C    0.035865
    10  C   -0.043041
    11  C    0.055316
 Electronic spatial extent (au):  <R**2>=           2517.5525
 Charge=             -0.0000 electrons
 Dipole moment (field-independent basis, Debye):
    X=              2.1488    Y=              0.1340    Z=              0.0008  Tot=              2.1530
 Quadrupole moment (field-independent basis, Debye-Ang):
   XX=            -94.6115   YY=            -63.7954   ZZ=            -77.3188
   XY=              2.0284   XZ=             -0.0037   YZ=             -0.0014
 Traceless Quadrupole moment (field-independent basis, Debye-Ang):
   XX=            -16.0362   YY=             14.7798   ZZ=              1.2564
   XY=              2.0284   XZ=             -0.0037   YZ=             -0.0014
 Octapole moment (field-independent basis, Debye-Ang**2):
  XXX=            157.7112  YYY=              0.7749  ZZZ=              0.0059  XYY=             13.0888
  XXY=             -2.0905  XXZ=              0.0160  XZZ=             19.4336  YZZ=            -13.4915
  YYZ=             -0.0020  XYZ=              0.0020
 Hexadecapole moment (field-independent basis, Debye-Ang**3):
 XXXX=          -2357.8074 YYYY=           -840.2111 ZZZZ=            -99.6410 XXXY=            -58.2718
 XXXZ=             -0.0893 YYYX=            -21.4981 YYYZ=              0.0413 ZZZX=             -0.0433
 ZZZY=              0.0454 XXYY=           -440.8607 XXZZ=           -343.0823 YYZZ=           -178.1460
 XXYZ=              0.0080 YYXZ=             -0.0049 ZZXY=             -1.0927
 N-N= 8.116758560736D+02 E-N=-8.758235310179D+03  KE= 2.990987571442D+03
 Calculating spin-rotation constants.
 Leave Link  601 at Tue Sep 17 10:56:34 2024, MaxMem=  1342177280 cpu:               4.6 elap:               4.8
 (Enter /groups/ReismanLab/Software/Gaussian16_RevC/Linux_Binary_AVX2-enabled-CPU/g16/l9999.exe)
 Unable to Open any file for archive entry.
 1\1\GINC-HPC-83-27\SP\RM062X\def2TZVP\C9H7Br1O1\MANTIND\17-Sep-2024\0\
 \#p M062X/def2tzvp geom=check guess=read scf(xqc,tight) integral(grid=
 ultrafine) scrf(SMD, solvent=1,4-Dioxane) nmr=giao\\spe\\0,1\O,0,-4.05
 36624154,-0.3245132525,-0.0001696466\C,0,-2.8623885272,-0.5640951976,0
 .0001680108\C,0,-2.215946135,-1.9589096466,0.0007483698\C,0,-0.6870612
 721,-1.7308687544,0.0002379435\C,0,-0.529296617,-0.2289420556,0.000231
 4719\C,0,0.6324905327,0.5346239876,0.0002395591\Br,0,2.3322306977,-0.3
 366419376,0.000372441\C,0,0.5624596058,1.9268099658,0.000140654\C,0,-0
 .6845249625,2.5670835417,0.000010564\C,0,-1.8612204619,1.8230906569,-0
 .0000139495\C,0,-1.7610070173,0.4318769466,0.0001175567\H,0,-2.5638408
 567,-2.5103997618,0.8792545628\H,0,-2.5644323342,-2.511648613,-0.87671
 8652\H,0,-0.1951931445,-2.1679404147,0.8756168916\H,0,-0.1959125445,-2
 .167755029,-0.8756480688\H,0,1.4771449699,2.5085433164,0.0001618775\H,
 0,-0.7201742524,3.6517127613,-0.0000698037\H,0,-2.8390860779,2.2928764
 706,-0.0001118978\\Version=ES64L-G16RevC.02\State=1-A\HF=-2996.5927532
 \RMSD=4.197e-09\Dipole=0.8436064,0.0762917,0.0003228\Quadrupole=-11.98
 88686,11.0547576,0.934111,0.8662848,-0.002734,-0.0011487\PG=C01 [X(C9H
 7Br1O1)]\\@
 The archive entry for this job was punched.


 MICHAEL FARADAY, ASKED BY A POLITICIAN WHAT GOOD
 HIS ELECTRICAL DISCOVERIES WERE, REPLIED 
 "AT PRESENT I DO NOT KNOW, BUT ONE DAY YOU WILL BE
 ABLE TO TAX THEM."
 Job cpu time:       0 days  0 hours 16 minutes 37.4 seconds.
 Elapsed time:       0 days  0 hours 16 minutes 43.2 seconds.
 File lengths (MBytes):  RWF=    256 Int=      0 D2E=      0 Chk=     24 Scr=     16
 Normal termination of Gaussian 16 at Tue Sep 17 10:56:35 2024.
