 Entering Gaussian System, Link 0=g16
 Input=smiles_00104_conf_3.gjf
 Output=smiles_00104_conf_3.log
 Initial command:
 /groups/ReismanLab/Software/Gaussian16_RevC/Linux_Binary_AVX2-enabled-CPU/g16/l1.exe "/central/groups/ReismanLab/DM/dft_final/smiles_00104/Gau-102423.inp" -scrdir="/central/groups/ReismanLab/DM/dft_final/smiles_00104/"
 Entering Link 1 = /groups/ReismanLab/Software/Gaussian16_RevC/Linux_Binary_AVX2-enabled-CPU/g16/l1.exe PID=    102428.
  
 Copyright (c) 1988-2021, Gaussian, Inc.  All Rights Reserved.
  
 This is part of the Gaussian(R) 16 program.  It is based on
 the Gaussian(R) 09 system (copyright 2009, Gaussian, Inc.),
 the Gaussian(R) 03 system (copyright 2003, Gaussian, Inc.),
 the Gaussian(R) 98 system (copyright 1998, Gaussian, Inc.),
 the Gaussian(R) 94 system (copyright 1995, Gaussian, Inc.),
 the Gaussian 92(TM) system (copyright 1992, Gaussian, Inc.),
 the Gaussian 90(TM) system (copyright 1990, Gaussian, Inc.),
 the Gaussian 88(TM) system (copyright 1988, Gaussian, Inc.),
 the Gaussian 86(TM) system (copyright 1986, Carnegie Mellon
 University), and the Gaussian 82(TM) system (copyright 1983,
 Carnegie Mellon University). Gaussian is a federally registered
 trademark of Gaussian, Inc.
  
 This software contains proprietary and confidential information,
 including trade secrets, belonging to Gaussian, Inc.
  
 This software is provided under written license and may be
 used, copied, transmitted, or stored only in accord with that
 written license.
  
 The following legend is applicable only to US Government
 contracts under FAR:
  
                    RESTRICTED RIGHTS LEGEND
  
 Use, reproduction and disclosure by the US Government is
 subject to restrictions as set forth in subparagraphs (a)
 and (c) of the Commercial Computer Software - Restricted
 Rights clause in FAR 52.227-19.
  
 Gaussian, Inc.
 340 Quinnipiac St., Bldg. 40, Wallingford CT 06492
  
  
 ---------------------------------------------------------------
 Warning -- This program may not be used in any manner that
 competes with the business of Gaussian, Inc. or will provide
 assistance to any competitor of Gaussian, Inc.  The licensee
 of this program is prohibited from giving any competitor of
 Gaussian, Inc. access to this program.  By using this program,
 the user acknowledges that Gaussian, Inc. is engaged in the
 business of creating and licensing software in the field of
 computational chemistry and represents and warrants to the
 licensee that it is not a competitor of Gaussian, Inc. and that
 it will not use this program in any manner prohibited above.
 ---------------------------------------------------------------
  

 Cite this work as:
 Gaussian 16, Revision C.02,
 M. J. Frisch, G. W. Trucks, H. B. Schlegel, G. E. Scuseria, 
 M. A. Robb, J. R. Cheeseman, G. Scalmani, V. Barone, 
 G. A. Petersson, H. Nakatsuji, X. Li, M. Caricato, A. V. Marenich, 
 J. Bloino, B. G. Janesko, R. Gomperts, B. Mennucci, H. P. Hratchian, 
 J. V. Ortiz, A. F. Izmaylov, J. L. Sonnenberg, D. Williams-Young, 
 F. Ding, F. Lipparini, F. Egidi, J. Goings, B. Peng, A. Petrone, 
 T. Henderson, D. Ranasinghe, V. G. Zakrzewski, J. Gao, N. Rega, 
 G. Zheng, W. Liang, M. Hada, M. Ehara, K. Toyota, R. Fukuda, 
 J. Hasegawa, M. Ishida, T. Nakajima, Y. Honda, O. Kitao, H. Nakai, 
 T. Vreven, K. Throssell, J. A. Montgomery, Jr., J. E. Peralta, 
 F. Ogliaro, M. J. Bearpark, J. J. Heyd, E. N. Brothers, K. N. Kudin, 
 V. N. Staroverov, T. A. Keith, R. Kobayashi, J. Normand, 
 K. Raghavachari, A. P. Rendell, J. C. Burant, S. S. Iyengar, 
 J. Tomasi, M. Cossi, J. M. Millam, M. Klene, C. Adamo, R. Cammi, 
 J. W. Ochterski, R. L. Martin, K. Morokuma, O. Farkas, 
 J. B. Foresman, and D. J. Fox, Gaussian, Inc., Wallingford CT, 2019.
 
 ******************************************
 Gaussian 16:  ES64L-G16RevC.02  7-Dec-2021
                17-Sep-2024 
 ******************************************
 %nprocshared=8
 Will use up to    8 processors via shared memory.
 %Mem=10GB
 %Chk=smiles_00104_conf_3.chk
 ----------------------------------------------------------------------
 #p B3LYP/6-31G(d,p) EmpiricalDispersion=GD3BJ opt freq scf(xqc,tight) 
 integral(grid=ultrafine)
 ----------------------------------------------------------------------
 1/18=20,19=15,26=4,38=1/1,3;
 2/9=110,12=2,17=6,18=5,40=1/2;
 3/5=1,6=6,7=101,11=2,25=1,30=1,71=1,74=-5,75=-5,124=41/1,2,3;
 4//1;
 5/5=2,8=3,13=1,32=2,38=5/2,8;
 6/7=2,8=2,9=2,10=2,28=1/1;
 7//1,2,3,16;
 1/18=20,19=15,26=4/3(2);
 2/9=110/2;
 99//99;
 2/9=110/2;
 3/5=1,6=6,7=101,11=2,25=1,30=1,71=1,74=-5,75=-5,124=41/1,2,3;
 4/5=5,16=3,69=1/1;
 5/5=2,8=3,13=1,32=2,38=5/2,8;
 7//1,2,3,16;
 1/18=20,19=15,26=4/3(-5);
 2/9=110/2;
 6/7=2,8=2,9=2,10=2,19=2,28=1/1;
 99/9=1/99;
 Leave Link    1 at Tue Sep 17 09:47:39 2024, MaxMem=  1342177280 cpu:               0.1 elap:               0.9
 (Enter /groups/ReismanLab/Software/Gaussian16_RevC/Linux_Binary_AVX2-enabled-CPU/g16/l101.exe)
 ----------------------------------
 opt-freq conformers_unique/conf_ad
 ----------------------------------
 Symbolic Z-matrix:
 Charge =  0 Multiplicity = 1
 C                    -4.22812   0.48225   1.06149 
 C                    -3.43066  -0.07959  -0.08719 
 O                    -3.95167  -0.64408  -1.019 
 C                    -1.94732   0.03882  -0.00467 
 C                    -1.27755   1.14171   0.52582 
 C                     0.10512   1.15551   0.53859 
 C                     0.75722   0.04727   0.01452 
 Br                    2.65123  -0.01347  -0.00093 
 N                     0.14709  -0.99761  -0.49706 
 C                    -1.16946  -1.00221  -0.517 
 H                    -4.62583  -0.35876   1.62897 
 H                    -5.07814   1.03987   0.67432 
 H                    -3.63909   1.10357   1.72653 
 H                    -1.82164   1.99762   0.89697 
 H                     0.66299   1.99104   0.93013 
 H                    -1.63826  -1.87445  -0.95126 
 
 ITRead=  0  0  0  0  0  0  0  0  0  0  0  0  0  0  0  0
 MicOpt= -1 -1 -1 -1 -1 -1 -1 -1 -1 -1 -1 -1 -1 -1 -1 -1
 NAtoms=     16 NQM=       16 NQMF=       0 NMMI=      0 NMMIF=      0
                NMic=       0 NMicF=      0.
                    Isotopes and Nuclear Properties:
 (Nuclear quadrupole moments (NQMom) in fm**2, nuclear magnetic moments (NMagM)
  in nuclear magnetons)

  Atom         1           2           3           4           5           6           7           8           9          10
 IAtWgt=          12          12          16          12          12          12          12          79          14          12
 AtmWgt=  12.0000000  12.0000000  15.9949146  12.0000000  12.0000000  12.0000000  12.0000000  78.9183361  14.0030740  12.0000000
 NucSpn=           0           0           0           0           0           0           0           3           2           0
 AtZEff=  -0.0000000  -0.0000000  -0.0000000  -0.0000000  -0.0000000  -0.0000000  -0.0000000  -0.0000000  -0.0000000  -0.0000000
 NQMom=    0.0000000   0.0000000   0.0000000   0.0000000   0.0000000   0.0000000   0.0000000  31.3000000   2.0440000   0.0000000
 NMagM=    0.0000000   0.0000000   0.0000000   0.0000000   0.0000000   0.0000000   0.0000000   2.1063990   0.4037610   0.0000000
 AtZNuc=   6.0000000   6.0000000   8.0000000   6.0000000   6.0000000   6.0000000   6.0000000  35.0000000   7.0000000   6.0000000

  Atom        11          12          13          14          15          16
 IAtWgt=           1           1           1           1           1           1
 AtmWgt=   1.0078250   1.0078250   1.0078250   1.0078250   1.0078250   1.0078250
 NucSpn=           1           1           1           1           1           1
 AtZEff=  -0.0000000  -0.0000000  -0.0000000  -0.0000000  -0.0000000  -0.0000000
 NQMom=    0.0000000   0.0000000   0.0000000   0.0000000   0.0000000   0.0000000
 NMagM=    2.7928460   2.7928460   2.7928460   2.7928460   2.7928460   2.7928460
 AtZNuc=   1.0000000   1.0000000   1.0000000   1.0000000   1.0000000   1.0000000
 Leave Link  101 at Tue Sep 17 09:47:39 2024, MaxMem=  1342177280 cpu:               0.4 elap:               0.4
 (Enter /groups/ReismanLab/Software/Gaussian16_RevC/Linux_Binary_AVX2-enabled-CPU/g16/l103.exe)

 GradGradGradGradGradGradGradGradGradGradGradGradGradGradGradGradGradGrad
 Berny optimization.
 Initialization pass.
                           ----------------------------
                           !    Initial Parameters    !
                           ! (Angstroms and Degrees)  !
 --------------------------                            --------------------------
 ! Name  Definition              Value          Derivative Info.                !
 --------------------------------------------------------------------------------
 ! R1    R(1,2)                  1.507          estimate D2E/DX2                !
 ! R2    R(1,11)                 1.0897         estimate D2E/DX2                !
 ! R3    R(1,12)                 1.0878         estimate D2E/DX2                !
 ! R4    R(1,13)                 1.0841         estimate D2E/DX2                !
 ! R5    R(2,3)                  1.2076         estimate D2E/DX2                !
 ! R6    R(2,4)                  1.4903         estimate D2E/DX2                !
 ! R7    R(4,5)                  1.3951         estimate D2E/DX2                !
 ! R8    R(4,10)                 1.3969         estimate D2E/DX2                !
 ! R9    R(5,6)                  1.3828         estimate D2E/DX2                !
 ! R10   R(5,14)                 1.08           estimate D2E/DX2                !
 ! R11   R(6,7)                  1.3885         estimate D2E/DX2                !
 ! R12   R(6,15)                 1.0783         estimate D2E/DX2                !
 ! R13   R(7,8)                  1.8951         estimate D2E/DX2                !
 ! R14   R(7,9)                  1.3137         estimate D2E/DX2                !
 ! R15   R(9,10)                 1.3167         estimate D2E/DX2                !
 ! R16   R(10,16)                1.0813         estimate D2E/DX2                !
 ! A1    A(2,1,11)             107.598          estimate D2E/DX2                !
 ! A2    A(2,1,12)             109.4695         estimate D2E/DX2                !
 ! A3    A(2,1,13)             113.1877         estimate D2E/DX2                !
 ! A4    A(11,1,12)            107.2032         estimate D2E/DX2                !
 ! A5    A(11,1,13)            108.7329         estimate D2E/DX2                !
 ! A6    A(12,1,13)            110.4326         estimate D2E/DX2                !
 ! A7    A(1,2,3)              122.2833         estimate D2E/DX2                !
 ! A8    A(1,2,4)              117.0558         estimate D2E/DX2                !
 ! A9    A(3,2,4)              120.6147         estimate D2E/DX2                !
 ! A10   A(2,4,5)              124.1721         estimate D2E/DX2                !
 ! A11   A(2,4,10)             118.341          estimate D2E/DX2                !
 ! A12   A(5,4,10)             117.4693         estimate D2E/DX2                !
 ! A13   A(4,5,6)              119.4349         estimate D2E/DX2                !
 ! A14   A(4,5,14)             121.0195         estimate D2E/DX2                !
 ! A15   A(6,5,14)             119.5157         estimate D2E/DX2                !
 ! A16   A(5,6,7)              117.2666         estimate D2E/DX2                !
 ! A17   A(5,6,15)             121.8994         estimate D2E/DX2                !
 ! A18   A(7,6,15)             120.8323         estimate D2E/DX2                !
 ! A19   A(6,7,8)              119.8698         estimate D2E/DX2                !
 ! A20   A(6,7,9)              124.3109         estimate D2E/DX2                !
 ! A21   A(8,7,9)              115.8182         estimate D2E/DX2                !
 ! A22   A(7,9,10)             118.2334         estimate D2E/DX2                !
 ! A23   A(4,10,9)             123.2727         estimate D2E/DX2                !
 ! A24   A(4,10,16)            120.4672         estimate D2E/DX2                !
 ! A25   A(9,10,16)            116.2579         estimate D2E/DX2                !
 ! D1    D(11,1,2,3)            69.8295         estimate D2E/DX2                !
 ! D2    D(11,1,2,4)          -107.7091         estimate D2E/DX2                !
 ! D3    D(12,1,2,3)           -46.3529         estimate D2E/DX2                !
 ! D4    D(12,1,2,4)           136.1084         estimate D2E/DX2                !
 ! D5    D(13,1,2,3)          -170.0118         estimate D2E/DX2                !
 ! D6    D(13,1,2,4)            12.4496         estimate D2E/DX2                !
 ! D7    D(1,2,4,5)            -37.3145         estimate D2E/DX2                !
 ! D8    D(1,2,4,10)           144.2514         estimate D2E/DX2                !
 ! D9    D(3,2,4,5)            145.1033         estimate D2E/DX2                !
 ! D10   D(3,2,4,10)           -33.3307         estimate D2E/DX2                !
 ! D11   D(2,4,5,6)           -179.1928         estimate D2E/DX2                !
 ! D12   D(2,4,5,14)            -1.1919         estimate D2E/DX2                !
 ! D13   D(10,4,5,6)            -0.7462         estimate D2E/DX2                !
 ! D14   D(10,4,5,14)          177.2547         estimate D2E/DX2                !
 ! D15   D(2,4,10,9)           179.8755         estimate D2E/DX2                !
 ! D16   D(2,4,10,16)           -0.6745         estimate D2E/DX2                !
 ! D17   D(5,4,10,9)             1.3357         estimate D2E/DX2                !
 ! D18   D(5,4,10,16)         -179.2143         estimate D2E/DX2                !
 ! D19   D(4,5,6,7)             -0.1288         estimate D2E/DX2                !
 ! D20   D(4,5,6,15)           179.4028         estimate D2E/DX2                !
 ! D21   D(14,5,6,7)          -178.1601         estimate D2E/DX2                !
 ! D22   D(14,5,6,15)            1.3715         estimate D2E/DX2                !
 ! D23   D(5,6,7,8)           -179.8451         estimate D2E/DX2                !
 ! D24   D(5,6,7,9)              0.5709         estimate D2E/DX2                !
 ! D25   D(15,6,7,8)             0.618          estimate D2E/DX2                !
 ! D26   D(15,6,7,9)          -178.966          estimate D2E/DX2                !
 ! D27   D(6,7,9,10)            -0.0469         estimate D2E/DX2                !
 ! D28   D(8,7,9,10)          -179.6462         estimate D2E/DX2                !
 ! D29   D(7,9,10,4)            -0.9409         estimate D2E/DX2                !
 ! D30   D(7,9,10,16)          179.5877         estimate D2E/DX2                !
 --------------------------------------------------------------------------------
 Trust Radius=3.00D-01 FncErr=1.00D-07 GrdErr=1.00D-06 EigMax=2.50D+02 EigMin=1.00D-04
 Number of steps in this run=     81 maximum allowed number of steps=    100.
 GradGradGradGradGradGradGradGradGradGradGradGradGradGradGradGradGradGrad

 Leave Link  103 at Tue Sep 17 09:47:40 2024, MaxMem=  1342177280 cpu:               0.1 elap:               0.0
 (Enter /groups/ReismanLab/Software/Gaussian16_RevC/Linux_Binary_AVX2-enabled-CPU/g16/l202.exe)
                          Input orientation:                          
 ---------------------------------------------------------------------
 Center     Atomic      Atomic             Coordinates (Angstroms)
 Number     Number       Type             X           Y           Z
 ---------------------------------------------------------------------
      1          6           0       -4.228116    0.482246    1.061491
      2          6           0       -3.430660   -0.079591   -0.087188
      3          8           0       -3.951669   -0.644078   -1.019001
      4          6           0       -1.947321    0.038818   -0.004674
      5          6           0       -1.277553    1.141712    0.525816
      6          6           0        0.105117    1.155512    0.538591
      7          6           0        0.757216    0.047274    0.014524
      8         35           0        2.651232   -0.013470   -0.000931
      9          7           0        0.147088   -0.997610   -0.497060
     10          6           0       -1.169461   -1.002213   -0.517003
     11          1           0       -4.625833   -0.358762    1.628971
     12          1           0       -5.078139    1.039868    0.674317
     13          1           0       -3.639092    1.103568    1.726529
     14          1           0       -1.821642    1.997624    0.896967
     15          1           0        0.662993    1.991036    0.930125
     16          1           0       -1.638257   -1.874447   -0.951256
 ---------------------------------------------------------------------
                    Distance matrix (angstroms):
                    1          2          3          4          5
     1  C    0.000000
     2  C    1.507004   0.000000
     3  O    2.381905   1.207630   0.000000
     4  C    2.556435   1.490343   2.347896   0.000000
     5  C    3.070451   2.550142   3.567408   1.395129   0.000000
     6  C    4.416291   3.797208   4.703416   2.398884   1.382798
     7  C    5.112620   4.191031   4.870291   2.704619   2.366326
     8  Br   6.978532   6.082862   6.710621   4.598852   4.128832
     9  N    4.874573   3.716320   4.146952   2.388133   2.766329
    10  C    3.748418   2.479716   2.849727   1.396887   2.386539
    11  H    1.089727   2.109876   2.747300   3.162482   3.831364
    12  H    1.087835   2.132433   2.640443   3.356360   3.804850
    13  H    1.084098   2.175518   3.269542   2.644399   2.649535
    14  H    2.848607   2.805766   3.896991   2.160017   1.079987
    15  H    5.120220   4.698980   5.660214   3.390980   2.156510
    16  H    4.038876   2.679707   2.621120   2.156877   3.377730
                    6          7          8          9         10
     6  C    0.000000
     7  C    1.388550   0.000000
     8  Br   2.853121   1.895052   0.000000
     9  N    2.389616   1.313680   2.735948   0.000000
    10  C    2.719302   2.257439   3.980155   1.316708   0.000000
    11  H    5.085651   5.634583   7.465352   5.263925   4.118949
    12  H    5.186323   5.955833   7.829985   5.729437   4.568053
    13  H    3.928485   4.834692   6.618162   4.867695   3.945482
    14  H    2.133070   3.351579   4.985712   3.845859   3.379893
    15  H    1.078251   2.150678   2.972878   3.351867   3.796262
    16  H    3.799953   3.219322   4.771380   2.040244   1.081266
                   11         12         13         14         15
    11  H    0.000000
    12  H    1.752743   0.000000
    13  H    1.766801   1.783835   0.000000
    14  H    3.735221   3.401712   2.188751   0.000000
    15  H    5.829375   5.825011   4.464279   2.484865   0.000000
    16  H    4.228532   4.792548   4.476879   4.294472   4.876197
                   16
    16  H    0.000000
 Stoichiometry    C7H6BrNO
 Framework group  C1[X(C7H6BrNO)]
 Deg. of freedom    42
 Full point group                 C1      NOp   1
 Largest Abelian subgroup         C1      NOp   1
 Largest concise Abelian subgroup C1      NOp   1
                         Standard orientation:                         
 ---------------------------------------------------------------------
 Center     Atomic      Atomic             Coordinates (Angstroms)
 Number     Number       Type             X           Y           Z
 ---------------------------------------------------------------------
      1          6           0       -4.029112    0.951335    0.503943
      2          6           0       -3.213380   -0.179830   -0.067116
      3          8           0       -3.719306   -1.196197   -0.478706
      4          6           0       -1.731624   -0.020543   -0.054952
      5          6           0       -1.071329    1.186542   -0.285910
      6          6           0        0.310962    1.219290   -0.267797
      7          6           0        0.972283    0.025218   -0.013010
      8         35           0        2.866375   -0.013385    0.033329
      9          7           0        0.371267   -1.123534    0.198897
     10          6           0       -0.944811   -1.152567    0.170303
     11          1           0       -4.434650    0.616060    1.458215
     12          1           0       -4.873646    1.155770   -0.150544
     13          1           0       -3.451113    1.853528    0.668967
     14          1           0       -1.622016    2.088149   -0.510011
     15          1           0        0.861815    2.128039   -0.450447
     16          1           0       -1.405893   -2.115421    0.341916
 ---------------------------------------------------------------------
 Rotational constants (GHZ):           3.7825247           0.3802053           0.3516157
 Leave Link  202 at Tue Sep 17 09:47:40 2024, MaxMem=  1342177280 cpu:               0.0 elap:               0.0
 (Enter /groups/ReismanLab/Software/Gaussian16_RevC/Linux_Binary_AVX2-enabled-CPU/g16/l301.exe)
 Standard basis: 6-31G(d,p) (6D, 7F)
 Ernie: Thresh=  0.10000D-02 Tol=  0.10000D-05 Strict=F.
 There are   195 symmetry adapted cartesian basis functions of A   symmetry.
 There are   195 symmetry adapted basis functions of A   symmetry.
   195 basis functions,   377 primitive gaussians,   195 cartesian basis functions
    49 alpha electrons       49 beta electrons
       nuclear repulsion energy       697.0293516715 Hartrees.
 IExCor=  402 DFT=T Ex+Corr=B3LYP ExCW=0 ScaHFX=  0.200000
 ScaDFX=  0.800000  0.720000  1.000000  0.810000 ScalE2=  1.000000  1.000000
 IRadAn=      5 IRanWt=     -1 IRanGd=            0 ICorTp=0 IEmpDi=141
 NAtoms=   16 NActive=   16 NUniq=   16 SFac= 1.00D+00 NAtFMM=   60 NAOKFM=F Big=F
 Integral buffers will be    131072 words long.
 Raffenetti 2 integral format.
 Two-electron integral symmetry is turned on.
 R6Disp:  Grimme-D3(BJ) Dispersion energy=       -0.0323659805 Hartrees.
 Nuclear repulsion after empirical dispersion term =      696.9969856911 Hartrees.
 Leave Link  301 at Tue Sep 17 09:47:40 2024, MaxMem=  1342177280 cpu:               0.1 elap:               0.1
 (Enter /groups/ReismanLab/Software/Gaussian16_RevC/Linux_Binary_AVX2-enabled-CPU/g16/l302.exe)
 NPDir=0 NMtPBC=     1 NCelOv=     1 NCel=       1 NClECP=     1 NCelD=      1
         NCelK=      1 NCelE2=     1 NClLst=     1 CellRange=     0.0.
 One-electron integrals computed using PRISM.
 One-electron integral symmetry used in STVInt
 NBasis=   195 RedAO= T EigKep=  6.87D-04  NBF=   195
 NBsUse=   195 1.00D-06 EigRej= -1.00D+00 NBFU=   195
 Precomputing XC quadrature grid using
 IXCGrd= 4 IRadAn=           5 IRanWt=          -1 IRanGd=           0 AccXCQ= 0.00D+00.
 Generated NRdTot=       0 NPtTot=           0 NUsed=           0 NTot=          32
 NSgBfM=   194   194   194   194   194 MxSgAt=    16 MxSgA2=    16.
 Leave Link  302 at Tue Sep 17 09:47:40 2024, MaxMem=  1342177280 cpu:               0.9 elap:               0.2
 (Enter /groups/ReismanLab/Software/Gaussian16_RevC/Linux_Binary_AVX2-enabled-CPU/g16/l303.exe)
 DipDrv:  MaxL=1.
 Leave Link  303 at Tue Sep 17 09:47:40 2024, MaxMem=  1342177280 cpu:               0.1 elap:               0.1
 (Enter /groups/ReismanLab/Software/Gaussian16_RevC/Linux_Binary_AVX2-enabled-CPU/g16/l401.exe)
 ExpMin= 1.43D-01 ExpMax= 5.74D+05 ExpMxC= 5.74D+03 IAcc=3 IRadAn=         5 AccDes= 0.00D+00
 Harris functional with IExCor=  402 and IRadAn=       5 diagonalized for initial guess.
 HarFok:  IExCor=  402 AccDes= 0.00D+00 IRadAn=         5 IDoV= 1 UseB2=F ITyADJ=14
 ICtDFT=  3500011 ScaDFX=  1.000000  1.000000  1.000000  1.000000
 FoFCou: FMM=F IPFlag=           0 FMFlag=      100000 FMFlg1=           0
         NFxFlg=           0 DoJE=T BraDBF=F KetDBF=T FulRan=T
         wScrn=  0.000000 ICntrl=       500 IOpCl=  0 I1Cent=   200000004 NGrid=           0
         NMat0=    1 NMatS0=      1 NMatT0=    0 NMatD0=    1 NMtDS0=    0 NMtDT0=    0
 Petite list used in FoFCou.
 Harris En= -2972.18046183851    
 JPrj=0 DoOrth=F DoCkMO=F.
 Leave Link  401 at Tue Sep 17 09:47:41 2024, MaxMem=  1342177280 cpu:               4.2 elap:               0.6
 (Enter /groups/ReismanLab/Software/Gaussian16_RevC/Linux_Binary_AVX2-enabled-CPU/g16/l502.exe)
 Integral symmetry usage will be decided dynamically.
 Closed shell SCF:
 Using DIIS extrapolation, IDIIS=  1040.
 NGot=  1342177280 LenX=  1342097209 LenY=  1342058743
 Requested convergence on RMS density matrix=1.00D-08 within  32 cycles.
 Requested convergence on MAX density matrix=1.00D-06.
 Requested convergence on             energy=1.00D-06.
 No special actions if energy rises.
 Fock matrices will be formed incrementally for  20 cycles.
 Integral accuracy reduced to 1.0D-05 until final iterations.

 Cycle   1  Pass 0  IDiag  1:
 FoFJK:  IHMeth= 1 ICntrl=       0 DoSepK=F KAlg= 0 I1Cent=           0 FoldK=F
 IRaf= 880000000 NMat=       1 IRICut=       1 DoRegI=T DoRafI=F ISym2E= 0 IDoP0=0 IntGTp=1.
 FoFCou: FMM=F IPFlag=           0 FMFlag=      100000 FMFlg1=           0
         NFxFlg=           0 DoJE=F BraDBF=F KetDBF=F FulRan=T
         wScrn=  0.000000 ICntrl=         0 IOpCl=  0 I1Cent=           0 NGrid=           0
         NMat0=    1 NMatS0=      1 NMatT0=    0 NMatD0=    1 NMtDS0=    0 NMtDT0=    0
 Symmetry not used in FoFCou.
 E= -2971.86596967672    
 DIIS: error= 1.84D-01 at cycle   1 NSaved=   1.
 NSaved= 1 IEnMin= 1 EnMin= -2971.86596967672     IErMin= 1 ErrMin= 1.84D-01
 ErrMax= 1.84D-01  0.00D+00 EMaxC= 1.00D-01 BMatC= 5.69D-01 BMatP= 5.69D-01
 IDIUse=3 WtCom= 0.00D+00 WtEn= 1.00D+00
 Coeff-Com:  0.100D+01
 Coeff-En:   0.100D+01
 Coeff:      0.100D+01
 Gap=     0.217 Goal=   None    Shift=    0.000
 GapD=    0.217 DampG=1.000 DampE=0.250 DampFc=0.2500 IDamp=-1.
 Damping current iteration by 2.50D-01
 RMSDP=5.99D-03 MaxDP=1.79D-01              OVMax= 2.16D-01

 Cycle   2  Pass 0  IDiag  1:
 RMSU=  1.46D-03    CP:  9.93D-01
 E= -2971.93807310205     Delta-E=       -0.072103425329 Rises=F Damp=T
 DIIS: error= 1.36D-01 at cycle   2 NSaved=   2.
 NSaved= 2 IEnMin= 2 EnMin= -2971.93807310205     IErMin= 2 ErrMin= 1.36D-01
 ErrMax= 1.36D-01  0.00D+00 EMaxC= 1.00D-01 BMatC= 2.43D-01 BMatP= 5.69D-01
 IDIUse=3 WtCom= 0.00D+00 WtEn= 1.00D+00
 Coeff-Com: -0.124D+01 0.224D+01
 Coeff-En:   0.000D+00 0.100D+01
 Coeff:      0.000D+00 0.100D+01
 Gap=     0.171 Goal=   None    Shift=    0.000
 RMSDP=2.89D-03 MaxDP=1.10D-01 DE=-7.21D-02 OVMax= 1.11D-01

 Cycle   3  Pass 0  IDiag  1:
 RMSU=  1.27D-03    CP:  9.70D-01  2.63D+00
 E= -2972.03009917263     Delta-E=       -0.092026070582 Rises=F Damp=F
 DIIS: error= 1.09D-02 at cycle   3 NSaved=   3.
 NSaved= 3 IEnMin= 3 EnMin= -2972.03009917263     IErMin= 3 ErrMin= 1.09D-02
 ErrMax= 1.09D-02  0.00D+00 EMaxC= 1.00D-01 BMatC= 4.38D-02 BMatP= 2.43D-01
 IDIUse=3 WtCom= 8.91D-01 WtEn= 1.09D-01
 Coeff-Com:  0.829D+00-0.965D+00 0.114D+01
 Coeff-En:   0.992D-01 0.000D+00 0.901D+00
 Coeff:      0.750D+00-0.859D+00 0.111D+01
 Gap=     0.181 Goal=   None    Shift=    0.000
 RMSDP=1.65D-03 MaxDP=4.96D-02 DE=-9.20D-02 OVMax= 6.37D-02

 Cycle   4  Pass 0  IDiag  1:
 RMSU=  1.23D-03    CP:  9.71D-01  1.88D+00  8.78D-01
 E= -2972.05240909433     Delta-E=       -0.022309921700 Rises=F Damp=F
 DIIS: error= 9.80D-03 at cycle   4 NSaved=   4.
 NSaved= 4 IEnMin= 4 EnMin= -2972.05240909433     IErMin= 4 ErrMin= 9.80D-03
 ErrMax= 9.80D-03  0.00D+00 EMaxC= 1.00D-01 BMatC= 1.88D-02 BMatP= 4.38D-02
 IDIUse=3 WtCom= 9.02D-01 WtEn= 9.80D-02
 Coeff-Com:  0.647D+00-0.841D+00 0.728D+00 0.466D+00
 Coeff-En:   0.000D+00 0.000D+00 0.264D+00 0.736D+00
 Coeff:      0.584D+00-0.759D+00 0.683D+00 0.492D+00
 Gap=     0.192 Goal=   None    Shift=    0.000
 RMSDP=8.56D-04 MaxDP=2.10D-02 DE=-2.23D-02 OVMax= 3.94D-02

 Cycle   5  Pass 0  IDiag  1:
 RMSU=  2.12D-04    CP:  9.71D-01  1.93D+00  1.09D+00  3.64D-01
 E= -2972.07025928575     Delta-E=       -0.017850191422 Rises=F Damp=F
 DIIS: error= 1.50D-03 at cycle   5 NSaved=   5.
 NSaved= 5 IEnMin= 5 EnMin= -2972.07025928575     IErMin= 5 ErrMin= 1.50D-03
 ErrMax= 1.50D-03  0.00D+00 EMaxC= 1.00D-01 BMatC= 6.29D-04 BMatP= 1.88D-02
 IDIUse=3 WtCom= 9.85D-01 WtEn= 1.50D-02
 Coeff-Com:  0.221D+00-0.287D+00 0.274D+00 0.243D+00 0.549D+00
 Coeff-En:   0.000D+00 0.000D+00 0.000D+00 0.000D+00 0.100D+01
 Coeff:      0.217D+00-0.283D+00 0.270D+00 0.239D+00 0.556D+00
 Gap=     0.187 Goal=   None    Shift=    0.000
 RMSDP=1.74D-04 MaxDP=4.30D-03 DE=-1.79D-02 OVMax= 9.73D-03

 Cycle   6  Pass 0  IDiag  1:
 RMSU=  6.85D-05    CP:  9.71D-01  1.96D+00  1.07D+00  4.50D-01  4.84D-01
 E= -2972.07077880568     Delta-E=       -0.000519519926 Rises=F Damp=F
 DIIS: error= 5.34D-04 at cycle   6 NSaved=   6.
 NSaved= 6 IEnMin= 6 EnMin= -2972.07077880568     IErMin= 6 ErrMin= 5.34D-04
 ErrMax= 5.34D-04  0.00D+00 EMaxC= 1.00D-01 BMatC= 6.95D-05 BMatP= 6.29D-04
 IDIUse=3 WtCom= 9.95D-01 WtEn= 5.34D-03
 Coeff-Com:  0.657D-01-0.858D-01 0.871D-01 0.918D-01 0.342D+00 0.500D+00
 Coeff-En:   0.000D+00 0.000D+00 0.000D+00 0.000D+00 0.906D-01 0.909D+00
 Coeff:      0.654D-01-0.853D-01 0.866D-01 0.913D-01 0.340D+00 0.502D+00
 Gap=     0.187 Goal=   None    Shift=    0.000
 RMSDP=5.18D-05 MaxDP=1.48D-03 DE=-5.20D-04 OVMax= 3.61D-03

 Cycle   7  Pass 0  IDiag  1:
 RMSU=  2.65D-05    CP:  9.71D-01  1.96D+00  1.07D+00  4.45D-01  5.83D-01
                    CP:  4.48D-01
 E= -2972.07084825573     Delta-E=       -0.000069450050 Rises=F Damp=F
 DIIS: error= 1.58D-04 at cycle   7 NSaved=   7.
 NSaved= 7 IEnMin= 7 EnMin= -2972.07084825573     IErMin= 7 ErrMin= 1.58D-04
 ErrMax= 1.58D-04  0.00D+00 EMaxC= 1.00D-01 BMatC= 5.93D-06 BMatP= 6.95D-05
 IDIUse=3 WtCom= 9.98D-01 WtEn= 1.58D-03
 Coeff-Com:  0.207D-01-0.273D-01 0.290D-01 0.337D-01 0.155D+00 0.297D+00
 Coeff-Com:  0.492D+00
 Coeff-En:   0.000D+00 0.000D+00 0.000D+00 0.000D+00 0.000D+00 0.839D-02
 Coeff-En:   0.992D+00
 Coeff:      0.207D-01-0.272D-01 0.290D-01 0.336D-01 0.155D+00 0.296D+00
 Coeff:      0.492D+00
 Gap=     0.187 Goal=   None    Shift=    0.000
 RMSDP=1.76D-05 MaxDP=6.14D-04 DE=-6.95D-05 OVMax= 1.07D-03

 Cycle   8  Pass 0  IDiag  1:
 RMSU=  8.72D-06    CP:  9.71D-01  1.96D+00  1.07D+00  4.42D-01  5.78D-01
                    CP:  5.45D-01  5.10D-01
 E= -2972.07085384137     Delta-E=       -0.000005585645 Rises=F Damp=F
 DIIS: error= 4.30D-05 at cycle   8 NSaved=   8.
 NSaved= 8 IEnMin= 8 EnMin= -2972.07085384137     IErMin= 8 ErrMin= 4.30D-05
 ErrMax= 4.30D-05  0.00D+00 EMaxC= 1.00D-01 BMatC= 5.02D-07 BMatP= 5.93D-06
 IDIUse=1 WtCom= 1.00D+00 WtEn= 0.00D+00
 Coeff-Com:  0.461D-02-0.612D-02 0.687D-02 0.840D-02 0.459D-01 0.104D+00
 Coeff-Com:  0.276D+00 0.560D+00
 Coeff:      0.461D-02-0.612D-02 0.687D-02 0.840D-02 0.459D-01 0.104D+00
 Coeff:      0.276D+00 0.560D+00
 Gap=     0.187 Goal=   None    Shift=    0.000
 RMSDP=4.80D-06 MaxDP=1.74D-04 DE=-5.59D-06 OVMax= 2.91D-04

 Initial convergence to 1.0D-05 achieved.  Increase integral accuracy.
 Cycle   9  Pass 1  IDiag  1:
 E= -2972.07087681791     Delta-E=       -0.000022976533 Rises=F Damp=F
 DIIS: error= 3.79D-05 at cycle   1 NSaved=   1.
 NSaved= 1 IEnMin= 1 EnMin= -2972.07087681791     IErMin= 1 ErrMin= 3.79D-05
 ErrMax= 3.79D-05  0.00D+00 EMaxC= 1.00D-01 BMatC= 1.40D-07 BMatP= 1.40D-07
 IDIUse=1 WtCom= 1.00D+00 WtEn= 0.00D+00
 Coeff-Com:  0.100D+01
 Coeff:      0.100D+01
 Gap=     0.187 Goal=   None    Shift=    0.000
 RMSDP=4.80D-06 MaxDP=1.74D-04 DE=-2.30D-05 OVMax= 1.45D-04

 Cycle  10  Pass 1  IDiag  1:
 RMSU=  1.84D-05    CP:  1.00D+00
 E= -2972.07087686090     Delta-E=       -0.000000042992 Rises=F Damp=F
 DIIS: error= 1.68D-05 at cycle   2 NSaved=   2.
 NSaved= 2 IEnMin= 2 EnMin= -2972.07087686090     IErMin= 2 ErrMin= 1.68D-05
 ErrMax= 1.68D-05  0.00D+00 EMaxC= 1.00D-01 BMatC= 7.10D-08 BMatP= 1.40D-07
 IDIUse=1 WtCom= 1.00D+00 WtEn= 0.00D+00
 Coeff-Com:  0.384D+00 0.616D+00
 Coeff:      0.384D+00 0.616D+00
 Gap=     0.187 Goal=   None    Shift=    0.000
 RMSDP=2.40D-06 MaxDP=7.95D-05 DE=-4.30D-08 OVMax= 1.64D-04

 Cycle  11  Pass 1  IDiag  1:
 RMSU=  2.39D-06    CP:  1.00D+00  1.00D+00
 E= -2972.07087689484     Delta-E=       -0.000000033941 Rises=F Damp=F
 DIIS: error= 1.29D-05 at cycle   3 NSaved=   3.
 NSaved= 3 IEnMin= 3 EnMin= -2972.07087689484     IErMin= 3 ErrMin= 1.29D-05
 ErrMax= 1.29D-05  0.00D+00 EMaxC= 1.00D-01 BMatC= 3.59D-08 BMatP= 7.10D-08
 IDIUse=1 WtCom= 1.00D+00 WtEn= 0.00D+00
 Coeff-Com:  0.195D-01 0.412D+00 0.568D+00
 Coeff:      0.195D-01 0.412D+00 0.568D+00
 Gap=     0.187 Goal=   None    Shift=    0.000
 RMSDP=1.14D-06 MaxDP=3.29D-05 DE=-3.39D-08 OVMax= 8.11D-05

 Cycle  12  Pass 1  IDiag  1:
 RMSU=  4.89D-07    CP:  1.00D+00  1.01D+00  5.75D-01
 E= -2972.07087692892     Delta-E=       -0.000000034081 Rises=F Damp=F
 DIIS: error= 2.56D-06 at cycle   4 NSaved=   4.
 NSaved= 4 IEnMin= 4 EnMin= -2972.07087692892     IErMin= 4 ErrMin= 2.56D-06
 ErrMax= 2.56D-06  0.00D+00 EMaxC= 1.00D-01 BMatC= 2.41D-09 BMatP= 3.59D-08
 IDIUse=1 WtCom= 1.00D+00 WtEn= 0.00D+00
 Coeff-Com: -0.161D-02 0.239D+00 0.361D+00 0.402D+00
 Coeff:     -0.161D-02 0.239D+00 0.361D+00 0.402D+00
 Gap=     0.187 Goal=   None    Shift=    0.000
 RMSDP=2.94D-07 MaxDP=9.07D-06 DE=-3.41D-08 OVMax= 1.41D-05

 Cycle  13  Pass 1  IDiag  1:
 RMSU=  1.14D-07    CP:  1.00D+00  1.01D+00  6.03D-01  4.66D-01
 E= -2972.07087693147     Delta-E=       -0.000000002545 Rises=F Damp=F
 DIIS: error= 5.20D-07 at cycle   5 NSaved=   5.
 NSaved= 5 IEnMin= 5 EnMin= -2972.07087693147     IErMin= 5 ErrMin= 5.20D-07
 ErrMax= 5.20D-07  0.00D+00 EMaxC= 1.00D-01 BMatC= 7.27D-11 BMatP= 2.41D-09
 IDIUse=1 WtCom= 1.00D+00 WtEn= 0.00D+00
 Coeff-Com: -0.190D-02 0.117D+00 0.179D+00 0.232D+00 0.475D+00
 Coeff:     -0.190D-02 0.117D+00 0.179D+00 0.232D+00 0.475D+00
 Gap=     0.187 Goal=   None    Shift=    0.000
 RMSDP=5.47D-08 MaxDP=1.59D-06 DE=-2.54D-09 OVMax= 2.80D-06

 Cycle  14  Pass 1  IDiag  1:
 RMSU=  3.49D-08    CP:  1.00D+00  1.01D+00  6.01D-01  4.59D-01  6.41D-01
 E= -2972.07087693154     Delta-E=       -0.000000000071 Rises=F Damp=F
 DIIS: error= 1.24D-07 at cycle   6 NSaved=   6.
 NSaved= 6 IEnMin= 6 EnMin= -2972.07087693154     IErMin= 6 ErrMin= 1.24D-07
 ErrMax= 1.24D-07  0.00D+00 EMaxC= 1.00D-01 BMatC= 4.29D-12 BMatP= 7.27D-11
 IDIUse=1 WtCom= 1.00D+00 WtEn= 0.00D+00
 Coeff-Com: -0.105D-02 0.577D-01 0.889D-01 0.119D+00 0.280D+00 0.456D+00
 Coeff:     -0.105D-02 0.577D-01 0.889D-01 0.119D+00 0.280D+00 0.456D+00
 Gap=     0.187 Goal=   None    Shift=    0.000
 RMSDP=1.35D-08 MaxDP=4.53D-07 DE=-7.09D-11 OVMax= 5.96D-07

 Cycle  15  Pass 1  IDiag  1:
 RMSU=  1.08D-08    CP:  1.00D+00  1.01D+00  6.01D-01  4.64D-01  6.54D-01
                    CP:  7.81D-01
 E= -2972.07087693155     Delta-E=       -0.000000000009 Rises=F Damp=F
 DIIS: error= 5.66D-08 at cycle   7 NSaved=   7.
 NSaved= 7 IEnMin= 7 EnMin= -2972.07087693155     IErMin= 7 ErrMin= 5.66D-08
 ErrMax= 5.66D-08  0.00D+00 EMaxC= 1.00D-01 BMatC= 4.76D-13 BMatP= 4.29D-12
 IDIUse=1 WtCom= 1.00D+00 WtEn= 0.00D+00
 Coeff-Com: -0.224D-03 0.103D-01 0.160D-01 0.231D-01 0.681D-01 0.264D+00
 Coeff-Com:  0.618D+00
 Coeff:     -0.224D-03 0.103D-01 0.160D-01 0.231D-01 0.681D-01 0.264D+00
 Coeff:      0.618D+00
 Gap=     0.187 Goal=   None    Shift=    0.000
 RMSDP=4.41D-09 MaxDP=1.75D-07 DE=-9.09D-12 OVMax= 2.66D-07

 SCF Done:  E(RB3LYP) =  -2972.07087693     A.U. after   15 cycles
            NFock= 15  Conv=0.44D-08     -V/T= 2.0065
 KE= 2.952941896537D+03 PE=-8.458456702179D+03 EE= 1.836446943020D+03
 Leave Link  502 at Tue Sep 17 09:47:50 2024, MaxMem=  1342177280 cpu:              71.5 elap:               9.6
 (Enter /groups/ReismanLab/Software/Gaussian16_RevC/Linux_Binary_AVX2-enabled-CPU/g16/l508.exe)
 QCSCF skips out because SCF is already converged.
 Leave Link  508 at Tue Sep 17 09:47:50 2024, MaxMem=  1342177280 cpu:               0.0 elap:               0.0
 (Enter /groups/ReismanLab/Software/Gaussian16_RevC/Linux_Binary_AVX2-enabled-CPU/g16/l601.exe)
 Copying SCF densities to generalized density rwf, IOpCl= 0 IROHF=0.

 **********************************************************************

            Population analysis using the SCF Density.

 **********************************************************************

 Orbital symmetries:
       Occupied  (A) (A) (A) (A) (A) (A) (A) (A) (A) (A) (A) (A)
                 (A) (A) (A) (A) (A) (A) (A) (A) (A) (A) (A) (A)
                 (A) (A) (A) (A) (A) (A) (A) (A) (A) (A) (A) (A)
                 (A) (A) (A) (A) (A) (A) (A) (A) (A) (A) (A) (A)
                 (A)
       Virtual   (A) (A) (A) (A) (A) (A) (A) (A) (A) (A) (A) (A)
                 (A) (A) (A) (A) (A) (A) (A) (A) (A) (A) (A) (A)
                 (A) (A) (A) (A) (A) (A) (A) (A) (A) (A) (A) (A)
                 (A) (A) (A) (A) (A) (A) (A) (A) (A) (A) (A) (A)
                 (A) (A) (A) (A) (A) (A) (A) (A) (A) (A) (A) (A)
                 (A) (A) (A) (A) (A) (A) (A) (A) (A) (A) (A) (A)
                 (A) (A) (A) (A) (A) (A) (A) (A) (A) (A) (A) (A)
                 (A) (A) (A) (A) (A) (A) (A) (A) (A) (A) (A) (A)
                 (A) (A) (A) (A) (A) (A) (A) (A) (A) (A) (A) (A)
                 (A) (A) (A) (A) (A) (A) (A) (A) (A) (A) (A) (A)
                 (A) (A) (A) (A) (A) (A) (A) (A) (A) (A) (A) (A)
                 (A) (A) (A) (A) (A) (A) (A) (A) (A) (A) (A) (A)
                 (A) (A)
 The electronic state is 1-A.
 Alpha  occ. eigenvalues -- -482.91563 -61.87784 -56.39899 -56.39502 -56.39491
 Alpha  occ. eigenvalues --  -19.14944 -14.35302 -10.29043 -10.29037 -10.24584
 Alpha  occ. eigenvalues --  -10.23551 -10.22544 -10.22076 -10.20024  -8.58977
 Alpha  occ. eigenvalues --   -6.54366  -6.53135  -6.53045  -2.65947  -2.65607
 Alpha  occ. eigenvalues --   -2.65536  -2.64554  -2.64552  -1.05718  -0.98361
 Alpha  occ. eigenvalues --   -0.84116  -0.82551  -0.77108  -0.74536  -0.66284
 Alpha  occ. eigenvalues --   -0.65050  -0.57801  -0.52888  -0.51126  -0.47995
 Alpha  occ. eigenvalues --   -0.46279  -0.45892  -0.44060  -0.43395  -0.42692
 Alpha  occ. eigenvalues --   -0.40801  -0.38839  -0.37177  -0.32535  -0.31153
 Alpha  occ. eigenvalues --   -0.29494  -0.28232  -0.26404  -0.25596
 Alpha virt. eigenvalues --   -0.06872  -0.04303   0.00813   0.00989   0.08667
 Alpha virt. eigenvalues --    0.11950   0.12196   0.14452   0.14763   0.16407
 Alpha virt. eigenvalues --    0.18560   0.21240   0.23034   0.24244   0.26626
 Alpha virt. eigenvalues --    0.29369   0.29674   0.34877   0.35938   0.39694
 Alpha virt. eigenvalues --    0.42095   0.45372   0.46053   0.46512   0.47623
 Alpha virt. eigenvalues --    0.48231   0.48742   0.49974   0.52633   0.53041
 Alpha virt. eigenvalues --    0.55287   0.55959   0.56619   0.57969   0.59689
 Alpha virt. eigenvalues --    0.62058   0.63224   0.64896   0.66279   0.69186
 Alpha virt. eigenvalues --    0.70419   0.71594   0.71981   0.74132   0.77292
 Alpha virt. eigenvalues --    0.79543   0.80517   0.82002   0.83406   0.84343
 Alpha virt. eigenvalues --    0.85380   0.86804   0.88469   0.90489   0.91987
 Alpha virt. eigenvalues --    0.96365   0.97202   0.97739   1.01037   1.03020
 Alpha virt. eigenvalues --    1.08005   1.10737   1.12333   1.14822   1.17999
 Alpha virt. eigenvalues --    1.24017   1.25629   1.33082   1.33698   1.36490
 Alpha virt. eigenvalues --    1.39069   1.41971   1.44853   1.46151   1.47124
 Alpha virt. eigenvalues --    1.54293   1.56025   1.59808   1.67769   1.68175
 Alpha virt. eigenvalues --    1.69791   1.72857   1.76715   1.78302   1.79795
 Alpha virt. eigenvalues --    1.85813   1.86665   1.89560   1.93242   1.94526
 Alpha virt. eigenvalues --    1.96998   2.00441   2.00741   2.01761   2.06850
 Alpha virt. eigenvalues --    2.07248   2.12171   2.13448   2.16915   2.17547
 Alpha virt. eigenvalues --    2.20869   2.24359   2.29446   2.30999   2.34033
 Alpha virt. eigenvalues --    2.37732   2.40716   2.42269   2.43075   2.47670
 Alpha virt. eigenvalues --    2.49667   2.51409   2.55515   2.59836   2.61923
 Alpha virt. eigenvalues --    2.63977   2.66460   2.69658   2.71718   2.72632
 Alpha virt. eigenvalues --    2.81910   2.84922   2.86681   2.92753   2.97683
 Alpha virt. eigenvalues --    3.02620   3.04200   3.15956   3.21504   3.27462
 Alpha virt. eigenvalues --    3.29518   3.41784   3.43907   3.45735   3.73062
 Alpha virt. eigenvalues --    3.97856   4.07967   4.11491   4.21228   4.24184
 Alpha virt. eigenvalues --    4.33876   4.40586   4.54737   4.72649   8.60030
 Alpha virt. eigenvalues --   72.79781
          Condensed to atoms (all electrons):
               1          2          3          4          5          6
     1  C    5.175290   0.328517  -0.084170  -0.125563  -0.004793  -0.000084
     2  C    0.328517   4.583002   0.576473   0.270216  -0.040206   0.004760
     3  O   -0.084170   0.576473   8.010839  -0.089961   0.002226  -0.000080
     4  C   -0.125563   0.270216  -0.089961   5.144308   0.509739  -0.021216
     5  C   -0.004793  -0.040206   0.002226   0.509739   4.898440   0.499821
     6  C   -0.000084   0.004760  -0.000080  -0.021216   0.499821   4.930849
     7  C   -0.000045   0.000656  -0.000001  -0.032739  -0.040261   0.495685
     8  Br  -0.000000   0.000010  -0.000000   0.000559   0.004426  -0.075422
     9  N   -0.000116   0.005834   0.000335  -0.020940  -0.049025  -0.036576
    10  C    0.007073  -0.022710   0.003885   0.446859  -0.050229  -0.041460
    11  H    0.372650  -0.020998  -0.001291   0.003155  -0.000075  -0.000006
    12  H    0.365175  -0.019096   0.001129   0.004235   0.000117   0.000007
    13  H    0.352071  -0.021738   0.003794   0.002655   0.001330   0.000188
    14  H    0.003371  -0.007111   0.000027  -0.045061   0.372380  -0.039219
    15  H    0.000007  -0.000067   0.000000   0.004380  -0.037788   0.367922
    16  H    0.000556  -0.001667   0.008769  -0.069847   0.003610   0.000600
               7          8          9         10         11         12
     1  C   -0.000045  -0.000000  -0.000116   0.007073   0.372650   0.365175
     2  C    0.000656   0.000010   0.005834  -0.022710  -0.020998  -0.019096
     3  O   -0.000001  -0.000000   0.000335   0.003885  -0.001291   0.001129
     4  C   -0.032739   0.000559  -0.020940   0.446859   0.003155   0.004235
     5  C   -0.040261   0.004426  -0.049025  -0.050229  -0.000075   0.000117
     6  C    0.495685  -0.075422  -0.036576  -0.041460  -0.000006   0.000007
     7  C    4.703675   0.287103   0.430366  -0.062437   0.000001   0.000000
     8  Br   0.287103  34.946360  -0.076292   0.004454  -0.000000   0.000000
     9  N    0.430366  -0.076292   6.790249   0.438712   0.000002   0.000001
    10  C   -0.062437   0.004454   0.438712   4.782565  -0.000353  -0.000081
    11  H    0.000001  -0.000000   0.000002  -0.000353   0.536478  -0.018803
    12  H    0.000000   0.000000   0.000001  -0.000081  -0.018803   0.546141
    13  H    0.000014  -0.000000  -0.000014  -0.000163  -0.025067  -0.026454
    14  H    0.004404  -0.000160  -0.000218   0.005482  -0.000117  -0.000144
    15  H   -0.036182  -0.000519   0.004983   0.000375   0.000000  -0.000000
    16  H    0.004751  -0.000189  -0.048367   0.391576  -0.000034  -0.000007
              13         14         15         16
     1  C    0.352071   0.003371   0.000007   0.000556
     2  C   -0.021738  -0.007111  -0.000067  -0.001667
     3  O    0.003794   0.000027   0.000000   0.008769
     4  C    0.002655  -0.045061   0.004380  -0.069847
     5  C    0.001330   0.372380  -0.037788   0.003610
     6  C    0.000188  -0.039219   0.367922   0.000600
     7  C    0.000014   0.004404  -0.036182   0.004751
     8  Br  -0.000000  -0.000160  -0.000519  -0.000189
     9  N   -0.000014  -0.000218   0.004983  -0.048367
    10  C   -0.000163   0.005482   0.000375   0.391576
    11  H   -0.025067  -0.000117   0.000000  -0.000034
    12  H   -0.026454  -0.000144  -0.000000  -0.000007
    13  H    0.600037   0.002312  -0.000009  -0.000028
    14  H    0.002312   0.596125  -0.005958  -0.000162
    15  H   -0.000009  -0.005958   0.583125   0.000030
    16  H   -0.000028  -0.000162   0.000030   0.575613
 Mulliken charges:
               1
     1  C   -0.389939
     2  C    0.364125
     3  O   -0.431973
     4  C    0.019220
     5  C   -0.069712
     6  C   -0.085770
     7  C    0.245009
     8  Br  -0.090331
     9  N   -0.438935
    10  C    0.096450
    11  H    0.154458
    12  H    0.147781
    13  H    0.111074
    14  H    0.114048
    15  H    0.119700
    16  H    0.134796
 Sum of Mulliken charges =  -0.00000
 Mulliken charges with hydrogens summed into heavy atoms:
               1
     1  C    0.023373
     2  C    0.364125
     3  O   -0.431973
     4  C    0.019220
     5  C    0.044336
     6  C    0.033930
     7  C    0.245009
     8  Br  -0.090331
     9  N   -0.438935
    10  C    0.231246
 Electronic spatial extent (au):  <R**2>=           2775.5013
 Charge=             -0.0000 electrons
 Dipole moment (field-independent basis, Debye):
    X=             -1.2105    Y=              3.7410    Z=              0.6326  Tot=              3.9825
 Quadrupole moment (field-independent basis, Debye-Ang):
   XX=            -72.0791   YY=            -68.4492   ZZ=            -69.5629
   XY=             -6.8608   XZ=             -4.3999   YZ=             -2.0747
 Traceless Quadrupole moment (field-independent basis, Debye-Ang):
   XX=             -2.0487   YY=              1.5812   ZZ=              0.4675
   XY=             -6.8608   XZ=             -4.3999   YZ=             -2.0747
 Octapole moment (field-independent basis, Debye-Ang**2):
  XXX=             93.5324  YYY=              4.9982  ZZZ=              1.1657  XYY=             26.9400
  XXY=             33.0326  XXZ=             15.8333  XZZ=             22.7086  YZZ=             -1.8129
  YYZ=             -0.6554  XYZ=              6.2053
 Hexadecapole moment (field-independent basis, Debye-Ang**3):
 XXXX=          -2638.5443 YYYY=           -374.7817 ZZZZ=           -104.6554 XXXY=           -129.7596
 XXXZ=            -50.1241 YYYX=             10.0213 YYYZ=             -6.5804 ZZZX=              3.8542
 ZZZY=              2.1891 XXYY=           -537.8253 XXZZ=           -453.4990 YYZZ=            -85.1337
 XXYZ=            -20.4772 YYXZ=             -3.7708 ZZXY=              2.8446
 N-N= 6.969969856911D+02 E-N=-8.458456706082D+03  KE= 2.952941896537D+03
 No NMR shielding tensors so no spin-rotation constants.
 Leave Link  601 at Tue Sep 17 09:47:50 2024, MaxMem=  1342177280 cpu:               0.7 elap:               0.1
 (Enter /groups/ReismanLab/Software/Gaussian16_RevC/Linux_Binary_AVX2-enabled-CPU/g16/l701.exe)
 ... and contract with generalized density number  0.
 Compute integral first derivatives.
 R6Disp: Adding Grimme-D3(BJ) dispersion energy 1st derivatives to the gradient.
 Leave Link  701 at Tue Sep 17 09:47:51 2024, MaxMem=  1342177280 cpu:               0.6 elap:               0.1
 (Enter /groups/ReismanLab/Software/Gaussian16_RevC/Linux_Binary_AVX2-enabled-CPU/g16/l702.exe)
 L702 exits ... SP integral derivatives will be done elsewhere.
 Leave Link  702 at Tue Sep 17 09:47:51 2024, MaxMem=  1342177280 cpu:               0.1 elap:               0.0
 (Enter /groups/ReismanLab/Software/Gaussian16_RevC/Linux_Binary_AVX2-enabled-CPU/g16/l703.exe)
 Integral derivatives from FoFJK, PRISM(SPDF).
 Compute integral first derivatives, UseDBF=F ICtDFT=           0.
 Calling FoFJK, ICntrl=      2127 FMM=F ISym2X=0 I1Cent= 0 IOpClX= 0 NMat=1 NMatS=1 NMatT=0.
 FoFJK:  IHMeth= 1 ICntrl=    2127 DoSepK=F KAlg= 0 I1Cent=           0 FoldK=F
 IRaf=         0 NMat=       1 IRICut=       1 DoRegI=T DoRafI=F ISym2E= 0 IDoP0=0 IntGTp=1.
 FoFCou: FMM=F IPFlag=           0 FMFlag=      100000 FMFlg1=         800
         NFxFlg=           0 DoJE=F BraDBF=F KetDBF=F FulRan=T
         wScrn=  0.000000 ICntrl=      2127 IOpCl=  0 I1Cent=           0 NGrid=           0
         NMat0=    1 NMatS0=      1 NMatT0=    0 NMatD0=    1 NMtDS0=    0 NMtDT0=    0
 Symmetry not used in FoFCou.
 Leave Link  703 at Tue Sep 17 09:47:53 2024, MaxMem=  1342177280 cpu:              22.0 elap:               2.8
 (Enter /groups/ReismanLab/Software/Gaussian16_RevC/Linux_Binary_AVX2-enabled-CPU/g16/l716.exe)
 Dipole        =-4.76263444D-01 1.47180696D+00 2.48880838D-01
 ***** Axes restored to original set *****
 -------------------------------------------------------------------
 Center     Atomic                   Forces (Hartrees/Bohr)
 Number     Number              X              Y              Z
 -------------------------------------------------------------------
      1        6          -0.004493176    0.001592046   -0.001655747
      2        6           0.009523234    0.009525117    0.011159905
      3        8          -0.009000727   -0.010544955   -0.013216116
      4        6          -0.001209512   -0.001906260   -0.002652234
      5        6          -0.002775791   -0.000230240    0.001136337
      6        6           0.004039279    0.004524702    0.001302781
      7        6           0.001344853    0.000077480    0.000040528
      8       35           0.007348939    0.002017214    0.001107108
      9        7           0.014582837   -0.009202133   -0.003626097
     10        6          -0.011452016   -0.000472636   -0.001790419
     11        1          -0.001050250   -0.002474576    0.002923055
     12        1          -0.003107861    0.001957482   -0.000454634
     13        1           0.000699065    0.002180507    0.003477055
     14        1          -0.002139135    0.002329531    0.002336869
     15        1           0.001651061    0.002577550    0.001053239
     16        1          -0.003960799   -0.001950828   -0.001141629
 -------------------------------------------------------------------
 Cartesian Forces:  Max     0.014582837 RMS     0.005318389
 Leave Link  716 at Tue Sep 17 09:47:53 2024, MaxMem=  1342177280 cpu:               0.0 elap:               0.0
 (Enter /groups/ReismanLab/Software/Gaussian16_RevC/Linux_Binary_AVX2-enabled-CPU/g16/l103.exe)

 GradGradGradGradGradGradGradGradGradGradGradGradGradGradGradGradGradGrad
 Berny optimization.
 FormGI is forming the generalized inverse of G from B-inverse, IUseBI=4.
 Internal  Forces:  Max     0.020333807 RMS     0.004654264
 Search for a local minimum.
 Step number   1 out of a maximum of   81
 All quantities printed in internal units (Hartrees-Bohrs-Radians)
 RMS Force = .46543D-02 SwitMx=.10000D-02 MixMth= 1
 Mixed Optimization -- RFO/linear search
 Second derivative matrix not updated -- first step.
 ITU=  0
     Eigenvalues ---    0.00673   0.00764   0.00894   0.01753   0.02174
     Eigenvalues ---    0.02229   0.02280   0.02298   0.02338   0.02438
     Eigenvalues ---    0.02682   0.06973   0.07703   0.15991   0.15999
     Eigenvalues ---    0.16000   0.16000   0.16000   0.16000   0.18495
     Eigenvalues ---    0.22339   0.23392   0.24591   0.24980   0.24991
     Eigenvalues ---    0.25000   0.25000   0.31653   0.33412   0.34844
     Eigenvalues ---    0.35064   0.35504   0.35842   0.35996   0.36206
     Eigenvalues ---    0.42924   0.44872   0.46921   0.47781   0.60365
     Eigenvalues ---    0.62173   1.01081
 RFO step:  Lambda=-4.26871055D-03 EMin= 6.73298737D-03
 Linear search not attempted -- first point.
 Iteration  1 RMS(Cart)=  0.07935559 RMS(Int)=  0.00244319
 Iteration  2 RMS(Cart)=  0.00314608 RMS(Int)=  0.00005150
 Iteration  3 RMS(Cart)=  0.00000687 RMS(Int)=  0.00005126
 Iteration  4 RMS(Cart)=  0.00000000 RMS(Int)=  0.00005126
 ITry= 1 IFail=0 DXMaxC= 2.49D-01 DCOld= 1.00D+10 DXMaxT= 3.00D-01 DXLimC= 3.00D+00 Rises=F
 Variable       Old X    -DE/DX   Delta X   Delta X   Delta X     New X
                                 (Linear)    (Quad)   (Total)
    R1        2.84782   0.00869   0.00000   0.02709   0.02709   2.87492
    R2        2.05929   0.00382   0.00000   0.01082   0.01082   2.07010
    R3        2.05571   0.00359   0.00000   0.01013   0.01013   2.06584
    R4        2.04865   0.00376   0.00000   0.01047   0.01047   2.05912
    R5        2.28209   0.01901   0.00000   0.01873   0.01873   2.30082
    R6        2.81634   0.00709   0.00000   0.02096   0.02096   2.83730
    R7        2.63641   0.00518   0.00000   0.00994   0.00993   2.64634
    R8        2.63973   0.00607   0.00000   0.01323   0.01322   2.65296
    R9        2.61311   0.00863   0.00000   0.01641   0.01641   2.62951
   R10        2.04088   0.00373   0.00000   0.01023   0.01023   2.05111
   R11        2.62398   0.00751   0.00000   0.01559   0.01560   2.63958
   R12        2.03760   0.00323   0.00000   0.00883   0.00883   2.04643
   R13        3.58113   0.00727   0.00000   0.03843   0.03843   3.61956
   R14        2.48250   0.01093   0.00000   0.01790   0.01792   2.50041
   R15        2.48822   0.02033   0.00000   0.03311   0.03312   2.52134
   R16        2.04330   0.00375   0.00000   0.01034   0.01034   2.05363
    A1        1.87794   0.00039   0.00000   0.00116   0.00116   1.87910
    A2        1.91060   0.00084   0.00000   0.00633   0.00628   1.91689
    A3        1.97550   0.00209   0.00000   0.01276   0.01273   1.98822
    A4        1.87105  -0.00054   0.00000  -0.00323  -0.00323   1.86782
    A5        1.89775  -0.00164   0.00000  -0.01223  -0.01223   1.88552
    A6        1.92741  -0.00126   0.00000  -0.00564  -0.00571   1.92171
    A7        2.13425  -0.00486   0.00000  -0.01957  -0.01976   2.11449
    A8        2.04301   0.00746   0.00000   0.02891   0.02872   2.07173
    A9        2.10512  -0.00261   0.00000  -0.01072  -0.01091   2.09421
   A10        2.16721  -0.00028   0.00000   0.00009   0.00011   2.16732
   A11        2.06544   0.00069   0.00000   0.00391   0.00393   2.06937
   A12        2.05023  -0.00041   0.00000  -0.00402  -0.00406   2.04617
   A13        2.08453   0.00221   0.00000   0.00423   0.00418   2.08871
   A14        2.11219  -0.00138   0.00000  -0.00369  -0.00368   2.10851
   A15        2.08594  -0.00083   0.00000  -0.00031  -0.00029   2.08565
   A16        2.04669   0.00138   0.00000   0.00259   0.00255   2.04924
   A17        2.12755  -0.00072   0.00000  -0.00142  -0.00143   2.12611
   A18        2.10892  -0.00066   0.00000  -0.00109  -0.00110   2.10783
   A19        2.09212  -0.00429   0.00000  -0.01750  -0.01751   2.07462
   A20        2.16963  -0.00050   0.00000  -0.00066  -0.00066   2.16897
   A21        2.02141   0.00479   0.00000   0.01819   0.01819   2.03959
   A22        2.06356  -0.00340   0.00000  -0.00766  -0.00764   2.05592
   A23        2.15151   0.00072   0.00000   0.00552   0.00551   2.15702
   A24        2.10255  -0.00301   0.00000  -0.01888  -0.01888   2.08367
   A25        2.02908   0.00229   0.00000   0.01338   0.01339   2.04247
    D1        1.21876   0.00016   0.00000   0.00152   0.00157   1.22032
    D2       -1.87988   0.00058   0.00000   0.03838   0.03834  -1.84154
    D3       -0.80901   0.00014   0.00000   0.00137   0.00143  -0.80758
    D4        2.37554   0.00055   0.00000   0.03822   0.03820   2.41374
    D5       -2.96726  -0.00034   0.00000  -0.00511  -0.00510  -2.97236
    D6        0.21729   0.00008   0.00000   0.03174   0.03167   0.24896
    D7       -0.65126   0.00149   0.00000   0.11327   0.11321  -0.53806
    D8        2.51766   0.00152   0.00000   0.11407   0.11402   2.63168
    D9        2.53253   0.00197   0.00000   0.14973   0.14978   2.68231
   D10       -0.58173   0.00199   0.00000   0.15053   0.15059  -0.43114
   D11       -3.12750   0.00040   0.00000   0.01573   0.01574  -3.11177
   D12       -0.02080   0.00062   0.00000   0.02362   0.02360   0.00279
   D13       -0.01302   0.00039   0.00000   0.01505   0.01505   0.00202
   D14        3.09368   0.00061   0.00000   0.02294   0.02291   3.11659
   D15        3.13942  -0.00009   0.00000  -0.00401  -0.00400   3.13542
   D16       -0.01177  -0.00003   0.00000  -0.00166  -0.00168  -0.01345
   D17        0.02331  -0.00007   0.00000  -0.00332  -0.00330   0.02001
   D18       -3.12788  -0.00000   0.00000  -0.00097  -0.00098  -3.12886
   D19       -0.00225  -0.00043   0.00000  -0.01564  -0.01569  -0.01794
   D20        3.13117  -0.00012   0.00000  -0.00407  -0.00413   3.12704
   D21       -3.10948  -0.00064   0.00000  -0.02335  -0.02338  -3.13286
   D22        0.02394  -0.00032   0.00000  -0.01178  -0.01182   0.01212
   D23       -3.13889   0.00030   0.00000   0.01077   0.01072  -3.12817
   D24        0.00996   0.00011   0.00000   0.00473   0.00468   0.01464
   D25        0.01079  -0.00001   0.00000  -0.00066  -0.00071   0.01007
   D26       -3.12355  -0.00020   0.00000  -0.00671  -0.00675  -3.13030
   D27       -0.00082   0.00021   0.00000   0.00687   0.00685   0.00604
   D28       -3.13542   0.00006   0.00000   0.00118   0.00106  -3.13436
   D29       -0.01642  -0.00023   0.00000  -0.00756  -0.00756  -0.02398
   D30        3.13440  -0.00027   0.00000  -0.00965  -0.00967   3.12473
         Item               Value     Threshold  Converged?
 Maximum Force            0.020334     0.000450     NO 
 RMS     Force            0.004654     0.000300     NO 
 Maximum Displacement     0.249140     0.001800     NO 
 RMS     Displacement     0.079700     0.001200     NO 
 Predicted change in Energy=-2.319191D-03
 Lowest energy point so far.  Saving SCF results.
 GradGradGradGradGradGradGradGradGradGradGradGradGradGradGradGradGradGrad

 Leave Link  103 at Tue Sep 17 09:47:54 2024, MaxMem=  1342177280 cpu:               0.1 elap:               0.0
 (Enter /groups/ReismanLab/Software/Gaussian16_RevC/Linux_Binary_AVX2-enabled-CPU/g16/l202.exe)
                          Input orientation:                          
 ---------------------------------------------------------------------
 Center     Atomic      Atomic             Coordinates (Angstroms)
 Number     Number       Type             X           Y           Z
 ---------------------------------------------------------------------
      1          6           0       -4.269936    0.531972    1.038739
      2          6           0       -3.433511   -0.104875   -0.060941
      3          8           0       -3.949917   -0.772589   -0.938374
      4          6           0       -1.938576    0.016225    0.008450
      5          6           0       -1.262896    1.102734    0.577680
      6          6           0        0.128092    1.135021    0.559681
      7          6           0        0.789146    0.048694   -0.018215
      8         35           0        2.704320    0.039567   -0.045343
      9          7           0        0.178627   -0.993019   -0.559374
     10          6           0       -1.155575   -1.001972   -0.558186
     11          1           0       -4.640882   -0.272927    1.682595
     12          1           0       -5.144631    1.021804    0.602796
     13          1           0       -3.718479    1.235407    1.661946
     14          1           0       -1.811209    1.933105    1.011193
     15          1           0        0.685388    1.964092    0.977754
     16          1           0       -1.644059   -1.855751   -1.020184
 ---------------------------------------------------------------------
                    Distance matrix (angstroms):
                    1          2          3          4          5
     1  C    0.000000
     2  C    1.521341   0.000000
     3  O    2.390244   1.217541   0.000000
     4  C    2.600525   1.501436   2.358854   0.000000
     5  C    3.095260   2.564707   3.610448   1.400382   0.000000
     6  C    4.464954   3.821979   4.744818   2.413852   1.391479
     7  C    5.190860   4.225665   4.896930   2.728046   2.382639
     8  Br   7.075164   6.139550   6.762838   4.643267   4.154189
     9  N    4.966818   3.752969   4.151760   2.413203   2.786227
    10  C    3.821308   2.498204   2.829400   1.403884   2.394054
    11  H    1.095451   2.127417   2.756187   3.191994   3.811046
    12  H    1.093194   2.153575   2.649980   3.412217   3.882659
    13  H    1.089639   2.201341   3.293520   2.718181   2.687586
    14  H    2.830066   2.816859   3.961775   2.167059   1.085402
    15  H    5.158481   4.724916   5.713757   3.408654   2.167442
    16  H    4.103123   2.681017   2.548904   2.156182   3.383946
                    6          7          8          9         10
     6  C    0.000000
     7  C    1.396805   0.000000
     8  Br   2.864093   1.915388   0.000000
     9  N    2.404869   1.323160   2.776615   0.000000
    10  C    2.732063   2.275392   4.030708   1.334233   0.000000
    11  H    5.097682   5.699245   7.552179   5.364012   4.207133
    12  H    5.274114   6.045024   7.936681   5.809237   4.621267
    13  H    4.002645   4.954787   6.752571   5.008750   4.062429
    14  H    2.145155   3.372319   5.009167   3.871477   3.392268
    15  H    1.082923   2.161358   2.970961   3.371064   3.813894
    16  H    3.818535   3.248283   4.842618   2.068535   1.086737
                   11         12         13         14         15
    11  H    0.000000
    12  H    1.759562   0.000000
    13  H    1.768142   1.789227   0.000000
    14  H    3.650261   3.479793   2.132590   0.000000
    15  H    5.819811   5.917568   4.515876   2.497013   0.000000
    16  H    4.334892   4.813356   4.588278   4.302309   4.899926
                   16
    16  H    0.000000
 Stoichiometry    C7H6BrNO
 Framework group  C1[X(C7H6BrNO)]
 Deg. of freedom    42
 Full point group                 C1      NOp   1
 RotChk:  IX=0 Diff= 2.39D-02
 Largest Abelian subgroup         C1      NOp   1
 Largest concise Abelian subgroup C1      NOp   1
                         Standard orientation:                         
 ---------------------------------------------------------------------
 Center     Atomic      Atomic             Coordinates (Angstroms)
 Number     Number       Type             X           Y           Z
 ---------------------------------------------------------------------
      1          6           0       -4.097660    0.993433    0.399358
      2          6           0       -3.239552   -0.172321   -0.068776
      3          8           0       -3.739946   -1.238084   -0.378873
      4          6           0       -1.745723   -0.023250   -0.045031
      5          6           0       -1.073298    1.191287   -0.228916
      6          6           0        0.317952    1.216056   -0.224045
      7          6           0        0.981941    0.005949   -0.009978
      8         35           0        2.896942   -0.004069    0.027215
      9          7           0        0.374406   -1.155468    0.171028
     10          6           0       -0.959377   -1.171388    0.140255
     11          1           0       -4.494461    0.738145    1.387989
     12          1           0       -4.954998    1.114311   -0.268049
     13          1           0       -3.555100    1.934376    0.486347
     14          1           0       -1.623620    2.111001   -0.400291
     15          1           0        0.873177    2.133282   -0.376170
     16          1           0       -1.444931   -2.134345    0.274226
 ---------------------------------------------------------------------
 Rotational constants (GHZ):           3.7615669           0.3733511           0.3437113
 Leave Link  202 at Tue Sep 17 09:47:54 2024, MaxMem=  1342177280 cpu:               0.0 elap:               0.0
 (Enter /groups/ReismanLab/Software/Gaussian16_RevC/Linux_Binary_AVX2-enabled-CPU/g16/l301.exe)
 Standard basis: 6-31G(d,p) (6D, 7F)
 Ernie: Thresh=  0.10000D-02 Tol=  0.10000D-05 Strict=F.
 There are   195 symmetry adapted cartesian basis functions of A   symmetry.
 There are   195 symmetry adapted basis functions of A   symmetry.
   195 basis functions,   377 primitive gaussians,   195 cartesian basis functions
    49 alpha electrons       49 beta electrons
       nuclear repulsion energy       691.1912895264 Hartrees.
 IExCor=  402 DFT=T Ex+Corr=B3LYP ExCW=0 ScaHFX=  0.200000
 ScaDFX=  0.800000  0.720000  1.000000  0.810000 ScalE2=  1.000000  1.000000
 IRadAn=      5 IRanWt=     -1 IRanGd=            0 ICorTp=0 IEmpDi=141
 NAtoms=   16 NActive=   16 NUniq=   16 SFac= 1.00D+00 NAtFMM=   60 NAOKFM=F Big=F
 Integral buffers will be    131072 words long.
 Raffenetti 2 integral format.
 Two-electron integral symmetry is turned on.
 R6Disp:  Grimme-D3(BJ) Dispersion energy=       -0.0321395059 Hartrees.
 Nuclear repulsion after empirical dispersion term =      691.1591500205 Hartrees.
 Leave Link  301 at Tue Sep 17 09:47:54 2024, MaxMem=  1342177280 cpu:               0.1 elap:               0.1
 (Enter /groups/ReismanLab/Software/Gaussian16_RevC/Linux_Binary_AVX2-enabled-CPU/g16/l302.exe)
 NPDir=0 NMtPBC=     1 NCelOv=     1 NCel=       1 NClECP=     1 NCelD=      1
         NCelK=      1 NCelE2=     1 NClLst=     1 CellRange=     0.0.
 One-electron integrals computed using PRISM.
 One-electron integral symmetry used in STVInt
 NBasis=   195 RedAO= T EigKep=  7.13D-04  NBF=   195
 NBsUse=   195 1.00D-06 EigRej= -1.00D+00 NBFU=   195
 Precomputing XC quadrature grid using
 IXCGrd= 4 IRadAn=           5 IRanWt=          -1 IRanGd=           0 AccXCQ= 0.00D+00.
 Generated NRdTot=       0 NPtTot=           0 NUsed=           0 NTot=          32
 NSgBfM=   193   193   193   193   193 MxSgAt=    16 MxSgA2=    16.
 Leave Link  302 at Tue Sep 17 09:47:54 2024, MaxMem=  1342177280 cpu:               0.9 elap:               0.2
 (Enter /groups/ReismanLab/Software/Gaussian16_RevC/Linux_Binary_AVX2-enabled-CPU/g16/l303.exe)
 DipDrv:  MaxL=1.
 Leave Link  303 at Tue Sep 17 09:47:54 2024, MaxMem=  1342177280 cpu:               0.1 elap:               0.0
 (Enter /groups/ReismanLab/Software/Gaussian16_RevC/Linux_Binary_AVX2-enabled-CPU/g16/l401.exe)
 Initial guess from the checkpoint file:  "smiles_00104_conf_3.chk"
 B after Tr=    -0.000000   -0.000000   -0.000000
         Rot=    0.999986    0.005348    0.000342   -0.000396 Ang=   0.62 deg.
 Guess basis will be translated and rotated to current coordinates.
 JPrj=2 DoOrth=T DoCkMO=T.
 Generating alternative initial guess.
 ExpMin= 1.43D-01 ExpMax= 5.74D+05 ExpMxC= 5.74D+03 IAcc=3 IRadAn=         5 AccDes= 0.00D+00
 Harris functional with IExCor=  402 and IRadAn=       5 diagonalized for initial guess.
 HarFok:  IExCor=  402 AccDes= 0.00D+00 IRadAn=         5 IDoV= 1 UseB2=F ITyADJ=14
 ICtDFT=  3500011 ScaDFX=  1.000000  1.000000  1.000000  1.000000
 FoFCou: FMM=F IPFlag=           0 FMFlag=      100000 FMFlg1=           0
         NFxFlg=           0 DoJE=T BraDBF=F KetDBF=T FulRan=T
         wScrn=  0.000000 ICntrl=       500 IOpCl=  0 I1Cent=   200000004 NGrid=           0
         NMat0=    1 NMatS0=      1 NMatT0=    0 NMatD0=    1 NMtDS0=    0 NMtDT0=    0
 Petite list used in FoFCou.
 Harris En= -2972.17775795909    
 Leave Link  401 at Tue Sep 17 09:47:54 2024, MaxMem=  1342177280 cpu:               3.9 elap:               0.6
 (Enter /groups/ReismanLab/Software/Gaussian16_RevC/Linux_Binary_AVX2-enabled-CPU/g16/l502.exe)
 Integral symmetry usage will be decided dynamically.
 Closed shell SCF:
 Using DIIS extrapolation, IDIIS=  1040.
 NGot=  1342177280 LenX=  1342097209 LenY=  1342058743
 Requested convergence on RMS density matrix=1.00D-08 within  32 cycles.
 Requested convergence on MAX density matrix=1.00D-06.
 Requested convergence on             energy=1.00D-06.
 No special actions if energy rises.
 Fock matrices will be formed incrementally for  20 cycles.
 Integral accuracy reduced to 1.0D-05 until final iterations.

 Cycle   1  Pass 0  IDiag  1:
 FoFJK:  IHMeth= 1 ICntrl=       0 DoSepK=F KAlg= 0 I1Cent=           0 FoldK=F
 IRaf= 870000000 NMat=       1 IRICut=       1 DoRegI=T DoRafI=F ISym2E= 0 IDoP0=0 IntGTp=1.
 FoFCou: FMM=F IPFlag=           0 FMFlag=      100000 FMFlg1=           0
         NFxFlg=           0 DoJE=F BraDBF=F KetDBF=F FulRan=T
         wScrn=  0.000000 ICntrl=         0 IOpCl=  0 I1Cent=           0 NGrid=           0
         NMat0=    1 NMatS0=      1 NMatT0=    0 NMatD0=    1 NMtDS0=    0 NMtDT0=    0
 Symmetry not used in FoFCou.
 E= -2972.06144834690    
 DIIS: error= 4.78D-03 at cycle   1 NSaved=   1.
 NSaved= 1 IEnMin= 1 EnMin= -2972.06144834690     IErMin= 1 ErrMin= 4.78D-03
 ErrMax= 4.78D-03  0.00D+00 EMaxC= 1.00D-01 BMatC= 8.79D-03 BMatP= 8.79D-03
 IDIUse=3 WtCom= 9.52D-01 WtEn= 4.78D-02
 Coeff-Com:  0.100D+01
 Coeff-En:   0.100D+01
 Coeff:      0.100D+01
 Gap=     1.707 Goal=   None    Shift=    0.000
 GapD=    1.707 DampG=2.000 DampE=1.000 DampFc=2.0000 IDamp=-1.
 RMSDP=7.18D-04 MaxDP=2.16D-02              OVMax= 3.00D-02

 Cycle   2  Pass 0  IDiag  1:
 RMSU=  7.18D-04    CP:  1.00D+00
 E= -2972.07294467174     Delta-E=       -0.011496324839 Rises=F Damp=F
 DIIS: error= 4.89D-04 at cycle   2 NSaved=   2.
 NSaved= 2 IEnMin= 2 EnMin= -2972.07294467174     IErMin= 2 ErrMin= 4.89D-04
 ErrMax= 4.89D-04  0.00D+00 EMaxC= 1.00D-01 BMatC= 1.78D-04 BMatP= 8.79D-03
 IDIUse=3 WtCom= 9.95D-01 WtEn= 4.89D-03
 Coeff-Com: -0.280D-01 0.103D+01
 Coeff-En:   0.000D+00 0.100D+01
 Coeff:     -0.279D-01 0.103D+01
 Gap=     0.184 Goal=   None    Shift=    0.000
 RMSDP=1.75D-04 MaxDP=5.04D-03 DE=-1.15D-02 OVMax= 6.46D-03

 Cycle   3  Pass 0  IDiag  1:
 RMSU=  1.63D-04    CP:  1.00D+00  1.09D+00
 E= -2972.07293898444     Delta-E=        0.000005687300 Rises=F Damp=F
 DIIS: error= 8.72D-04 at cycle   3 NSaved=   3.
 NSaved= 3 IEnMin= 2 EnMin= -2972.07294467174     IErMin= 2 ErrMin= 4.89D-04
 ErrMax= 8.72D-04  0.00D+00 EMaxC= 1.00D-01 BMatC= 2.61D-04 BMatP= 1.78D-04
 IDIUse=3 WtCom= 2.53D-01 WtEn= 7.47D-01
 Coeff-Com: -0.305D-01 0.586D+00 0.445D+00
 Coeff-En:   0.000D+00 0.507D+00 0.493D+00
 Coeff:     -0.771D-02 0.527D+00 0.481D+00
 Gap=     0.185 Goal=   None    Shift=    0.000
 RMSDP=1.31D-04 MaxDP=3.85D-03 DE= 5.69D-06 OVMax= 6.83D-03

 Cycle   4  Pass 0  IDiag  1:
 RMSU=  6.07D-05    CP:  1.00D+00  1.09D+00  2.90D-01
 E= -2972.07316520435     Delta-E=       -0.000226219908 Rises=F Damp=F
 DIIS: error= 4.93D-04 at cycle   4 NSaved=   4.
 NSaved= 4 IEnMin= 4 EnMin= -2972.07316520435     IErMin= 2 ErrMin= 4.89D-04
 ErrMax= 4.93D-04  0.00D+00 EMaxC= 1.00D-01 BMatC= 5.59D-05 BMatP= 1.78D-04
 IDIUse=3 WtCom= 9.95D-01 WtEn= 4.93D-03
 Coeff-Com: -0.125D-01 0.175D+00 0.324D+00 0.514D+00
 Coeff-En:   0.000D+00 0.000D+00 0.203D+00 0.797D+00
 Coeff:     -0.124D-01 0.174D+00 0.323D+00 0.515D+00
 Gap=     0.185 Goal=   None    Shift=    0.000
 RMSDP=4.78D-05 MaxDP=1.31D-03 DE=-2.26D-04 OVMax= 3.17D-03

 Cycle   5  Pass 0  IDiag  1:
 RMSU=  2.42D-05    CP:  1.00D+00  1.10D+00  4.84D-01  5.74D-01
 E= -2972.07322350746     Delta-E=       -0.000058303107 Rises=F Damp=F
 DIIS: error= 9.31D-05 at cycle   5 NSaved=   5.
 NSaved= 5 IEnMin= 5 EnMin= -2972.07322350746     IErMin= 5 ErrMin= 9.31D-05
 ErrMax= 9.31D-05  0.00D+00 EMaxC= 1.00D-01 BMatC= 3.30D-06 BMatP= 5.59D-05
 IDIUse=1 WtCom= 1.00D+00 WtEn= 0.00D+00
 Coeff-Com: -0.204D-02 0.494D-02 0.113D+00 0.286D+00 0.598D+00
 Coeff:     -0.204D-02 0.494D-02 0.113D+00 0.286D+00 0.598D+00
 Gap=     0.185 Goal=   None    Shift=    0.000
 RMSDP=1.30D-05 MaxDP=2.75D-04 DE=-5.83D-05 OVMax= 7.47D-04

 Cycle   6  Pass 0  IDiag  1:
 RMSU=  7.47D-06    CP:  1.00D+00  1.10D+00  4.97D-01  6.71D-01  6.51D-01
 E= -2972.07322724020     Delta-E=       -0.000003732749 Rises=F Damp=F
 DIIS: error= 3.53D-05 at cycle   6 NSaved=   6.
 NSaved= 6 IEnMin= 6 EnMin= -2972.07322724020     IErMin= 6 ErrMin= 3.53D-05
 ErrMax= 3.53D-05  0.00D+00 EMaxC= 1.00D-01 BMatC= 3.75D-07 BMatP= 3.30D-06
 IDIUse=1 WtCom= 1.00D+00 WtEn= 0.00D+00
 Coeff-Com:  0.210D-04-0.160D-01 0.345D-01 0.117D+00 0.337D+00 0.527D+00
 Coeff:      0.210D-04-0.160D-01 0.345D-01 0.117D+00 0.337D+00 0.527D+00
 Gap=     0.185 Goal=   None    Shift=    0.000
 RMSDP=4.25D-06 MaxDP=1.62D-04 DE=-3.73D-06 OVMax= 2.03D-04

 Initial convergence to 1.0D-05 achieved.  Increase integral accuracy.
 Cycle   7  Pass 1  IDiag  1:
 E= -2972.07326545380     Delta-E=       -0.000038213592 Rises=F Damp=F
 DIIS: error= 3.28D-05 at cycle   1 NSaved=   1.
 NSaved= 1 IEnMin= 1 EnMin= -2972.07326545380     IErMin= 1 ErrMin= 3.28D-05
 ErrMax= 3.28D-05  0.00D+00 EMaxC= 1.00D-01 BMatC= 2.16D-07 BMatP= 2.16D-07
 IDIUse=1 WtCom= 1.00D+00 WtEn= 0.00D+00
 Coeff-Com:  0.100D+01
 Coeff:      0.100D+01
 Gap=     0.185 Goal=   None    Shift=    0.000
 RMSDP=4.25D-06 MaxDP=1.62D-04 DE=-3.82D-05 OVMax= 2.85D-04

 Cycle   8  Pass 1  IDiag  1:
 RMSU=  1.84D-05    CP:  1.00D+00
 E= -2972.07326529750     Delta-E=        0.000000156298 Rises=F Damp=F
 DIIS: error= 6.26D-05 at cycle   2 NSaved=   2.
 NSaved= 2 IEnMin= 1 EnMin= -2972.07326545380     IErMin= 1 ErrMin= 3.28D-05
 ErrMax= 6.26D-05  0.00D+00 EMaxC= 1.00D-01 BMatC= 4.19D-07 BMatP= 2.16D-07
 IDIUse=1 WtCom= 1.00D+00 WtEn= 0.00D+00
 Coeff-Com:  0.601D+00 0.399D+00
 Coeff:      0.601D+00 0.399D+00
 Gap=     0.185 Goal=   None    Shift=    0.000
 RMSDP=3.69D-06 MaxDP=1.95D-04 DE= 1.56D-07 OVMax= 2.54D-04

 Cycle   9  Pass 1  IDiag  1:
 RMSU=  3.60D-06    CP:  1.00D+00  9.57D-01
 E= -2972.07326558673     Delta-E=       -0.000000289232 Rises=F Damp=F
 DIIS: error= 2.03D-05 at cycle   3 NSaved=   3.
 NSaved= 3 IEnMin= 3 EnMin= -2972.07326558673     IErMin= 3 ErrMin= 2.03D-05
 ErrMax= 2.03D-05  0.00D+00 EMaxC= 1.00D-01 BMatC= 4.16D-08 BMatP= 2.16D-07
 IDIUse=1 WtCom= 1.00D+00 WtEn= 0.00D+00
 Coeff-Com:  0.205D-01 0.239D+00 0.741D+00
 Coeff:      0.205D-01 0.239D+00 0.741D+00
 Gap=     0.185 Goal=   None    Shift=    0.000
 RMSDP=1.04D-06 MaxDP=4.76D-05 DE=-2.89D-07 OVMax= 6.64D-05

 Cycle  10  Pass 1  IDiag  1:
 RMSU=  5.49D-07    CP:  1.00D+00  9.78D-01  7.77D-01
 E= -2972.07326561703     Delta-E=       -0.000000030297 Rises=F Damp=F
 DIIS: error= 2.88D-06 at cycle   4 NSaved=   4.
 NSaved= 4 IEnMin= 4 EnMin= -2972.07326561703     IErMin= 4 ErrMin= 2.88D-06
 ErrMax= 2.88D-06  0.00D+00 EMaxC= 1.00D-01 BMatC= 2.21D-09 BMatP= 4.16D-08
 IDIUse=1 WtCom= 1.00D+00 WtEn= 0.00D+00
 Coeff-Com: -0.223D-02 0.128D+00 0.430D+00 0.445D+00
 Coeff:     -0.223D-02 0.128D+00 0.430D+00 0.445D+00
 Gap=     0.185 Goal=   None    Shift=    0.000
 RMSDP=3.20D-07 MaxDP=9.95D-06 DE=-3.03D-08 OVMax= 2.10D-05

 Cycle  11  Pass 1  IDiag  1:
 RMSU=  1.54D-07    CP:  1.00D+00  9.78D-01  7.84D-01  4.92D-01
 E= -2972.07326561940     Delta-E=       -0.000000002368 Rises=F Damp=F
 DIIS: error= 7.55D-07 at cycle   5 NSaved=   5.
 NSaved= 5 IEnMin= 5 EnMin= -2972.07326561940     IErMin= 5 ErrMin= 7.55D-07
 ErrMax= 7.55D-07  0.00D+00 EMaxC= 1.00D-01 BMatC= 1.43D-10 BMatP= 2.21D-09
 IDIUse=1 WtCom= 1.00D+00 WtEn= 0.00D+00
 Coeff-Com: -0.245D-02 0.689D-01 0.233D+00 0.278D+00 0.422D+00
 Coeff:     -0.245D-02 0.689D-01 0.233D+00 0.278D+00 0.422D+00
 Gap=     0.185 Goal=   None    Shift=    0.000
 RMSDP=7.68D-08 MaxDP=2.06D-06 DE=-2.37D-09 OVMax= 4.90D-06

 Cycle  12  Pass 1  IDiag  1:
 RMSU=  6.21D-08    CP:  1.00D+00  9.78D-01  7.83D-01  5.16D-01  7.22D-01
 E= -2972.07326561955     Delta-E=       -0.000000000154 Rises=F Damp=F
 DIIS: error= 1.27D-07 at cycle   6 NSaved=   6.
 NSaved= 6 IEnMin= 6 EnMin= -2972.07326561955     IErMin= 6 ErrMin= 1.27D-07
 ErrMax= 1.27D-07  0.00D+00 EMaxC= 1.00D-01 BMatC= 7.70D-12 BMatP= 1.43D-10
 IDIUse=1 WtCom= 1.00D+00 WtEn= 0.00D+00
 Coeff-Com: -0.782D-03 0.878D-02 0.299D-01 0.483D-01 0.193D+00 0.721D+00
 Coeff:     -0.782D-03 0.878D-02 0.299D-01 0.483D-01 0.193D+00 0.721D+00
 Gap=     0.185 Goal=   None    Shift=    0.000
 RMSDP=2.64D-08 MaxDP=7.08D-07 DE=-1.54D-10 OVMax= 2.21D-06

 Cycle  13  Pass 1  IDiag  1:
 RMSU=  1.70D-08    CP:  1.00D+00  9.79D-01  7.82D-01  5.27D-01  8.43D-01
                    CP:  9.61D-01
 E= -2972.07326561956     Delta-E=       -0.000000000011 Rises=F Damp=F
 DIIS: error= 4.83D-08 at cycle   7 NSaved=   7.
 NSaved= 7 IEnMin= 7 EnMin= -2972.07326561956     IErMin= 7 ErrMin= 4.83D-08
 ErrMax= 4.83D-08  0.00D+00 EMaxC= 1.00D-01 BMatC= 1.13D-12 BMatP= 7.70D-12
 IDIUse=1 WtCom= 1.00D+00 WtEn= 0.00D+00
 Coeff-Com:  0.360D-04-0.690D-02-0.231D-01-0.227D-01 0.153D-01 0.306D+00
 Coeff-Com:  0.731D+00
 Coeff:      0.360D-04-0.690D-02-0.231D-01-0.227D-01 0.153D-01 0.306D+00
 Coeff:      0.731D+00
 Gap=     0.185 Goal=   None    Shift=    0.000
 RMSDP=1.16D-08 MaxDP=2.88D-07 DE=-1.09D-11 OVMax= 9.95D-07

 Cycle  14  Pass 1  IDiag  1:
 RMSU=  7.53D-09    CP:  1.00D+00  9.79D-01  7.83D-01  5.31D-01  8.70D-01
                    CP:  1.07D+00  8.57D-01
 E= -2972.07326561957     Delta-E=       -0.000000000012 Rises=F Damp=F
 DIIS: error= 2.88D-08 at cycle   8 NSaved=   8.
 NSaved= 8 IEnMin= 8 EnMin= -2972.07326561957     IErMin= 8 ErrMin= 2.88D-08
 ErrMax= 2.88D-08  0.00D+00 EMaxC= 1.00D-01 BMatC= 3.65D-13 BMatP= 1.13D-12
 IDIUse=1 WtCom= 1.00D+00 WtEn= 0.00D+00
 Coeff-Com:  0.147D-03-0.533D-02-0.178D-01-0.205D-01-0.207D-01 0.664D-01
 Coeff-Com:  0.437D+00 0.561D+00
 Coeff:      0.147D-03-0.533D-02-0.178D-01-0.205D-01-0.207D-01 0.664D-01
 Coeff:      0.437D+00 0.561D+00
 Gap=     0.185 Goal=   None    Shift=    0.000
 RMSDP=3.96D-09 MaxDP=1.21D-07 DE=-1.23D-11 OVMax= 3.17D-07

 SCF Done:  E(RB3LYP) =  -2972.07326562     A.U. after   14 cycles
            NFock= 14  Conv=0.40D-08     -V/T= 2.0066
 KE= 2.952630421531D+03 PE=-8.446519851035D+03 EE= 1.830657013864D+03
 Leave Link  502 at Tue Sep 17 09:48:04 2024, MaxMem=  1342177280 cpu:              69.8 elap:               9.5
 (Enter /groups/ReismanLab/Software/Gaussian16_RevC/Linux_Binary_AVX2-enabled-CPU/g16/l508.exe)
 QCSCF skips out because SCF is already converged.
 Leave Link  508 at Tue Sep 17 09:48:04 2024, MaxMem=  1342177280 cpu:               0.0 elap:               0.0
 (Enter /groups/ReismanLab/Software/Gaussian16_RevC/Linux_Binary_AVX2-enabled-CPU/g16/l701.exe)
 ... and contract with generalized density number  0.
 Compute integral first derivatives.
 R6Disp: Adding Grimme-D3(BJ) dispersion energy 1st derivatives to the gradient.
 Leave Link  701 at Tue Sep 17 09:48:04 2024, MaxMem=  1342177280 cpu:               0.6 elap:               0.1
 (Enter /groups/ReismanLab/Software/Gaussian16_RevC/Linux_Binary_AVX2-enabled-CPU/g16/l702.exe)
 L702 exits ... SP integral derivatives will be done elsewhere.
 Leave Link  702 at Tue Sep 17 09:48:04 2024, MaxMem=  1342177280 cpu:               0.0 elap:               0.0
 (Enter /groups/ReismanLab/Software/Gaussian16_RevC/Linux_Binary_AVX2-enabled-CPU/g16/l703.exe)
 Integral derivatives from FoFJK, PRISM(SPDF).
 Compute integral first derivatives, UseDBF=F ICtDFT=           0.
 Calling FoFJK, ICntrl=      2127 FMM=F ISym2X=0 I1Cent= 0 IOpClX= 0 NMat=1 NMatS=1 NMatT=0.
 FoFJK:  IHMeth= 1 ICntrl=    2127 DoSepK=F KAlg= 0 I1Cent=           0 FoldK=F
 IRaf=         0 NMat=       1 IRICut=       1 DoRegI=T DoRafI=F ISym2E= 0 IDoP0=0 IntGTp=1.
 FoFCou: FMM=F IPFlag=           0 FMFlag=      100000 FMFlg1=         800
         NFxFlg=           0 DoJE=F BraDBF=F KetDBF=F FulRan=T
         wScrn=  0.000000 ICntrl=      2127 IOpCl=  0 I1Cent=           0 NGrid=           0
         NMat0=    1 NMatS0=      1 NMatT0=    0 NMatD0=    1 NMtDS0=    0 NMtDT0=    0
 Symmetry not used in FoFCou.
 Leave Link  703 at Tue Sep 17 09:48:07 2024, MaxMem=  1342177280 cpu:              20.9 elap:               2.7
 (Enter /groups/ReismanLab/Software/Gaussian16_RevC/Linux_Binary_AVX2-enabled-CPU/g16/l716.exe)
 Dipole        =-4.91096849D-01 1.52231871D+00 1.93755606D-01
 ***** Axes restored to original set *****
 -------------------------------------------------------------------
 Center     Atomic                   Forces (Hartrees/Bohr)
 Number     Number              X              Y              Z
 -------------------------------------------------------------------
      1        6          -0.000848963    0.000938198   -0.002453985
      2        6           0.003775027   -0.000815054    0.005162079
      3        8          -0.001742297   -0.000976816   -0.001726024
      4        6          -0.000278338    0.000111631   -0.001652535
      5        6           0.000790402   -0.000198829    0.000551352
      6        6           0.000567228    0.000584207    0.000675822
      7        6          -0.003909200   -0.001071514   -0.000447922
      8       35          -0.001251117    0.000299237    0.000112777
      9        7           0.003599789   -0.000598227   -0.000388553
     10        6          -0.002238080    0.001586097   -0.000209570
     11        1           0.000674741   -0.000300828    0.000001783
[...]
   XX=  -658.8490   YX=  -296.5796   ZX=    -0.0392
   XY=  -232.0298   YY=  -947.8202   ZY=    -0.1699
   XZ=    -0.0799   YZ=    -0.2626   ZZ=   359.8608
   Eigenvalues: -1104.5539  -502.1153   359.8608
      4  C    Isotropic =    34.4071   Anisotropy =   199.7583
   XX=   -78.1804   YX=   -14.4396   ZX=    -0.0078
   XY=    11.2752   YY=    13.8224   ZY=     0.0062
   XZ=    -0.0093   YZ=     0.0186   ZZ=   167.5793
   Eigenvalues:   -78.2076    13.8496   167.5793
      5  C    Isotropic =    23.2960   Anisotropy =   229.5275
   XX=   -34.3832   YX=    46.0960   ZX=    -0.0050
   XY=    28.0204   YY=   -72.0432   ZY=     0.0146
   XZ=    -0.0015   YZ=     0.0217   ZZ=   176.3143
   Eigenvalues:   -94.7810   -11.6454   176.3143
      6  C    Isotropic =    36.5130   Anisotropy =   175.7766
   XX=    21.7504   YX=   -33.6387   ZX=     0.0022
   XY=   -58.9040   YY=   -65.9087   ZY=     0.0136
   XZ=     0.0058   YZ=     0.0137   ZZ=   153.6974
   Eigenvalues:   -85.8135    41.6552   153.6974
      7  C    Isotropic =    -4.1318   Anisotropy =   125.7212
   XX=  -114.6356   YX=    22.8019   ZX=     0.0010
   XY=   -35.1934   YY=    22.5579   ZY=     0.0033
   XZ=     0.0043   YZ=     0.0029   ZZ=    79.6823
   Eigenvalues:  -114.9148    22.8371    79.6823
      8  Br   Isotropic =  1900.2343   Anisotropy =  1483.7137
   XX=  2887.2045   YX=  -128.7635   ZX=    -0.0151
   XY=    15.7415   YY=  1419.2563   ZY=    -0.0004
   XZ=    -0.0184   YZ=    -0.0130   ZZ=  1394.2421
   Eigenvalues:  1394.2421  1417.0840  2889.3768
      9  N    Isotropic =  -139.1429   Anisotropy =   587.3013
   XX=  -388.2389   YX=  -108.5128   ZX=     0.0078
   XY=  -102.9584   YY=  -281.5811   ZY=     0.0330
   XZ=     0.0028   YZ=     0.0297   ZZ=   252.3913
   Eigenvalues:  -453.3329  -216.4871   252.3913
     10  C    Isotropic =     9.3870   Anisotropy =   208.8022
   XX=   -52.8734   YX=   -63.2031   ZX=     0.0021
   XY=   -25.2575   YY=   -67.5542   ZY=     0.0146
   XZ=    -0.0026   YZ=     0.0159   ZZ=   148.5884
   Eigenvalues:  -105.0490   -15.3785   148.5884
     11  H    Isotropic =    29.0663   Anisotropy =     4.3121
   XX=    29.7925   YX=    -0.7660   ZX=    -0.7207
   XY=     1.2542   YY=    28.7499   ZY=     2.2151
   XZ=    -0.6589   YZ=     4.1672   ZZ=    28.6566
   Eigenvalues:    25.4112    29.8468    31.9410
     12  H    Isotropic =    29.4338   Anisotropy =     6.3700
   XX=    33.6295   YX=     2.7533   ZX=     0.0022
   XY=    -1.7429   YY=    28.6695   ZY=    -0.0006
   XZ=     0.0029   YZ=     0.0004   ZZ=    26.0022
   Eigenvalues:    26.0022    28.6186    33.6804
     13  H    Isotropic =    29.0652   Anisotropy =     4.3102
   XX=    29.7940   YX=    -0.7654   ZX=     0.7190
   XY=     1.2563   YY=    28.7511   ZY=    -2.2156
   XZ=     0.6570   YZ=    -4.1682   ZZ=    28.6504
   Eigenvalues:    25.4080    29.8489    31.9386
     14  H    Isotropic =    22.8948   Anisotropy =     9.1815
   XX=    28.1627   YX=     3.4891   ZX=    -0.0001
   XY=     1.8594   YY=    20.6321   ZY=     0.0002
   XZ=    -0.0004   YZ=    -0.0003   ZZ=    19.8894
   Eigenvalues:    19.7791    19.8894    29.0158
     15  H    Isotropic =    23.5761   Anisotropy =    11.1447
   XX=    28.4380   YX=    -4.2711   ZX=     0.0003
   XY=    -4.9472   YY=    22.7328   ZY=    -0.0000
   XZ=     0.0003   YZ=    -0.0002   ZZ=    19.5575
   Eigenvalues:    19.5575    20.1649    31.0059
     16  H    Isotropic =    21.7511   Anisotropy =     7.9942
   XX=    25.3327   YX=    -3.1261   ZX=     0.0003
   XY=    -2.6727   YY=    22.2712   ZY=     0.0000
   XZ=     0.0010   YZ=    -0.0002   ZZ=    17.6494
   Eigenvalues:    17.6494    20.5233    27.0806
 End of Minotr F.D. properties file   721 does not exist.
 End of Minotr F.D. properties file   722 does not exist.
 End of Minotr F.D. properties file   788 does not exist.
 Leave Link 1002 at Tue Sep 17 10:20:11 2024, MaxMem=  1342177280 cpu:             417.2 elap:             418.1
 (Enter /groups/ReismanLab/Software/Gaussian16_RevC/Linux_Binary_AVX2-enabled-CPU/g16/l601.exe)
 Copying SCF densities to generalized density rwf, IOpCl= 0 IROHF=0.

 **********************************************************************

            Population analysis using the SCF Density.

 **********************************************************************

 Orbital symmetries:
       Occupied  (A) (A) (A) (A) (A) (A) (A) (A) (A) (A) (A) (A)
                 (A) (A) (A) (A) (A) (A) (A) (A) (A) (A) (A) (A)
                 (A) (A) (A) (A) (A) (A) (A) (A) (A) (A) (A) (A)
                 (A) (A) (A) (A) (A) (A) (A) (A) (A) (A) (A) (A)
                 (A)
       Virtual   (A) (A) (A) (A) (A) (A) (A) (A) (A) (A) (A) (A)
                 (A) (A) (A) (A) (A) (A) (A) (A) (A) (A) (A) (A)
                 (A) (A) (A) (A) (A) (A) (A) (A) (A) (A) (A) (A)
                 (A) (A) (A) (A) (A) (A) (A) (A) (A) (A) (A) (A)
                 (A) (A) (A) (A) (A) (A) (A) (A) (A) (A) (A) (A)
                 (A) (A) (A) (A) (A) (A) (A) (A) (A) (A) (A) (A)
                 (A) (A) (A) (A) (A) (A) (A) (A) (A) (A) (A) (A)
                 (A) (A) (A) (A) (A) (A) (A) (A) (A) (A) (A) (A)
                 (A) (A) (A) (A) (A) (A) (A) (A) (A) (A) (A) (A)
                 (A) (A) (A) (A) (A) (A) (A) (A) (A) (A) (A) (A)
                 (A) (A) (A) (A) (A) (A) (A) (A) (A) (A) (A) (A)
                 (A) (A) (A) (A) (A) (A) (A) (A) (A) (A) (A) (A)
                 (A) (A) (A) (A) (A) (A) (A) (A) (A) (A) (A) (A)
                 (A) (A) (A) (A) (A) (A) (A) (A) (A) (A) (A) (A)
                 (A) (A) (A) (A) (A) (A) (A) (A) (A) (A) (A) (A)
                 (A) (A) (A) (A) (A) (A) (A) (A) (A) (A) (A) (A)
                 (A) (A) (A) (A) (A) (A) (A) (A) (A) (A) (A) (A)
                 (A) (A) (A) (A) (A) (A) (A) (A) (A) (A) (A) (A)
                 (A) (A) (A) (A) (A) (A) (A) (A) (A) (A) (A) (A)
                 (A) (A) (A) (A) (A) (A) (A) (A) (A) (A) (A) (A)
                 (A) (A) (A) (A) (A) (A) (A) (A) (A) (A) (A) (A)
                 (A) (A) (A) (A) (A) (A) (A) (A) (A) (A) (A) (A)
                 (A) (A) (A) (A) (A) (A) (A) (A) (A) (A) (A) (A)
                 (A) (A) (A) (A) (A) (A) (A) (A) (A) (A) (A) (A)
                 (A) (A) (A) (A) (A) (A) (A) (A) (A) (A) (A) (A)
                 (A) (A) (A) (A) (A) (A) (A) (A) (A) (A) (A) (A)
                 (A) (A)
 The electronic state is 1-A.
 Alpha  occ. eigenvalues -- -485.38154 -63.36651 -57.18591 -57.18363 -57.18346
 Alpha  occ. eigenvalues --  -19.62921 -14.77603 -10.65032 -10.64683 -10.60093
 Alpha  occ. eigenvalues --  -10.58665 -10.57598 -10.57417 -10.54576  -9.03305
 Alpha  occ. eigenvalues --   -6.85705  -6.84857  -6.84799  -2.89083  -2.88784
 Alpha  occ. eigenvalues --   -2.88725  -2.87936  -2.87935  -1.17636  -1.08793
 Alpha  occ. eigenvalues --   -0.93784  -0.91937  -0.86053  -0.83488  -0.74325
 Alpha  occ. eigenvalues --   -0.73202  -0.65551  -0.60257  -0.58189  -0.54830
 Alpha  occ. eigenvalues --   -0.53049  -0.52938  -0.51318  -0.50243  -0.49078
 Alpha  occ. eigenvalues --   -0.46426  -0.44268  -0.44236  -0.38856  -0.36850
 Alpha  occ. eigenvalues --   -0.36440  -0.35738  -0.33415  -0.31776
 Alpha virt. eigenvalues --   -0.04577  -0.01671   0.03268   0.05416   0.06885
 Alpha virt. eigenvalues --    0.10127   0.11424   0.12954   0.13842   0.14112
 Alpha virt. eigenvalues --    0.14268   0.16695   0.17019   0.18273   0.20298
 Alpha virt. eigenvalues --    0.22122   0.22409   0.22923   0.24163   0.24818
 Alpha virt. eigenvalues --    0.24965   0.26136   0.26209   0.28849   0.29001
 Alpha virt. eigenvalues --    0.29194   0.30468   0.30705   0.31973   0.32387
 Alpha virt. eigenvalues --    0.33968   0.34552   0.35836   0.36887   0.37621
 Alpha virt. eigenvalues --    0.38155   0.40034   0.40528   0.41454   0.43381
 Alpha virt. eigenvalues --    0.43596   0.44378   0.45167   0.45907   0.47218
 Alpha virt. eigenvalues --    0.48057   0.49469   0.50310   0.50769   0.53429
 Alpha virt. eigenvalues --    0.54108   0.54270   0.56042   0.58116   0.58800
 Alpha virt. eigenvalues --    0.60094   0.61155   0.61568   0.62080   0.64474
 Alpha virt. eigenvalues --    0.65121   0.65779   0.66785   0.69169   0.70838
 Alpha virt. eigenvalues --    0.71996   0.73232   0.75687   0.75850   0.77443
 Alpha virt. eigenvalues --    0.78366   0.79906   0.81608   0.83277   0.83874
 Alpha virt. eigenvalues --    0.86935   0.88473   0.91942   0.93512   0.93962
 Alpha virt. eigenvalues --    0.95114   0.97624   0.97894   1.01561   1.04754
 Alpha virt. eigenvalues --    1.06401   1.07150   1.09445   1.11074   1.12089
 Alpha virt. eigenvalues --    1.12868   1.16201   1.20007   1.21571   1.22943
 Alpha virt. eigenvalues --    1.23418   1.26382   1.27004   1.29087   1.30586
 Alpha virt. eigenvalues --    1.32533   1.36019   1.37174   1.39130   1.39720
 Alpha virt. eigenvalues --    1.41427   1.41942   1.44796   1.44866   1.46821
 Alpha virt. eigenvalues --    1.48373   1.49720   1.51349   1.53778   1.54419
 Alpha virt. eigenvalues --    1.55251   1.56311   1.56828   1.57024   1.57936
 Alpha virt. eigenvalues --    1.58000   1.59230   1.62352   1.62946   1.63864
 Alpha virt. eigenvalues --    1.64391   1.66456   1.66970   1.67893   1.69184
 Alpha virt. eigenvalues --    1.69684   1.70190   1.72155   1.75412   1.76257
 Alpha virt. eigenvalues --    1.78645   1.80187   1.82713   1.85544   1.87595
 Alpha virt. eigenvalues --    1.89198   1.91102   1.91812   1.94228   1.95077
 Alpha virt. eigenvalues --    1.98460   1.98875   1.99270   2.00159   2.00719
 Alpha virt. eigenvalues --    2.04788   2.10165   2.13388   2.16620   2.17385
 Alpha virt. eigenvalues --    2.18705   2.18932   2.25181   2.26436   2.30177
 Alpha virt. eigenvalues --    2.30647   2.32462   2.36195   2.37355   2.39272
 Alpha virt. eigenvalues --    2.40546   2.42006   2.45758   2.45938   2.46351
 Alpha virt. eigenvalues --    2.50229   2.53092   2.54320   2.58532   2.59529
 Alpha virt. eigenvalues --    2.61923   2.62600   2.67157   2.68443   2.69746
 Alpha virt. eigenvalues --    2.70366   2.72326   2.72944   2.75765   2.78347
 Alpha virt. eigenvalues --    2.79630   2.81108   2.82752   2.85960   2.87530
 Alpha virt. eigenvalues --    2.88650   2.89238   2.92149   2.94280   2.94335
 Alpha virt. eigenvalues --    2.95612   2.96791   2.99916   3.01477   3.02909
 Alpha virt. eigenvalues --    3.03782   3.05963   3.07943   3.09267   3.10433
 Alpha virt. eigenvalues --    3.12412   3.13703   3.14369   3.14625   3.15848
 Alpha virt. eigenvalues --    3.16126   3.20485   3.21762   3.23735   3.25879
 Alpha virt. eigenvalues --    3.25957   3.28256   3.28484   3.31355   3.32664
 Alpha virt. eigenvalues --    3.32776   3.33416   3.38017   3.40356   3.40479
 Alpha virt. eigenvalues --    3.42562   3.43559   3.46087   3.46387   3.47703
 Alpha virt. eigenvalues --    3.49573   3.53056   3.53454   3.55609   3.61829
 Alpha virt. eigenvalues --    3.64748   3.68313   3.72644   3.73685   3.74365
 Alpha virt. eigenvalues --    3.79007   3.80676   3.82381   3.88260   3.88941
 Alpha virt. eigenvalues --    3.89067   3.92332   3.96513   3.99312   4.04851
 Alpha virt. eigenvalues --    4.05114   4.07602   4.08301   4.11807   4.12063
 Alpha virt. eigenvalues --    4.13374   4.15362   4.19748   4.20472   4.26679
 Alpha virt. eigenvalues --    4.27460   4.31454   4.34428   4.35164   4.36802
 Alpha virt. eigenvalues --    4.36823   4.40626   4.48089   4.51256   4.51539
 Alpha virt. eigenvalues --    4.54913   4.59864   4.62864   4.70691   4.74555
 Alpha virt. eigenvalues --    4.75898   4.82633   4.89382   4.92099   4.95689
 Alpha virt. eigenvalues --    4.97878   5.02827   5.06915   5.16306   5.17737
 Alpha virt. eigenvalues --    5.21471   5.24996   5.25615   5.28037   5.41624
 Alpha virt. eigenvalues --    5.47670   5.58341   5.60021   5.71585   5.75305
 Alpha virt. eigenvalues --    5.92125   6.07752   6.33087   6.38453   6.55287
 Alpha virt. eigenvalues --    6.59684   6.79712   7.04164   7.06643   7.82157
 Alpha virt. eigenvalues --   22.45467  22.48854  22.74718  22.84227  22.92802
 Alpha virt. eigenvalues --   23.09368  23.35902  32.54443  44.02889
          Condensed to atoms (all electrons):
               1          2          3          4          5          6
     1  C    5.239720   0.323245  -0.084410  -0.167741   0.008898  -0.003356
     2  C    0.323245   4.801729   0.652589   0.096329  -0.014998  -0.000985
     3  O   -0.084410   0.652589   7.871762  -0.176646   0.011089  -0.001184
     4  C   -0.167741   0.096329  -0.176646   5.718096   0.349596  -0.044355
     5  C    0.008898  -0.014998   0.011089   0.349596   5.053315   0.455731
     6  C   -0.003356  -0.000985  -0.001184  -0.044355   0.455731   5.077237
     7  C   -0.000457   0.001381   0.000571  -0.027077  -0.055349   0.517271
     8  Br  -0.000022  -0.000025  -0.000001   0.002052   0.014289  -0.085374
     9  N   -0.001075   0.005356   0.000137  -0.057653  -0.031353  -0.061701
    10  C    0.024127  -0.024108   0.025543   0.354284  -0.030257  -0.026357
    11  H    0.396063  -0.037745   0.001953   0.011709  -0.005527   0.000485
    12  H    0.395818  -0.043945   0.007652   0.018354  -0.001092   0.000092
    13  H    0.396058  -0.037757   0.001954   0.011703  -0.005521   0.000492
    14  H    0.005554  -0.005504   0.000117  -0.035803   0.405342  -0.015883
    15  H    0.000039   0.000071  -0.000003   0.006245  -0.031570   0.405274
    16  H    0.001296  -0.004821   0.017659  -0.069379   0.007763  -0.001859
               7          8          9         10         11         12
     1  C   -0.000457  -0.000022  -0.001075   0.024127   0.396063   0.395818
     2  C    0.001381  -0.000025   0.005356  -0.024108  -0.037745  -0.043945
     3  O    0.000571  -0.000001   0.000137   0.025543   0.001953   0.007652
     4  C   -0.027077   0.002052  -0.057653   0.354284   0.011709   0.018354
     5  C   -0.055349   0.014289  -0.031353  -0.030257  -0.005527  -0.001092
     6  C    0.517271  -0.085374  -0.061701  -0.026357   0.000485   0.000092
     7  C    4.668420   0.332028   0.509655  -0.094290  -0.000001  -0.000005
     8  Br   0.332028  34.912269  -0.077231  -0.003075   0.000001   0.000000
     9  N    0.509655  -0.077231   6.461469   0.495520   0.000026   0.000016
    10  C   -0.094290  -0.003075   0.495520   4.904366  -0.002054  -0.000914
    11  H   -0.000001   0.000001   0.000026  -0.002054   0.499357  -0.011543
    12  H   -0.000005   0.000000   0.000016  -0.000914  -0.011543   0.474894
    13  H   -0.000001   0.000001   0.000026  -0.002051  -0.031856  -0.011573
    14  H    0.000211  -0.000400  -0.001325   0.005362  -0.003679   0.000230
    15  H   -0.025552  -0.003572   0.005160  -0.001501  -0.000001   0.000001
    16  H    0.006849  -0.000611  -0.027070   0.429704  -0.000106  -0.000068
              13         14         15         16
     1  C    0.396058   0.005554   0.000039   0.001296
     2  C   -0.037757  -0.005504   0.000071  -0.004821
     3  O    0.001954   0.000117  -0.000003   0.017659
     4  C    0.011703  -0.035803   0.006245  -0.069379
     5  C   -0.005521   0.405342  -0.031570   0.007763
     6  C    0.000492  -0.015883   0.405274  -0.001859
     7  C   -0.000001   0.000211  -0.025552   0.006849
     8  Br   0.000001  -0.000400  -0.003572  -0.000611
     9  N    0.000026  -0.001325   0.005160  -0.027070
    10  C   -0.002051   0.005362  -0.001501   0.429704
    11  H   -0.031856  -0.003679  -0.000001  -0.000106
    12  H   -0.011573   0.000230   0.000001  -0.000068
    13  H    0.499443  -0.003678  -0.000001  -0.000106
    14  H   -0.003678   0.457256  -0.002913  -0.000046
    15  H   -0.000001  -0.002913   0.461454   0.000064
    16  H   -0.000106  -0.000046   0.000064   0.453379
 Mulliken charges:
               1
     1  C   -0.533756
     2  C    0.289189
     3  O   -0.328782
     4  C    0.010287
     5  C   -0.130357
     6  C   -0.215529
     7  C    0.166345
     8  Br  -0.090329
     9  N   -0.219957
    10  C   -0.054297
    11  H    0.182918
    12  H    0.172083
    13  H    0.182868
    14  H    0.195158
    15  H    0.186805
    16  H    0.187353
 Sum of Mulliken charges =   0.00000
 Mulliken charges with hydrogens summed into heavy atoms:
               1
     1  C    0.004113
     2  C    0.289189
     3  O   -0.328782
     4  C    0.010287
     5  C    0.064802
     6  C   -0.028723
     7  C    0.166345
     8  Br  -0.090329
     9  N   -0.219957
    10  C    0.133056
 Electronic spatial extent (au):  <R**2>=           2819.0111
 Charge=              0.0000 electrons
 Dipole moment (field-independent basis, Debye):
    X=             -1.5089    Y=              4.9483    Z=              0.0002  Tot=              5.1732
 Quadrupole moment (field-independent basis, Debye-Ang):
   XX=            -75.0272   YY=            -69.1674   ZZ=            -71.3098
   XY=             -9.4972   XZ=             -0.0015   YZ=             -0.0007
 Traceless Quadrupole moment (field-independent basis, Debye-Ang):
   XX=             -3.1924   YY=              2.6674   ZZ=              0.5250
   XY=             -9.4972   XZ=             -0.0015   YZ=             -0.0007
 Octapole moment (field-independent basis, Debye-Ang**2):
  XXX=             97.2353  YYY=             11.7434  ZZZ=              0.0004  XYY=             26.6710
  XXY=             46.0479  XXZ=              0.0033  XZZ=             23.5133  YZZ=             -1.4711
  YYZ=             -0.0004  XYZ=              0.0018
 Hexadecapole moment (field-independent basis, Debye-Ang**3):
 XXXX=          -2773.1883 YYYY=           -412.5949 ZZZZ=            -84.6656 XXXY=           -170.2127
 XXXZ=             -0.0063 YYYX=              2.6334 YYYZ=             -0.0039 ZZZX=             -0.0033
 ZZZY=              0.0029 XXYY=           -566.6732 XXZZ=           -472.7223 YYZZ=            -87.7379
 XXYZ=             -0.0044 YYXZ=             -0.0036 ZZXY=              1.0732
 N-N= 6.925622884891D+02 E-N=-8.469817929699D+03  KE= 2.969094720888D+03
 Calculating spin-rotation constants.
 Leave Link  601 at Tue Sep 17 10:20:14 2024, MaxMem=  1342177280 cpu:               2.2 elap:               2.2
 (Enter /groups/ReismanLab/Software/Gaussian16_RevC/Linux_Binary_AVX2-enabled-CPU/g16/l9999.exe)
 Unable to Open any file for archive entry.
 1\1\GINC-HPC-34-23\SP\RM062X\def2TZVP\C7H6Br1N1O1\MANTIND\17-Sep-2024\
 0\\#p M062X/def2tzvp geom=check guess=read scf(xqc,tight) integral(gri
 d=ultrafine) scrf(SMD, solvent=1,4-Dioxane) nmr=giao\\spe\\0,1\C,0,-4.
 2676422308,0.6811448409,0.8961189365\C,0,-3.4252266519,-0.2356583898,0
 .0313186698\O,0,-3.9378857065,-1.0959404464,-0.6659229033\C,0,-1.93875
 66458,-0.0629988188,0.0499363118\C,0,-1.2756504435,0.9001607307,0.8224
 650429\C,0,0.1100073108,0.9826273525,0.7721137283\C,0,0.7722637178,0.0
 80420778,-0.0640191707\Br,0,2.6820936571,0.1651794067,-0.1583920013\N,
 0,0.1811551963,-0.8397231675,-0.8057275802\C,0,-1.152864681,-0.9066741
 168,-0.7465103903\H,0,-3.9972494134,0.5785062369,1.9527245961\H,0,-5.3
 175111241,0.421277425,0.7634674693\H,0,-4.1138170817,1.7297140649,0.61
 8716814\H,0,-1.8294159418,1.5819478684,1.4589697208\H,0,0.664054603,1.
 71026256,1.3510396084\H,0,-1.6376521587,-1.6627582353,-1.3560807026\\V
 ersion=ES64L-G16RevC.02\State=1-A\HF=-2974.5176898\RMSD=4.188e-09\Dipo
 le=-0.5876632,1.4497525,1.3020573\Quadrupole=-2.395204,0.8564286,1.538
 7754,-5.4472399,-4.4554908,0.8790442\PG=C01 [X(C7H6Br1N1O1)]\\@
 The archive entry for this job was punched.


 ... SUBJECTS WHICH DISCLOSE THEIR FULL POWER, MEANING AND BEAUTY AS SOON
 AS THEY ARE PRESENTED TO THE MIND HAVE VERY LITTLE OF THOSE QUALITIES
 TO DISCLOSE.
                           -- CHARLES DUTTON (1882)
 Job cpu time:       0 days  0 hours  7 minutes 43.9 seconds.
 Elapsed time:       0 days  0 hours  7 minutes 45.7 seconds.
 File lengths (MBytes):  RWF=    232 Int=      0 D2E=      0 Chk=     24 Scr=     16
 Normal termination of Gaussian 16 at Tue Sep 17 10:20:14 2024.
