 Entering Gaussian System, Link 0=g16
 Input=smiles_00003_conf_1.gjf
 Output=smiles_00003_conf_1.log
 Initial command:
 /groups/ReismanLab/Software/Gaussian16_RevC/Linux_Binary_AVX2-enabled-CPU/g16/l1.exe "/central/groups/ReismanLab/DM/dft_final/smiles_00003/Gau-1006552.inp" -scrdir="/central/groups/ReismanLab/DM/dft_final/smiles_00003/"
 Entering Link 1 = /groups/ReismanLab/Software/Gaussian16_RevC/Linux_Binary_AVX2-enabled-CPU/g16/l1.exe PID=   1006558.
  
 Copyright (c) 1988-2021, Gaussian, Inc.  All Rights Reserved.
  
 This is part of the Gaussian(R) 16 program.  It is based on
 the Gaussian(R) 09 system (copyright 2009, Gaussian, Inc.),
 the Gaussian(R) 03 system (copyright 2003, Gaussian, Inc.),
 the Gaussian(R) 98 system (copyright 1998, Gaussian, Inc.),
 the Gaussian(R) 94 system (copyright 1995, Gaussian, Inc.),
 the Gaussian 92(TM) system (copyright 1992, Gaussian, Inc.),
 the Gaussian 90(TM) system (copyright 1990, Gaussian, Inc.),
 the Gaussian 88(TM) system (copyright 1988, Gaussian, Inc.),
 the Gaussian 86(TM) system (copyright 1986, Carnegie Mellon
 University), and the Gaussian 82(TM) system (copyright 1983,
 Carnegie Mellon University). Gaussian is a federally registered
 trademark of Gaussian, Inc.
  
 This software contains proprietary and confidential information,
 including trade secrets, belonging to Gaussian, Inc.
  
 This software is provided under written license and may be
 used, copied, transmitted, or stored only in accord with that
 written license.
  
 The following legend is applicable only to US Government
 contracts under FAR:
  
                    RESTRICTED RIGHTS LEGEND
  
 Use, reproduction and disclosure by the US Government is
 subject to restrictions as set forth in subparagraphs (a)
 and (c) of the Commercial Computer Software - Restricted
 Rights clause in FAR 52.227-19.
  
 Gaussian, Inc.
 340 Quinnipiac St., Bldg. 40, Wallingford CT 06492
  
  
 ---------------------------------------------------------------
 Warning -- This program may not be used in any manner that
 competes with the business of Gaussian, Inc. or will provide
 assistance to any competitor of Gaussian, Inc.  The licensee
 of this program is prohibited from giving any competitor of
 Gaussian, Inc. access to this program.  By using this program,
 the user acknowledges that Gaussian, Inc. is engaged in the
 business of creating and licensing software in the field of
 computational chemistry and represents and warrants to the
 licensee that it is not a competitor of Gaussian, Inc. and that
 it will not use this program in any manner prohibited above.
 ---------------------------------------------------------------
  

 Cite this work as:
 Gaussian 16, Revision C.02,
 M. J. Frisch, G. W. Trucks, H. B. Schlegel, G. E. Scuseria, 
 M. A. Robb, J. R. Cheeseman, G. Scalmani, V. Barone, 
 G. A. Petersson, H. Nakatsuji, X. Li, M. Caricato, A. V. Marenich, 
 J. Bloino, B. G. Janesko, R. Gomperts, B. Mennucci, H. P. Hratchian, 
 J. V. Ortiz, A. F. Izmaylov, J. L. Sonnenberg, D. Williams-Young, 
 F. Ding, F. Lipparini, F. Egidi, J. Goings, B. Peng, A. Petrone, 
 T. Henderson, D. Ranasinghe, V. G. Zakrzewski, J. Gao, N. Rega, 
 G. Zheng, W. Liang, M. Hada, M. Ehara, K. Toyota, R. Fukuda, 
 J. Hasegawa, M. Ishida, T. Nakajima, Y. Honda, O. Kitao, H. Nakai, 
 T. Vreven, K. Throssell, J. A. Montgomery, Jr., J. E. Peralta, 
 F. Ogliaro, M. J. Bearpark, J. J. Heyd, E. N. Brothers, K. N. Kudin, 
 V. N. Staroverov, T. A. Keith, R. Kobayashi, J. Normand, 
 K. Raghavachari, A. P. Rendell, J. C. Burant, S. S. Iyengar, 
 J. Tomasi, M. Cossi, J. M. Millam, M. Klene, C. Adamo, R. Cammi, 
 J. W. Ochterski, R. L. Martin, K. Morokuma, O. Farkas, 
 J. B. Foresman, and D. J. Fox, Gaussian, Inc., Wallingford CT, 2019.
 
 ******************************************
 Gaussian 16:  ES64L-G16RevC.02  7-Dec-2021
                17-Sep-2024 
 ******************************************
 %nprocshared=8
 Will use up to    8 processors via shared memory.
 %Mem=10GB
 %Chk=smiles_00003_conf_1.chk
 ----------------------------------------------------------------------
 #p B3LYP/6-31G(d,p) EmpiricalDispersion=GD3BJ opt freq scf(xqc,tight) 
 integral(grid=ultrafine)
 ----------------------------------------------------------------------
 1/18=20,19=15,26=4,38=1/1,3;
 2/9=110,12=2,17=6,18=5,40=1/2;
 3/5=1,6=6,7=101,11=2,25=1,30=1,71=1,74=-5,75=-5,124=41/1,2,3;
 4//1;
 5/5=2,8=3,13=1,32=2,38=5/2,8;
 6/7=2,8=2,9=2,10=2,28=1/1;
 7//1,2,3,16;
 1/18=20,19=15,26=4/3(2);
 2/9=110/2;
 99//99;
 2/9=110/2;
 3/5=1,6=6,7=101,11=2,25=1,30=1,71=1,74=-5,75=-5,124=41/1,2,3;
 4/5=5,16=3,69=1/1;
 5/5=2,8=3,13=1,32=2,38=5/2,8;
 7//1,2,3,16;
 1/18=20,19=15,26=4/3(-5);
 2/9=110/2;
 6/7=2,8=2,9=2,10=2,19=2,28=1/1;
 99/9=1/99;
 Leave Link    1 at Tue Sep 17 09:54:18 2024, MaxMem=  1342177280 cpu:               0.1 elap:               0.7
 (Enter /groups/ReismanLab/Software/Gaussian16_RevC/Linux_Binary_AVX2-enabled-CPU/g16/l101.exe)
 ----------------------------------
 opt-freq conformers_unique/conf_ab
 ----------------------------------
 Symbolic Z-matrix:
 Charge =  0 Multiplicity = 1
 C                     4.47434  -0.45409  -0.00927 
 C                     3.11669   0.21746   0.00305 
 O                     2.99167   1.41993   0.01277 
 N                     2.07183  -0.66453  -0.00156 
 C                     0.69985  -0.39951  -0.00071 
 C                     0.17546   0.89071   0.0058 
 C                    -1.19311   1.08311   0.00576 
 C                    -2.04625  -0.00828  -0.00044 
 Cl                   -3.75854   0.23612  -0.00046 
 C                    -1.5393   -1.29808  -0.00653 
 C                    -0.17191  -1.48826  -0.00671 
 H                     5.05273  -0.08401   0.83431 
 H                     4.41552  -1.53735   0.03836 
 H                     4.99769  -0.15962  -0.91665 
 H                     2.30074  -1.64875  -0.01142 
 H                     0.84239   1.73608   0.01072 
 H                    -1.59658   2.08318   0.01052 
 H                    -2.20851  -2.14384  -0.01124 
 H                     0.2243   -2.49416  -0.01172 
 
 ITRead=  0  0  0  0  0  0  0  0  0  0  0  0  0  0  0  0  0  0  0
 MicOpt= -1 -1 -1 -1 -1 -1 -1 -1 -1 -1 -1 -1 -1 -1 -1 -1 -1 -1 -1
 NAtoms=     19 NQM=       19 NQMF=       0 NMMI=      0 NMMIF=      0
                NMic=       0 NMicF=      0.
                    Isotopes and Nuclear Properties:
 (Nuclear quadrupole moments (NQMom) in fm**2, nuclear magnetic moments (NMagM)
  in nuclear magnetons)

  Atom         1           2           3           4           5           6           7           8           9          10
 IAtWgt=          12          12          16          14          12          12          12          12          35          12
 AtmWgt=  12.0000000  12.0000000  15.9949146  14.0030740  12.0000000  12.0000000  12.0000000  12.0000000  34.9688527  12.0000000
 NucSpn=           0           0           0           2           0           0           0           0           3           0
 AtZEff=  -0.0000000  -0.0000000  -0.0000000  -0.0000000  -0.0000000  -0.0000000  -0.0000000  -0.0000000  -0.0000000  -0.0000000
 NQMom=    0.0000000   0.0000000   0.0000000   2.0440000   0.0000000   0.0000000   0.0000000   0.0000000  -8.1650000   0.0000000
 NMagM=    0.0000000   0.0000000   0.0000000   0.4037610   0.0000000   0.0000000   0.0000000   0.0000000   0.8218740   0.0000000
 AtZNuc=   6.0000000   6.0000000   8.0000000   7.0000000   6.0000000   6.0000000   6.0000000   6.0000000  17.0000000   6.0000000

  Atom        11          12          13          14          15          16          17          18          19
 IAtWgt=          12           1           1           1           1           1           1           1           1
 AtmWgt=  12.0000000   1.0078250   1.0078250   1.0078250   1.0078250   1.0078250   1.0078250   1.0078250   1.0078250
 NucSpn=           0           1           1           1           1           1           1           1           1
 AtZEff=  -0.0000000  -0.0000000  -0.0000000  -0.0000000  -0.0000000  -0.0000000  -0.0000000  -0.0000000  -0.0000000
 NQMom=    0.0000000   0.0000000   0.0000000   0.0000000   0.0000000   0.0000000   0.0000000   0.0000000   0.0000000
 NMagM=    0.0000000   2.7928460   2.7928460   2.7928460   2.7928460   2.7928460   2.7928460   2.7928460   2.7928460
 AtZNuc=   6.0000000   1.0000000   1.0000000   1.0000000   1.0000000   1.0000000   1.0000000   1.0000000   1.0000000
 Leave Link  101 at Tue Sep 17 09:54:18 2024, MaxMem=  1342177280 cpu:               0.2 elap:               0.2
 (Enter /groups/ReismanLab/Software/Gaussian16_RevC/Linux_Binary_AVX2-enabled-CPU/g16/l103.exe)

 GradGradGradGradGradGradGradGradGradGradGradGradGradGradGradGradGradGrad
 Berny optimization.
 Initialization pass.
                           ----------------------------
                           !    Initial Parameters    !
                           ! (Angstroms and Degrees)  !
 --------------------------                            --------------------------
 ! Name  Definition              Value          Derivative Info.                !
 --------------------------------------------------------------------------------
 ! R1    R(1,2)                  1.5147         estimate D2E/DX2                !
 ! R2    R(1,12)                 1.0877         estimate D2E/DX2                !
 ! R3    R(1,13)                 1.0859         estimate D2E/DX2                !
 ! R4    R(1,14)                 1.0881         estimate D2E/DX2                !
 ! R5    R(2,3)                  1.209          estimate D2E/DX2                !
 ! R6    R(2,4)                  1.3674         estimate D2E/DX2                !
 ! R7    R(4,5)                  1.3973         estimate D2E/DX2                !
 ! R8    R(4,15)                 1.0105         estimate D2E/DX2                !
 ! R9    R(5,6)                  1.3927         estimate D2E/DX2                !
 ! R10   R(5,11)                 1.3948         estimate D2E/DX2                !
 ! R11   R(6,7)                  1.382          estimate D2E/DX2                !
 ! R12   R(6,16)                 1.0768         estimate D2E/DX2                !
 ! R13   R(7,8)                  1.3853         estimate D2E/DX2                !
 ! R14   R(7,17)                 1.0784         estimate D2E/DX2                !
 ! R15   R(8,9)                  1.7296         estimate D2E/DX2                !
 ! R16   R(8,10)                 1.3859         estimate D2E/DX2                !
 ! R17   R(10,11)                1.3806         estimate D2E/DX2                !
 ! R18   R(10,18)                1.0785         estimate D2E/DX2                !
 ! R19   R(11,19)                1.0811         estimate D2E/DX2                !
 ! A1    A(2,1,12)             108.63           estimate D2E/DX2                !
 ! A2    A(2,1,13)             113.1644         estimate D2E/DX2                !
 ! A3    A(2,1,14)             108.5363         estimate D2E/DX2                !
 ! A4    A(12,1,13)            109.5235         estimate D2E/DX2                !
 ! A5    A(12,1,14)            107.3918         estimate D2E/DX2                !
 ! A6    A(13,1,14)            109.4272         estimate D2E/DX2                !
 ! A7    A(1,2,3)              122.257          estimate D2E/DX2                !
 ! A8    A(1,2,4)              113.5096         estimate D2E/DX2                !
 ! A9    A(3,2,4)              124.2332         estimate D2E/DX2                !
 ! A10   A(2,4,5)              128.8981         estimate D2E/DX2                !
 ! A11   A(2,4,15)             117.0764         estimate D2E/DX2                !
 ! A12   A(5,4,15)             114.0248         estimate D2E/DX2                !
 ! A13   A(4,5,6)              123.0514         estimate D2E/DX2                !
 ! A14   A(4,5,11)             117.751          estimate D2E/DX2                !
 ! A15   A(6,5,11)             119.1976         estimate D2E/DX2                !
 ! A16   A(5,6,7)              120.1206         estimate D2E/DX2                !
 ! A17   A(5,6,16)             119.611          estimate D2E/DX2                !
 ! A18   A(7,6,16)             120.2683         estimate D2E/DX2                !
 ! A19   A(6,7,8)              120.012          estimate D2E/DX2                !
 ! A20   A(6,7,17)             119.9734         estimate D2E/DX2                !
 ! A21   A(8,7,17)             120.0146         estimate D2E/DX2                !
 ! A22   A(7,8,9)              119.8912         estimate D2E/DX2                !
 ! A23   A(7,8,10)             120.5291         estimate D2E/DX2                !
 ! A24   A(9,8,10)             119.5797         estimate D2E/DX2                !
 ! A25   A(8,10,11)            119.3748         estimate D2E/DX2                !
 ! A26   A(8,10,18)            120.1909         estimate D2E/DX2                !
 ! A27   A(11,10,18)           120.4343         estimate D2E/DX2                !
 ! A28   A(5,11,10)            120.7658         estimate D2E/DX2                !
 ! A29   A(5,11,19)            119.8173         estimate D2E/DX2                !
 ! A30   A(10,11,19)           119.4169         estimate D2E/DX2                !
 ! D1    D(12,1,2,3)            54.9554         estimate D2E/DX2                !
 ! D2    D(12,1,2,4)          -125.2078         estimate D2E/DX2                !
 ! D3    D(13,1,2,3)           176.815          estimate D2E/DX2                !
 ! D4    D(13,1,2,4)            -3.3482         estimate D2E/DX2                !
 ! D5    D(14,1,2,3)           -61.5145         estimate D2E/DX2                !
 ! D6    D(14,1,2,4)           118.3223         estimate D2E/DX2                !
 ! D7    D(1,2,4,5)           -179.6085         estimate D2E/DX2                !
 ! D8    D(1,2,4,15)             0.0639         estimate D2E/DX2                !
 ! D9    D(3,2,4,5)              0.2246         estimate D2E/DX2                !
 ! D10   D(3,2,4,15)           179.897          estimate D2E/DX2                !
 ! D11   D(2,4,5,6)             -0.02           estimate D2E/DX2                !
 ! D12   D(2,4,5,11)           179.9801         estimate D2E/DX2                !
 ! D13   D(15,4,5,6)          -179.7007         estimate D2E/DX2                !
 ! D14   D(15,4,5,11)            0.2995         estimate D2E/DX2                !
 ! D15   D(4,5,6,7)            179.9753         estimate D2E/DX2                !
 ! D16   D(4,5,6,16)            -0.0161         estimate D2E/DX2                !
 ! D17   D(11,5,6,7)            -0.0248         estimate D2E/DX2                !
 ! D18   D(11,5,6,16)          179.9837         estimate D2E/DX2                !
 ! D19   D(4,5,11,10)         -179.9858         estimate D2E/DX2                !
 ! D20   D(4,5,11,19)            0.0041         estimate D2E/DX2                !
 ! D21   D(6,5,11,10)            0.0143         estimate D2E/DX2                !
 ! D22   D(6,5,11,19)         -179.9957         estimate D2E/DX2                !
 ! D23   D(5,6,7,8)              0.0153         estimate D2E/DX2                !
 ! D24   D(5,6,7,17)          -179.982          estimate D2E/DX2                !
 ! D25   D(16,6,7,8)          -179.9933         estimate D2E/DX2                !
 ! D26   D(16,6,7,17)            0.0094         estimate D2E/DX2                !
 ! D27   D(6,7,8,9)            179.9996         estimate D2E/DX2                !
 ! D28   D(6,7,8,10)             0.0051         estimate D2E/DX2                !
 ! D29   D(17,7,8,9)            -0.003          estimate D2E/DX2                !
 ! D30   D(17,7,8,10)         -179.9976         estimate D2E/DX2                !
 ! D31   D(7,8,10,11)           -0.0156         estimate D2E/DX2                !
 ! D32   D(7,8,10,18)          179.9935         estimate D2E/DX2                !
 ! D33   D(9,8,10,11)          179.9898         estimate D2E/DX2                !
 ! D34   D(9,8,10,18)           -0.001          estimate D2E/DX2                !
 ! D35   D(8,10,11,5)            0.0058         estimate D2E/DX2                !
 ! D36   D(8,10,11,19)        -179.9842         estimate D2E/DX2                !
 ! D37   D(18,10,11,5)         179.9966         estimate D2E/DX2                !
 ! D38   D(18,10,11,19)          0.0067         estimate D2E/DX2                !
 --------------------------------------------------------------------------------
 Trust Radius=3.00D-01 FncErr=1.00D-07 GrdErr=1.00D-06 EigMax=2.50D+02 EigMin=1.00D-04
 Number of steps in this run=     97 maximum allowed number of steps=    114.
 GradGradGradGradGradGradGradGradGradGradGradGradGradGradGradGradGradGrad

 Leave Link  103 at Tue Sep 17 09:54:18 2024, MaxMem=  1342177280 cpu:               0.1 elap:               0.0
 (Enter /groups/ReismanLab/Software/Gaussian16_RevC/Linux_Binary_AVX2-enabled-CPU/g16/l202.exe)
                          Input orientation:                          
 ---------------------------------------------------------------------
 Center     Atomic      Atomic             Coordinates (Angstroms)
 Number     Number       Type             X           Y           Z
 ---------------------------------------------------------------------
      1          6           0        4.474342   -0.454093   -0.009271
      2          6           0        3.116693    0.217464    0.003053
      3          8           0        2.991672    1.419931    0.012775
      4          7           0        2.071832   -0.664530   -0.001564
      5          6           0        0.699854   -0.399512   -0.000711
      6          6           0        0.175457    0.890715    0.005801
      7          6           0       -1.193110    1.083110    0.005762
      8          6           0       -2.046247   -0.008281   -0.000439
      9         17           0       -3.758540    0.236120   -0.000459
     10          6           0       -1.539303   -1.298080   -0.006533
     11          6           0       -0.171914   -1.488264   -0.006705
     12          1           0        5.052731   -0.084014    0.834308
     13          1           0        4.415522   -1.537346    0.038360
     14          1           0        4.997694   -0.159617   -0.916647
     15          1           0        2.300736   -1.648752   -0.011419
     16          1           0        0.842394    1.736084    0.010717
     17          1           0       -1.596583    2.083178    0.010518
     18          1           0       -2.208512   -2.143839   -0.011240
     19          1           0        0.224298   -2.494157   -0.011717
 ---------------------------------------------------------------------
                    Distance matrix (angstroms):
                    1          2          3          4          5
     1  C    0.000000
     2  C    1.514711   0.000000
     3  O    2.389720   1.208988   0.000000
     4  N    2.411721   1.367359   2.278441   0.000000
     5  C    3.774892   2.494351   2.926258   1.397340   0.000000
     6  C    4.504347   3.017308   2.865517   2.452566   1.392738
     7  C    5.872242   4.395879   4.198321   3.703262   2.404480
     8  C    6.535817   5.167875   5.236468   4.170041   2.773830
     9  Cl   8.261768   6.875260   6.853244   5.899527   4.503477
    10  C    6.072582   4.896455   5.283720   3.666294   2.412734
    11  C    4.759958   3.704664   4.297238   2.390179   1.394774
    12  H    1.087712   2.128407   2.680435   3.149831   4.443460
    13  H    1.085894   2.183475   3.282300   2.501256   3.886178
    14  H    1.088092   2.127487   2.717153   3.106925   4.400900
    15  H    2.480277   2.036850   3.145599   1.010537   2.030650
    16  H    4.241264   2.734721   2.172407   2.697150   2.140378
    17  H    6.579838   5.069114   4.635946   4.583374   3.381937
    18  H    6.893169   5.825270   6.304201   4.528774   3.391369
    19  H    4.714312   3.964726   4.793646   2.600195   2.147978
                    6          7          8          9         10
     6  C    0.000000
     7  C    1.382024   0.000000
     8  C    2.396706   1.385285   0.000000
     9  Cl   3.988091   2.701641   1.729647   0.000000
    10  C    2.780535   2.406256   1.385861   2.697929   0.000000
    11  C    2.404238   2.766760   2.388203   3.979627   1.380552
    12  H    5.042254   6.407745   7.148289   8.856513   6.755434
    13  H    4.886173   6.190687   6.640332   8.364328   5.959799
    14  H    5.020765   6.381322   7.104889   8.812925   6.697518
    15  H    3.311495   4.435124   4.646239   6.345683   3.856021
    16  H    1.076790   2.137680   3.374489   4.839278   3.857321
    17  H    2.135911   1.078401   2.139280   2.843554   3.381786
    18  H    3.859031   3.382977   2.141742   2.840231   1.078504
    19  H    3.385269   3.847881   3.366761   4.828824   2.130943
                   11         12         13         14         15
    11  C    0.000000
    12  H    5.475046   0.000000
    13  H    4.587919   1.775315   0.000000
    14  H    5.414623   1.753450   1.774571   0.000000
    15  H    2.477857   3.276756   2.118303   3.211003   0.000000
    16  H    3.380168   4.660257   4.845962   4.660494   3.685697
    17  H    3.845150   7.041927   7.018146   7.026682   5.396006
    18  H    2.139517   7.594964   6.651926   7.529031   4.536346
    19  H    1.081124   5.462445   4.299343   5.390203   2.241942
                   16         17         18         19
    16  H    0.000000
    17  H    2.463551   0.000000
    18  H    4.935819   4.271136   0.000000
    19  H    4.275217   4.926266   2.457903   0.000000
 Stoichiometry    C8H8ClNO
 Framework group  C1[X(C8H8ClNO)]
 Deg. of freedom    51
 Full point group                 C1      NOp   1
 Largest Abelian subgroup         C1      NOp   1
 Largest concise Abelian subgroup C1      NOp   1
                         Standard orientation:                         
 ---------------------------------------------------------------------
 Center     Atomic      Atomic             Coordinates (Angstroms)
 Number     Number       Type             X           Y           Z
 ---------------------------------------------------------------------
      1          6           0        4.366691    0.405681    0.006105
      2          6           0        3.005571   -0.258876   -0.002018
      3          8           0        2.874304   -1.460714   -0.004329
      4          7           0        1.965307    0.628547   -0.002782
      5          6           0        0.591970    0.370660   -0.001937
      6          6           0        0.060877   -0.916840   -0.000478
      7          6           0       -1.308671   -1.102119    0.000812
      8          6           0       -2.156126   -0.006292    0.000334
      9         17           0       -3.869666   -0.241789    0.001942
     10          6           0       -1.642488    1.280869   -0.001540
     11          6           0       -0.274129    1.463943   -0.002604
     12          1           0        4.943082    0.027416   -0.835207
     13          1           0        4.313496    1.488912   -0.048193
     14          1           0        4.888580    0.114083    0.915252
     15          1           0        2.199322    1.611608    0.001001
     16          1           0        0.723413   -1.765677   -0.000221
     17          1           0       -1.717335   -2.100087    0.002233
     18          1           0       -2.307294    2.130107   -0.002009
     19          1           0        0.127304    2.467776   -0.003806
 ---------------------------------------------------------------------
 Rotational constants (GHZ):           3.5904404           0.4068765           0.3662831
 Leave Link  202 at Tue Sep 17 09:54:18 2024, MaxMem=  1342177280 cpu:               0.0 elap:               0.0
 (Enter /groups/ReismanLab/Software/Gaussian16_RevC/Linux_Binary_AVX2-enabled-CPU/g16/l301.exe)
 Standard basis: 6-31G(d,p) (6D, 7F)
 Ernie: Thresh=  0.10000D-02 Tol=  0.10000D-05 Strict=F.
 There are   209 symmetry adapted cartesian basis functions of A   symmetry.
 There are   209 symmetry adapted basis functions of A   symmetry.
   209 basis functions,   388 primitive gaussians,   209 cartesian basis functions
    44 alpha electrons       44 beta electrons
       nuclear repulsion energy       636.7035154252 Hartrees.
 IExCor=  402 DFT=T Ex+Corr=B3LYP ExCW=0 ScaHFX=  0.200000
 ScaDFX=  0.800000  0.720000  1.000000  0.810000 ScalE2=  1.000000  1.000000
 IRadAn=      5 IRanWt=     -1 IRanGd=            0 ICorTp=0 IEmpDi=141
 NAtoms=   19 NActive=   19 NUniq=   19 SFac= 1.00D+00 NAtFMM=   60 NAOKFM=F Big=F
 Integral buffers will be    131072 words long.
 Raffenetti 2 integral format.
 Two-electron integral symmetry is turned on.
 R6Disp:  Grimme-D3(BJ) Dispersion energy=       -0.0367251085 Hartrees.
 Nuclear repulsion after empirical dispersion term =      636.6667903167 Hartrees.
 Leave Link  301 at Tue Sep 17 09:54:18 2024, MaxMem=  1342177280 cpu:               0.1 elap:               0.1
 (Enter /groups/ReismanLab/Software/Gaussian16_RevC/Linux_Binary_AVX2-enabled-CPU/g16/l302.exe)
 NPDir=0 NMtPBC=     1 NCelOv=     1 NCel=       1 NClECP=     1 NCelD=      1
         NCelK=      1 NCelE2=     1 NClLst=     1 CellRange=     0.0.
 One-electron integrals computed using PRISM.
 One-electron integral symmetry used in STVInt
 NBasis=   209 RedAO= T EigKep=  4.06D-04  NBF=   209
 NBsUse=   209 1.00D-06 EigRej= -1.00D+00 NBFU=   209
 Precomputing XC quadrature grid using
 IXCGrd= 4 IRadAn=           5 IRanWt=          -1 IRanGd=           0 AccXCQ= 0.00D+00.
 Generated NRdTot=       0 NPtTot=           0 NUsed=           0 NTot=          32
 NSgBfM=   208   208   208   208   208 MxSgAt=    19 MxSgA2=    19.
 Leave Link  302 at Tue Sep 17 09:54:19 2024, MaxMem=  1342177280 cpu:               1.0 elap:               0.2
 (Enter /groups/ReismanLab/Software/Gaussian16_RevC/Linux_Binary_AVX2-enabled-CPU/g16/l303.exe)
 DipDrv:  MaxL=1.
 Leave Link  303 at Tue Sep 17 09:54:19 2024, MaxMem=  1342177280 cpu:               0.1 elap:               0.0
 (Enter /groups/ReismanLab/Software/Gaussian16_RevC/Linux_Binary_AVX2-enabled-CPU/g16/l401.exe)
 ExpMin= 1.43D-01 ExpMax= 2.52D+04 ExpMxC= 3.78D+03 IAcc=3 IRadAn=         5 AccDes= 0.00D+00
 Harris functional with IExCor=  402 and IRadAn=       5 diagonalized for initial guess.
 HarFok:  IExCor=  402 AccDes= 0.00D+00 IRadAn=         5 IDoV= 1 UseB2=F ITyADJ=14
 ICtDFT=  3500011 ScaDFX=  1.000000  1.000000  1.000000  1.000000
 FoFCou: FMM=F IPFlag=           0 FMFlag=      100000 FMFlg1=           0
         NFxFlg=           0 DoJE=T BraDBF=F KetDBF=T FulRan=T
         wScrn=  0.000000 ICntrl=       500 IOpCl=  0 I1Cent=   200000004 NGrid=           0
         NMat0=    1 NMatS0=      1 NMatT0=    0 NMatD0=    1 NMtDS0=    0 NMtDT0=    0
 Petite list used in FoFCou.
 Harris En= -899.872801258841    
 JPrj=0 DoOrth=F DoCkMO=F.
 Leave Link  401 at Tue Sep 17 09:54:19 2024, MaxMem=  1342177280 cpu:               4.7 elap:               0.6
 (Enter /groups/ReismanLab/Software/Gaussian16_RevC/Linux_Binary_AVX2-enabled-CPU/g16/l502.exe)
 Integral symmetry usage will be decided dynamically.
 Closed shell SCF:
 Using DIIS extrapolation, IDIIS=  1040.
 NGot=  1342177280 LenX=  1342085522 LenY=  1342041400
 Requested convergence on RMS density matrix=1.00D-08 within  32 cycles.
 Requested convergence on MAX density matrix=1.00D-06.
 Requested convergence on             energy=1.00D-06.
 No special actions if energy rises.
 Fock matrices will be formed incrementally for  20 cycles.
 Integral accuracy reduced to 1.0D-05 until final iterations.

 Cycle   1  Pass 0  IDiag  1:
 FoFJK:  IHMeth= 1 ICntrl=       0 DoSepK=F KAlg= 0 I1Cent=           0 FoldK=F
 IRaf= 860000000 NMat=       1 IRICut=       1 DoRegI=T DoRafI=F ISym2E= 0 IDoP0=0 IntGTp=1.
 FoFCou: FMM=F IPFlag=           0 FMFlag=      100000 FMFlg1=           0
         NFxFlg=           0 DoJE=F BraDBF=F KetDBF=F FulRan=T
         wScrn=  0.000000 ICntrl=         0 IOpCl=  0 I1Cent=           0 NGrid=           0
         NMat0=    1 NMatS0=      1 NMatT0=    0 NMatD0=    1 NMtDS0=    0 NMtDT0=    0
 Symmetry not used in FoFCou.
 E= -899.598412941987    
 DIIS: error= 4.82D-02 at cycle   1 NSaved=   1.
 NSaved= 1 IEnMin= 1 EnMin= -899.598412941987     IErMin= 1 ErrMin= 4.82D-02
 ErrMax= 4.82D-02  0.00D+00 EMaxC= 1.00D-01 BMatC= 3.26D-01 BMatP= 3.26D-01
 IDIUse=3 WtCom= 5.18D-01 WtEn= 4.82D-01
 Coeff-Com:  0.100D+01
 Coeff-En:   0.100D+01
 Coeff:      0.100D+01
 Gap=     0.362 Goal=   None    Shift=    0.000
 GapD=    0.362 DampG=1.000 DampE=0.500 DampFc=0.5000 IDamp=-1.
 Damping current iteration by 5.00D-01
 RMSDP=7.09D-03 MaxDP=2.20D-01              OVMax= 2.62D-01

 Cycle   2  Pass 0  IDiag  1:
 RMSU=  3.53D-03    CP:  9.86D-01
 E= -899.703803687295     Delta-E=       -0.105390745308 Rises=F Damp=T
 DIIS: error= 1.17D-02 at cycle   2 NSaved=   2.
 NSaved= 2 IEnMin= 2 EnMin= -899.703803687295     IErMin= 2 ErrMin= 1.17D-02
 ErrMax= 1.17D-02  0.00D+00 EMaxC= 1.00D-01 BMatC= 4.10D-02 BMatP= 3.26D-01
 IDIUse=3 WtCom= 8.83D-01 WtEn= 1.17D-01
 Coeff-Com:  0.176D+00 0.824D+00
 Coeff-En:   0.279D+00 0.721D+00
 Coeff:      0.188D+00 0.812D+00
 Gap=     0.319 Goal=   None    Shift=    0.000
 RMSDP=2.14D-03 MaxDP=9.97D-02 DE=-1.05D-01 OVMax= 1.84D-01

 Cycle   3  Pass 0  IDiag  1:
 RMSU=  1.85D-03    CP:  9.75D-01  7.06D-01
 E= -899.872411272804     Delta-E=       -0.168607585509 Rises=F Damp=F
 DIIS: error= 1.86D-02 at cycle   3 NSaved=   3.
 NSaved= 3 IEnMin= 3 EnMin= -899.872411272804     IErMin= 2 ErrMin= 1.17D-02
 ErrMax= 1.86D-02  0.00D+00 EMaxC= 1.00D-01 BMatC= 4.47D-02 BMatP= 4.10D-02
 IDIUse=3 WtCom= 8.14D-01 WtEn= 1.86D-01
 Coeff-Com:  0.487D-01 0.505D+00 0.446D+00
 Coeff-En:   0.000D+00 0.000D+00 0.100D+01
 Coeff:      0.396D-01 0.411D+00 0.549D+00
 Gap=     0.206 Goal=   None    Shift=    0.000
 RMSDP=1.43D-03 MaxDP=6.73D-02 DE=-1.69D-01 OVMax= 8.84D-02

 Cycle   4  Pass 0  IDiag  1:
 RMSU=  9.69D-04    CP:  9.80D-01  8.20D-01  4.84D-01
 E= -899.897548253222     Delta-E=       -0.025136980418 Rises=F Damp=F
 DIIS: error= 1.00D-02 at cycle   4 NSaved=   4.
 NSaved= 4 IEnMin= 4 EnMin= -899.897548253222     IErMin= 4 ErrMin= 1.00D-02
 ErrMax= 1.00D-02  0.00D+00 EMaxC= 1.00D-01 BMatC= 1.51D-02 BMatP= 4.10D-02
 IDIUse=3 WtCom= 9.00D-01 WtEn= 1.00D-01
 Coeff-Com:  0.542D-02 0.558D-01 0.366D+00 0.572D+00
 Coeff-En:   0.000D+00 0.000D+00 0.296D+00 0.704D+00
 Coeff:      0.488D-02 0.502D-01 0.359D+00 0.586D+00
 Gap=     0.204 Goal=   None    Shift=    0.000
 RMSDP=6.19D-04 MaxDP=2.62D-02 DE=-2.51D-02 OVMax= 3.44D-02

 Cycle   5  Pass 0  IDiag  1:
 RMSU=  2.01D-04    CP:  9.79D-01  7.73D-01  6.81D-01  5.63D-01
 E= -899.909727182907     Delta-E=       -0.012178929685 Rises=F Damp=F
 DIIS: error= 1.22D-03 at cycle   5 NSaved=   5.
 NSaved= 5 IEnMin= 5 EnMin= -899.909727182907     IErMin= 5 ErrMin= 1.22D-03
 ErrMax= 1.22D-03  0.00D+00 EMaxC= 1.00D-01 BMatC= 3.07D-04 BMatP= 1.51D-02
 IDIUse=3 WtCom= 9.88D-01 WtEn= 1.22D-02
 Coeff-Com:  0.437D-03 0.526D-02 0.155D+00 0.295D+00 0.544D+00
 Coeff-En:   0.000D+00 0.000D+00 0.000D+00 0.000D+00 0.100D+01
 Coeff:      0.431D-03 0.520D-02 0.153D+00 0.292D+00 0.549D+00
 Gap=     0.203 Goal=   None    Shift=    0.000
 RMSDP=1.25D-04 MaxDP=3.91D-03 DE=-1.22D-02 OVMax= 8.62D-03

 Cycle   6  Pass 0  IDiag  1:
 RMSU=  6.76D-05    CP:  9.78D-01  7.76D-01  6.71D-01  6.18D-01  5.66D-01
 E= -899.909998401255     Delta-E=       -0.000271218348 Rises=F Damp=F
 DIIS: error= 7.02D-04 at cycle   6 NSaved=   6.
 NSaved= 6 IEnMin= 6 EnMin= -899.909998401255     IErMin= 6 ErrMin= 7.02D-04
 ErrMax= 7.02D-04  0.00D+00 EMaxC= 1.00D-01 BMatC= 4.76D-05 BMatP= 3.07D-04
 IDIUse=3 WtCom= 9.93D-01 WtEn= 7.02D-03
 Coeff-Com: -0.182D-03-0.256D-02 0.519D-01 0.109D+00 0.330D+00 0.512D+00
 Coeff-En:   0.000D+00 0.000D+00 0.000D+00 0.000D+00 0.120D+00 0.880D+00
 Coeff:     -0.181D-03-0.254D-02 0.515D-01 0.108D+00 0.328D+00 0.515D+00
 Gap=     0.203 Goal=   None    Shift=    0.000
 RMSDP=4.47D-05 MaxDP=1.40D-03 DE=-2.71D-04 OVMax= 3.10D-03

 Cycle   7  Pass 0  IDiag  1:
 RMSU=  2.54D-05    CP:  9.78D-01  7.75D-01  6.74D-01  6.17D-01  6.33D-01
                    CP:  5.02D-01
 E= -899.910043928683     Delta-E=       -0.000045527428 Rises=F Damp=F
 DIIS: error= 2.13D-04 at cycle   7 NSaved=   7.
 NSaved= 7 IEnMin= 7 EnMin= -899.910043928683     IErMin= 7 ErrMin= 2.13D-04
 ErrMax= 2.13D-04  0.00D+00 EMaxC= 1.00D-01 BMatC= 5.08D-06 BMatP= 4.76D-05
 IDIUse=3 WtCom= 9.98D-01 WtEn= 2.13D-03
 Coeff-Com: -0.101D-03-0.182D-02 0.133D-01 0.301D-01 0.134D+00 0.308D+00
 Coeff-Com:  0.517D+00
 Coeff-En:   0.000D+00 0.000D+00 0.000D+00 0.000D+00 0.000D+00 0.563D-01
 Coeff-En:   0.944D+00
 Coeff:     -0.101D-03-0.181D-02 0.133D-01 0.300D-01 0.134D+00 0.307D+00
 Coeff:      0.517D+00
 Gap=     0.203 Goal=   None    Shift=    0.000
 RMSDP=1.44D-05 MaxDP=4.53D-04 DE=-4.55D-05 OVMax= 9.04D-04

 Cycle   8  Pass 0  IDiag  1:
 RMSU=  5.67D-06    CP:  9.78D-01  7.75D-01  6.74D-01  6.16D-01  6.39D-01
                    CP:  5.89D-01  5.42D-01
 E= -899.910049139975     Delta-E=       -0.000005211292 Rises=F Damp=F
 DIIS: error= 2.83D-05 at cycle   8 NSaved=   8.
 NSaved= 8 IEnMin= 8 EnMin= -899.910049139975     IErMin= 8 ErrMin= 2.83D-05
 ErrMax= 2.83D-05  0.00D+00 EMaxC= 1.00D-01 BMatC= 1.54D-07 BMatP= 5.08D-06
 IDIUse=1 WtCom= 1.00D+00 WtEn= 0.00D+00
 Coeff-Com:  0.140D-04-0.495D-03 0.672D-03 0.167D-02 0.215D-01 0.687D-01
 Coeff-Com:  0.201D+00 0.707D+00
 Coeff:      0.140D-04-0.495D-03 0.672D-03 0.167D-02 0.215D-01 0.687D-01
 Coeff:      0.201D+00 0.707D+00
 Gap=     0.203 Goal=   None    Shift=    0.000
 RMSDP=2.85D-06 MaxDP=9.11D-05 DE=-5.21D-06 OVMax= 2.25D-04

 Initial convergence to 1.0D-05 achieved.  Increase integral accuracy.
 Cycle   9  Pass 1  IDiag  1:
 E= -899.910063644916     Delta-E=       -0.000014504942 Rises=F Damp=F
 DIIS: error= 3.98D-05 at cycle   1 NSaved=   1.
 NSaved= 1 IEnMin= 1 EnMin= -899.910063644916     IErMin= 1 ErrMin= 3.98D-05
 ErrMax= 3.98D-05  0.00D+00 EMaxC= 1.00D-01 BMatC= 6.95D-08 BMatP= 6.95D-08
 IDIUse=1 WtCom= 1.00D+00 WtEn= 0.00D+00
 Coeff-Com:  0.100D+01
 Coeff:      0.100D+01
 Gap=     0.203 Goal=   None    Shift=    0.000
 RMSDP=2.85D-06 MaxDP=9.11D-05 DE=-1.45D-05 OVMax= 1.25D-04

 Cycle  10  Pass 1  IDiag  1:
 RMSU=  1.99D-05    CP:  1.00D+00
 E= -899.910063671176     Delta-E=       -0.000000026260 Rises=F Damp=F
 DIIS: error= 1.40D-05 at cycle   2 NSaved=   2.
 NSaved= 2 IEnMin= 2 EnMin= -899.910063671176     IErMin= 2 ErrMin= 1.40D-05
 ErrMax= 1.40D-05  0.00D+00 EMaxC= 1.00D-01 BMatC= 3.68D-08 BMatP= 6.95D-08
 IDIUse=1 WtCom= 1.00D+00 WtEn= 0.00D+00
 Coeff-Com:  0.392D+00 0.608D+00
 Coeff:      0.392D+00 0.608D+00
 Gap=     0.203 Goal=   None    Shift=    0.000
 RMSDP=1.87D-06 MaxDP=5.23D-05 DE=-2.63D-08 OVMax= 1.47D-04

 Cycle  11  Pass 1  IDiag  1:
 RMSU=  1.86D-06    CP:  1.00D+00  1.00D+00
 E= -899.910063691099     Delta-E=       -0.000000019923 Rises=F Damp=F
 DIIS: error= 1.19D-05 at cycle   3 NSaved=   3.
 NSaved= 3 IEnMin= 3 EnMin= -899.910063691099     IErMin= 3 ErrMin= 1.19D-05
 ErrMax= 1.19D-05  0.00D+00 EMaxC= 1.00D-01 BMatC= 1.95D-08 BMatP= 3.68D-08
 IDIUse=1 WtCom= 1.00D+00 WtEn= 0.00D+00
 Coeff-Com:  0.337D-01 0.416D+00 0.550D+00
 Coeff:      0.337D-01 0.416D+00 0.550D+00
 Gap=     0.203 Goal=   None    Shift=    0.000
 RMSDP=8.35D-07 MaxDP=2.62D-05 DE=-1.99D-08 OVMax= 6.56D-05

 Cycle  12  Pass 1  IDiag  1:
 RMSU=  3.44D-07    CP:  1.00D+00  1.01D+00  6.00D-01
 E= -899.910063711932     Delta-E=       -0.000000020833 Rises=F Damp=F
 DIIS: error= 1.99D-06 at cycle   4 NSaved=   4.
 NSaved= 4 IEnMin= 4 EnMin= -899.910063711932     IErMin= 4 ErrMin= 1.99D-06
 ErrMax= 1.99D-06  0.00D+00 EMaxC= 1.00D-01 BMatC= 9.82D-10 BMatP= 1.95D-08
 IDIUse=1 WtCom= 1.00D+00 WtEn= 0.00D+00
 Coeff-Com: -0.269D-02 0.207D+00 0.312D+00 0.483D+00
 Coeff:     -0.269D-02 0.207D+00 0.312D+00 0.483D+00
 Gap=     0.203 Goal=   None    Shift=    0.000
 RMSDP=1.70D-07 MaxDP=7.67D-06 DE=-2.08D-08 OVMax= 6.55D-06

 Cycle  13  Pass 1  IDiag  1:
 RMSU=  5.79D-08    CP:  1.00D+00  1.01D+00  6.11D-01  5.43D-01
 E= -899.910063712858     Delta-E=       -0.000000000925 Rises=F Damp=F
 DIIS: error= 5.41D-07 at cycle   5 NSaved=   5.
 NSaved= 5 IEnMin= 5 EnMin= -899.910063712858     IErMin= 5 ErrMin= 5.41D-07
 ErrMax= 5.41D-07  0.00D+00 EMaxC= 1.00D-01 BMatC= 4.40D-11 BMatP= 9.82D-10
 IDIUse=1 WtCom= 1.00D+00 WtEn= 0.00D+00
 Coeff-Com: -0.267D-02 0.112D+00 0.171D+00 0.293D+00 0.427D+00
 Coeff:     -0.267D-02 0.112D+00 0.171D+00 0.293D+00 0.427D+00
 Gap=     0.203 Goal=   None    Shift=    0.000
 RMSDP=3.16D-08 MaxDP=1.34D-06 DE=-9.25D-10 OVMax= 1.50D-06

 Cycle  14  Pass 1  IDiag  1:
 RMSU=  2.37D-08    CP:  1.00D+00  1.01D+00  6.09D-01  5.38D-01  6.55D-01
 E= -899.910063712904     Delta-E=       -0.000000000047 Rises=F Damp=F
 DIIS: error= 8.52D-08 at cycle   6 NSaved=   6.
 NSaved= 6 IEnMin= 6 EnMin= -899.910063712904     IErMin= 6 ErrMin= 8.52D-08
 ErrMax= 8.52D-08  0.00D+00 EMaxC= 1.00D-01 BMatC= 1.57D-12 BMatP= 4.40D-11
 IDIUse=1 WtCom= 1.00D+00 WtEn= 0.00D+00
 Coeff-Com: -0.117D-02 0.440D-01 0.665D-01 0.119D+00 0.217D+00 0.555D+00
 Coeff:     -0.117D-02 0.440D-01 0.665D-01 0.119D+00 0.217D+00 0.555D+00
 Gap=     0.203 Goal=   None    Shift=    0.000
 RMSDP=8.44D-09 MaxDP=3.84D-07 DE=-4.66D-11 OVMax= 5.05D-07

 SCF Done:  E(RB3LYP) =  -899.910063713     A.U. after   14 cycles
            NFock= 14  Conv=0.84D-08     -V/T= 2.0059
 KE= 8.946672412854D+02 PE=-3.389187560260D+03 EE= 9.579434649445D+02
 Leave Link  502 at Tue Sep 17 09:54:28 2024, MaxMem=  1342177280 cpu:              69.5 elap:               9.1
 (Enter /groups/ReismanLab/Software/Gaussian16_RevC/Linux_Binary_AVX2-enabled-CPU/g16/l508.exe)
 QCSCF skips out because SCF is already converged.
 Leave Link  508 at Tue Sep 17 09:54:29 2024, MaxMem=  1342177280 cpu:               0.0 elap:               0.0
 (Enter /groups/ReismanLab/Software/Gaussian16_RevC/Linux_Binary_AVX2-enabled-CPU/g16/l601.exe)
 Copying SCF densities to generalized density rwf, IOpCl= 0 IROHF=0.

 **********************************************************************

            Population analysis using the SCF Density.

 **********************************************************************

 Orbital symmetries:
       Occupied  (A) (A) (A) (A) (A) (A) (A) (A) (A) (A) (A) (A)
                 (A) (A) (A) (A) (A) (A) (A) (A) (A) (A) (A) (A)
                 (A) (A) (A) (A) (A) (A) (A) (A) (A) (A) (A) (A)
                 (A) (A) (A) (A) (A) (A) (A) (A)
       Virtual   (A) (A) (A) (A) (A) (A) (A) (A) (A) (A) (A) (A)
                 (A) (A) (A) (A) (A) (A) (A) (A) (A) (A) (A) (A)
                 (A) (A) (A) (A) (A) (A) (A) (A) (A) (A) (A) (A)
                 (A) (A) (A) (A) (A) (A) (A) (A) (A) (A) (A) (A)
                 (A) (A) (A) (A) (A) (A) (A) (A) (A) (A) (A) (A)
                 (A) (A) (A) (A) (A) (A) (A) (A) (A) (A) (A) (A)
                 (A) (A) (A) (A) (A) (A) (A) (A) (A) (A) (A) (A)
                 (A) (A) (A) (A) (A) (A) (A) (A) (A) (A) (A) (A)
                 (A) (A) (A) (A) (A) (A) (A) (A) (A) (A) (A) (A)
                 (A) (A) (A) (A) (A) (A) (A) (A) (A) (A) (A) (A)
                 (A) (A) (A) (A) (A) (A) (A) (A) (A) (A) (A) (A)
                 (A) (A) (A) (A) (A) (A) (A) (A) (A) (A) (A) (A)
                 (A) (A) (A) (A) (A) (A) (A) (A) (A) (A) (A) (A)
                 (A) (A) (A) (A) (A) (A) (A) (A) (A)
 The electronic state is 1-A.
 Alpha  occ. eigenvalues -- -101.54520 -19.12381 -14.38524 -10.30047 -10.24449
 Alpha  occ. eigenvalues --  -10.24280 -10.20393 -10.20327 -10.20020 -10.19904
 Alpha  occ. eigenvalues --  -10.19049  -9.46193  -7.22578  -7.21620  -7.21591
 Alpha  occ. eigenvalues --   -1.05280  -0.95617  -0.89263  -0.83700  -0.76623
 Alpha  occ. eigenvalues --   -0.76373  -0.72043  -0.64397  -0.62229  -0.58134
 Alpha  occ. eigenvalues --   -0.55067  -0.49390  -0.48910  -0.46427  -0.46243
 Alpha  occ. eigenvalues --   -0.45079  -0.43411  -0.41639  -0.41224  -0.41185
 Alpha  occ. eigenvalues --   -0.38397  -0.38338  -0.36447  -0.34322  -0.30979
 Alpha  occ. eigenvalues --   -0.29789  -0.26517  -0.25941  -0.22165
 Alpha virt. eigenvalues --   -0.01852  -0.01132   0.03940   0.04189   0.05910
 Alpha virt. eigenvalues --    0.11101   0.12899   0.14081   0.15836   0.16029
 Alpha virt. eigenvalues --    0.16992   0.17838   0.20205   0.22014   0.23457
 Alpha virt. eigenvalues --    0.27913   0.28690   0.30965   0.32161   0.33366
 Alpha virt. eigenvalues --    0.39749   0.41226   0.42756   0.43798   0.44577
 Alpha virt. eigenvalues --    0.47761   0.50462   0.51952   0.52582   0.52905
 Alpha virt. eigenvalues --    0.55223   0.56781   0.56965   0.58357   0.59193
 Alpha virt. eigenvalues --    0.59837   0.60684   0.61163   0.61707   0.62907
 Alpha virt. eigenvalues --    0.65570   0.67692   0.68513   0.72815   0.74549
 Alpha virt. eigenvalues --    0.76011   0.78712   0.80054   0.80490   0.81662
 Alpha virt. eigenvalues --    0.82949   0.85510   0.85720   0.86491   0.86967
 Alpha virt. eigenvalues --    0.87601   0.90003   0.92360   0.92816   0.93851
 Alpha virt. eigenvalues --    0.94246   0.95133   1.00596   1.01755   1.02640
 Alpha virt. eigenvalues --    1.02879   1.11804   1.13105   1.13882   1.18397
 Alpha virt. eigenvalues --    1.20741   1.22295   1.25626   1.28531   1.29159
 Alpha virt. eigenvalues --    1.33131   1.35918   1.36323   1.38279   1.39180
 Alpha virt. eigenvalues --    1.40121   1.44304   1.45005   1.49641   1.54548
 Alpha virt. eigenvalues --    1.57346   1.60778   1.70999   1.73566   1.77454
 Alpha virt. eigenvalues --    1.79347   1.80183   1.80757   1.83083   1.83925
 Alpha virt. eigenvalues --    1.87928   1.88736   1.92786   1.93310   1.96455
 Alpha virt. eigenvalues --    1.98602   2.01599   2.01782   2.05201   2.06702
 Alpha virt. eigenvalues --    2.07509   2.07599   2.08573   2.10059   2.11949
 Alpha virt. eigenvalues --    2.18514   2.23695   2.26404   2.27888   2.30549
 Alpha virt. eigenvalues --    2.31251   2.35051   2.40235   2.42063   2.42372
 Alpha virt. eigenvalues --    2.44399   2.46203   2.47787   2.48794   2.51757
 Alpha virt. eigenvalues --    2.54435   2.56010   2.60043   2.60378   2.65234
 Alpha virt. eigenvalues --    2.65993   2.68620   2.69656   2.75281   2.76016
 Alpha virt. eigenvalues --    2.76812   2.80753   2.85846   2.86909   2.90395
 Alpha virt. eigenvalues --    2.97960   3.04278   3.07201   3.13992   3.19836
 Alpha virt. eigenvalues --    3.21653   3.25612   3.30525   3.36779   3.42067
 Alpha virt. eigenvalues --    3.45166   3.52662   3.59959   3.83552   4.09190
 Alpha virt. eigenvalues --    4.10205   4.14062   4.15205   4.24164   4.27992
 Alpha virt. eigenvalues --    4.31829   4.42865   4.44789   4.59590   4.83255
          Condensed to atoms (all electrons):
               1          2          3          4          5          6
     1  C    5.137302   0.349185  -0.079033  -0.115852   0.007348   0.000426
     2  C    0.349185   4.349748   0.590970   0.251271  -0.030605  -0.004023
     3  O   -0.079033   0.590970   8.041535  -0.088370  -0.003060  -0.010653
     4  N   -0.115852   0.251271  -0.088370   7.144123   0.222961  -0.062786
     5  C    0.007348  -0.030605  -0.003060   0.222961   4.591808   0.559605
     6  C    0.000426  -0.004023  -0.010653  -0.062786   0.559605   4.911572
     7  C    0.000006   0.000370   0.000795   0.005819  -0.017886   0.492945
     8  C    0.000000   0.000001  -0.000005   0.000365  -0.036614  -0.036066
     9  Cl   0.000000   0.000000   0.000000   0.000004   0.000661   0.004359
    10  C    0.000001  -0.000117  -0.000004   0.005441  -0.012715  -0.041781
    11  C   -0.000491   0.006096   0.000360  -0.059896   0.503372  -0.064068
    12  H    0.373226  -0.020460   0.000743   0.001631  -0.000165   0.000005
    13  H    0.351405  -0.029330   0.003417   0.004730   0.000402  -0.000040
    14  H    0.373355  -0.020611   0.000358   0.000997  -0.000174   0.000005
    15  H    0.000377  -0.019856   0.003443   0.335099  -0.031612   0.005680
    16  H    0.000526   0.002050   0.025041  -0.013281  -0.027649   0.358346
    17  H   -0.000000   0.000000   0.000000  -0.000119   0.003514  -0.031789
    18  H   -0.000000   0.000001  -0.000000  -0.000112   0.003910   0.000739
    19  H    0.000004   0.000132   0.000003  -0.010912  -0.048223   0.005792
               7          8          9         10         11         12
     1  C    0.000006   0.000000   0.000000   0.000001  -0.000491   0.373226
     2  C    0.000370   0.000001   0.000000  -0.000117   0.006096  -0.020460
     3  O    0.000795  -0.000005   0.000000  -0.000004   0.000360   0.000743
     4  N    0.005819   0.000365   0.000004   0.005441  -0.059896   0.001631
     5  C   -0.017886  -0.036614   0.000661  -0.012715   0.503372  -0.000165
     6  C    0.492945  -0.036066   0.004359  -0.041781  -0.064068   0.000005
     7  C    4.883963   0.524716  -0.069986  -0.031058  -0.042277  -0.000000
     8  C    0.524716   4.995237   0.232223   0.535925  -0.041038  -0.000000
     9  Cl  -0.069986   0.232223  16.922671  -0.071091   0.005103  -0.000000
    10  C   -0.031058   0.535925  -0.071091   4.821042   0.527483  -0.000000
    11  C   -0.042277  -0.041038   0.005103   0.527483   4.968888   0.000008
    12  H   -0.000000  -0.000000  -0.000000  -0.000000   0.000008   0.541825
    13  H   -0.000000   0.000000  -0.000000  -0.000000  -0.000022  -0.026145
    14  H   -0.000000  -0.000000   0.000000  -0.000000   0.000009  -0.023229
    15  H   -0.000037  -0.000014  -0.000000   0.000071  -0.007753  -0.000053
    16  H   -0.038107   0.004759  -0.000138   0.000285   0.005614  -0.000003
    17  H    0.372769  -0.045098  -0.001169   0.004421   0.000951   0.000000
    18  H    0.004423  -0.042520  -0.001175   0.371150  -0.033554   0.000000
    19  H    0.000528   0.005198  -0.000185  -0.034680   0.359084   0.000000
              13         14         15         16         17         18
     1  C    0.351405   0.373355   0.000377   0.000526  -0.000000  -0.000000
     2  C   -0.029330  -0.020611  -0.019856   0.002050   0.000000   0.000001
     3  O    0.003417   0.000358   0.003443   0.025041   0.000000  -0.000000
     4  N    0.004730   0.000997   0.335099  -0.013281  -0.000119  -0.000112
     5  C    0.000402  -0.000174  -0.031612  -0.027649   0.003514   0.003910
     6  C   -0.000040   0.000005   0.005680   0.358346  -0.031789   0.000739
     7  C   -0.000000  -0.000000  -0.000037  -0.038107   0.372769   0.004423
     8  C    0.000000  -0.000000  -0.000014   0.004759  -0.045098  -0.042520
     9  Cl  -0.000000   0.000000  -0.000000  -0.000138  -0.001169  -0.001175
    10  C   -0.000000  -0.000000   0.000071   0.000285   0.004421   0.371150
    11  C   -0.000022   0.000009  -0.007753   0.005614   0.000951  -0.033554
    12  H   -0.026145  -0.023229  -0.000053  -0.000003   0.000000   0.000000
    13  H    0.621210  -0.026207   0.002016  -0.000020   0.000000   0.000000
    14  H   -0.026207   0.543035  -0.000029  -0.000004   0.000000   0.000000
    15  H    0.002016  -0.000029   0.444124  -0.000192   0.000004  -0.000018
    16  H   -0.000020  -0.000004  -0.000192   0.544530  -0.006237   0.000012
    17  H    0.000000   0.000000   0.000004  -0.006237   0.591599  -0.000199
    18  H    0.000000   0.000000  -0.000018   0.000012  -0.000199   0.597034
    19  H   -0.000026   0.000000   0.008200  -0.000177   0.000017  -0.007095
              19
     1  C    0.000004
     2  C    0.000132
     3  O    0.000003
     4  N   -0.010912
     5  C   -0.048223
     6  C    0.005792
     7  C    0.000528
     8  C    0.005198
     9  Cl  -0.000185
    10  C   -0.034680
    11  C    0.359084
    12  H    0.000000
    13  H   -0.000026
    14  H    0.000000
    15  H    0.008200
    16  H   -0.000177
    17  H    0.000017
    18  H   -0.007095
    19  H    0.640024
 Mulliken charges:
               1
     1  C   -0.397783
     2  C    0.575179
     3  O   -0.485539
     4  N   -0.621114
     5  C    0.315123
     6  C   -0.088268
     7  C   -0.086981
     8  C   -0.097071
     9  Cl  -0.021277
    10  C   -0.074373
    11  C   -0.127871
    12  H    0.152618
    13  H    0.098612
    14  H    0.152496
    15  H    0.260548
    16  H    0.144647
    17  H    0.111335
    18  H    0.107404
    19  H    0.082314
 Sum of Mulliken charges =  -0.00000
 Mulliken charges with hydrogens summed into heavy atoms:
               1
     1  C    0.005943
     2  C    0.575179
     3  O   -0.485539
     4  N   -0.360565
     5  C    0.315123
     6  C    0.056379
     7  C    0.024354
     8  C   -0.097071
     9  Cl  -0.021277
    10  C    0.033031
    11  C   -0.045556
 Electronic spatial extent (au):  <R**2>=           2784.5146
 Charge=             -0.0000 electrons
 Dipole moment (field-independent basis, Debye):
    X=              2.3951    Y=              3.5164    Z=              0.0252  Tot=              4.2546
 Quadrupole moment (field-independent basis, Debye-Ang):
   XX=            -69.5441   YY=            -66.4233   ZZ=            -72.1257
   XY=              8.8503   XZ=              0.0937   YZ=             -0.0044
 Traceless Quadrupole moment (field-independent basis, Debye-Ang):
   XX=             -0.1797   YY=              2.9411   ZZ=             -2.7614
   XY=              8.8503   XZ=              0.0937   YZ=             -0.0044
 Octapole moment (field-independent basis, Debye-Ang**2):
  XXX=             58.0867  YYY=              9.3059  ZZZ=              0.1419  XYY=            -10.6951
  XXY=             27.1789  XXZ=              0.2858  XZZ=              6.1984  YZZ=             -3.1058
  YYZ=             -0.0420  XYZ=              0.0585
 Hexadecapole moment (field-independent basis, Debye-Ang**3):
 XXXX=          -2955.3078 YYYY=           -408.2609 ZZZZ=            -77.8524 XXXY=             55.4354
 XXXZ=              0.7346 YYYX=             24.6555 YYYZ=             -0.1597 ZZZX=              0.6072
 ZZZY=              0.0948 XXYY=           -601.1660 XXZZ=           -521.0989 YYZZ=            -91.7140
 XXYZ=              0.4119 YYXZ=             -0.2245 ZZXY=             -4.9584
 N-N= 6.366667903167D+02 E-N=-3.389187555155D+03  KE= 8.946672412854D+02
 No NMR shielding tensors so no spin-rotation constants.
 Leave Link  601 at Tue Sep 17 09:54:29 2024, MaxMem=  1342177280 cpu:               0.7 elap:               0.1
 (Enter /groups/ReismanLab/Software/Gaussian16_RevC/Linux_Binary_AVX2-enabled-CPU/g16/l701.exe)
 ... and contract with generalized density number  0.
 Compute integral first derivatives.
 R6Disp: Adding Grimme-D3(BJ) dispersion energy 1st derivatives to the gradient.
 Leave Link  701 at Tue Sep 17 09:54:29 2024, MaxMem=  1342177280 cpu:               0.7 elap:               0.1
 (Enter /groups/ReismanLab/Software/Gaussian16_RevC/Linux_Binary_AVX2-enabled-CPU/g16/l702.exe)
 L702 exits ... SP integral derivatives will be done elsewhere.
 Leave Link  702 at Tue Sep 17 09:54:29 2024, MaxMem=  1342177280 cpu:               0.1 elap:               0.0
 (Enter /groups/ReismanLab/Software/Gaussian16_RevC/Linux_Binary_AVX2-enabled-CPU/g16/l703.exe)
 Integral derivatives from FoFJK, PRISM(SPDF).
 Compute integral first derivatives, UseDBF=F ICtDFT=           0.
 Calling FoFJK, ICntrl=      2127 FMM=F ISym2X=0 I1Cent= 0 IOpClX= 0 NMat=1 NMatS=1 NMatT=0.
 FoFJK:  IHMeth= 1 ICntrl=    2127 DoSepK=F KAlg= 0 I1Cent=           0 FoldK=F
 IRaf=         0 NMat=       1 IRICut=       1 DoRegI=T DoRafI=F ISym2E= 0 IDoP0=0 IntGTp=1.
 FoFCou: FMM=F IPFlag=           0 FMFlag=      100000 FMFlg1=         800
         NFxFlg=           0 DoJE=F BraDBF=F KetDBF=F FulRan=T
         wScrn=  0.000000 ICntrl=      2127 IOpCl=  0 I1Cent=           0 NGrid=           0
         NMat0=    1 NMatS0=      1 NMatT0=    0 NMatD0=    1 NMtDS0=    0 NMtDT0=    0
 Symmetry not used in FoFCou.
 Leave Link  703 at Tue Sep 17 09:54:32 2024, MaxMem=  1342177280 cpu:              22.0 elap:               2.8
 (Enter /groups/ReismanLab/Software/Gaussian16_RevC/Linux_Binary_AVX2-enabled-CPU/g16/l716.exe)
 Dipole        = 9.42293612D-01 1.38343931D+00 9.92977138D-03
 ***** Axes restored to original set *****
 -------------------------------------------------------------------
 Center     Atomic                   Forces (Hartrees/Bohr)
 Number     Number              X              Y              Z
 -------------------------------------------------------------------
      1        6          -0.000326769    0.002182755   -0.000065499
      2        6           0.006850494   -0.015139312    0.000233246
      3        8          -0.001386669    0.022204548    0.000093980
      4        7          -0.003179203   -0.011171222   -0.000167319
      5        6           0.000477255    0.000834752   -0.000017544
      6        6           0.004737882    0.007853973    0.000038812
      7        6          -0.002896684    0.001961370    0.000017404
      8        6           0.002746836   -0.000220514    0.000013233
      9       17          -0.013726728    0.001962521    0.000000310
     10        6          -0.003022528   -0.003618847   -0.000035146
     11        6           0.002841122   -0.003019085   -0.000024900
     12        1           0.001893470    0.000665280    0.002647069
     13        1           0.001922962   -0.004634026    0.000129752
     14        1           0.002020930    0.000333874   -0.002936356
     15        1           0.001667430    0.001994769    0.000074637
     16        1           0.001930610    0.001197387    0.000005925
     17        1          -0.001571936    0.003621899    0.000021339
     18        1          -0.002459312   -0.002919766   -0.000017102
     19        1           0.001480842   -0.004090355   -0.000011841
 -------------------------------------------------------------------
 Cartesian Forces:  Max     0.022204548 RMS     0.004880328
 Leave Link  716 at Tue Sep 17 09:54:32 2024, MaxMem=  1342177280 cpu:               0.0 elap:               0.0
 (Enter /groups/ReismanLab/Software/Gaussian16_RevC/Linux_Binary_AVX2-enabled-CPU/g16/l103.exe)

 GradGradGradGradGradGradGradGradGradGradGradGradGradGradGradGradGradGrad
 Berny optimization.
 FormGI is forming the generalized inverse of G from B-inverse, IUseBI=4.
 GSVD:  received Info=                   1 from GESDD.
 Internal  Forces:  Max     0.022229028 RMS     0.004360149
 Search for a local minimum.
 Step number   1 out of a maximum of   97
 All quantities printed in internal units (Hartrees-Bohrs-Radians)
 RMS Force = .43601D-02 SwitMx=.10000D-02 MixMth= 1
 Mixed Optimization -- RFO/linear search
 Second derivative matrix not updated -- first step.
 ITU=  0
     Eigenvalues ---    0.00571   0.01209   0.01727   0.01930   0.02041
     Eigenvalues ---    0.02124   0.02189   0.02244   0.02258   0.02280
     Eigenvalues ---    0.02288   0.02297   0.02307   0.02316   0.06955
     Eigenvalues ---    0.07607   0.16000   0.16000   0.16000   0.16000
     Eigenvalues ---    0.16000   0.16000   0.16000   0.16000   0.22000
     Eigenvalues ---    0.22000   0.22977   0.24000   0.25000   0.25000
     Eigenvalues ---    0.25000   0.25000   0.30882   0.32546   0.35034
     Eigenvalues ---    0.35078   0.35291   0.35859   0.36176   0.36188
     Eigenvalues ---    0.36385   0.43093   0.43513   0.45883   0.46064
     Eigenvalues ---    0.47118   0.47491   0.48280   0.48880   0.51487
     Eigenvalues ---    1.00434
 RFO step:  Lambda=-3.34066061D-03 EMin= 5.71346873D-03
 Linear search not attempted -- first point.
 Iteration  1 RMS(Cart)=  0.02627147 RMS(Int)=  0.00007029
 Iteration  2 RMS(Cart)=  0.00008382 RMS(Int)=  0.00000748
 Iteration  3 RMS(Cart)=  0.00000001 RMS(Int)=  0.00000748
 ITry= 1 IFail=0 DXMaxC= 1.12D-01 DCOld= 1.00D+10 DXMaxT= 3.00D-01 DXLimC= 3.00D+00 Rises=F
 Variable       Old X    -DE/DX   Delta X   Delta X   Delta X     New X
                                 (Linear)    (Quad)   (Total)
    R1        2.86239   0.00558   0.00000   0.01789   0.01789   2.88028
    R2        2.05548   0.00329   0.00000   0.00928   0.00928   2.06476
    R3        2.05204   0.00452   0.00000   0.01270   0.01270   2.06474
    R4        2.05620   0.00351   0.00000   0.00993   0.00993   2.06612
    R5        2.28466   0.02223   0.00000   0.02206   0.02206   2.30672
    R6        2.58393   0.01201   0.00000   0.02317   0.02317   2.60711
    R7        2.64059   0.00997   0.00000   0.02148   0.02148   2.66207
    R8        1.90964  -0.00157   0.00000  -0.00339  -0.00339   1.90625
    R9        2.63189   0.00996   0.00000   0.02125   0.02125   2.65315
   R10        2.63574   0.00819   0.00000   0.01745   0.01745   2.65319
   R11        2.61165   0.01109   0.00000   0.02276   0.02276   2.63441
   R12        2.03484   0.00214   0.00000   0.00582   0.00582   2.04066
   R13        2.61781   0.00867   0.00000   0.01792   0.01792   2.63573
   R14        2.03788   0.00395   0.00000   0.01081   0.01081   2.04869
   R15        3.26856   0.01387   0.00000   0.04217   0.04217   3.31073
   R16        2.61890   0.00850   0.00000   0.01744   0.01744   2.63634
   R17        2.60887   0.00975   0.00000   0.01960   0.01959   2.62846
   R18        2.03808   0.00382   0.00000   0.01045   0.01045   2.04853
   R19        2.04303   0.00435   0.00000   0.01201   0.01201   2.05504
    A1        1.89595  -0.00018   0.00000  -0.00149  -0.00150   1.89445
    A2        1.97509   0.00295   0.00000   0.01857   0.01854   1.99363
    A3        1.89432   0.00027   0.00000   0.00157   0.00155   1.89586
    A4        1.91155  -0.00139   0.00000  -0.00828  -0.00830   1.90325
    A5        1.87434  -0.00026   0.00000  -0.00272  -0.00272   1.87162
    A6        1.90986  -0.00153   0.00000  -0.00853  -0.00858   1.90129
    A7        2.13379  -0.00281   0.00000  -0.01109  -0.01109   2.12269
    A8        1.98112   0.00352   0.00000   0.01389   0.01389   1.99500
    A9        2.16828  -0.00071   0.00000  -0.00282  -0.00282   2.16546
   A10        2.24970   0.00066   0.00000   0.00295   0.00295   2.25265
   A11        2.04337  -0.00231   0.00000  -0.01361  -0.01361   2.02976
   A12        1.99011   0.00165   0.00000   0.01066   0.01066   2.00077
   A13        2.14765   0.00214   0.00000   0.00843   0.00843   2.15608
   A14        2.05514  -0.00137   0.00000  -0.00540  -0.00540   2.04974
   A15        2.08039  -0.00077   0.00000  -0.00303  -0.00302   2.07737
   A16        2.09650  -0.00095   0.00000  -0.00380  -0.00380   2.09271
   A17        2.08761  -0.00031   0.00000  -0.00292  -0.00292   2.08468
   A18        2.09908   0.00126   0.00000   0.00672   0.00672   2.10580
   A19        2.09460   0.00157   0.00000   0.00726   0.00727   2.10187
   A20        2.09393  -0.00068   0.00000  -0.00299  -0.00299   2.09094
   A21        2.09465  -0.00089   0.00000  -0.00427  -0.00427   2.09038
   A22        2.09250   0.00074   0.00000   0.00309   0.00309   2.09559
   A23        2.10363  -0.00148   0.00000  -0.00623  -0.00623   2.09740
   A24        2.08706   0.00075   0.00000   0.00313   0.00313   2.09019
   A25        2.08348   0.00054   0.00000   0.00154   0.00153   2.08502
   A26        2.09773  -0.00039   0.00000  -0.00150  -0.00150   2.09623
   A27        2.10198  -0.00015   0.00000  -0.00004  -0.00004   2.10194
   A28        2.10776   0.00109   0.00000   0.00425   0.00425   2.11201
   A29        2.09121  -0.00042   0.00000  -0.00137  -0.00137   2.08984
   A30        2.08422  -0.00067   0.00000  -0.00288  -0.00288   2.08134
    D1        0.95915  -0.00007   0.00000   0.00102   0.00101   0.96016
    D2       -2.18529  -0.00015   0.00000  -0.00438  -0.00438  -2.18967
    D3        3.08600  -0.00001   0.00000   0.00171   0.00169   3.08770
    D4       -0.05844  -0.00009   0.00000  -0.00369  -0.00370  -0.06213
    D5       -1.07363   0.00019   0.00000   0.00419   0.00420  -1.06943
    D6        2.06511   0.00010   0.00000  -0.00121  -0.00119   2.06392
    D7       -3.13476   0.00006   0.00000   0.00340   0.00341  -3.13135
    D8        0.00112   0.00008   0.00000   0.00406   0.00406   0.00518
    D9        0.00392  -0.00003   0.00000  -0.00214  -0.00215   0.00177
   D10        3.13979  -0.00001   0.00000  -0.00148  -0.00149   3.13830
   D11       -0.00035  -0.00001   0.00000  -0.00039  -0.00038  -0.00073
   D12        3.14125  -0.00000   0.00000  -0.00017  -0.00017   3.14108
   D13       -3.13637  -0.00002   0.00000  -0.00096  -0.00096  -3.13733
   D14        0.00523  -0.00001   0.00000  -0.00074  -0.00074   0.00448
   D15        3.14116   0.00001   0.00000   0.00055   0.00055  -3.14147
   D16       -0.00028   0.00001   0.00000   0.00021   0.00021  -0.00007
   D17       -0.00043   0.00001   0.00000   0.00033   0.00033  -0.00010
   D18        3.14131  -0.00000   0.00000  -0.00001  -0.00001   3.14130
   D19       -3.14135  -0.00001   0.00000  -0.00025  -0.00025  -3.14159
   D20        0.00007  -0.00000   0.00000  -0.00010  -0.00010  -0.00003
   D21        0.00025  -0.00000   0.00000  -0.00004  -0.00004   0.00021
   D22       -3.14152   0.00000   0.00000   0.00011   0.00011  -3.14141
   D23        0.00027  -0.00001   0.00000  -0.00031  -0.00031  -0.00004
   D24       -3.14128  -0.00001   0.00000  -0.00030  -0.00030  -3.14158
   D25       -3.14148   0.00000   0.00000   0.00003   0.00003  -3.14144
   D26        0.00016   0.00000   0.00000   0.00005   0.00005   0.00021
   D27        3.14159   0.00000   0.00000   0.00006   0.00006  -3.14154
   D28        0.00009  -0.00000   0.00000  -0.00001  -0.00001   0.00008
   D29       -0.00005   0.00000   0.00000   0.00005   0.00005  -0.00000
   D30       -3.14155  -0.00000   0.00000  -0.00002  -0.00002  -3.14157
   D31       -0.00027   0.00001   0.00000   0.00030   0.00030   0.00002
   D32        3.14148   0.00000   0.00000   0.00001   0.00001   3.14148
   D33        3.14142   0.00001   0.00000   0.00023   0.00023  -3.14154
   D34       -0.00002  -0.00000   0.00000  -0.00006  -0.00006  -0.00008
   D35        0.00010  -0.00001   0.00000  -0.00027  -0.00027  -0.00017
   D36       -3.14132  -0.00001   0.00000  -0.00042  -0.00042   3.14145
   D37        3.14153   0.00000   0.00000   0.00002   0.00002   3.14155
   D38        0.00012  -0.00000   0.00000  -0.00013  -0.00013  -0.00001
         Item               Value     Threshold  Converged?
 Maximum Force            0.022229     0.000450     NO 
 RMS     Force            0.004360     0.000300     NO 
 Maximum Displacement     0.111982     0.001800     NO 
 RMS     Displacement     0.026301     0.001200     NO 
 Predicted change in Energy=-1.684033D-03
 Lowest energy point so far.  Saving SCF results.
 GradGradGradGradGradGradGradGradGradGradGradGradGradGradGradGradGradGrad

 Leave Link  103 at Tue Sep 17 09:54:32 2024, MaxMem=  1342177280 cpu:               0.1 elap:               0.0
 (Enter /groups/ReismanLab/Software/Gaussian16_RevC/Linux_Binary_AVX2-enabled-CPU/g16/l202.exe)
                          Input orientation:                          
 ---------------------------------------------------------------------
 Center     Atomic      Atomic             Coordinates (Angstroms)
 Number     Number       Type             X           Y           Z
 ---------------------------------------------------------------------
      1          6           0        4.508444   -0.459611   -0.010311
      2          6           0        3.139173    0.209690    0.005542
      3          8           0        3.020688    1.424565    0.012881
      4          7           0        2.076798   -0.670473    0.000265
      5          6           0        0.695356   -0.394658    0.000040
      6          6           0        0.163890    0.904833    0.006387
      7          6           0       -1.217740    1.090655    0.005823
      8          6           0       -2.078133   -0.007094   -0.001066
      9         17           0       -3.812962    0.237334   -0.001800
     10          6           0       -1.561409   -1.302946   -0.007361
     11          6           0       -0.183106   -1.489874   -0.006678
     12          1           0        5.089150   -0.082950    0.835107
     13          1           0        4.474780   -1.550636    0.038045
     14          1           0        5.032596   -0.160880   -0.922138
     15          1           0        2.309633   -1.651938   -0.008644
     16          1           0        0.833363    1.752118    0.011849
     17          1           0       -1.626351    2.094811    0.010714
     18          1           0       -2.231119   -2.155351   -0.012610
     19          1           0        0.215964   -2.501476   -0.011458
 ---------------------------------------------------------------------
                    Distance matrix (angstroms):
                    1          2          3          4          5
     1  C    0.000000
     2  C    1.524178   0.000000
     3  O    2.400849   1.220661   0.000000
     4  N    2.440794   1.379621   2.297884   0.000000
     5  C    3.813655   2.517440   2.952440   1.408707   0.000000
     6  C    4.553804   3.055410   2.903697   2.478072   1.403984
     7  C    5.932349   4.445086   4.251567   3.735718   2.422009
     8  C    6.602110   5.221812   5.296020   4.207556   2.800438
     9  Cl   8.350545   6.952194   6.936030   5.959312   4.552401
    10  C    6.128159   4.937985   5.332480   3.692781   2.432701
    11  C    4.803342   3.731782   4.331124   2.403879   1.404009
    12  H    1.092623   2.139212   2.688344   3.180630   4.483294
    13  H    1.092614   2.209898   3.311621   2.554688   3.952439
    14  H    1.093345   2.140786   2.726842   3.138033   4.440350
    15  H    2.501283   2.038136   3.157679   1.008745   2.046147
    16  H    4.289342   2.774145   2.211715   2.723089   2.151239
    17  H    6.645391   5.124834   4.695126   4.621712   3.404100
    18  H    6.949622   5.868030   6.355936   4.556663   3.415327
    19  H    4.753377   3.986960   4.825025   2.610635   2.160702
                    6          7          8          9         10
     6  C    0.000000
     7  C    1.394071   0.000000
     8  C    2.420400   1.394768   0.000000
     9  Cl   4.032490   2.731921   1.751964   0.000000
    10  C    2.801988   2.418183   1.395090   2.728001   0.000000
    11  C    2.419752   2.780244   2.406200   4.019842   1.390921
    12  H    5.091235   6.468533   7.216294   8.947100   6.813815
    13  H    4.961260   6.275527   6.732364   8.478508   6.041439
    14  H    5.069733   6.441595   7.171785   8.902219   6.754408
    15  H    3.337891   4.468152   4.685943   6.407462   3.886741
    16  H    1.079868   2.155132   3.401736   4.887034   3.881845
    17  H    2.149659   1.084120   2.149943   2.869085   3.398426
    18  H    3.886020   3.400563   2.153728   2.868324   1.084035
    19  H    3.406753   3.867714   3.388942   4.871696   2.143722
                   11         12         13         14         15
    11  C    0.000000
    12  H    5.521297   0.000000
    13  H    4.658497   1.779568   0.000000
    14  H    5.459655   1.759881   1.778913   0.000000
    15  H    2.498002   3.301418   2.168019   3.236086   0.000000
    16  H    3.397656   4.707117   4.916176   4.708020   3.710444
    17  H    3.864354   7.107758   7.107308   7.092245   5.434195
    18  H    2.153428   7.655051   6.733300   7.587273   4.568573
    19  H    1.087482   5.505804   4.363950   5.432096   2.259462
                   16         17         18         19
    16  H    0.000000
    17  H    2.483472   0.000000
    18  H    4.965880   4.293037   0.000000
    19  H    4.298231   4.951815   2.471441   0.000000
 Stoichiometry    C8H8ClNO
 Framework group  C1[X(C8H8ClNO)]
 Deg. of freedom    51
 Full point group                 C1      NOp   1
 RotChk:  IX=0 Diff= 9.65D-04
 Largest Abelian subgroup         C1      NOp   1
 Largest concise Abelian subgroup C1      NOp   1
                         Standard orientation:                         
 ---------------------------------------------------------------------
 Center     Atomic      Atomic             Coordinates (Angstroms)
 Number     Number       Type             X           Y           Z
 ---------------------------------------------------------------------
      1          6           0        4.411138    0.408762    0.008019
      2          6           0        3.037981   -0.252614   -0.003922
      3          8           0        2.912402   -1.466799   -0.003762
      4          7           0        1.980767    0.633755   -0.004273
      5          6           0        0.597737    0.366021   -0.002573
      6          6           0        0.058689   -0.930357   -0.000967
      7          6           0       -1.324004   -1.108098    0.000513
      8          6           0       -2.177970   -0.005320    0.000462
      9         17           0       -3.914197   -0.239600    0.002416
     10          6           0       -1.653684    1.287506   -0.001176
     11          6           0       -0.274312    1.466371   -0.002783
     12          1           0        4.989746    0.023489   -0.834953
     13          1           0        4.383855    1.499645   -0.047094
     14          1           0        4.933414    0.112624    0.921766
     15          1           0        2.219330    1.613880   -0.001399
     16          1           0        0.723200   -1.781556   -0.001073
     17          1           0       -1.738474   -2.109861    0.001768
     18          1           0       -2.318403    2.143824   -0.001316
     19          1           0        0.130661    2.475635   -0.004197
 ---------------------------------------------------------------------
 Rotational constants (GHZ):           3.5579482           0.3980964           0.3588307
 Leave Link  202 at Tue Sep 17 09:54:32 2024, MaxMem=  1342177280 cpu:               0.0 elap:               0.0
 (Enter /groups/ReismanLab/Software/Gaussian16_RevC/Linux_Binary_AVX2-enabled-CPU/g16/l301.exe)
 Standard basis: 6-31G(d,p) (6D, 7F)
 Ernie: Thresh=  0.10000D-02 Tol=  0.10000D-05 Strict=F.
 There are   209 symmetry adapted cartesian basis functions of A   symmetry.
 There are   209 symmetry adapted basis functions of A   symmetry.
   209 basis functions,   388 primitive gaussians,   209 cartesian basis functions
    44 alpha electrons       44 beta electrons
       nuclear repulsion energy       631.0640514717 Hartrees.
 IExCor=  402 DFT=T Ex+Corr=B3LYP ExCW=0 ScaHFX=  0.200000
 ScaDFX=  0.800000  0.720000  1.000000  0.810000 ScalE2=  1.000000  1.000000
 IRadAn=      5 IRanWt=     -1 IRanGd=            0 ICorTp=0 IEmpDi=141
 NAtoms=   19 NActive=   19 NUniq=   19 SFac= 1.00D+00 NAtFMM=   60 NAOKFM=F Big=F
 Integral buffers will be    131072 words long.
 Raffenetti 2 integral format.
 Two-electron integral symmetry is turned on.
 R6Disp:  Grimme-D3(BJ) Dispersion energy=       -0.0364147185 Hartrees.
 Nuclear repulsion after empirical dispersion term =      631.0276367532 Hartrees.
 Leave Link  301 at Tue Sep 17 09:54:32 2024, MaxMem=  1342177280 cpu:               0.1 elap:               0.0
 (Enter /groups/ReismanLab/Software/Gaussian16_RevC/Linux_Binary_AVX2-enabled-CPU/g16/l302.exe)
 NPDir=0 NMtPBC=     1 NCelOv=     1 NCel=       1 NClECP=     1 NCelD=      1
         NCelK=      1 NCelE2=     1 NClLst=     1 CellRange=     0.0.
 One-electron integrals computed using PRISM.
 One-electron integral symmetry used in STVInt
 NBasis=   209 RedAO= T EigKep=  4.37D-04  NBF=   209
 NBsUse=   209 1.00D-06 EigRej= -1.00D+00 NBFU=   209
 Precomputing XC quadrature grid using
 IXCGrd= 4 IRadAn=           5 IRanWt=          -1 IRanGd=           0 AccXCQ= 0.00D+00.
 Generated NRdTot=       0 NPtTot=           0 NUsed=           0 NTot=          32
 NSgBfM=   208   208   208   208   208 MxSgAt=    19 MxSgA2=    19.
 Leave Link  302 at Tue Sep 17 09:54:32 2024, MaxMem=  1342177280 cpu:               1.0 elap:               0.2
 (Enter /groups/ReismanLab/Software/Gaussian16_RevC/Linux_Binary_AVX2-enabled-CPU/g16/l303.exe)
 DipDrv:  MaxL=1.
 Leave Link  303 at Tue Sep 17 09:54:32 2024, MaxMem=  1342177280 cpu:               0.1 elap:               0.0
 (Enter /groups/ReismanLab/Software/Gaussian16_RevC/Linux_Binary_AVX2-enabled-CPU/g16/l401.exe)
 Initial guess from the checkpoint file:  "smiles_00003_conf_1.chk"
 B after Tr=    -0.000000    0.000000    0.000000
         Rot=    1.000000    0.000019    0.000005    0.000102 Ang=   0.01 deg.
 Guess basis will be translated and rotated to current coordinates.
 JPrj=2 DoOrth=T DoCkMO=T.
 Generating alternative initial guess.
 ExpMin= 1.43D-01 ExpMax= 2.52D+04 ExpMxC= 3.78D+03 IAcc=3 IRadAn=         5 AccDes= 0.00D+00
 Harris functional with IExCor=  402 and IRadAn=       5 diagonalized for initial guess.
 HarFok:  IExCor=  402 AccDes= 0.00D+00 IRadAn=         5 IDoV= 1 UseB2=F ITyADJ=14
 ICtDFT=  3500011 ScaDFX=  1.000000  1.000000  1.000000  1.000000
 FoFCou: FMM=F IPFlag=           0 FMFlag=      100000 FMFlg1=           0
         NFxFlg=           0 DoJE=T BraDBF=F KetDBF=T FulRan=T
         wScrn=  0.000000 ICntrl=       500 IOpCl=  0 I1Cent=   200000004 NGrid=           0
         NMat0=    1 NMatS0=      1 NMatT0=    0 NMatD0=    1 NMtDS0=    0 NMtDT0=    0
 Petite list used in FoFCou.
 Harris En= -899.866394485437    
 Leave Link  401 at Tue Sep 17 09:54:33 2024, MaxMem=  1342177280 cpu:               5.1 elap:               0.7
 (Enter /groups/ReismanLab/Software/Gaussian16_RevC/Linux_Binary_AVX2-enabled-CPU/g16/l502.exe)
 Integral symmetry usage will be decided dynamically.
 Closed shell SCF:
 Using DIIS extrapolation, IDIIS=  1040.
 NGot=  1342177280 LenX=  1342085522 LenY=  1342041400
 Requested convergence on RMS density matrix=1.00D-08 within  32 cycles.
 Requested convergence on MAX density matrix=1.00D-06.
 Requested convergence on             energy=1.00D-06.
 No special actions if energy rises.
 Fock matrices will be formed incrementally for  20 cycles.
 Integral accuracy reduced to 1.0D-05 until final iterations.

 Cycle   1  Pass 0  IDiag  1:
 FoFJK:  IHMeth= 1 ICntrl=       0 DoSepK=F KAlg= 0 I1Cent=           0 FoldK=F
 IRaf= 860000000 NMat=       1 IRICut=       1 DoRegI=T DoRafI=F ISym2E= 0 IDoP0=0 IntGTp=1.
 FoFCou: FMM=F IPFlag=           0 FMFlag=      100000 FMFlg1=           0
         NFxFlg=           0 DoJE=F BraDBF=F KetDBF=F FulRan=T
         wScrn=  0.000000 ICntrl=         0 IOpCl=  0 I1Cent=           0 NGrid=           0
         NMat0=    1 NMatS0=      1 NMatT0=    0 NMatD0=    1 NMtDS0=    0 NMtDT0=    0
 Symmetry not used in FoFCou.
 E= -899.911032990906    
 DIIS: error= 9.03D-04 at cycle   1 NSaved=   1.
 NSaved= 1 IEnMin= 1 EnMin= -899.911032990906     IErMin= 1 ErrMin= 9.03D-04
 ErrMax= 9.03D-04  0.00D+00 EMaxC= 1.00D-01 BMatC= 4.12D-04 BMatP= 4.12D-04
 IDIUse=3 WtCom= 9.91D-01 WtEn= 9.03D-03
 Coeff-Com:  0.100D+01
 Coeff-En:   0.100D+01
 Coeff:      0.100D+01
 Gap=     1.821 Goal=   None    Shift=    0.000
 RMSDP=2.33D-04 MaxDP=4.27D-03              OVMax= 4.50D-03

 Cycle   2  Pass 0  IDiag  1:
 RMSU=  2.32D-04    CP:  9.99D-01
 E= -899.911487698947     Delta-E=       -0.000454708040 Rises=F Damp=F
 DIIS: error= 6.66D-04 at cycle   2 NSaved=   2.
 NSaved= 2 IEnMin= 2 EnMin= -899.911487698947     IErMin= 2 ErrMin= 6.66D-04
 ErrMax= 6.66D-04  0.00D+00 EMaxC= 1.00D-01 BMatC= 9.04D-05 BMatP= 4.12D-04
 IDIUse=3 WtCom= 9.93D-01 WtEn= 6.66D-03
 Coeff-Com:  0.253D+00 0.747D+00
 Coeff-En:   0.000D+00 0.100D+01
 Coeff:      0.251D+00 0.749D+00
 Gap=     0.201 Goal=   None    Shift=    0.000
 RMSDP=9.73D-05 MaxDP=3.51D-03 DE=-4.55D-04 OVMax= 3.30D-03

 Cycle   3  Pass 0  IDiag  1:
 RMSU=  9.56D-05    CP:  9.99D-01  9.26D-01
 E= -899.911522158016     Delta-E=       -0.000034459069 Rises=F Damp=F
 DIIS: error= 5.85D-04 at cycle   3 NSaved=   3.
 NSaved= 3 IEnMin= 3 EnMin= -899.911522158016     IErMin= 3 ErrMin= 5.85D-04
 ErrMax= 5.85D-04  0.00D+00 EMaxC= 1.00D-01 BMatC= 5.67D-05 BMatP= 9.04D-05
 IDIUse=3 WtCom= 9.94D-01 WtEn= 5.85D-03
 Coeff-Com:  0.195D-01 0.439D+00 0.542D+00
 Coeff-En:   0.000D+00 0.395D+00 0.605D+00
 Coeff:      0.193D-01 0.439D+00 0.542D+00
 Gap=     0.201 Goal=   None    Shift=    0.000
 RMSDP=5.28D-05 MaxDP=1.90D-03 DE=-3.45D-05 OVMax= 2.56D-03

 Cycle   4  Pass 0  IDiag  1:
 RMSU=  2.35D-05    CP:  9.99D-01  9.69D-01  5.16D-01
 E= -899.911573520473     Delta-E=       -0.000051362457 Rises=F Damp=F
 DIIS: error= 2.28D-04 at cycle   4 NSaved=   4.
 NSaved= 4 IEnMin= 4 EnMin= -899.911573520473     IErMin= 4 ErrMin= 2.28D-04
 ErrMax= 2.28D-04  0.00D+00 EMaxC= 1.00D-01 BMatC= 6.90D-06 BMatP= 5.67D-05
 IDIUse=3 WtCom= 9.98D-01 WtEn= 2.28D-03
 Coeff-Com: -0.826D-02 0.214D+00 0.341D+00 0.454D+00
 Coeff-En:   0.000D+00 0.000D+00 0.484D-01 0.952D+00
 Coeff:     -0.824D-02 0.213D+00 0.340D+00 0.455D+00
 Gap=     0.201 Goal=   None    Shift=    0.000
 RMSDP=1.55D-05 MaxDP=5.15D-04 DE=-5.14D-05 OVMax= 1.25D-03

 Cycle   5  Pass 0  IDiag  1:
 RMSU=  8.37D-06    CP:  9.99D-01  9.68D-01  5.53D-01  4.68D-01
 E= -899.911580483584     Delta-E=       -0.000006963111 Rises=F Damp=F
 DIIS: error= 5.78D-05 at cycle   5 NSaved=   5.
 NSaved= 5 IEnMin= 5 EnMin= -899.911580483584     IErMin= 5 ErrMin= 5.78D-05
 ErrMax= 5.78D-05  0.00D+00 EMaxC= 1.00D-01 BMatC= 4.27D-07 BMatP= 6.90D-06
 IDIUse=1 WtCom= 1.00D+00 WtEn= 0.00D+00
 Coeff-Com: -0.583D-02 0.790D-01 0.142D+00 0.262D+00 0.523D+00
 Coeff:     -0.583D-02 0.790D-01 0.142D+00 0.262D+00 0.523D+00
 Gap=     0.201 Goal=   None    Shift=    0.000
 RMSDP=4.24D-06 MaxDP=1.29D-04 DE=-6.96D-06 OVMax= 2.42D-04

 Initial convergence to 1.0D-05 achieved.  Increase integral accuracy.
 Cycle   6  Pass 1  IDiag  1:
 E= -899.911594410412     Delta-E=       -0.000013926828 Rises=F Damp=F
 DIIS: error= 3.77D-05 at cycle   1 NSaved=   1.
 NSaved= 1 IEnMin= 1 EnMin= -899.911594410412     IErMin= 1 ErrMin= 3.77D-05
 ErrMax= 3.77D-05  0.00D+00 EMaxC= 1.00D-01 BMatC= 9.61D-08 BMatP= 9.61D-08
 IDIUse=1 WtCom= 1.00D+00 WtEn= 0.00D+00
 Coeff-Com:  0.100D+01
 Coeff:      0.100D+01
 Gap=     0.201 Goal=   None    Shift=    0.000
 RMSDP=4.24D-06 MaxDP=1.29D-04 DE=-1.39D-05 OVMax= 1.63D-04

 Cycle   7  Pass 1  IDiag  1:
 RMSU=  1.71D-05    CP:  1.00D+00
 E= -899.911594356640     Delta-E=        0.000000053773 Rises=F Damp=F
 DIIS: error= 2.98D-05 at cycle   2 NSaved=   2.
 NSaved= 2 IEnMin= 1 EnMin= -899.911594410412     IErMin= 2 ErrMin= 2.98D-05
 ErrMax= 2.98D-05  0.00D+00 EMaxC= 1.00D-01 BMatC= 1.68D-07 BMatP= 9.61D-08
 IDIUse=1 WtCom= 1.00D+00 WtEn= 0.00D+00
 Coeff-Com:  0.584D+00 0.416D+00
 Coeff:      0.584D+00 0.416D+00
 Gap=     0.201 Goal=   None    Shift=    0.000
 RMSDP=2.46D-06 MaxDP=1.16D-04 DE= 5.38D-08 OVMax= 1.38D-04

 Cycle   8  Pass 1  IDiag  1:
 RMSU=  2.44D-06    CP:  1.00D+00  9.86D-01
 E= -899.911594484686     Delta-E=       -0.000000128046 Rises=F Damp=F
 DIIS: error= 1.18D-05 at cycle   3 NSaved=   3.
 NSaved= 3 IEnMin= 3 EnMin= -899.911594484686     IErMin= 3 ErrMin= 1.18D-05
 ErrMax= 1.18D-05  0.00D+00 EMaxC= 1.00D-01 BMatC= 1.84D-08 BMatP= 9.61D-08
 IDIUse=1 WtCom= 1.00D+00 WtEn= 0.00D+00
 Coeff-Com:  0.875D-01 0.249D+00 0.664D+00
 Coeff:      0.875D-01 0.249D+00 0.664D+00
 Gap=     0.201 Goal=   None    Shift=    0.000
 RMSDP=7.20D-07 MaxDP=3.31D-05 DE=-1.28D-07 OVMax= 3.87D-05

 Cycle   9  Pass 1  IDiag  1:
 RMSU=  4.62D-07    CP:  1.00D+00  9.96D-01  7.87D-01
 E= -899.911594496933     Delta-E=       -0.000000012247 Rises=F Damp=F
 DIIS: error= 4.08D-06 at cycle   4 NSaved=   4.
 NSaved= 4 IEnMin= 4 EnMin= -899.911594496933     IErMin= 4 ErrMin= 4.08D-06
 ErrMax= 4.08D-06  0.00D+00 EMaxC= 1.00D-01 BMatC= 3.12D-09 BMatP= 1.84D-08
 IDIUse=1 WtCom= 1.00D+00 WtEn= 0.00D+00
 Coeff-Com: -0.957D-03 0.115D+00 0.414D+00 0.473D+00
 Coeff:     -0.957D-03 0.115D+00 0.414D+00 0.473D+00
 Gap=     0.201 Goal=   None    Shift=    0.000
 RMSDP=2.63D-07 MaxDP=1.06D-05 DE=-1.22D-08 OVMax= 1.48D-05

 Cycle  10  Pass 1  IDiag  1:
 RMSU=  1.14D-07    CP:  1.00D+00  9.98D-01  7.89D-01  4.95D-01
 E= -899.911594499716     Delta-E=       -0.000000002783 Rises=F Damp=F
 DIIS: error= 6.48D-07 at cycle   5 NSaved=   5.
 NSaved= 5 IEnMin= 5 EnMin= -899.911594499716     IErMin= 5 ErrMin= 6.48D-07
[...]
   XZ=     3.2899   YZ=    -1.0063   ZZ=    30.0176
   Eigenvalues:    26.8131    28.0074    33.9899
     15  H    Isotropic =    24.3050   Anisotropy =     8.5043
   XX=    29.7176   YX=    -0.0861   ZX=    -0.0004
   XY=    -2.2022   YY=    24.8764   ZY=    -0.0253
   XZ=     0.0326   YZ=    -0.0620   ZZ=    18.3209
   Eigenvalues:    18.3206    24.6198    29.9745
     16  H    Isotropic =    22.0934   Anisotropy =    10.9536
   XX=    28.2964   YX=     3.2722   ZX=    -0.0056
   XY=     2.4279   YY=    22.0067   ZY=    -0.0013
   XZ=    -0.0081   YZ=     0.0200   ZZ=    15.9770
   Eigenvalues:    15.9769    20.9074    29.3957
     17  H    Isotropic =    23.7018   Anisotropy =     8.7794
   XX=    28.0888   YX=    -3.3983   ZX=    -0.0046
   XY=    -2.7676   YY=    23.0711   ZY=     0.0011
   XZ=    -0.0098   YZ=     0.0003   ZZ=    19.9455
   Eigenvalues:    19.9455    21.6052    29.5548
     18  H    Isotropic =    23.8426   Anisotropy =     8.3984
   XX=    26.2800   YX=     4.1350   ZX=    -0.0071
   XY=     3.3193   YY=    25.0474   ZY=    -0.0057
   XZ=    -0.0083   YZ=    -0.0044   ZZ=    20.2003
   Eigenvalues:    20.2003    21.8859    29.4415
     19  H    Isotropic =    24.4815   Anisotropy =     7.4179
   XX=    28.8116   YX=    -2.2811   ZX=    -0.0019
   XY=    -1.4791   YY=    23.6798   ZY=     0.0005
   XZ=    -0.0025   YZ=     0.0039   ZZ=    20.9530
   Eigenvalues:    20.9530    23.0647    29.4267
 End of Minotr F.D. properties file   721 does not exist.
 End of Minotr F.D. properties file   722 does not exist.
 End of Minotr F.D. properties file   788 does not exist.
 Leave Link 1002 at Tue Sep 17 10:32:20 2024, MaxMem=  1342177280 cpu:             506.0 elap:             507.0
 (Enter /groups/ReismanLab/Software/Gaussian16_RevC/Linux_Binary_AVX2-enabled-CPU/g16/l601.exe)
 Copying SCF densities to generalized density rwf, IOpCl= 0 IROHF=0.

 **********************************************************************

            Population analysis using the SCF Density.

 **********************************************************************

 Orbital symmetries:
       Occupied  (A) (A) (A) (A) (A) (A) (A) (A) (A) (A) (A) (A)
                 (A) (A) (A) (A) (A) (A) (A) (A) (A) (A) (A) (A)
                 (A) (A) (A) (A) (A) (A) (A) (A) (A) (A) (A) (A)
                 (A) (A) (A) (A) (A) (A) (A) (A)
       Virtual   (A) (A) (A) (A) (A) (A) (A) (A) (A) (A) (A) (A)
                 (A) (A) (A) (A) (A) (A) (A) (A) (A) (A) (A) (A)
                 (A) (A) (A) (A) (A) (A) (A) (A) (A) (A) (A) (A)
                 (A) (A) (A) (A) (A) (A) (A) (A) (A) (A) (A) (A)
                 (A) (A) (A) (A) (A) (A) (A) (A) (A) (A) (A) (A)
                 (A) (A) (A) (A) (A) (A) (A) (A) (A) (A) (A) (A)
                 (A) (A) (A) (A) (A) (A) (A) (A) (A) (A) (A) (A)
                 (A) (A) (A) (A) (A) (A) (A) (A) (A) (A) (A) (A)
                 (A) (A) (A) (A) (A) (A) (A) (A) (A) (A) (A) (A)
                 (A) (A) (A) (A) (A) (A) (A) (A) (A) (A) (A) (A)
                 (A) (A) (A) (A) (A) (A) (A) (A) (A) (A) (A) (A)
                 (A) (A) (A) (A) (A) (A) (A) (A) (A) (A) (A) (A)
                 (A) (A) (A) (A) (A) (A) (A) (A) (A) (A) (A) (A)
                 (A) (A) (A) (A) (A) (A) (A) (A) (A) (A) (A) (A)
                 (A) (A) (A) (A) (A) (A) (A) (A) (A) (A) (A) (A)
                 (A) (A) (A) (A) (A) (A) (A) (A) (A) (A) (A) (A)
                 (A) (A) (A) (A) (A) (A) (A) (A) (A) (A) (A) (A)
                 (A) (A) (A) (A) (A) (A) (A) (A) (A) (A) (A) (A)
                 (A) (A) (A) (A) (A) (A) (A) (A) (A) (A) (A) (A)
                 (A) (A) (A) (A) (A) (A) (A) (A) (A) (A) (A) (A)
                 (A) (A) (A) (A) (A) (A) (A) (A) (A) (A) (A) (A)
                 (A) (A) (A) (A) (A) (A) (A) (A) (A) (A) (A) (A)
                 (A) (A) (A) (A) (A) (A) (A) (A) (A) (A) (A) (A)
                 (A) (A) (A) (A) (A) (A) (A) (A) (A) (A) (A) (A)
                 (A) (A) (A) (A) (A) (A) (A) (A) (A) (A) (A) (A)
                 (A) (A) (A) (A) (A) (A) (A) (A) (A) (A) (A) (A)
                 (A) (A) (A) (A) (A) (A) (A) (A) (A) (A) (A) (A)
                 (A) (A) (A) (A) (A) (A) (A) (A) (A) (A) (A) (A)
                 (A) (A) (A) (A) (A) (A) (A) (A) (A) (A) (A) (A)
                 (A) (A) (A)
 The electronic state is 1-A.
 Alpha  occ. eigenvalues -- -102.64415 -19.60298 -14.79452 -10.65824 -10.60340
 Alpha  occ. eigenvalues --  -10.60102 -10.55880 -10.55727 -10.55555 -10.54795
 Alpha  occ. eigenvalues --  -10.54457  -9.80658  -7.52854  -7.52345  -7.52337
 Alpha  occ. eigenvalues --   -1.17016  -1.05982  -0.99036  -0.93219  -0.85851
 Alpha  occ. eigenvalues --   -0.85559  -0.80978  -0.72526  -0.70145  -0.65921
 Alpha  occ. eigenvalues --   -0.62295  -0.57120  -0.55746  -0.53621  -0.52961
 Alpha  occ. eigenvalues --   -0.51851  -0.49956  -0.48951  -0.48098  -0.46994
 Alpha  occ. eigenvalues --   -0.44989  -0.44148  -0.42477  -0.41208  -0.37754
 Alpha  occ. eigenvalues --   -0.36543  -0.33894  -0.32234  -0.27670
 Alpha virt. eigenvalues --    0.00416   0.00819   0.05476   0.06937   0.07340
 Alpha virt. eigenvalues --    0.09705   0.11464   0.12355   0.13219   0.13798
 Alpha virt. eigenvalues --    0.15762   0.15987   0.16087   0.17988   0.19094
 Alpha virt. eigenvalues --    0.19839   0.20116   0.22556   0.23576   0.24085
 Alpha virt. eigenvalues --    0.24386   0.25612   0.26485   0.26779   0.27769
 Alpha virt. eigenvalues --    0.28018   0.28203   0.30851   0.32431   0.32668
 Alpha virt. eigenvalues --    0.32802   0.35156   0.35804   0.35845   0.37546
 Alpha virt. eigenvalues --    0.37711   0.37974   0.38890   0.40844   0.41105
 Alpha virt. eigenvalues --    0.41674   0.42538   0.44027   0.44377   0.44572
 Alpha virt. eigenvalues --    0.44860   0.45395   0.46129   0.47748   0.49244
 Alpha virt. eigenvalues --    0.49702   0.49978   0.50596   0.52455   0.54464
 Alpha virt. eigenvalues --    0.54859   0.55109   0.55830   0.57610   0.59172
 Alpha virt. eigenvalues --    0.60038   0.61405   0.62017   0.62272   0.63269
 Alpha virt. eigenvalues --    0.63638   0.64135   0.65829   0.67213   0.68381
 Alpha virt. eigenvalues --    0.71516   0.72120   0.72318   0.73436   0.74300
 Alpha virt. eigenvalues --    0.77569   0.78150   0.79890   0.81196   0.81754
 Alpha virt. eigenvalues --    0.85466   0.86509   0.87535   0.88433   0.89271
 Alpha virt. eigenvalues --    0.90422   0.91795   0.92485   0.94269   0.95254
 Alpha virt. eigenvalues --    0.98484   0.98608   0.99133   1.03354   1.04209
 Alpha virt. eigenvalues --    1.06249   1.08151   1.08665   1.09051   1.10922
 Alpha virt. eigenvalues --    1.13243   1.16905   1.17825   1.21524   1.24637
 Alpha virt. eigenvalues --    1.25469   1.25966   1.26690   1.27278   1.28569
 Alpha virt. eigenvalues --    1.32366   1.33008   1.35409   1.38211   1.40461
 Alpha virt. eigenvalues --    1.41475   1.43282   1.44765   1.46983   1.50822
 Alpha virt. eigenvalues --    1.51005   1.53230   1.53539   1.53675   1.54507
 Alpha virt. eigenvalues --    1.56062   1.57246   1.58115   1.58450   1.59727
 Alpha virt. eigenvalues --    1.60859   1.62393   1.64628   1.65745   1.67176
 Alpha virt. eigenvalues --    1.69942   1.70370   1.70529   1.72112   1.76493
 Alpha virt. eigenvalues --    1.76655   1.78118   1.79097   1.82968   1.83033
 Alpha virt. eigenvalues --    1.84270   1.86111   1.87437   1.87725   1.89093
 Alpha virt. eigenvalues --    1.90420   1.90571   1.91985   1.94420   1.96605
 Alpha virt. eigenvalues --    1.97575   2.00641   2.01182   2.03964   2.04935
 Alpha virt. eigenvalues --    2.05901   2.06811   2.11845   2.12724   2.12931
 Alpha virt. eigenvalues --    2.14586   2.16863   2.17580   2.19707   2.20484
 Alpha virt. eigenvalues --    2.20705   2.23092   2.23700   2.25695   2.26277
 Alpha virt. eigenvalues --    2.27441   2.28577   2.28733   2.31041   2.32826
 Alpha virt. eigenvalues --    2.33021   2.36573   2.37162   2.38359   2.40630
 Alpha virt. eigenvalues --    2.41441   2.43444   2.46364   2.51911   2.53605
 Alpha virt. eigenvalues --    2.54997   2.55793   2.57069   2.59694   2.60447
 Alpha virt. eigenvalues --    2.62515   2.64559   2.65752   2.67820   2.69362
 Alpha virt. eigenvalues --    2.69922   2.71031   2.73348   2.75559   2.76083
 Alpha virt. eigenvalues --    2.76202   2.77934   2.79184   2.80182   2.82184
 Alpha virt. eigenvalues --    2.83826   2.84157   2.84925   2.87285   2.88094
 Alpha virt. eigenvalues --    2.89549   2.92115   2.92168   2.95143   2.96003
 Alpha virt. eigenvalues --    2.97903   3.00789   3.01321   3.02137   3.04936
 Alpha virt. eigenvalues --    3.07438   3.07913   3.10077   3.11012   3.11866
 Alpha virt. eigenvalues --    3.13086   3.13573   3.14235   3.15044   3.16875
 Alpha virt. eigenvalues --    3.17898   3.19726   3.20807   3.21151   3.23268
 Alpha virt. eigenvalues --    3.23500   3.26511   3.27204   3.29961   3.31259
 Alpha virt. eigenvalues --    3.32263   3.33008   3.33823   3.35655   3.36749
 Alpha virt. eigenvalues --    3.37031   3.38167   3.38908   3.40116   3.42091
 Alpha virt. eigenvalues --    3.45162   3.45727   3.47833   3.48413   3.50066
 Alpha virt. eigenvalues --    3.51271   3.53518   3.54845   3.56831   3.61303
 Alpha virt. eigenvalues --    3.66887   3.67110   3.71863   3.72990   3.75133
 Alpha virt. eigenvalues --    3.76872   3.78409   3.82869   3.85577   3.87935
 Alpha virt. eigenvalues --    3.90221   3.93881   3.98919   3.99273   4.00070
 Alpha virt. eigenvalues --    4.03105   4.05647   4.08294   4.08472   4.11801
 Alpha virt. eigenvalues --    4.12476   4.14867   4.16531   4.17704   4.20844
 Alpha virt. eigenvalues --    4.25337   4.27234   4.28452   4.29980   4.30496
 Alpha virt. eigenvalues --    4.37981   4.42036   4.43800   4.49043   4.50869
 Alpha virt. eigenvalues --    4.56728   4.59561   4.64888   4.69628   4.72015
 Alpha virt. eigenvalues --    4.74066   4.77396   4.79820   4.83718   4.85049
 Alpha virt. eigenvalues --    4.87741   5.02640   5.05333   5.08989   5.09107
 Alpha virt. eigenvalues --    5.11533   5.21166   5.21859   5.27031   5.27305
 Alpha virt. eigenvalues --    5.29098   5.39006   5.47547   5.53569   5.62039
 Alpha virt. eigenvalues --    5.66459   5.82459   5.84111   5.97585   6.08971
 Alpha virt. eigenvalues --    6.33202   6.39515   6.58184   6.70427   6.81126
 Alpha virt. eigenvalues --    7.05957   7.08873  10.81783  10.89321  11.40273
 Alpha virt. eigenvalues --   22.16798  22.41773  22.70495  22.75361  22.80248
 Alpha virt. eigenvalues --   22.89007  23.28108  23.40061  25.96291  32.74759
 Alpha virt. eigenvalues --   44.04728
          Condensed to atoms (all electrons):
               1          2          3          4          5          6
     1  C    5.079688   0.278943  -0.057980  -0.044033   0.011043   0.001068
     2  C    0.278943   4.588611   0.602324   0.323850  -0.043828  -0.015399
     3  O   -0.057980   0.602324   7.972646  -0.111156  -0.018466  -0.005632
     4  N   -0.044033   0.323850  -0.111156   6.617810   0.268382  -0.040060
     5  C    0.011043  -0.043828  -0.018466   0.268382   4.914945   0.404713
     6  C    0.001068  -0.015399  -0.005632  -0.040060   0.404713   5.173378
     7  C    0.000187   0.000722   0.003747   0.000109   0.038445   0.338029
     8  C   -0.000032  -0.000240  -0.000018   0.001091  -0.131680   0.078298
     9  Cl   0.000000  -0.000004   0.000000  -0.000024  -0.005967   0.019378
    10  C    0.000163  -0.000745  -0.000020   0.003766   0.032839  -0.147938
    11  C   -0.001764   0.012728   0.004125  -0.053800   0.378089   0.067723
    12  H    0.397361  -0.022143   0.001715  -0.001227  -0.000472   0.000084
    13  H    0.426260  -0.082607   0.003795   0.017146   0.002875  -0.000764
    14  H    0.391916  -0.017760   0.001454  -0.002425  -0.000510   0.000094
    15  H   -0.004635  -0.023993   0.004164   0.389010  -0.059393   0.001737
    16  H    0.000843  -0.005696   0.019393   0.001273  -0.024095   0.393901
    17  H    0.000000   0.000036  -0.000071  -0.000111   0.011502  -0.034545
    18  H   -0.000000   0.000013  -0.000001  -0.000040   0.011447  -0.005838
    19  H   -0.000092   0.001148   0.000031   0.002425  -0.048128   0.002720
               7          8          9         10         11         12
     1  C    0.000187  -0.000032   0.000000   0.000163  -0.001764   0.397361
     2  C    0.000722  -0.000240  -0.000004  -0.000745   0.012728  -0.022143
     3  O    0.003747  -0.000018   0.000000  -0.000020   0.004125   0.001715
     4  N    0.000109   0.001091  -0.000024   0.003766  -0.053800  -0.001227
     5  C    0.038445  -0.131680  -0.005967   0.032839   0.378089  -0.000472
     6  C    0.338029   0.078298   0.019378  -0.147938   0.067723   0.000084
     7  C    5.173345   0.304656  -0.064765   0.111344  -0.154291  -0.000013
     8  C    0.304656   5.102363   0.301582   0.318993   0.070705   0.000001
     9  Cl  -0.064765   0.301582  16.895877  -0.059734   0.018838   0.000000
    10  C    0.111344   0.318993  -0.059734   5.101990   0.386307  -0.000006
    11  C   -0.154291   0.070705   0.018838   0.386307   5.155699   0.000047
    12  H   -0.000013   0.000001   0.000000  -0.000006   0.000047   0.494580
    13  H    0.000016  -0.000011  -0.000000   0.000052  -0.000393  -0.022208
    14  H   -0.000010   0.000001   0.000000  -0.000005   0.000060  -0.022332
    15  H    0.000467  -0.000448  -0.000001   0.002862   0.001724   0.000301
    16  H   -0.017936   0.005432  -0.000094  -0.001252   0.003411   0.000016
    17  H    0.424091  -0.058477   0.000234   0.013555  -0.004516  -0.000000
    18  H    0.014672  -0.055169   0.001391   0.428382  -0.042441  -0.000000
    19  H    0.000336   0.003655  -0.000218  -0.008155   0.398892   0.000003
              13         14         15         16         17         18
     1  C    0.426260   0.391916  -0.004635   0.000843   0.000000  -0.000000
     2  C   -0.082607  -0.017760  -0.023993  -0.005696   0.000036   0.000013
     3  O    0.003795   0.001454   0.004164   0.019393  -0.000071  -0.000001
     4  N    0.017146  -0.002425   0.389010   0.001273  -0.000111  -0.000040
     5  C    0.002875  -0.000510  -0.059393  -0.024095   0.011502   0.011447
     6  C   -0.000764   0.000094   0.001737   0.393901  -0.034545  -0.005838
     7  C    0.000016  -0.000010   0.000467  -0.017936   0.424091   0.014672
     8  C   -0.000011   0.000001  -0.000448   0.005432  -0.058477  -0.055169
     9  Cl  -0.000000   0.000000  -0.000001  -0.000094   0.000234   0.001391
    10  C    0.000052  -0.000005   0.002862  -0.001252   0.013555   0.428382
    11  C   -0.000393   0.000060   0.001724   0.003411  -0.004516  -0.042441
    12  H   -0.022208  -0.022332   0.000301   0.000016  -0.000000  -0.000000
    13  H    0.538480  -0.021387  -0.001458  -0.000138   0.000000   0.000000
    14  H   -0.021387   0.495563   0.000201   0.000007  -0.000000  -0.000000
    15  H   -0.001458   0.000201   0.424755  -0.000449   0.000020  -0.000023
    16  H   -0.000138   0.000007  -0.000449   0.419117  -0.004162   0.000012
    17  H    0.000000  -0.000000   0.000020  -0.004162   0.477298   0.000007
    18  H    0.000000  -0.000000  -0.000023   0.000012   0.000007   0.478352
    19  H   -0.000111   0.000002   0.002337  -0.000221   0.000046  -0.004849
              19
     1  C   -0.000092
     2  C    0.001148
     3  O    0.000031
     4  N    0.002425
     5  C   -0.048128
     6  C    0.002720
     7  C    0.000336
     8  C    0.003655
     9  Cl  -0.000218
    10  C   -0.008155
    11  C    0.398892
    12  H    0.000003
    13  H   -0.000111
    14  H    0.000002
    15  H    0.002337
    16  H   -0.000221
    17  H    0.000046
    18  H   -0.004849
    19  H    0.479182
 Mulliken charges:
               1
     1  C   -0.478935
     2  C    0.404039
     3  O   -0.420049
     4  N   -0.371986
     5  C    0.258259
     6  C   -0.230949
     7  C   -0.173151
     8  C    0.059298
     9  Cl  -0.106493
    10  C   -0.182397
    11  C   -0.241143
    12  H    0.174291
    13  H    0.140451
    14  H    0.175130
    15  H    0.262821
    16  H    0.210639
    17  H    0.175092
    18  H    0.174086
    19  H    0.170997
 Sum of Mulliken charges =  -0.00000
 Mulliken charges with hydrogens summed into heavy atoms:
               1
     1  C    0.010937
     2  C    0.404039
     3  O   -0.420049
     4  N   -0.109165
     5  C    0.258259
     6  C   -0.020309
     7  C    0.001941
     8  C    0.059298
     9  Cl  -0.106493
    10  C   -0.008311
    11  C   -0.070146
 Electronic spatial extent (au):  <R**2>=           2830.2029
 Charge=              0.0000 electrons
 Dipole moment (field-independent basis, Debye):
    X=              2.7823    Y=              4.3684    Z=              0.0140  Tot=              5.1793
 Quadrupole moment (field-independent basis, Debye-Ang):
   XX=            -69.9963   YY=            -66.6365   ZZ=            -74.3157
   XY=             10.9401   XZ=              0.0647   YZ=             -0.0121
 Traceless Quadrupole moment (field-independent basis, Debye-Ang):
   XX=              0.3198   YY=              3.6797   ZZ=             -3.9996
   XY=             10.9401   XZ=              0.0647   YZ=             -0.0121
 Octapole moment (field-independent basis, Debye-Ang**2):
  XXX=             69.3180  YYY=             14.5902  ZZZ=              0.1758  XYY=            -12.6499
  XXY=             36.0287  XXZ=              0.2201  XZZ=              6.1858  YZZ=             -2.7943
  YYZ=             -0.1018  XYZ=              0.0376
 Hexadecapole moment (field-independent basis, Debye-Ang**3):
 XXXX=          -3022.4969 YYYY=           -412.5086 ZZZZ=            -87.6438 XXXY=             86.4221
 XXXZ=              0.5925 YYYX=             35.8157 YYYZ=             -0.2550 ZZZX=              0.7630
 ZZZY=              0.0795 XXYY=           -620.4764 XXZZ=           -540.6805 YYZZ=            -97.9181
 XXYZ=              0.4280 YYXZ=             -0.4500 ZZXY=             -3.5583
 N-N= 6.318018606396D+02 E-N=-3.381752867302D+03  KE= 8.971173253316D+02
 Calculating spin-rotation constants.
 Leave Link  601 at Tue Sep 17 10:32:23 2024, MaxMem=  1342177280 cpu:               3.1 elap:               3.2
 (Enter /groups/ReismanLab/Software/Gaussian16_RevC/Linux_Binary_AVX2-enabled-CPU/g16/l9999.exe)
 Unable to Open any file for archive entry.
 1\1\GINC-HPC-35-10\SP\RM062X\def2TZVP\C8H8Cl1N1O1\MANTIND\17-Sep-2024\
 0\\#p M062X/def2tzvp geom=check guess=read scf(xqc,tight) integral(gri
 d=ultrafine) scrf(SMD, solvent=1,4-Dioxane) nmr=giao\\spe\\0,1\C,0,4.5
 008952787,-0.4519929779,-0.0099896525\C,0,3.1306370335,0.2056320805,0.
 0038238414\O,0,3.0046444259,1.4212138927,0.0116284153\N,0,2.0742202129
 ,-0.6789118474,-0.0007670753\C,0,0.6941858247,-0.4008786658,-0.0004351
 194\C,0,0.1718661336,0.9008200639,0.0063775412\C,0,-1.2081836669,1.090
 5127623,0.0061812473\C,0,-2.0661392818,-0.005507683,-0.0007089013\Cl,0
 ,-3.8064925525,0.247421954,-0.0008784872\C,0,-1.5611621773,-1.30347874
 27,-0.0074387025\C,0,-0.1842218406,-1.4942211765,-0.0072245571\H,0,5.0
 766041503,-0.0705491066,0.8365818649\H,0,4.476320706,-1.5437693222,0.0
 387802051\H,0,5.0227972329,-0.1502690257,-0.9219789258\H,0,2.312654585
 5,-1.6591446615,-0.0073804739\H,0,0.8479263509,1.7426227997,0.01179537
 58\H,0,-1.6149674001,2.0950698542,0.0114314926\H,0,-2.2347890181,-2.15
 21326986,-0.0127651902\H,0,0.2122197909,-2.5063209001,-0.0124444246\\V
 ersion=ES64L-G16RevC.02\State=1-A\HF=-899.858192\RMSD=2.516e-09\Dipole
 =1.0827347,-1.7261463,-0.0162064\Quadrupole=0.1253115,2.8481394,-2.973
 4509,-8.1151673,-0.0984117,0.0274145\PG=C01 [X(C8H8Cl1N1O1)]\\@
 The archive entry for this job was punched.


 COMMON SENSE IS NOT SO COMMON.   -- VOLTAIRE
 Job cpu time:       0 days  0 hours  9 minutes 22.8 seconds.
 Elapsed time:       0 days  0 hours  9 minutes 24.5 seconds.
 File lengths (MBytes):  RWF=    264 Int=      0 D2E=      0 Chk=     24 Scr=     16
 Normal termination of Gaussian 16 at Tue Sep 17 10:32:23 2024.
