 Entering Gaussian System, Link 0=g16
 Input=smiles_00075_conf_0.gjf
 Output=smiles_00075_conf_0.log
 Initial command:
 /groups/ReismanLab/Software/Gaussian16_RevC/Linux_Binary_AVX2-enabled-CPU/g16/l1.exe "/central/groups/ReismanLab/DM/dft_final/smiles_00075/Gau-2398465.inp" -scrdir="/central/groups/ReismanLab/DM/dft_final/smiles_00075/"
 Entering Link 1 = /groups/ReismanLab/Software/Gaussian16_RevC/Linux_Binary_AVX2-enabled-CPU/g16/l1.exe PID=   2398468.
  
 Copyright (c) 1988-2021, Gaussian, Inc.  All Rights Reserved.
  
 This is part of the Gaussian(R) 16 program.  It is based on
 the Gaussian(R) 09 system (copyright 2009, Gaussian, Inc.),
 the Gaussian(R) 03 system (copyright 2003, Gaussian, Inc.),
 the Gaussian(R) 98 system (copyright 1998, Gaussian, Inc.),
 the Gaussian(R) 94 system (copyright 1995, Gaussian, Inc.),
 the Gaussian 92(TM) system (copyright 1992, Gaussian, Inc.),
 the Gaussian 90(TM) system (copyright 1990, Gaussian, Inc.),
 the Gaussian 88(TM) system (copyright 1988, Gaussian, Inc.),
 the Gaussian 86(TM) system (copyright 1986, Carnegie Mellon
 University), and the Gaussian 82(TM) system (copyright 1983,
 Carnegie Mellon University). Gaussian is a federally registered
 trademark of Gaussian, Inc.
  
 This software contains proprietary and confidential information,
 including trade secrets, belonging to Gaussian, Inc.
  
 This software is provided under written license and may be
 used, copied, transmitted, or stored only in accord with that
 written license.
  
 The following legend is applicable only to US Government
 contracts under FAR:
  
                    RESTRICTED RIGHTS LEGEND
  
 Use, reproduction and disclosure by the US Government is
 subject to restrictions as set forth in subparagraphs (a)
 and (c) of the Commercial Computer Software - Restricted
 Rights clause in FAR 52.227-19.
  
 Gaussian, Inc.
 340 Quinnipiac St., Bldg. 40, Wallingford CT 06492
  
  
 ---------------------------------------------------------------
 Warning -- This program may not be used in any manner that
 competes with the business of Gaussian, Inc. or will provide
 assistance to any competitor of Gaussian, Inc.  The licensee
 of this program is prohibited from giving any competitor of
 Gaussian, Inc. access to this program.  By using this program,
 the user acknowledges that Gaussian, Inc. is engaged in the
 business of creating and licensing software in the field of
 computational chemistry and represents and warrants to the
 licensee that it is not a competitor of Gaussian, Inc. and that
 it will not use this program in any manner prohibited above.
 ---------------------------------------------------------------
  

 Cite this work as:
 Gaussian 16, Revision C.02,
 M. J. Frisch, G. W. Trucks, H. B. Schlegel, G. E. Scuseria, 
 M. A. Robb, J. R. Cheeseman, G. Scalmani, V. Barone, 
 G. A. Petersson, H. Nakatsuji, X. Li, M. Caricato, A. V. Marenich, 
 J. Bloino, B. G. Janesko, R. Gomperts, B. Mennucci, H. P. Hratchian, 
 J. V. Ortiz, A. F. Izmaylov, J. L. Sonnenberg, D. Williams-Young, 
 F. Ding, F. Lipparini, F. Egidi, J. Goings, B. Peng, A. Petrone, 
 T. Henderson, D. Ranasinghe, V. G. Zakrzewski, J. Gao, N. Rega, 
 G. Zheng, W. Liang, M. Hada, M. Ehara, K. Toyota, R. Fukuda, 
 J. Hasegawa, M. Ishida, T. Nakajima, Y. Honda, O. Kitao, H. Nakai, 
 T. Vreven, K. Throssell, J. A. Montgomery, Jr., J. E. Peralta, 
 F. Ogliaro, M. J. Bearpark, J. J. Heyd, E. N. Brothers, K. N. Kudin, 
 V. N. Staroverov, T. A. Keith, R. Kobayashi, J. Normand, 
 K. Raghavachari, A. P. Rendell, J. C. Burant, S. S. Iyengar, 
 J. Tomasi, M. Cossi, J. M. Millam, M. Klene, C. Adamo, R. Cammi, 
 J. W. Ochterski, R. L. Martin, K. Morokuma, O. Farkas, 
 J. B. Foresman, and D. J. Fox, Gaussian, Inc., Wallingford CT, 2019.
 
 ******************************************
 Gaussian 16:  ES64L-G16RevC.02  7-Dec-2021
                17-Sep-2024 
 ******************************************
 %nprocshared=8
 Will use up to    8 processors via shared memory.
 %Mem=10GB
 %Chk=smiles_00075_conf_0.chk
 ----------------------------------------------------------------------
 #p B3LYP/6-31G(d,p) EmpiricalDispersion=GD3BJ opt freq scf(xqc,tight) 
 integral(grid=ultrafine)
 ----------------------------------------------------------------------
 1/18=20,19=15,26=4,38=1/1,3;
 2/9=110,12=2,17=6,18=5,40=1/2;
 3/5=1,6=6,7=101,11=2,25=1,30=1,71=1,74=-5,75=-5,124=41/1,2,3;
 4//1;
 5/5=2,8=3,13=1,32=2,38=5/2,8;
 6/7=2,8=2,9=2,10=2,28=1/1;
 7//1,2,3,16;
 1/18=20,19=15,26=4/3(2);
 2/9=110/2;
 99//99;
 2/9=110/2;
 3/5=1,6=6,7=101,11=2,25=1,30=1,71=1,74=-5,75=-5,124=41/1,2,3;
 4/5=5,16=3,69=1/1;
 5/5=2,8=3,13=1,32=2,38=5/2,8;
 7//1,2,3,16;
 1/18=20,19=15,26=4/3(-5);
 2/9=110/2;
 6/7=2,8=2,9=2,10=2,19=2,28=1/1;
 99/9=1/99;
 Leave Link    1 at Tue Sep 17 09:42:33 2024, MaxMem=  1342177280 cpu:               0.1 elap:               0.6
 (Enter /groups/ReismanLab/Software/Gaussian16_RevC/Linux_Binary_AVX2-enabled-CPU/g16/l101.exe)
 ----------------------------------
 opt-freq conformers_unique/conf_aa
 ----------------------------------
 Symbolic Z-matrix:
 Charge =  0 Multiplicity = 1
 C                     3.74575   1.49086  -0.92473 
 O                     2.99083   0.9176    0.13481 
 C                     2.6494   -0.36614  -0.00933 
 O                     2.96186  -1.04375  -0.94984 
 C                     1.78123  -0.82414   1.14841 
 C                     0.35501  -0.52945   0.76373 
 C                    -0.36541  -1.4359   -0.00438 
 C                    -1.6631   -1.15848  -0.39323 
 C                    -2.24385   0.04108  -0.01371 
 Cl                   -3.86766   0.39428  -0.49172 
 C                    -1.53758   0.96201   0.74311 
 C                    -0.23988   0.67285   1.12424 
 H                     3.15722   1.5017   -1.84415 
 H                     4.65614   0.91331  -1.09636 
 H                     3.98693   2.50388  -0.61377 
 H                     1.92745  -1.89412   1.29125 
 H                     2.06061  -0.27416   2.04552 
 H                     0.09539  -2.36447  -0.3053 
 H                    -2.22096  -1.86508  -0.98723 
 H                    -1.99897   1.89422   1.02878 
 H                     0.3161    1.39086   1.7084 
 
 ITRead=  0  0  0  0  0  0  0  0  0  0  0  0  0  0  0  0  0  0  0  0
 ITRead=  0
 MicOpt= -1 -1 -1 -1 -1 -1 -1 -1 -1 -1 -1 -1 -1 -1 -1 -1 -1 -1 -1 -1
 MicOpt= -1
 NAtoms=     21 NQM=       21 NQMF=       0 NMMI=      0 NMMIF=      0
                NMic=       0 NMicF=      0.
                    Isotopes and Nuclear Properties:
 (Nuclear quadrupole moments (NQMom) in fm**2, nuclear magnetic moments (NMagM)
  in nuclear magnetons)

  Atom         1           2           3           4           5           6           7           8           9          10
 IAtWgt=          12          16          12          16          12          12          12          12          12          35
 AtmWgt=  12.0000000  15.9949146  12.0000000  15.9949146  12.0000000  12.0000000  12.0000000  12.0000000  12.0000000  34.9688527
 NucSpn=           0           0           0           0           0           0           0           0           0           3
 AtZEff=  -0.0000000  -0.0000000  -0.0000000  -0.0000000  -0.0000000  -0.0000000  -0.0000000  -0.0000000  -0.0000000  -0.0000000
 NQMom=    0.0000000   0.0000000   0.0000000   0.0000000   0.0000000   0.0000000   0.0000000   0.0000000   0.0000000  -8.1650000
 NMagM=    0.0000000   0.0000000   0.0000000   0.0000000   0.0000000   0.0000000   0.0000000   0.0000000   0.0000000   0.8218740
 AtZNuc=   6.0000000   8.0000000   6.0000000   8.0000000   6.0000000   6.0000000   6.0000000   6.0000000   6.0000000  17.0000000

  Atom        11          12          13          14          15          16          17          18          19          20
 IAtWgt=          12          12           1           1           1           1           1           1           1           1
 AtmWgt=  12.0000000  12.0000000   1.0078250   1.0078250   1.0078250   1.0078250   1.0078250   1.0078250   1.0078250   1.0078250
 NucSpn=           0           0           1           1           1           1           1           1           1           1
 AtZEff=  -0.0000000  -0.0000000  -0.0000000  -0.0000000  -0.0000000  -0.0000000  -0.0000000  -0.0000000  -0.0000000  -0.0000000
 NQMom=    0.0000000   0.0000000   0.0000000   0.0000000   0.0000000   0.0000000   0.0000000   0.0000000   0.0000000   0.0000000
 NMagM=    0.0000000   0.0000000   2.7928460   2.7928460   2.7928460   2.7928460   2.7928460   2.7928460   2.7928460   2.7928460
 AtZNuc=   6.0000000   6.0000000   1.0000000   1.0000000   1.0000000   1.0000000   1.0000000   1.0000000   1.0000000   1.0000000

  Atom        21
 IAtWgt=           1
 AtmWgt=   1.0078250
 NucSpn=           1
 AtZEff=  -0.0000000
 NQMom=    0.0000000
 NMagM=    2.7928460
 AtZNuc=   1.0000000
 Leave Link  101 at Tue Sep 17 09:42:33 2024, MaxMem=  1342177280 cpu:               0.2 elap:               0.2
 (Enter /groups/ReismanLab/Software/Gaussian16_RevC/Linux_Binary_AVX2-enabled-CPU/g16/l103.exe)

 GradGradGradGradGradGradGradGradGradGradGradGradGradGradGradGradGradGrad
 Berny optimization.
 Initialization pass.
                           ----------------------------
                           !    Initial Parameters    !
                           ! (Angstroms and Degrees)  !
 --------------------------                            --------------------------
 ! Name  Definition              Value          Derivative Info.                !
 --------------------------------------------------------------------------------
 ! R1    R(1,2)                  1.4217         estimate D2E/DX2                !
 ! R2    R(1,13)                 1.0917         estimate D2E/DX2                !
 ! R3    R(1,14)                 1.0917         estimate D2E/DX2                !
 ! R4    R(1,15)                 1.0868         estimate D2E/DX2                !
 ! R5    R(2,3)                  1.3362         estimate D2E/DX2                !
 ! R6    R(3,4)                  1.2006         estimate D2E/DX2                !
 ! R7    R(3,5)                  1.5178         estimate D2E/DX2                !
 ! R8    R(5,6)                  1.5063         estimate D2E/DX2                !
 ! R9    R(5,16)                 1.0893         estimate D2E/DX2                !
 ! R10   R(5,17)                 1.0887         estimate D2E/DX2                !
 ! R11   R(6,7)                  1.3895         estimate D2E/DX2                !
 ! R12   R(6,12)                 1.389          estimate D2E/DX2                !
 ! R13   R(7,8)                  1.3828         estimate D2E/DX2                !
 ! R14   R(7,18)                 1.0794         estimate D2E/DX2                !
 ! R15   R(8,9)                  1.3857         estimate D2E/DX2                !
 ! R16   R(8,19)                 1.0786         estimate D2E/DX2                !
 ! R17   R(9,10)                 1.7292         estimate D2E/DX2                !
 ! R18   R(9,11)                 1.3855         estimate D2E/DX2                !
 ! R19   R(11,12)                1.3831         estimate D2E/DX2                !
 ! R20   R(11,20)                1.0787         estimate D2E/DX2                !
 ! R21   R(12,21)                1.0798         estimate D2E/DX2                !
 ! A1    A(2,1,13)             110.2066         estimate D2E/DX2                !
 ! A2    A(2,1,14)             110.2827         estimate D2E/DX2                !
 ! A3    A(2,1,15)             106.2873         estimate D2E/DX2                !
 ! A4    A(13,1,14)            108.8086         estimate D2E/DX2                !
 ! A5    A(13,1,15)            110.5707         estimate D2E/DX2                !
 ! A6    A(14,1,15)            110.6742         estimate D2E/DX2                !
 ! A7    A(1,2,3)              116.276          estimate D2E/DX2                !
 ! A8    A(2,3,4)              124.0749         estimate D2E/DX2                !
 ! A9    A(2,3,5)              110.7185         estimate D2E/DX2                !
 ! A10   A(4,3,5)              125.1759         estimate D2E/DX2                !
 ! A11   A(3,5,6)              106.723          estimate D2E/DX2                !
 ! A12   A(3,5,16)             108.6403         estimate D2E/DX2                !
 ! A13   A(3,5,17)             109.2264         estimate D2E/DX2                !
 ! A14   A(6,5,16)             110.6552         estimate D2E/DX2                !
 ! A15   A(6,5,17)             110.7674         estimate D2E/DX2                !
 ! A16   A(16,5,17)            110.7132         estimate D2E/DX2                !
 ! A17   A(5,6,7)              120.2962         estimate D2E/DX2                !
 ! A18   A(5,6,12)             120.5682         estimate D2E/DX2                !
 ! A19   A(7,6,12)             119.0841         estimate D2E/DX2                !
 ! A20   A(6,7,8)              120.7397         estimate D2E/DX2                !
 ! A21   A(6,7,18)             119.602          estimate D2E/DX2                !
 ! A22   A(8,7,18)             119.6574         estimate D2E/DX2                !
 ! A23   A(7,8,9)              119.3371         estimate D2E/DX2                !
 ! A24   A(7,8,19)             120.5847         estimate D2E/DX2                !
 ! A25   A(9,8,19)             120.0781         estimate D2E/DX2                !
 ! A26   A(8,9,10)             119.6475         estimate D2E/DX2                !
 ! A27   A(8,9,11)             120.7535         estimate D2E/DX2                !
 ! A28   A(10,9,11)            119.5989         estimate D2E/DX2                !
 ! A29   A(9,11,12)            119.3301         estimate D2E/DX2                !
 ! A30   A(9,11,20)            120.0699         estimate D2E/DX2                !
 ! A31   A(12,11,20)           120.6            estimate D2E/DX2                !
 ! A32   A(6,12,11)            120.7493         estimate D2E/DX2                !
 ! A33   A(6,12,21)            119.7007         estimate D2E/DX2                !
 ! A34   A(11,12,21)           119.55           estimate D2E/DX2                !
 ! D1    D(13,1,2,3)            63.7653         estimate D2E/DX2                !
 ! D2    D(14,1,2,3)           -56.3861         estimate D2E/DX2                !
 ! D3    D(15,1,2,3)          -176.3934         estimate D2E/DX2                !
 ! D4    D(1,2,3,4)              1.4316         estimate D2E/DX2                !
 ! D5    D(1,2,3,5)           -176.6407         estimate D2E/DX2                !
 ! D6    D(2,3,5,6)             88.7038         estimate D2E/DX2                !
 ! D7    D(2,3,5,16)          -151.9517         estimate D2E/DX2                !
 ! D8    D(2,3,5,17)           -31.0904         estimate D2E/DX2                !
 ! D9    D(4,3,5,6)            -89.3428         estimate D2E/DX2                !
 ! D10   D(4,3,5,16)            30.0017         estimate D2E/DX2                !
 ! D11   D(4,3,5,17)           150.863          estimate D2E/DX2                !
 ! D12   D(3,5,6,7)             84.9068         estimate D2E/DX2                !
 ! D13   D(3,5,6,12)           -92.4611         estimate D2E/DX2                !
 ! D14   D(16,5,6,7)           -33.123          estimate D2E/DX2                !
 ! D15   D(16,5,6,12)          149.5091         estimate D2E/DX2                !
 ! D16   D(17,5,6,7)          -156.2986         estimate D2E/DX2                !
 ! D17   D(17,5,6,12)           26.3335         estimate D2E/DX2                !
 ! D18   D(5,6,7,8)           -178.2377         estimate D2E/DX2                !
 ! D19   D(5,6,7,18)             1.4204         estimate D2E/DX2                !
 ! D20   D(12,6,7,8)            -0.831          estimate D2E/DX2                !
 ! D21   D(12,6,7,18)          178.8272         estimate D2E/DX2                !
 ! D22   D(5,6,12,11)          178.3            estimate D2E/DX2                !
 ! D23   D(5,6,12,21)           -1.682          estimate D2E/DX2                !
 ! D24   D(7,6,12,11)            0.9005         estimate D2E/DX2                !
 ! D25   D(7,6,12,21)         -179.0815         estimate D2E/DX2                !
 ! D26   D(6,7,8,9)              0.2568         estimate D2E/DX2                !
 ! D27   D(6,7,8,19)          -179.8337         estimate D2E/DX2                !
 ! D28   D(18,7,8,9)          -179.4012         estimate D2E/DX2                !
 ! D29   D(18,7,8,19)            0.5083         estimate D2E/DX2                !
 ! D30   D(7,8,9,10)          -179.8272         estimate D2E/DX2                !
 ! D31   D(7,8,9,11)             0.2632         estimate D2E/DX2                !
 ! D32   D(19,8,9,10)            0.2629         estimate D2E/DX2                !
 ! D33   D(19,8,9,11)         -179.6467         estimate D2E/DX2                !
 ! D34   D(8,9,11,12)           -0.1951         estimate D2E/DX2                !
 ! D35   D(8,9,11,20)          179.7326         estimate D2E/DX2                !
 ! D36   D(10,9,11,12)         179.8952         estimate D2E/DX2                !
 ! D37   D(10,9,11,20)          -0.1771         estimate D2E/DX2                !
 ! D38   D(9,11,12,6)           -0.3944         estimate D2E/DX2                !
 ! D39   D(9,11,12,21)         179.5877         estimate D2E/DX2                !
 ! D40   D(20,11,12,6)         179.6784         estimate D2E/DX2                !
 ! D41   D(20,11,12,21)         -0.3396         estimate D2E/DX2                !
 --------------------------------------------------------------------------------
 Trust Radius=3.00D-01 FncErr=1.00D-07 GrdErr=1.00D-06 EigMax=2.50D+02 EigMin=1.00D-04
 Number of steps in this run=    106 maximum allowed number of steps=    126.
 GradGradGradGradGradGradGradGradGradGradGradGradGradGradGradGradGradGrad

 Leave Link  103 at Tue Sep 17 09:42:33 2024, MaxMem=  1342177280 cpu:               0.0 elap:               0.0
 (Enter /groups/ReismanLab/Software/Gaussian16_RevC/Linux_Binary_AVX2-enabled-CPU/g16/l202.exe)
                          Input orientation:                          
 ---------------------------------------------------------------------
 Center     Atomic      Atomic             Coordinates (Angstroms)
 Number     Number       Type             X           Y           Z
 ---------------------------------------------------------------------
      1          6           0        3.745746    1.490863   -0.924735
      2          8           0        2.990828    0.917600    0.134813
      3          6           0        2.649400   -0.366138   -0.009331
      4          8           0        2.961865   -1.043754   -0.949837
      5          6           0        1.781231   -0.824140    1.148411
      6          6           0        0.355006   -0.529455    0.763732
      7          6           0       -0.365411   -1.435898   -0.004383
      8          6           0       -1.663102   -1.158479   -0.393228
      9          6           0       -2.243851    0.041082   -0.013706
     10         17           0       -3.867657    0.394278   -0.491723
     11          6           0       -1.537584    0.962007    0.743112
     12          6           0       -0.239880    0.672848    1.124241
     13          1           0        3.157218    1.501703   -1.844148
     14          1           0        4.656138    0.913307   -1.096364
     15          1           0        3.986926    2.503883   -0.613768
     16          1           0        1.927453   -1.894116    1.291251
     17          1           0        2.060611   -0.274161    2.045517
     18          1           0        0.095386   -2.364468   -0.305295
     19          1           0       -2.220955   -1.865075   -0.987226
     20          1           0       -1.998968    1.894218    1.028778
     21          1           0        0.316102    1.390858    1.708405
 ---------------------------------------------------------------------
                    Distance matrix (angstroms):
                    1          2          3          4          5
     1  C    0.000000
     2  O    1.421679   0.000000
     3  C    2.342732   1.336164   0.000000
     4  O    2.653184   2.241476   1.200562   0.000000
     5  C    3.676478   2.350355   1.517844   2.417596   0.000000
     6  C    4.292985   3.071981   2.426632   3.161730   1.506299
     7  C    5.129775   4.101545   3.198983   3.481152   2.512220
     8  C    6.046251   5.123280   4.401461   4.659753   3.788385
     9  C    6.229536   5.309634   4.910169   5.399323   4.277898
    10  Cl   7.704148   6.906897   6.578979   6.994295   6.007039
    11  C    5.565517   4.569301   4.456566   5.209049   3.790663
    12  C    4.555509   3.387675   3.272983   4.183263   2.515243
    13  H    1.091698   2.070060   2.667070   2.705052   4.032158
    14  H    1.091714   2.071007   2.616413   2.592705   4.040151
    15  H    1.086774   2.017146   3.223561   3.708021   4.364185
    16  H    4.435636   3.220848   2.132472   2.610670   1.089326
    17  H    3.844137   2.436471   2.139517   3.221286   1.088729
    18  H    5.345317   4.398779   3.256364   3.221245   2.707018
    19  H    6.846002   6.013729   5.188781   5.247627   4.654244
    20  H    6.081171   5.162463   5.272021   6.095610   4.657649
    21  H    4.325030   3.139160   3.388500   4.471426   2.714114
                    6          7          8          9         10
     6  C    0.000000
     7  C    1.389474   0.000000
     8  C    2.409769   1.382810   0.000000
     9  C    2.771999   2.389581   1.385732   0.000000
    10  Cl   4.501147   3.981554   2.698299   1.729159   0.000000
    11  C    2.409726   2.771766   2.409042   1.385528   2.697475
    12  C    1.389024   2.395070   2.771648   2.389551   3.981169
    13  H    4.333478   4.941978   5.693613   5.886891   7.239082
    14  H    4.903188   5.650410   6.687263   7.038663   8.560961
    15  H    4.928437   5.902208   6.736791   6.726667   8.133867
    16  H    2.147828   2.673173   4.033697   4.779925   6.480666
    17  H    2.148776   3.381908   4.538230   4.782068   6.482959
    18  H    2.139508   1.079409   2.134109   3.368045   4.832302
    19  H    3.388998   2.143180   1.078569   2.140491   2.839335
    20  H    3.389046   3.850403   3.384356   2.140293   2.837912
    21  H    2.140449   3.374708   3.851393   3.367628   4.830898
                   11         12         13         14         15
    11  C    0.000000
    12  C    1.383080   0.000000
    13  H    5.387611   4.586787   0.000000
    14  H    6.461287   5.381440   1.775430   0.000000
    15  H    5.893956   4.923338   1.790702   1.791836   0.000000
    16  H    4.523756   3.363707   4.782743   4.585635   5.216601
    17  H    4.021365   2.652891   4.414265   4.244792   4.301165
    18  H    3.851127   3.373613   5.166252   5.671865   6.240199
    19  H    3.384296   3.850196   6.402676   7.417932   7.600333
    20  H    1.078656   2.143653   5.915575   7.054704   6.237033
    21  H    2.133508   1.079769   4.550259   5.189479   4.484001
                   16         17         18         19         20
    16  H    0.000000
    17  H    1.791899   0.000000
    18  H    2.475209   3.709152   0.000000
    19  H    4.733032   5.482731   2.465737   0.000000
    20  H    5.462339   4.713365   4.929754   4.271515   0.000000
    21  H    3.682597   2.435004   4.266870   4.929927   2.464714
                   21
    21  H    0.000000
 Stoichiometry    C9H9ClO2
 Framework group  C1[X(C9H9ClO2)]
 Deg. of freedom    57
 Full point group                 C1      NOp   1
 Largest Abelian subgroup         C1      NOp   1
 Largest concise Abelian subgroup C1      NOp   1
                         Standard orientation:                         
 ---------------------------------------------------------------------
 Center     Atomic      Atomic             Coordinates (Angstroms)
 Number     Number       Type             X           Y           Z
 ---------------------------------------------------------------------
      1          6           0       -3.683332   -1.440952   -0.889218
      2          8           0       -2.912183   -0.865454    0.157350
      3          6           0       -2.552526    0.410981   -0.006034
      4          8           0       -2.861586    1.080959   -0.953114
      5          6           0       -1.669163    0.870803    1.139428
      6          6           0       -0.250371    0.549568    0.748566
      7          6           0        0.478004    1.434924   -0.036452
      8          6           0        1.768510    1.132845   -0.430796
      9          6           0        2.333879   -0.070337   -0.039690
     10         17           0        3.948664   -0.454278   -0.524510
     11          6           0        1.619351   -0.970533    0.734122
     12          6           0        0.328953   -0.656816    1.120598
     13          1           0       -3.101736   -1.472666   -1.812551
     14          1           0       -4.586150   -0.851953   -1.061963
     15          1           0       -3.937467   -2.446071   -0.563290
     16          1           0       -1.798218    1.944639    1.269250
     17          1           0       -1.950258    0.336837    2.045627
     18          1           0        0.029062    2.366374   -0.346252
     19          1           0        2.332601    1.823122   -1.037945
     20          1           0        2.068715   -1.905831    1.028721
     21          1           0       -0.233511   -1.358661    1.718050
 ---------------------------------------------------------------------
 Rotational constants (GHZ):           1.9643676           0.3651882           0.3486986
 Leave Link  202 at Tue Sep 17 09:42:33 2024, MaxMem=  1342177280 cpu:               0.0 elap:               0.0
 (Enter /groups/ReismanLab/Software/Gaussian16_RevC/Linux_Binary_AVX2-enabled-CPU/g16/l301.exe)
 Standard basis: 6-31G(d,p) (6D, 7F)
 Ernie: Thresh=  0.10000D-02 Tol=  0.10000D-05 Strict=F.
 There are   229 symmetry adapted cartesian basis functions of A   symmetry.
 There are   229 symmetry adapted basis functions of A   symmetry.
   229 basis functions,   423 primitive gaussians,   229 cartesian basis functions
    48 alpha electrons       48 beta electrons
       nuclear repulsion energy       741.4561285469 Hartrees.
 IExCor=  402 DFT=T Ex+Corr=B3LYP ExCW=0 ScaHFX=  0.200000
 ScaDFX=  0.800000  0.720000  1.000000  0.810000 ScalE2=  1.000000  1.000000
 IRadAn=      5 IRanWt=     -1 IRanGd=            0 ICorTp=0 IEmpDi=141
 NAtoms=   21 NActive=   21 NUniq=   21 SFac= 1.00D+00 NAtFMM=   60 NAOKFM=F Big=F
 Integral buffers will be    131072 words long.
 Raffenetti 2 integral format.
 Two-electron integral symmetry is turned on.
 R6Disp:  Grimme-D3(BJ) Dispersion energy=       -0.0403272363 Hartrees.
 Nuclear repulsion after empirical dispersion term =      741.4158013106 Hartrees.
 Leave Link  301 at Tue Sep 17 09:42:33 2024, MaxMem=  1342177280 cpu:               0.1 elap:               0.0
 (Enter /groups/ReismanLab/Software/Gaussian16_RevC/Linux_Binary_AVX2-enabled-CPU/g16/l302.exe)
 NPDir=0 NMtPBC=     1 NCelOv=     1 NCel=       1 NClECP=     1 NCelD=      1
         NCelK=      1 NCelE2=     1 NClLst=     1 CellRange=     0.0.
 One-electron integrals computed using PRISM.
 One-electron integral symmetry used in STVInt
 NBasis=   229 RedAO= T EigKep=  4.17D-04  NBF=   229
 NBsUse=   229 1.00D-06 EigRej= -1.00D+00 NBFU=   229
 Precomputing XC quadrature grid using
 IXCGrd= 4 IRadAn=           5 IRanWt=          -1 IRanGd=           0 AccXCQ= 0.00D+00.
 Generated NRdTot=       0 NPtTot=           0 NUsed=           0 NTot=          32
 NSgBfM=   227   227   227   227   227 MxSgAt=    21 MxSgA2=    21.
 Leave Link  302 at Tue Sep 17 09:42:33 2024, MaxMem=  1342177280 cpu:               0.8 elap:               0.1
 (Enter /groups/ReismanLab/Software/Gaussian16_RevC/Linux_Binary_AVX2-enabled-CPU/g16/l303.exe)
 DipDrv:  MaxL=1.
 Leave Link  303 at Tue Sep 17 09:42:33 2024, MaxMem=  1342177280 cpu:               0.1 elap:               0.0
 (Enter /groups/ReismanLab/Software/Gaussian16_RevC/Linux_Binary_AVX2-enabled-CPU/g16/l401.exe)
 ExpMin= 1.43D-01 ExpMax= 2.52D+04 ExpMxC= 3.78D+03 IAcc=3 IRadAn=         5 AccDes= 0.00D+00
 Harris functional with IExCor=  402 and IRadAn=       5 diagonalized for initial guess.
 HarFok:  IExCor=  402 AccDes= 0.00D+00 IRadAn=         5 IDoV= 1 UseB2=F ITyADJ=14
 ICtDFT=  3500011 ScaDFX=  1.000000  1.000000  1.000000  1.000000
 FoFCou: FMM=F IPFlag=           0 FMFlag=      100000 FMFlg1=           0
         NFxFlg=           0 DoJE=T BraDBF=F KetDBF=T FulRan=T
         wScrn=  0.000000 ICntrl=       500 IOpCl=  0 I1Cent=   200000004 NGrid=           0
         NMat0=    1 NMatS0=      1 NMatT0=    0 NMatD0=    1 NMtDS0=    0 NMtDT0=    0
 Petite list used in FoFCou.
 Harris En= -959.045483436583    
 JPrj=0 DoOrth=F DoCkMO=F.
 Leave Link  401 at Tue Sep 17 09:42:34 2024, MaxMem=  1342177280 cpu:               4.8 elap:               0.6
 (Enter /groups/ReismanLab/Software/Gaussian16_RevC/Linux_Binary_AVX2-enabled-CPU/g16/l502.exe)
 Integral symmetry usage will be decided dynamically.
 Closed shell SCF:
 Using DIIS extrapolation, IDIIS=  1040.
 NGot=  1342177280 LenX=  1342067587 LenY=  1342014705
 Requested convergence on RMS density matrix=1.00D-08 within  32 cycles.
 Requested convergence on MAX density matrix=1.00D-06.
 Requested convergence on             energy=1.00D-06.
 No special actions if energy rises.
 Fock matrices will be formed incrementally for  20 cycles.
 Integral accuracy reduced to 1.0D-05 until final iterations.

 Cycle   1  Pass 0  IDiag  1:
 FoFJK:  IHMeth= 1 ICntrl=       0 DoSepK=F KAlg= 0 I1Cent=           0 FoldK=F
 IRaf= 860000000 NMat=       1 IRICut=       1 DoRegI=T DoRafI=F ISym2E= 0 IDoP0=0 IntGTp=1.
 FoFCou: FMM=F IPFlag=           0 FMFlag=      100000 FMFlg1=           0
         NFxFlg=           0 DoJE=F BraDBF=F KetDBF=F FulRan=T
         wScrn=  0.000000 ICntrl=         0 IOpCl=  0 I1Cent=           0 NGrid=           0
         NMat0=    1 NMatS0=      1 NMatT0=    0 NMatD0=    1 NMtDS0=    0 NMtDT0=    0
 Symmetry not used in FoFCou.
 E= -958.772410814162    
 DIIS: error= 4.40D-02 at cycle   1 NSaved=   1.
 NSaved= 1 IEnMin= 1 EnMin= -958.772410814162     IErMin= 1 ErrMin= 4.40D-02
 ErrMax= 4.40D-02  0.00D+00 EMaxC= 1.00D-01 BMatC= 3.25D-01 BMatP= 3.25D-01
 IDIUse=3 WtCom= 5.60D-01 WtEn= 4.40D-01
 Coeff-Com:  0.100D+01
 Coeff-En:   0.100D+01
 Coeff:      0.100D+01
 Gap=     0.408 Goal=   None    Shift=    0.000
 GapD=    0.408 DampG=2.000 DampE=0.500 DampFc=1.0000 IDamp=-1.
 RMSDP=5.73D-03 MaxDP=1.85D-01              OVMax= 2.29D-01

 Cycle   2  Pass 0  IDiag  1:
 RMSU=  5.69D-03    CP:  9.71D-01
 E= -958.545942324800     Delta-E=        0.226468489361 Rises=F Damp=F
 DIIS: error= 4.32D-02 at cycle   2 NSaved=   2.
 NSaved= 2 IEnMin= 1 EnMin= -958.772410814162     IErMin= 2 ErrMin= 4.32D-02
 ErrMax= 4.32D-02  0.00D+00 EMaxC= 1.00D-01 BMatC= 5.97D-01 BMatP= 3.25D-01
 IDIUse=2 WtCom= 0.00D+00 WtEn= 1.00D+00
 Coeff-En:   0.625D+00 0.375D+00
 Coeff:      0.625D+00 0.375D+00
 Gap=     0.305 Goal=   None    Shift=    0.000
 RMSDP=3.44D-03 MaxDP=1.29D-01 DE= 2.26D-01 OVMax= 1.39D-01

 Cycle   3  Pass 0  IDiag  1:
 RMSU=  1.43D-03    CP:  9.77D-01  4.51D-01
 E= -959.062533658369     Delta-E=       -0.516591333569 Rises=F Damp=F
 DIIS: error= 7.72D-03 at cycle   3 NSaved=   3.
 NSaved= 3 IEnMin= 3 EnMin= -959.062533658369     IErMin= 3 ErrMin= 7.72D-03
 ErrMax= 7.72D-03  0.00D+00 EMaxC= 1.00D-01 BMatC= 2.33D-02 BMatP= 3.25D-01
 IDIUse=3 WtCom= 9.23D-01 WtEn= 7.72D-02
 Coeff-Com:  0.273D+00 0.187D+00 0.540D+00
 Coeff-En:   0.000D+00 0.000D+00 0.100D+01
 Coeff:      0.252D+00 0.172D+00 0.576D+00
 Gap=     0.220 Goal=   None    Shift=    0.000
 RMSDP=9.71D-04 MaxDP=3.18D-02 DE=-5.17D-01 OVMax= 7.18D-02

 Cycle   4  Pass 0  IDiag  1:
 RMSU=  7.83D-04    CP:  9.80D-01  4.01D-01  6.58D-01
 E= -959.076555015994     Delta-E=       -0.014021357625 Rises=F Damp=F
 DIIS: error= 4.73D-03 at cycle   4 NSaved=   4.
 NSaved= 4 IEnMin= 4 EnMin= -959.076555015994     IErMin= 4 ErrMin= 4.73D-03
 ErrMax= 4.73D-03  0.00D+00 EMaxC= 1.00D-01 BMatC= 9.05D-03 BMatP= 2.33D-02
 IDIUse=3 WtCom= 9.53D-01 WtEn= 4.73D-02
 Coeff-Com:  0.444D-01 0.159D-01 0.378D+00 0.561D+00
 Coeff-En:   0.000D+00 0.000D+00 0.284D+00 0.716D+00
 Coeff:      0.423D-01 0.151D-01 0.374D+00 0.569D+00
 Gap=     0.221 Goal=   None    Shift=    0.000
 RMSDP=4.18D-04 MaxDP=1.55D-02 DE=-1.40D-02 OVMax= 3.15D-02

 Cycle   5  Pass 0  IDiag  1:
 RMSU=  1.84D-04    CP:  9.80D-01  4.13D-01  7.55D-01  5.63D-01
 E= -959.083563711749     Delta-E=       -0.007008695755 Rises=F Damp=F
 DIIS: error= 1.07D-03 at cycle   5 NSaved=   5.
 NSaved= 5 IEnMin= 5 EnMin= -959.083563711749     IErMin= 5 ErrMin= 1.07D-03
 ErrMax= 1.07D-03  0.00D+00 EMaxC= 1.00D-01 BMatC= 4.69D-04 BMatP= 9.05D-03
 IDIUse=3 WtCom= 9.89D-01 WtEn= 1.07D-02
 Coeff-Com:  0.786D-02-0.343D-02 0.171D+00 0.311D+00 0.514D+00
 Coeff-En:   0.000D+00 0.000D+00 0.000D+00 0.000D+00 0.100D+01
 Coeff:      0.777D-02-0.339D-02 0.169D+00 0.308D+00 0.519D+00
 Gap=     0.220 Goal=   None    Shift=    0.000
 RMSDP=1.05D-04 MaxDP=3.10D-03 DE=-7.01D-03 OVMax= 6.73D-03

 Cycle   6  Pass 0  IDiag  1:
 RMSU=  5.96D-05    CP:  9.80D-01  4.12D-01  7.64D-01  6.05D-01  5.70D-01
 E= -959.083947529102     Delta-E=       -0.000383817354 Rises=F Damp=F
 DIIS: error= 5.12D-04 at cycle   6 NSaved=   6.
 NSaved= 6 IEnMin= 6 EnMin= -959.083947529102     IErMin= 6 ErrMin= 5.12D-04
 ErrMax= 5.12D-04  0.00D+00 EMaxC= 1.00D-01 BMatC= 4.46D-05 BMatP= 4.69D-04
 IDIUse=3 WtCom= 9.95D-01 WtEn= 5.12D-03
 Coeff-Com:  0.807D-03-0.373D-02 0.659D-01 0.127D+00 0.296D+00 0.514D+00
 Coeff-En:   0.000D+00 0.000D+00 0.000D+00 0.000D+00 0.228D-01 0.977D+00
 Coeff:      0.802D-03-0.371D-02 0.655D-01 0.127D+00 0.294D+00 0.516D+00
 Gap=     0.220 Goal=   None    Shift=    0.000
 RMSDP=3.89D-05 MaxDP=1.28D-03 DE=-3.84D-04 OVMax= 2.78D-03

 Cycle   7  Pass 0  IDiag  1:
 RMSU=  2.07D-05    CP:  9.80D-01  4.11D-01  7.67D-01  6.10D-01  6.19D-01
                    CP:  4.84D-01
 E= -959.083986326859     Delta-E=       -0.000038797756 Rises=F Damp=F
 DIIS: error= 1.89D-04 at cycle   7 NSaved=   7.
 NSaved= 7 IEnMin= 7 EnMin= -959.083986326859     IErMin= 7 ErrMin= 1.89D-04
 ErrMax= 1.89D-04  0.00D+00 EMaxC= 1.00D-01 BMatC= 4.33D-06 BMatP= 4.46D-05
 IDIUse=3 WtCom= 9.98D-01 WtEn= 1.89D-03
 Coeff-Com: -0.137D-03-0.204D-02 0.251D-01 0.493D-01 0.132D+00 0.308D+00
 Coeff-Com:  0.487D+00
 Coeff-En:   0.000D+00 0.000D+00 0.000D+00 0.000D+00 0.000D+00 0.490D-01
 Coeff-En:   0.951D+00
 Coeff:     -0.137D-03-0.204D-02 0.250D-01 0.492D-01 0.132D+00 0.307D+00
 Coeff:      0.488D+00
 Gap=     0.220 Goal=   None    Shift=    0.000
 RMSDP=1.15D-05 MaxDP=3.27D-04 DE=-3.88D-05 OVMax= 8.99D-04

 Cycle   8  Pass 0  IDiag  1:
 RMSU=  5.12D-06    CP:  9.80D-01  4.11D-01  7.68D-01  6.10D-01  6.15D-01
                    CP:  5.84D-01  6.08D-01
 E= -959.083990794077     Delta-E=       -0.000004467218 Rises=F Damp=F
 DIIS: error= 3.07D-05 at cycle   8 NSaved=   8.
 NSaved= 8 IEnMin= 8 EnMin= -959.083990794077     IErMin= 8 ErrMin= 3.07D-05
 ErrMax= 3.07D-05  0.00D+00 EMaxC= 1.00D-01 BMatC= 2.74D-07 BMatP= 4.33D-06
 IDIUse=1 WtCom= 1.00D+00 WtEn= 0.00D+00
 Coeff-Com: -0.140D-03-0.833D-03 0.744D-02 0.145D-01 0.434D-01 0.114D+00
 Coeff-Com:  0.254D+00 0.567D+00
 Coeff:     -0.140D-03-0.833D-03 0.744D-02 0.145D-01 0.434D-01 0.114D+00
 Coeff:      0.254D+00 0.567D+00
 Gap=     0.220 Goal=   None    Shift=    0.000
 RMSDP=2.88D-06 MaxDP=9.48D-05 DE=-4.47D-06 OVMax= 2.36D-04

 Initial convergence to 1.0D-05 achieved.  Increase integral accuracy.
 Cycle   9  Pass 1  IDiag  1:
 E= -959.083995378805     Delta-E=       -0.000004584728 Rises=F Damp=F
 DIIS: error= 2.38D-05 at cycle   1 NSaved=   1.
 NSaved= 1 IEnMin= 1 EnMin= -959.083995378805     IErMin= 1 ErrMin= 2.38D-05
 ErrMax= 2.38D-05  0.00D+00 EMaxC= 1.00D-01 BMatC= 9.35D-08 BMatP= 9.35D-08
 IDIUse=1 WtCom= 1.00D+00 WtEn= 0.00D+00
 Coeff-Com:  0.100D+01
 Coeff:      0.100D+01
 Gap=     0.220 Goal=   None    Shift=    0.000
 RMSDP=2.88D-06 MaxDP=9.48D-05 DE=-4.58D-06 OVMax= 1.59D-04

 Cycle  10  Pass 1  IDiag  1:
 RMSU=  1.44D-05    CP:  1.00D+00
 E= -959.083995367860     Delta-E=        0.000000010945 Rises=F Damp=F
 DIIS: error= 1.36D-05 at cycle   2 NSaved=   2.
 NSaved= 2 IEnMin= 1 EnMin= -959.083995378805     IErMin= 2 ErrMin= 1.36D-05
 ErrMax= 1.36D-05  0.00D+00 EMaxC= 1.00D-01 BMatC= 1.06D-07 BMatP= 9.35D-08
 IDIUse=1 WtCom= 1.00D+00 WtEn= 0.00D+00
 Coeff-Com:  0.519D+00 0.481D+00
 Coeff:      0.519D+00 0.481D+00
 Gap=     0.220 Goal=   None    Shift=    0.000
 RMSDP=1.90D-06 MaxDP=6.23D-05 DE= 1.09D-08 OVMax= 1.57D-04

 Cycle  11  Pass 1  IDiag  1:
 RMSU=  1.88D-06    CP:  1.00D+00  9.84D-01
 E= -959.083995452486     Delta-E=       -0.000000084626 Rises=F Damp=F
 DIIS: error= 6.97D-06 at cycle   3 NSaved=   3.
 NSaved= 3 IEnMin= 3 EnMin= -959.083995452486     IErMin= 3 ErrMin= 6.97D-06
 ErrMax= 6.97D-06  0.00D+00 EMaxC= 1.00D-01 BMatC= 1.59D-08 BMatP= 9.35D-08
 IDIUse=1 WtCom= 1.00D+00 WtEn= 0.00D+00
 Coeff-Com:  0.452D-01 0.278D+00 0.677D+00
 Coeff:      0.452D-01 0.278D+00 0.677D+00
 Gap=     0.220 Goal=   None    Shift=    0.000
 RMSDP=7.01D-07 MaxDP=1.70D-05 DE=-8.46D-08 OVMax= 5.24D-05

 Cycle  12  Pass 1  IDiag  1:
 RMSU=  4.33D-07    CP:  1.00D+00  9.97D-01  7.26D-01
 E= -959.083995465501     Delta-E=       -0.000000013015 Rises=F Damp=F
 DIIS: error= 2.83D-06 at cycle   4 NSaved=   4.
 NSaved= 4 IEnMin= 4 EnMin= -959.083995465501     IErMin= 4 ErrMin= 2.83D-06
 ErrMax= 2.83D-06  0.00D+00 EMaxC= 1.00D-01 BMatC= 2.45D-09 BMatP= 1.59D-08
 IDIUse=1 WtCom= 1.00D+00 WtEn= 0.00D+00
 Coeff-Com: -0.333D-02 0.147D+00 0.428D+00 0.429D+00
 Coeff:     -0.333D-02 0.147D+00 0.428D+00 0.429D+00
 Gap=     0.220 Goal=   None    Shift=    0.000
 RMSDP=2.51D-07 MaxDP=9.93D-06 DE=-1.30D-08 OVMax= 1.62D-05

 Cycle  13  Pass 1  IDiag  1:
 RMSU=  5.20D-08    CP:  1.00D+00  9.98D-01  7.49D-01  4.42D-01
 E= -959.083995467925     Delta-E=       -0.000000002424 Rises=F Damp=F
 DIIS: error= 2.45D-07 at cycle   5 NSaved=   5.
 NSaved= 5 IEnMin= 5 EnMin= -959.083995467925     IErMin= 5 ErrMin= 2.45D-07
 ErrMax= 2.45D-07  0.00D+00 EMaxC= 1.00D-01 BMatC= 3.48D-11 BMatP= 2.45D-09
 IDIUse=1 WtCom= 1.00D+00 WtEn= 0.00D+00
 Coeff-Com: -0.281D-02 0.736D-01 0.215D+00 0.232D+00 0.483D+00
 Coeff:     -0.281D-02 0.736D-01 0.215D+00 0.232D+00 0.483D+00
 Gap=     0.220 Goal=   None    Shift=    0.000
 RMSDP=2.63D-08 MaxDP=1.05D-06 DE=-2.42D-09 OVMax= 1.36D-06

 Cycle  14  Pass 1  IDiag  1:
 RMSU=  2.01D-08    CP:  1.00D+00  9.98D-01  7.45D-01  4.43D-01  7.31D-01
 E= -959.083995467951     Delta-E=       -0.000000000026 Rises=F Damp=F
 DIIS: error= 7.48D-08 at cycle   6 NSaved=   6.
 NSaved= 6 IEnMin= 6 EnMin= -959.083995467951     IErMin= 6 ErrMin= 7.48D-08
 ErrMax= 7.48D-08  0.00D+00 EMaxC= 1.00D-01 BMatC= 2.37D-12 BMatP= 3.48D-11
 IDIUse=1 WtCom= 1.00D+00 WtEn= 0.00D+00
 Coeff-Com: -0.108D-02 0.231D-01 0.661D-01 0.740D-01 0.243D+00 0.595D+00
 Coeff:     -0.108D-02 0.231D-01 0.661D-01 0.740D-01 0.243D+00 0.595D+00
 Gap=     0.220 Goal=   None    Shift=    0.000
 RMSDP=7.81D-09 MaxDP=3.56D-07 DE=-2.59D-11 OVMax= 4.53D-07

 SCF Done:  E(RB3LYP) =  -959.083995468     A.U. after   14 cycles
            NFock= 14  Conv=0.78D-08     -V/T= 2.0060
 KE= 9.533853449282D+02 PE=-3.737919900374D+03 EE= 1.084034758667D+03
 Leave Link  502 at Tue Sep 17 09:42:45 2024, MaxMem=  1342177280 cpu:              80.8 elap:              10.8
 (Enter /groups/ReismanLab/Software/Gaussian16_RevC/Linux_Binary_AVX2-enabled-CPU/g16/l508.exe)
 QCSCF skips out because SCF is already converged.
 Leave Link  508 at Tue Sep 17 09:42:45 2024, MaxMem=  1342177280 cpu:               0.0 elap:               0.3
 (Enter /groups/ReismanLab/Software/Gaussian16_RevC/Linux_Binary_AVX2-enabled-CPU/g16/l601.exe)
 Copying SCF densities to generalized density rwf, IOpCl= 0 IROHF=0.

 **********************************************************************

            Population analysis using the SCF Density.

 **********************************************************************

 Orbital symmetries:
       Occupied  (A) (A) (A) (A) (A) (A) (A) (A) (A) (A) (A) (A)
                 (A) (A) (A) (A) (A) (A) (A) (A) (A) (A) (A) (A)
                 (A) (A) (A) (A) (A) (A) (A) (A) (A) (A) (A) (A)
                 (A) (A) (A) (A) (A) (A) (A) (A) (A) (A) (A) (A)
       Virtual   (A) (A) (A) (A) (A) (A) (A) (A) (A) (A) (A) (A)
                 (A) (A) (A) (A) (A) (A) (A) (A) (A) (A) (A) (A)
                 (A) (A) (A) (A) (A) (A) (A) (A) (A) (A) (A) (A)
                 (A) (A) (A) (A) (A) (A) (A) (A) (A) (A) (A) (A)
                 (A) (A) (A) (A) (A) (A) (A) (A) (A) (A) (A) (A)
                 (A) (A) (A) (A) (A) (A) (A) (A) (A) (A) (A) (A)
                 (A) (A) (A) (A) (A) (A) (A) (A) (A) (A) (A) (A)
                 (A) (A) (A) (A) (A) (A) (A) (A) (A) (A) (A) (A)
                 (A) (A) (A) (A) (A) (A) (A) (A) (A) (A) (A) (A)
                 (A) (A) (A) (A) (A) (A) (A) (A) (A) (A) (A) (A)
                 (A) (A) (A) (A) (A) (A) (A) (A) (A) (A) (A) (A)
                 (A) (A) (A) (A) (A) (A) (A) (A) (A) (A) (A) (A)
                 (A) (A) (A) (A) (A) (A) (A) (A) (A) (A) (A) (A)
                 (A) (A) (A) (A) (A) (A) (A) (A) (A) (A) (A) (A)
                 (A) (A) (A) (A) (A) (A) (A) (A) (A) (A) (A) (A)
                 (A)
 The electronic state is 1-A.
 Alpha  occ. eigenvalues -- -101.54845 -19.19789 -19.13712 -10.31691 -10.25002
 Alpha  occ. eigenvalues --  -10.24356 -10.20897 -10.20684 -10.20224 -10.20182
 Alpha  occ. eigenvalues --  -10.19994 -10.19890  -9.46525  -7.22909  -7.21954
 Alpha  occ. eigenvalues --   -7.21918  -1.11424  -1.02273  -0.89894  -0.85204
 Alpha  occ. eigenvalues --   -0.79161  -0.76338  -0.73708  -0.69075  -0.62732
 Alpha  occ. eigenvalues --   -0.59716  -0.57165  -0.52201  -0.50596  -0.49287
 Alpha  occ. eigenvalues --   -0.48625  -0.46989  -0.46688  -0.43676  -0.43359
 Alpha  occ. eigenvalues --   -0.42288  -0.40627  -0.39597  -0.39239  -0.36346
 Alpha  occ. eigenvalues --   -0.35963  -0.35452  -0.33269  -0.31243  -0.30688
 Alpha  occ. eigenvalues --   -0.27868  -0.26554  -0.24008
 Alpha virt. eigenvalues --   -0.02001  -0.01329   0.02367   0.03906   0.10621
 Alpha virt. eigenvalues --    0.11526   0.12033   0.12850   0.13260   0.15351
 Alpha virt. eigenvalues --    0.15590   0.16681   0.17046   0.18240   0.19178
 Alpha virt. eigenvalues --    0.21591   0.23964   0.27669   0.28550   0.30133
 Alpha virt. eigenvalues --    0.32289   0.34373   0.35072   0.40134   0.42156
 Alpha virt. eigenvalues --    0.42803   0.44315   0.46281   0.48685   0.49884
 Alpha virt. eigenvalues --    0.50934   0.52310   0.54033   0.54584   0.56552
 Alpha virt. eigenvalues --    0.56997   0.58305   0.58893   0.59951   0.60513
 Alpha virt. eigenvalues --    0.61167   0.62528   0.64173   0.65455   0.66182
 Alpha virt. eigenvalues --    0.69508   0.72579   0.73735   0.75177   0.77105
 Alpha virt. eigenvalues --    0.79430   0.80264   0.81321   0.81950   0.82938
 Alpha virt. eigenvalues --    0.83435   0.84058   0.85346   0.87218   0.87404
 Alpha virt. eigenvalues --    0.89713   0.90242   0.91963   0.93296   0.95050
 Alpha virt. eigenvalues --    0.95824   0.96639   0.98990   1.00596   1.02249
 Alpha virt. eigenvalues --    1.05005   1.08731   1.09897   1.11394   1.12841
 Alpha virt. eigenvalues --    1.15452   1.16998   1.18982   1.23714   1.26513
 Alpha virt. eigenvalues --    1.28437   1.30666   1.32995   1.35320   1.35526
 Alpha virt. eigenvalues --    1.38840   1.40726   1.43063   1.43144   1.46763
 Alpha virt. eigenvalues --    1.53770   1.54469   1.57969   1.61817   1.64509
 Alpha virt. eigenvalues --    1.70624   1.76317   1.77528   1.81028   1.82715
 Alpha virt. eigenvalues --    1.83364   1.84388   1.88178   1.90838   1.91166
 Alpha virt. eigenvalues --    1.92103   1.92771   1.93331   1.96633   1.97500
 Alpha virt. eigenvalues --    1.98813   2.00246   2.00710   2.01333   2.04605
 Alpha virt. eigenvalues --    2.05296   2.07346   2.08094   2.10557   2.12315
 Alpha virt. eigenvalues --    2.15954   2.19155   2.20053   2.23205   2.29225
 Alpha virt. eigenvalues --    2.30620   2.32451   2.34441   2.40424   2.41309
 Alpha virt. eigenvalues --    2.41942   2.43072   2.44791   2.46974   2.47877
 Alpha virt. eigenvalues --    2.50522   2.51859   2.54773   2.57521   2.59274
 Alpha virt. eigenvalues --    2.60023   2.64753   2.65746   2.67250   2.69695
 Alpha virt. eigenvalues --    2.71093   2.73954   2.75616   2.78095   2.82045
 Alpha virt. eigenvalues --    2.85398   2.88637   2.89471   2.92981   2.97758
 Alpha virt. eigenvalues --    3.06876   3.07583   3.16714   3.19589   3.21203
 Alpha virt. eigenvalues --    3.25111   3.30362   3.32486   3.36858   3.40550
 Alpha virt. eigenvalues --    3.42879   3.48967   3.52290   3.81893   4.06972
 Alpha virt. eigenvalues --    4.09056   4.14365   4.15496   4.21329   4.27204
 Alpha virt. eigenvalues --    4.31432   4.43433   4.44491   4.48244   4.65693
 Alpha virt. eigenvalues --    4.83640
          Condensed to atoms (all electrons):
               1          2          3          4          5          6
     1  C    4.725829   0.214341  -0.023179   0.004415   0.007835  -0.000206
     2  O    0.214341   8.236171   0.266663  -0.084968  -0.098597  -0.001979
     3  C   -0.023179   0.266663   4.350308   0.568825   0.343871  -0.038299
     4  O    0.004415  -0.084968   0.568825   8.033158  -0.069669  -0.005580
     5  C    0.007835  -0.098597   0.343871  -0.069669   5.168574   0.362380
     6  C   -0.000206  -0.001979  -0.038299  -0.005580   0.362380   4.709709
     7  C   -0.000052   0.000317  -0.003418   0.002469  -0.062826   0.548711
     8  C   -0.000001   0.000003   0.000128   0.000024   0.006661  -0.027736
     9  C    0.000001   0.000000   0.000021   0.000002   0.000463  -0.034053
    10  Cl  -0.000000  -0.000000   0.000000  -0.000000   0.000008   0.000706
    11  C   -0.000003   0.000023   0.000072   0.000004   0.006934  -0.027057
    12  C   -0.000165   0.002657  -0.004621  -0.000004  -0.059391   0.551027
    13  H    0.385498  -0.032531  -0.004601   0.004987   0.000003   0.000030
    14  H    0.384483  -0.032055  -0.006152   0.007373   0.000094  -0.000016
    15  H    0.388588  -0.032962   0.004889   0.000714  -0.000126  -0.000002
    16  H   -0.000208   0.002985  -0.030379   0.000104   0.367215  -0.024299
    17  H   -0.000210   0.004353  -0.028464   0.002846   0.353941  -0.026427
    18  H   -0.000002   0.000026   0.000338   0.001674  -0.010320  -0.042171
    19  H    0.000000   0.000000  -0.000001  -0.000000  -0.000187   0.003931
    20  H    0.000000  -0.000000  -0.000002   0.000000  -0.000183   0.003943
    21  H    0.000002   0.001613  -0.000062   0.000005  -0.010421  -0.042525
               7          8          9         10         11         12
     1  C   -0.000052  -0.000001   0.000001  -0.000000  -0.000003  -0.000165
     2  O    0.000317   0.000003   0.000000  -0.000000   0.000023   0.002657
     3  C   -0.003418   0.000128   0.000021   0.000000   0.000072  -0.004621
     4  O    0.002469   0.000024   0.000002  -0.000000   0.000004  -0.000004
     5  C   -0.062826   0.006661   0.000463   0.000008   0.006934  -0.059391
     6  C    0.548711  -0.027736  -0.034053   0.000706  -0.027057   0.551027
     7  C    4.876805   0.507838  -0.036002   0.004658  -0.045115  -0.039789
     8  C    0.507838   4.865609   0.531915  -0.070850  -0.033543  -0.045299
     9  C   -0.036002   0.531915   4.980647   0.235192   0.533046  -0.036068
    10  Cl   0.004658  -0.070850   0.235192  16.916055  -0.071148   0.004691
    11  C   -0.045115  -0.033543   0.533046  -0.071148   4.869301   0.504590
    12  C   -0.039789  -0.045299  -0.036068   0.004691   0.504590   4.881606
    13  H    0.000004  -0.000000  -0.000000   0.000000   0.000000   0.000052
    14  H   -0.000002  -0.000000   0.000000  -0.000000   0.000000   0.000005
    15  H   -0.000001   0.000000  -0.000000  -0.000000  -0.000000  -0.000001
    16  H   -0.006720   0.000163   0.000015  -0.000000  -0.000195   0.004196
    17  H    0.004994  -0.000179   0.000010  -0.000000   0.000194  -0.007142
    18  H    0.370946  -0.040776   0.005092  -0.000178   0.000516   0.005670
    19  H   -0.032155   0.371274  -0.044550  -0.001293   0.004308   0.000880
    20  H    0.000840   0.004350  -0.044383  -0.001293   0.370954  -0.032574
    21  H    0.005769   0.000509   0.005172  -0.000182  -0.042358   0.370336
              13         14         15         16         17         18
     1  C    0.385498   0.384483   0.388588  -0.000208  -0.000210  -0.000002
     2  O   -0.032531  -0.032055  -0.032962   0.002985   0.004353   0.000026
     3  C   -0.004601  -0.006152   0.004889  -0.030379  -0.028464   0.000338
     4  O    0.004987   0.007373   0.000714   0.000104   0.002846   0.001674
     5  C    0.000003   0.000094  -0.000126   0.367215   0.353941  -0.010320
     6  C    0.000030  -0.000016  -0.000002  -0.024299  -0.026427  -0.042171
     7  C    0.000004  -0.000002  -0.000001  -0.006720   0.004994   0.370946
     8  C   -0.000000  -0.000000   0.000000   0.000163  -0.000179  -0.040776
     9  C   -0.000000   0.000000  -0.000000   0.000015   0.000010   0.005092
    10  Cl   0.000000  -0.000000  -0.000000  -0.000000  -0.000000  -0.000178
    11  C    0.000000   0.000000  -0.000000  -0.000195   0.000194   0.000516
    12  C    0.000052   0.000005  -0.000001   0.004196  -0.007142   0.005670
    13  H    0.586716  -0.038071  -0.033401  -0.000002   0.000019   0.000000
    14  H   -0.038071   0.585022  -0.032606   0.000027  -0.000022  -0.000000
    15  H   -0.033401  -0.032606   0.583845   0.000003  -0.000065  -0.000000
    16  H   -0.000002   0.000027   0.000003   0.576334  -0.028395   0.004370
    17  H    0.000019  -0.000022  -0.000065  -0.028395   0.591304   0.000109
    18  H    0.000000  -0.000000  -0.000000   0.004370   0.000109   0.608056
    19  H   -0.000000   0.000000   0.000000  -0.000007   0.000002  -0.006338
    20  H   -0.000000  -0.000000   0.000000   0.000003  -0.000008   0.000017
    21  H    0.000002   0.000003  -0.000007   0.000071   0.004594  -0.000205
              19         20         21
     1  C    0.000000   0.000000   0.000002
     2  O    0.000000  -0.000000   0.001613
     3  C   -0.000001  -0.000002  -0.000062
     4  O   -0.000000   0.000000   0.000005
     5  C   -0.000187  -0.000183  -0.010421
     6  C    0.003931   0.003943  -0.042525
     7  C   -0.032155   0.000840   0.005769
     8  C    0.371274   0.004350   0.000509
     9  C   -0.044550  -0.044383   0.005172
    10  Cl  -0.001293  -0.001293  -0.000182
    11  C    0.004308   0.370954  -0.042358
    12  C    0.000880  -0.032574   0.370336
    13  H   -0.000000  -0.000000   0.000002
    14  H    0.000000  -0.000000   0.000003
    15  H    0.000000   0.000000  -0.000007
    16  H   -0.000007   0.000003   0.000071
    17  H    0.000002  -0.000008   0.004594
    18  H   -0.006338   0.000017  -0.000205
    19  H    0.594881  -0.000195   0.000018
    20  H   -0.000195   0.597464  -0.006475
    21  H    0.000018  -0.006475   0.618787
 Mulliken charges:
               1
     1  C   -0.086968
     2  O   -0.446059
     3  C    0.604062
     4  O   -0.466379
     5  C   -0.306260
     6  C    0.089912
     7  C   -0.097270
     8  C   -0.070090
     9  C   -0.096520
    10  Cl  -0.016364
    11  C   -0.070523
    12  C   -0.100655
    13  H    0.131296
    14  H    0.131916
    15  H    0.121131
    16  H    0.134718
    17  H    0.128545
    18  H    0.103177
    19  H    0.109433
    20  H    0.107543
    21  H    0.095356
 Sum of Mulliken charges =  -0.00000
 Mulliken charges with hydrogens summed into heavy atoms:
               1
     1  C    0.297375
     2  O   -0.446059
     3  C    0.604062
     4  O   -0.466379
     5  C   -0.042996
     6  C    0.089912
     7  C    0.005907
     8  C    0.039343
     9  C   -0.096520
    10  Cl  -0.016364
    11  C    0.037019
    12  C   -0.005300
 Electronic spatial extent (au):  <R**2>=           3089.0335
 Charge=             -0.0000 electrons
 Dipole moment (field-independent basis, Debye):
    X=             -1.5892    Y=             -1.1083    Z=              1.3002  Tot=              2.3334
 Quadrupole moment (field-independent basis, Debye-Ang):
   XX=            -78.6087   YY=            -71.3655   ZZ=            -75.7235
   XY=              6.7898   XZ=             -2.0277   YZ=              1.5291
 Traceless Quadrupole moment (field-independent basis, Debye-Ang):
   XX=             -3.3762   YY=              3.8671   ZZ=             -0.4909
   XY=              6.7898   XZ=             -2.0277   YZ=              1.5291
 Octapole moment (field-independent basis, Debye-Ang**2):
  XXX=            -53.4885  YYY=             -4.6499  ZZZ=             -4.0853  XYY=             -3.4052
  XXY=            -23.3057  XXZ=             -0.8965  XZZ=             -5.9264  YZZ=             -5.8303
  YYZ=             -0.8303  XYZ=            -17.9945
 Hexadecapole moment (field-independent basis, Debye-Ang**3):
 XXXX=          -3045.6168 YYYY=           -478.8904 ZZZZ=           -333.8176 XXXY=             87.5014
 XXXZ=              7.6398 YYYX=             15.8560 YYYZ=             -6.8429 ZZZX=             -6.5761
 ZZZY=             -2.1606 XXYY=           -577.6137 XXZZ=           -574.5070 YYZZ=           -136.3752
 XXYZ=             32.7266 YYXZ=             -2.6794 ZZXY=              9.1566
 N-N= 7.414158013106D+02 E-N=-3.737919892336D+03  KE= 9.533853449282D+02
 No NMR shielding tensors so no spin-rotation constants.
 Leave Link  601 at Tue Sep 17 09:42:45 2024, MaxMem=  1342177280 cpu:               0.4 elap:               0.1
 (Enter /groups/ReismanLab/Software/Gaussian16_RevC/Linux_Binary_AVX2-enabled-CPU/g16/l701.exe)
 ... and contract with generalized density number  0.
 Compute integral first derivatives.
 R6Disp: Adding Grimme-D3(BJ) dispersion energy 1st derivatives to the gradient.
 Leave Link  701 at Tue Sep 17 09:42:45 2024, MaxMem=  1342177280 cpu:               0.5 elap:               0.1
 (Enter /groups/ReismanLab/Software/Gaussian16_RevC/Linux_Binary_AVX2-enabled-CPU/g16/l702.exe)
 L702 exits ... SP integral derivatives will be done elsewhere.
 Leave Link  702 at Tue Sep 17 09:42:45 2024, MaxMem=  1342177280 cpu:               0.0 elap:               0.0
 (Enter /groups/ReismanLab/Software/Gaussian16_RevC/Linux_Binary_AVX2-enabled-CPU/g16/l703.exe)
 Integral derivatives from FoFJK, PRISM(SPDF).
 Compute integral first derivatives, UseDBF=F ICtDFT=           0.
 Calling FoFJK, ICntrl=      2127 FMM=F ISym2X=0 I1Cent= 0 IOpClX= 0 NMat=1 NMatS=1 NMatT=0.
 FoFJK:  IHMeth= 1 ICntrl=    2127 DoSepK=F KAlg= 0 I1Cent=           0 FoldK=F
 IRaf=         0 NMat=       1 IRICut=       1 DoRegI=T DoRafI=F ISym2E= 0 IDoP0=0 IntGTp=1.
 FoFCou: FMM=F IPFlag=           0 FMFlag=      100000 FMFlg1=         800
         NFxFlg=           0 DoJE=F BraDBF=F KetDBF=F FulRan=T
         wScrn=  0.000000 ICntrl=      2127 IOpCl=  0 I1Cent=           0 NGrid=           0
         NMat0=    1 NMatS0=      1 NMatT0=    0 NMatD0=    1 NMtDS0=    0 NMtDT0=    0
 Symmetry not used in FoFCou.
 Leave Link  703 at Tue Sep 17 09:42:49 2024, MaxMem=  1342177280 cpu:              26.7 elap:               3.4
 (Enter /groups/ReismanLab/Software/Gaussian16_RevC/Linux_Binary_AVX2-enabled-CPU/g16/l716.exe)
 Dipole        =-6.25258905D-01-4.36054483D-01 5.11533365D-01
 ***** Axes restored to original set *****
 -------------------------------------------------------------------
 Center     Atomic                   Forces (Hartrees/Bohr)
 Number     Number              X              Y              Z
 -------------------------------------------------------------------
      1        6           0.003336685   -0.000346140   -0.006589529
      2        8          -0.002431386    0.010106813    0.010382803
      3        6          -0.000904816   -0.002686283    0.012684812
      4        8           0.004150795   -0.010980281   -0.015285492
      5        6           0.000977734    0.002561066   -0.004161131
      6        6           0.002701982   -0.002006761    0.004947873
      7        6           0.001992684   -0.003023627   -0.000652511
      8        6          -0.003329164   -0.003805500   -0.003569567
      9        6           0.003741462   -0.000713330    0.000932998
     10       17          -0.012810396    0.002731445   -0.003741301
     11        6          -0.002758174    0.005478585    0.001341032
     12        6           0.001952707    0.002067519    0.002211276
     13        1           0.000170054    0.000463059   -0.001433443
     14        1           0.000907723    0.000272801   -0.000882013
     15        1           0.000144987    0.001659834    0.000652904
     16        1           0.001863138   -0.000741957    0.000648748
     17        1           0.000506740   -0.000856388    0.002637995
     18        1           0.001909356   -0.003741814   -0.001240743
     19        1          -0.002342212   -0.002414646   -0.002100558
     20        1          -0.002009803    0.003258566    0.000943814
     21        1           0.002229904    0.002717039    0.002272032
 -------------------------------------------------------------------
 Cartesian Forces:  Max     0.015285492 RMS     0.004479748
 Leave Link  716 at Tue Sep 17 09:42:49 2024, MaxMem=  1342177280 cpu:               0.0 elap:               0.1
 (Enter /groups/ReismanLab/Software/Gaussian16_RevC/Linux_Binary_AVX2-enabled-CPU/g16/l103.exe)

 GradGradGradGradGradGradGradGradGradGradGradGradGradGradGradGradGradGrad
 Berny optimization.
 FormGI is forming the generalized inverse of G from B-inverse, IUseBI=4.
 Internal  Forces:  Max     0.019252165 RMS     0.004107244
 Search for a local minimum.
 Step number   1 out of a maximum of  106
 All quantities printed in internal units (Hartrees-Bohrs-Radians)
 RMS Force = .41072D-02 SwitMx=.10000D-02 MixMth= 1
 Mixed Optimization -- RFO/linear search
 Second derivative matrix not updated -- first step.
 ITU=  0
     Eigenvalues ---    0.00530   0.00683   0.01026   0.01405   0.01611
     Eigenvalues ---    0.02239   0.02267   0.02274   0.02279   0.02288
     Eigenvalues ---    0.02290   0.02298   0.02300   0.02536   0.05718
     Eigenvalues ---    0.06702   0.08954   0.10308   0.10643   0.12611
     Eigenvalues ---    0.16000   0.16000   0.16000   0.16000   0.16000
     Eigenvalues ---    0.16000   0.16000   0.21999   0.22010   0.22976
     Eigenvalues ---    0.23994   0.24973   0.24991   0.25000   0.25000
     Eigenvalues ---    0.25000   0.30575   0.31725   0.32598   0.34615
     Eigenvalues ---    0.34617   0.34891   0.34960   0.35188   0.36022
     Eigenvalues ---    0.36066   0.36157   0.36168   0.42208   0.43498
     Eigenvalues ---    0.43547   0.47637   0.47787   0.48202   0.48568
     Eigenvalues ---    0.58073   1.04541
 RFO step:  Lambda=-3.80156454D-03 EMin= 5.29910728D-03
 Linear search not attempted -- first point.
 Iteration  1 RMS(Cart)=  0.03373868 RMS(Int)=  0.00038173
 Iteration  2 RMS(Cart)=  0.00075359 RMS(Int)=  0.00016595
 Iteration  3 RMS(Cart)=  0.00000030 RMS(Int)=  0.00016595
 ITry= 1 IFail=0 DXMaxC= 1.02D-01 DCOld= 1.00D+10 DXMaxT= 3.00D-01 DXLimC= 3.00D+00 Rises=F
 Variable       Old X    -DE/DX   Delta X   Delta X   Delta X     New X
                                 (Linear)    (Quad)   (Total)
    R1        2.68658   0.00940   0.00000   0.02207   0.02207   2.70865
    R2        2.06301   0.00112   0.00000   0.00320   0.00320   2.06621
    R3        2.06304   0.00075   0.00000   0.00215   0.00215   2.06519
    R4        2.05371   0.00177   0.00000   0.00497   0.00497   2.05867
    R5        2.52498   0.01245   0.00000   0.02130   0.02130   2.54629
    R6        2.26873   0.01925   0.00000   0.01835   0.01835   2.28708
    R7        2.86831   0.00298   0.00000   0.00961   0.00961   2.87792
    R8        2.84649   0.00802   0.00000   0.02499   0.02499   2.87148
    R9        2.05853   0.00106   0.00000   0.00302   0.00302   2.06154
   R10        2.05740   0.00187   0.00000   0.00529   0.00529   2.06269
   R11        2.62573   0.00937   0.00000   0.01958   0.01958   2.64531
   R12        2.62487   0.00950   0.00000   0.01983   0.01983   2.64471
   R13        2.61313   0.01048   0.00000   0.02139   0.02139   2.63452
   R14        2.03979   0.00438   0.00000   0.01202   0.01202   2.05180
   R15        2.61865   0.00911   0.00000   0.01882   0.01881   2.63747
   R16        2.03820   0.00395   0.00000   0.01081   0.01081   2.04901
   R17        3.26764   0.01362   0.00000   0.04131   0.04131   3.30894
   R18        2.61827   0.00913   0.00000   0.01886   0.01886   2.63713
   R19        2.61364   0.01049   0.00000   0.02145   0.02145   2.63509
   R20        2.03836   0.00393   0.00000   0.01074   0.01074   2.04911
   R21        2.04047   0.00418   0.00000   0.01149   0.01149   2.05196
    A1        1.92347   0.00139   0.00000   0.00875   0.00873   1.93220
    A2        1.92480   0.00152   0.00000   0.00978   0.00975   1.93455
    A3        1.85506  -0.00098   0.00000  -0.00678  -0.00677   1.84829
    A4        1.89907  -0.00091   0.00000  -0.00406  -0.00411   1.89496
    A5        1.92982  -0.00055   0.00000  -0.00441  -0.00440   1.92542
    A6        1.93163  -0.00041   0.00000  -0.00306  -0.00306   1.92857
    A7        2.02940  -0.00308   0.00000  -0.01212  -0.01212   2.01728
    A8        2.16551   0.00035   0.00000   0.00061  -0.00026   2.16526
    A9        1.93240   0.00029   0.00000   0.00039  -0.00046   1.93194
   A10        2.18473  -0.00067   0.00000  -0.00334  -0.00419   2.18054
   A11        1.86267   0.00687   0.00000   0.03624   0.03605   1.89872
   A12        1.89613  -0.00331   0.00000  -0.02055  -0.02064   1.87549
   A13        1.90636  -0.00065   0.00000   0.00633   0.00604   1.91240
   A14        1.93130  -0.00052   0.00000   0.00171   0.00185   1.93315
   A15        1.93326  -0.00183   0.00000  -0.00191  -0.00225   1.93100
   A16        1.93231  -0.00036   0.00000  -0.02011  -0.02018   1.91213
   A17        2.09956   0.00046   0.00000   0.00182   0.00181   2.10138
   A18        2.10431   0.00118   0.00000   0.00467   0.00466   2.10897
   A19        2.07841  -0.00164   0.00000  -0.00677  -0.00677   2.07164
   A20        2.10730   0.00101   0.00000   0.00428   0.00428   2.11159
   A21        2.08745  -0.00054   0.00000  -0.00234  -0.00234   2.08511
   A22        2.08842  -0.00047   0.00000  -0.00196  -0.00197   2.08645
   A23        2.08283   0.00005   0.00000   0.00008   0.00008   2.08291
   A24        2.10460   0.00032   0.00000   0.00209   0.00209   2.10669
   A25        2.09576  -0.00037   0.00000  -0.00217  -0.00217   2.09359
   A26        2.08824   0.00016   0.00000   0.00069   0.00069   2.08893
   A27        2.10755  -0.00044   0.00000  -0.00182  -0.00183   2.10572
   A28        2.08740   0.00028   0.00000   0.00113   0.00113   2.08853
   A29        2.08270  -0.00003   0.00000  -0.00025  -0.00025   2.08245
   A30        2.09562  -0.00035   0.00000  -0.00211  -0.00211   2.09351
   A31        2.10487   0.00038   0.00000   0.00236   0.00236   2.10722
   A32        2.10747   0.00105   0.00000   0.00452   0.00452   2.11200
   A33        2.08917  -0.00063   0.00000  -0.00288  -0.00289   2.08629
   A34        2.08654  -0.00042   0.00000  -0.00164  -0.00164   2.08490
    D1        1.11291   0.00031   0.00000  -0.00179  -0.00174   1.11117
    D2       -0.98412  -0.00042   0.00000  -0.00861  -0.00866  -0.99278
    D3       -3.07865  -0.00018   0.00000  -0.00628  -0.00628  -3.08493
    D4        0.02499  -0.00006   0.00000  -0.02083  -0.02088   0.00410
    D5       -3.08296   0.00099   0.00000   0.05271   0.05277  -3.03020
    D6        1.54817  -0.00059   0.00000  -0.04053  -0.04028   1.50790
    D7       -2.65206   0.00084   0.00000  -0.02934  -0.02942  -2.68147
    D8       -0.54263  -0.00200   0.00000  -0.06251  -0.06255  -0.60518
    D9       -1.55933   0.00045   0.00000   0.03390   0.03406  -1.52526
   D10        0.52363   0.00188   0.00000   0.04509   0.04492   0.56855
   D11        2.63306  -0.00096   0.00000   0.01192   0.01178   2.64484
   D12        1.48190  -0.00103   0.00000  -0.02359  -0.02359   1.45832
   D13       -1.61375  -0.00086   0.00000  -0.01640  -0.01637  -1.63013
   D14       -0.57810  -0.00082   0.00000  -0.02117  -0.02125  -0.59935
   D15        2.60943  -0.00065   0.00000  -0.01398  -0.01404   2.59539
   D16       -2.72792   0.00128   0.00000   0.00465   0.00468  -2.72324
   D17        0.45961   0.00146   0.00000   0.01184   0.01190   0.47150
   D18       -3.11084   0.00021   0.00000   0.00964   0.00962  -3.10121
   D19        0.02479   0.00011   0.00000   0.00585   0.00584   0.03063
   D20       -0.01450   0.00011   0.00000   0.00285   0.00285  -0.01165
   D21        3.12112   0.00001   0.00000  -0.00093  -0.00093   3.12019
   D22        3.11192  -0.00024   0.00000  -0.01026  -0.01026   3.10166
   D23       -0.02936  -0.00014   0.00000  -0.00667  -0.00667  -0.03603
   D24        0.01572  -0.00012   0.00000  -0.00338  -0.00338   0.01233
   D25       -3.12556  -0.00002   0.00000   0.00021   0.00021  -3.12536
   D26        0.00448  -0.00002   0.00000  -0.00056  -0.00057   0.00391
   D27       -3.13869   0.00001   0.00000   0.00038   0.00038  -3.13831
   D28       -3.13114   0.00008   0.00000   0.00323   0.00322  -3.12792
   D29        0.00887   0.00011   0.00000   0.00417   0.00417   0.01304
   D30       -3.13858   0.00005   0.00000   0.00170   0.00170  -3.13687
   D31        0.00459  -0.00003   0.00000  -0.00118  -0.00118   0.00341
   D32        0.00459   0.00002   0.00000   0.00076   0.00076   0.00535
   D33       -3.13543  -0.00006   0.00000  -0.00212  -0.00213  -3.13755
   D34       -0.00341   0.00002   0.00000   0.00065   0.00066  -0.00275
   D35        3.13692   0.00007   0.00000   0.00242   0.00242   3.13935
   D36        3.13976  -0.00006   0.00000  -0.00223  -0.00222   3.13754
   D37       -0.00309  -0.00001   0.00000  -0.00046  -0.00046  -0.00355
   D38       -0.00688   0.00005   0.00000   0.00161   0.00162  -0.00526
   D39        3.13440  -0.00005   0.00000  -0.00197  -0.00197   3.13243
   D40        3.13598  -0.00000   0.00000  -0.00016  -0.00016   3.13582
   D41       -0.00593  -0.00010   0.00000  -0.00374  -0.00374  -0.00967
         Item               Value     Threshold  Converged?
 Maximum Force            0.019252     0.000450     NO 
 RMS     Force            0.004107     0.000300     NO 
 Maximum Displacement     0.102268     0.001800     NO 
 RMS     Displacement     0.033738     0.001200     NO 
 Predicted change in Energy=-1.947725D-03
 Lowest energy point so far.  Saving SCF results.
 GradGradGradGradGradGradGradGradGradGradGradGradGradGradGradGradGradGrad

 Leave Link  103 at Tue Sep 17 09:42:49 2024, MaxMem=  1342177280 cpu:               0.1 elap:               0.0
 (Enter /groups/ReismanLab/Software/Gaussian16_RevC/Linux_Binary_AVX2-enabled-CPU/g16/l202.exe)
                          Input orientation:                          
 ---------------------------------------------------------------------
 Center     Atomic      Atomic             Coordinates (Angstroms)
 Number     Number       Type             X           Y           Z
 ---------------------------------------------------------------------
      1          6           0        3.756240    1.486407   -0.950941
      2          8           0        3.019476    0.923767    0.142276
      3          6           0        2.703518   -0.380470    0.020936
      4          8           0        3.006936   -1.065848   -0.929302
      5          6           0        1.793569   -0.821907    1.159552
      6          6           0        0.352716   -0.528474    0.776423
      7          6           0       -0.367513   -1.430628   -0.015370
      8          6           0       -1.673989   -1.151510   -0.413870
      9          6           0       -2.267747    0.048406   -0.019411
     10         17           0       -3.910712    0.405017   -0.508856
     11          6           0       -1.565425    0.966301    0.762671
     12          6           0       -0.259144    0.672742    1.152401
     13          1           0        3.162498    1.465316   -1.868836
     14          1           0        4.682011    0.931542   -1.122391
     15          1           0        3.975076    2.514726   -0.665518
     16          1           0        1.945107   -1.892650    1.303283
     17          1           0        2.065165   -0.288661    2.072417
     18          1           0        0.102093   -2.357314   -0.330991
     19          1           0       -2.228756   -1.854950   -1.024679
     20          1           0       -2.037050    1.896028    1.060957
     21          1           0        0.292433    1.389122    1.753762
 ---------------------------------------------------------------------
                    Distance matrix (angstroms):
                    1          2          3          4          5
     1  C    0.000000
     2  O    1.433356   0.000000
     3  C    2.353295   1.347437   0.000000
     4  O    2.660062   2.259869   1.210272   0.000000
     5  C    3.692502   2.363277   1.522931   2.427978   0.000000
     6  C    4.315959   3.102056   2.473648   3.200492   1.519522
     7  C    5.137093   4.127920   3.245825   3.515002   2.534020
     8  C    6.060894   5.161849   4.466109   4.709996   3.822075
     9  C    6.262908   5.361635   4.989894   5.467334   4.317602
    10  Cl   7.755450   6.980013   6.681745   7.084778   6.068587
    11  C    5.614899   4.626879   4.537382   5.281940   3.825969
    12  C    4.605367   3.439871   3.341681   4.245405   2.539224
    13  H    1.093391   2.087654   2.681199   2.704388   4.034413
    14  H    1.092851   2.088892   2.634959   2.613949   4.077370
    15  H    1.089402   2.024068   3.235775   3.718519   4.384401
    16  H    4.447443   3.230234   2.122802   2.606822   1.090922
    17  H    3.892466   2.471059   2.150464   3.240567   1.091531
    18  H    5.339598   4.415947   3.286209   3.234806   2.727688
    19  H    6.854946   6.052024   5.253069   5.295682   4.692243
    20  H    6.146359   5.230460   5.360697   6.178643   4.697928
    21  H    4.395775   3.201594   3.456511   4.538087   2.737726
                    6          7          8          9         10
     6  C    0.000000
     7  C    1.399838   0.000000
     8  C    2.431565   1.394127   0.000000
     9  C    2.798745   2.407997   1.395687   0.000000
    10  Cl   4.549744   4.020869   2.726670   1.751018   0.000000
    11  C    2.431832   2.790271   2.425110   1.395507   2.726205
    12  C    1.399519   2.408235   2.789782   2.407784   4.020622
    13  H    4.343669   4.927759   5.688260   5.908939   7.280390
    14  H    4.947720   5.683576   6.726057   7.091942   8.630675
    15  H    4.945882   5.903100   6.739180   6.743369   8.164623
    16  H    2.162004   2.701947   4.073789   4.823417   6.546277
    17  H    2.160924   3.403067   4.572462   4.823224   6.546394
    18  H    2.152633   1.085768   2.148325   3.391270   4.874907
    19  H    3.415773   2.159394   1.084289   2.152870   2.864001
    20  H    3.416161   3.874594   3.405057   2.152702   2.863222
    21  H    2.153138   3.393574   3.875597   3.390603   4.873842
                   11         12         13         14         15
    11  C    0.000000
    12  C    1.394430   0.000000
    13  H    5.433884   4.632890   0.000000
    14  H    6.525728   5.445794   1.775110   0.000000
    15  H    5.927435   4.962494   1.791513   1.793031   0.000000
    16  H    4.559571   3.385664   4.777061   4.620671   5.236593
    17  H    4.058516   2.678272   4.451297   4.306226   4.359246
    18  H    3.875968   3.392960   5.132595   5.693727   6.232870
    19  H    3.405009   3.874052   6.387675   7.452033   7.596749
    20  H    1.084342   2.160032   5.983686   7.130430   6.285631
    21  H    2.147714   1.085851   4.622368   5.267830   4.547720
                   16         17         18         19         20
    16  H    0.000000
    17  H    1.782908   0.000000
    18  H    2.506683   3.729524   0.000000
    19  H    4.779326   5.521144   2.483230   0.000000
    20  H    5.501851   4.756478   4.960279   4.296099   0.000000
    21  H    3.701930   2.461519   4.291643   4.959852   2.482624
                   21
    21  H    0.000000
 Stoichiometry    C9H9ClO2
 Framework group  C1[X(C9H9ClO2)]
 Deg. of freedom    57
 Full point group                 C1      NOp   1
 RotChk:  IX=0 Diff= 7.73D-03
 Largest Abelian subgroup         C1      NOp   1
 Largest concise Abelian subgroup C1      NOp   1
                         Standard orientation:                         
 ---------------------------------------------------------------------
 Center     Atomic      Atomic             Coordinates (Angstroms)
 Number     Number       Type             X           Y           Z
 ---------------------------------------------------------------------
      1          6           0       -3.687417   -1.454294   -0.922582
      2          8           0       -2.939465   -0.883327    0.158655
      3          6           0       -2.610474    0.415570    0.016460
      4          8           0       -2.911349    1.089965   -0.942406
      5          6           0       -1.690395    0.864201    1.144070
      6          6           0       -0.254584    0.549965    0.758520
      7          6           0        0.471164    1.432660   -0.049989
      8          6           0        1.772682    1.133924   -0.450484
      9          6           0        2.355774   -0.066210   -0.041063
     10         17           0        3.992503   -0.447318   -0.532935
     11          6           0        1.647720   -0.964977    0.757885
     12          6           0        0.346505   -0.651934    1.149395
     13          1           0       -3.097986   -1.453050   -1.843491
     14          1           0       -4.608160   -0.892305   -1.097867
     15          1           0       -3.915603   -2.475913   -0.620883
     16          1           0       -1.830014    1.938491    1.272597
     17          1           0       -1.963087    0.347418    2.066031
     18          1           0        0.009742    2.359468   -0.377112
     19          1           0        2.331785    1.822362   -1.074295
     20          1           0        2.111044   -1.895104    1.067711
     21          1           0       -0.209589   -1.353483    1.763938
 ---------------------------------------------------------------------
 Rotational constants (GHZ):           1.9348625           0.3573824           0.3421264
 Leave Link  202 at Tue Sep 17 09:42:49 2024, MaxMem=  1342177280 cpu:               0.0 elap:               0.0
 (Enter /groups/ReismanLab/Software/Gaussian16_RevC/Linux_Binary_AVX2-enabled-CPU/g16/l301.exe)
 Standard basis: 6-31G(d,p) (6D, 7F)
 Ernie: Thresh=  0.10000D-02 Tol=  0.10000D-05 Strict=F.
 There are   229 symmetry adapted cartesian basis functions of A   symmetry.
 There are   229 symmetry adapted basis functions of A   symmetry.
   229 basis functions,   423 primitive gaussians,   229 cartesian basis functions
    48 alpha electrons       48 beta electrons
       nuclear repulsion energy       735.0415423913 Hartrees.
 IExCor=  402 DFT=T Ex+Corr=B3LYP ExCW=0 ScaHFX=  0.200000
 ScaDFX=  0.800000  0.720000  1.000000  0.810000 ScalE2=  1.000000  1.000000
 IRadAn=      5 IRanWt=     -1 IRanGd=            0 ICorTp=0 IEmpDi=141
 NAtoms=   21 NActive=   21 NUniq=   21 SFac= 1.00D+00 NAtFMM=   60 NAOKFM=F Big=F
 Integral buffers will be    131072 words long.
 Raffenetti 2 integral format.
 Two-electron integral symmetry is turned on.
 R6Disp:  Grimme-D3(BJ) Dispersion energy=       -0.0399419039 Hartrees.
 Nuclear repulsion after empirical dispersion term =      735.0016004875 Hartrees.
 Leave Link  301 at Tue Sep 17 09:42:49 2024, MaxMem=  1342177280 cpu:               0.1 elap:               0.1
 (Enter /groups/ReismanLab/Software/Gaussian16_RevC/Linux_Binary_AVX2-enabled-CPU/g16/l302.exe)
 NPDir=0 NMtPBC=     1 NCelOv=     1 NCel=       1 NClECP=     1 NCelD=      1
         NCelK=      1 NCelE2=     1 NClLst=     1 CellRange=     0.0.
 One-electron integrals computed using PRISM.
 One-electron integral symmetry used in STVInt
 NBasis=   229 RedAO= T EigKep=  4.51D-04  NBF=   229
 NBsUse=   229 1.00D-06 EigRej= -1.00D+00 NBFU=   229
 Precomputing XC quadrature grid using
 IXCGrd= 4 IRadAn=           5 IRanWt=          -1 IRanGd=           0 AccXCQ= 0.00D+00.
 Generated NRdTot=       0 NPtTot=           0 NUsed=           0 NTot=          32
 NSgBfM=   227   227   227   227   227 MxSgAt=    21 MxSgA2=    21.
 Leave Link  302 at Tue Sep 17 09:42:49 2024, MaxMem=  1342177280 cpu:               0.8 elap:               0.2
 (Enter /groups/ReismanLab/Software/Gaussian16_RevC/Linux_Binary_AVX2-enabled-CPU/g16/l303.exe)
 DipDrv:  MaxL=1.
 Leave Link  303 at Tue Sep 17 09:42:49 2024, MaxMem=  1342177280 cpu:               0.1 elap:               0.0
 (Enter /groups/ReismanLab/Software/Gaussian16_RevC/Linux_Binary_AVX2-enabled-CPU/g16/l401.exe)
 Initial guess from the checkpoint file:  "smiles_00075_conf_0.chk"
 B after Tr=     0.000000   -0.000000   -0.000000
         Rot=    0.999998   -0.000043   -0.000093   -0.001754 Ang=  -0.20 deg.
 Guess basis will be translated and rotated to current coordinates.
 JPrj=2 DoOrth=T DoCkMO=T.
 Generating alternative initial guess.
 ExpMin= 1.43D-01 ExpMax= 2.52D+04 ExpMxC= 3.78D+03 IAcc=3 IRadAn=         5 AccDes= 0.00D+00
 Harris functional with IExCor=  402 and IRadAn=       5 diagonalized for initial guess.
 HarFok:  IExCor=  402 AccDes= 0.00D+00 IRadAn=         5 IDoV= 1 UseB2=F ITyADJ=14
 ICtDFT=  3500011 ScaDFX=  1.000000  1.000000  1.000000  1.000000
 FoFCou: FMM=F IPFlag=           0 FMFlag=      100000 FMFlg1=           0
         NFxFlg=           0 DoJE=T BraDBF=F KetDBF=T FulRan=T
         wScrn=  0.000000 ICntrl=       500 IOpCl=  0 I1Cent=   200000004 NGrid=           0
         NMat0=    1 NMatS0=      1 NMatT0=    0 NMatD0=    1 NMtDS0=    0 NMtDT0=    0
 Petite list used in FoFCou.
 Harris En= -959.039223038050    
 Leave Link  401 at Tue Sep 17 09:42:50 2024, MaxMem=  1342177280 cpu:               5.9 elap:               0.8
 (Enter /groups/ReismanLab/Software/Gaussian16_RevC/Linux_Binary_AVX2-enabled-CPU/g16/l502.exe)
 Integral symmetry usage will be decided dynamically.
 Closed shell SCF:
 Using DIIS extrapolation, IDIIS=  1040.
 NGot=  1342177280 LenX=  1342067587 LenY=  1342014705
 Requested convergence on RMS density matrix=1.00D-08 within  32 cycles.
 Requested convergence on MAX density matrix=1.00D-06.
 Requested convergence on             energy=1.00D-06.
 No special actions if energy rises.
 Fock matrices will be formed incrementally for  20 cycles.
 Integral accuracy reduced to 1.0D-05 until final iterations.

 Cycle   1  Pass 0  IDiag  1:
 FoFJK:  IHMeth= 1 ICntrl=       0 DoSepK=F KAlg= 0 I1Cent=           0 FoldK=F
 IRaf= 860000000 NMat=       1 IRICut=       1 DoRegI=T DoRafI=F ISym2E= 0 IDoP0=0 IntGTp=1.
 FoFCou: FMM=F IPFlag=           0 FMFlag=      100000 FMFlg1=           0
         NFxFlg=           0 DoJE=F BraDBF=F KetDBF=F FulRan=T
         wScrn=  0.000000 ICntrl=         0 IOpCl=  0 I1Cent=           0 NGrid=           0
         NMat0=    1 NMatS0=      1 NMatT0=    0 NMatD0=    1 NMtDS0=    0 NMtDT0=    0
 Symmetry not used in FoFCou.
 E= -959.083539929203    
 DIIS: error= 1.31D-03 at cycle   1 NSaved=   1.
 NSaved= 1 IEnMin= 1 EnMin= -959.083539929203     IErMin= 1 ErrMin= 1.31D-03
 ErrMax= 1.31D-03  0.00D+00 EMaxC= 1.00D-01 BMatC= 1.17D-03 BMatP= 1.17D-03
 IDIUse=3 WtCom= 9.87D-01 WtEn= 1.31D-02
 Coeff-Com:  0.100D+01
 Coeff-En:   0.100D+01
 Coeff:      0.100D+01
 Gap=     1.913 Goal=   None    Shift=    0.000
 GapD=    1.913 DampG=2.000 DampE=1.000 DampFc=2.0000 IDamp=-1.
[...]

            Population analysis using the SCF Density.

 **********************************************************************

 Orbital symmetries:
       Occupied  (A) (A) (A) (A) (A) (A) (A) (A) (A) (A) (A) (A)
                 (A) (A) (A) (A) (A) (A) (A) (A) (A) (A) (A) (A)
                 (A) (A) (A) (A) (A) (A) (A) (A) (A) (A) (A) (A)
                 (A) (A) (A) (A) (A) (A) (A) (A) (A) (A) (A) (A)
       Virtual   (A) (A) (A) (A) (A) (A) (A) (A) (A) (A) (A) (A)
                 (A) (A) (A) (A) (A) (A) (A) (A) (A) (A) (A) (A)
                 (A) (A) (A) (A) (A) (A) (A) (A) (A) (A) (A) (A)
                 (A) (A) (A) (A) (A) (A) (A) (A) (A) (A) (A) (A)
                 (A) (A) (A) (A) (A) (A) (A) (A) (A) (A) (A) (A)
                 (A) (A) (A) (A) (A) (A) (A) (A) (A) (A) (A) (A)
                 (A) (A) (A) (A) (A) (A) (A) (A) (A) (A) (A) (A)
                 (A) (A) (A) (A) (A) (A) (A) (A) (A) (A) (A) (A)
                 (A) (A) (A) (A) (A) (A) (A) (A) (A) (A) (A) (A)
                 (A) (A) (A) (A) (A) (A) (A) (A) (A) (A) (A) (A)
                 (A) (A) (A) (A) (A) (A) (A) (A) (A) (A) (A) (A)
                 (A) (A) (A) (A) (A) (A) (A) (A) (A) (A) (A) (A)
                 (A) (A) (A) (A) (A) (A) (A) (A) (A) (A) (A) (A)
                 (A) (A) (A) (A) (A) (A) (A) (A) (A) (A) (A) (A)
                 (A) (A) (A) (A) (A) (A) (A) (A) (A) (A) (A) (A)
                 (A) (A) (A) (A) (A) (A) (A) (A) (A) (A) (A) (A)
                 (A) (A) (A) (A) (A) (A) (A) (A) (A) (A) (A) (A)
                 (A) (A) (A) (A) (A) (A) (A) (A) (A) (A) (A) (A)
                 (A) (A) (A) (A) (A) (A) (A) (A) (A) (A) (A) (A)
                 (A) (A) (A) (A) (A) (A) (A) (A) (A) (A) (A) (A)
                 (A) (A) (A) (A) (A) (A) (A) (A) (A) (A) (A) (A)
                 (A) (A) (A) (A) (A) (A) (A) (A) (A) (A) (A) (A)
                 (A) (A) (A) (A) (A) (A) (A) (A) (A) (A) (A) (A)
                 (A) (A) (A) (A) (A) (A) (A) (A) (A) (A) (A) (A)
                 (A) (A) (A) (A) (A) (A) (A) (A) (A) (A) (A) (A)
                 (A) (A) (A) (A) (A) (A) (A) (A) (A) (A) (A) (A)
                 (A) (A) (A) (A) (A) (A) (A) (A) (A) (A) (A) (A)
                 (A) (A) (A) (A) (A) (A) (A) (A) (A) (A) (A) (A)
                 (A) (A) (A) (A) (A) (A) (A) (A) (A) (A) (A) (A)
                 (A) (A) (A) (A) (A) (A) (A) (A) (A) (A) (A) (A)
                 (A) (A) (A) (A) (A) (A) (A) (A) (A) (A) (A) (A)
                 (A) (A) (A) (A) (A) (A) (A) (A) (A) (A) (A) (A)
 The electronic state is 1-A.
 Alpha  occ. eigenvalues -- -102.64594 -19.67720 -19.62131 -10.67836 -10.60784
 Alpha  occ. eigenvalues --  -10.58846 -10.56628 -10.55894 -10.55671 -10.55620
 Alpha  occ. eigenvalues --  -10.55478 -10.55208  -9.80841  -7.53036  -7.52530
 Alpha  occ. eigenvalues --   -7.52517  -1.23598  -1.14347  -0.99637  -0.94632
 Alpha  occ. eigenvalues --   -0.88498  -0.85655  -0.82722  -0.77871  -0.70832
 Alpha  occ. eigenvalues --   -0.67688  -0.65236  -0.59699  -0.58521  -0.57180
 Alpha  occ. eigenvalues --   -0.56034  -0.54569  -0.53435  -0.50115  -0.49862
 Alpha  occ. eigenvalues --   -0.48613  -0.47670  -0.46272  -0.45430  -0.43617
 Alpha  occ. eigenvalues --   -0.42061  -0.41564  -0.39838  -0.38182  -0.37806
 Alpha  occ. eigenvalues --   -0.36052  -0.32118  -0.29758
 Alpha virt. eigenvalues --    0.00440   0.00800   0.04840   0.06487   0.07829
 Alpha virt. eigenvalues --    0.09870   0.10642   0.11665   0.12401   0.13400
 Alpha virt. eigenvalues --    0.14268   0.14531   0.15627   0.16293   0.16716
 Alpha virt. eigenvalues --    0.17907   0.18341   0.19963   0.21088   0.21981
 Alpha virt. eigenvalues --    0.23715   0.24508   0.24796   0.25201   0.25875
 Alpha virt. eigenvalues --    0.27675   0.28029   0.28469   0.28903   0.31084
 Alpha virt. eigenvalues --    0.31405   0.32966   0.33392   0.33915   0.34821
 Alpha virt. eigenvalues --    0.35374   0.35950   0.37057   0.37780   0.38141
 Alpha virt. eigenvalues --    0.38545   0.38777   0.40317   0.40834   0.41584
 Alpha virt. eigenvalues --    0.42431   0.42889   0.43719   0.44459   0.45175
 Alpha virt. eigenvalues --    0.46408   0.46625   0.47743   0.48737   0.49406
 Alpha virt. eigenvalues --    0.49716   0.49924   0.50396   0.51016   0.52371
 Alpha virt. eigenvalues --    0.53765   0.54404   0.54603   0.57246   0.57921
 Alpha virt. eigenvalues --    0.58450   0.59555   0.60056   0.61726   0.62222
 Alpha virt. eigenvalues --    0.63950   0.64608   0.65774   0.67329   0.68263
 Alpha virt. eigenvalues --    0.69536   0.70374   0.73126   0.73875   0.74501
 Alpha virt. eigenvalues --    0.75851   0.76919   0.77779   0.78194   0.80271
 Alpha virt. eigenvalues --    0.81189   0.81958   0.84808   0.85229   0.86815
 Alpha virt. eigenvalues --    0.89029   0.89834   0.90626   0.91068   0.93673
 Alpha virt. eigenvalues --    0.94291   0.94994   0.97498   0.99943   1.00313
 Alpha virt. eigenvalues --    1.02555   1.03869   1.04373   1.05107   1.06830
 Alpha virt. eigenvalues --    1.07158   1.09539   1.10814   1.12667   1.14246
 Alpha virt. eigenvalues --    1.15515   1.16955   1.20548   1.22159   1.24142
 Alpha virt. eigenvalues --    1.25250   1.25600   1.27114   1.27331   1.28542
 Alpha virt. eigenvalues --    1.30456   1.32198   1.35334   1.36439   1.38109
 Alpha virt. eigenvalues --    1.41084   1.44052   1.44859   1.48140   1.49334
 Alpha virt. eigenvalues --    1.50108   1.50412   1.52182   1.53583   1.54332
 Alpha virt. eigenvalues --    1.56373   1.56812   1.57363   1.57893   1.59960
 Alpha virt. eigenvalues --    1.60333   1.61347   1.61906   1.63562   1.63888
 Alpha virt. eigenvalues --    1.66314   1.67740   1.69458   1.71190   1.72328
 Alpha virt. eigenvalues --    1.73419   1.76057   1.77300   1.78359   1.79395
 Alpha virt. eigenvalues --    1.81736   1.83060   1.84598   1.84791   1.86198
 Alpha virt. eigenvalues --    1.88838   1.89547   1.90376   1.92234   1.93310
 Alpha virt. eigenvalues --    1.94367   1.94533   1.95796   1.98101   2.01192
 Alpha virt. eigenvalues --    2.02122   2.04792   2.05173   2.06194   2.07465
 Alpha virt. eigenvalues --    2.09578   2.10291   2.12406   2.12787   2.13732
 Alpha virt. eigenvalues --    2.14932   2.17171   2.18548   2.18818   2.19300
 Alpha virt. eigenvalues --    2.20471   2.21139   2.22321   2.24401   2.25341
 Alpha virt. eigenvalues --    2.27198   2.28051   2.28390   2.29463   2.30784
 Alpha virt. eigenvalues --    2.32449   2.32845   2.34481   2.37750   2.40102
 Alpha virt. eigenvalues --    2.41937   2.43054   2.44604   2.45118   2.48301
 Alpha virt. eigenvalues --    2.50764   2.53153   2.54595   2.55381   2.55730
 Alpha virt. eigenvalues --    2.58967   2.59957   2.61512   2.62678   2.63710
 Alpha virt. eigenvalues --    2.64524   2.64771   2.66078   2.67660   2.69993
 Alpha virt. eigenvalues --    2.70771   2.72393   2.74308   2.76086   2.76489
 Alpha virt. eigenvalues --    2.78173   2.80139   2.80955   2.81778   2.82532
 Alpha virt. eigenvalues --    2.83359   2.85889   2.87991   2.89394   2.91018
 Alpha virt. eigenvalues --    2.91713   2.92567   2.95543   2.96525   3.00139
 Alpha virt. eigenvalues --    3.01569   3.02864   3.03438   3.04695   3.05834
 Alpha virt. eigenvalues --    3.06836   3.08112   3.08734   3.10333   3.10982
 Alpha virt. eigenvalues --    3.12927   3.13624   3.15286   3.16614   3.17515
 Alpha virt. eigenvalues --    3.18860   3.19377   3.20300   3.22249   3.22863
 Alpha virt. eigenvalues --    3.24190   3.25025   3.26387   3.27783   3.29106
 Alpha virt. eigenvalues --    3.31056   3.32437   3.32692   3.34717   3.35045
 Alpha virt. eigenvalues --    3.35553   3.37922   3.39353   3.40312   3.40962
 Alpha virt. eigenvalues --    3.41770   3.43454   3.44598   3.45309   3.45756
 Alpha virt. eigenvalues --    3.46679   3.48793   3.49704   3.50565   3.52272
 Alpha virt. eigenvalues --    3.55112   3.56261   3.56940   3.58721   3.59106
 Alpha virt. eigenvalues --    3.60267   3.62752   3.66692   3.67443   3.72281
 Alpha virt. eigenvalues --    3.75951   3.78449   3.79441   3.81353   3.85953
 Alpha virt. eigenvalues --    3.86388   3.87722   3.90395   3.94170   3.98984
 Alpha virt. eigenvalues --    4.01040   4.03147   4.03900   4.06670   4.10060
 Alpha virt. eigenvalues --    4.13629   4.15925   4.16625   4.17810   4.18032
 Alpha virt. eigenvalues --    4.20150   4.22197   4.23919   4.25996   4.27638
 Alpha virt. eigenvalues --    4.30991   4.34410   4.37181   4.39209   4.39937
 Alpha virt. eigenvalues --    4.46500   4.48531   4.52638   4.56449   4.60423
 Alpha virt. eigenvalues --    4.61303   4.63706   4.68881   4.74408   4.78965
 Alpha virt. eigenvalues --    4.82542   4.85208   4.90411   4.91658   5.09778
 Alpha virt. eigenvalues --    5.14589   5.18863   5.22784   5.28807   5.30646
 Alpha virt. eigenvalues --    5.33031   5.40091   5.41733   5.49778   5.53251
 Alpha virt. eigenvalues --    5.61853   5.66659   5.81098   5.95787   6.02032
 Alpha virt. eigenvalues --    6.10699   6.16700   6.36057   6.37100   6.49904
 Alpha virt. eigenvalues --    6.63366   6.64281   6.76330   6.79579   6.87116
 Alpha virt. eigenvalues --    6.97734   7.09682   7.21422   7.34669  10.81679
 Alpha virt. eigenvalues --   10.88954  11.39907  22.07348  22.41250  22.60087
 Alpha virt. eigenvalues --   22.72543  22.74848  22.80582  22.86316  23.25971
 Alpha virt. eigenvalues --   23.39728  25.94129  44.03752  44.23892
          Condensed to atoms (all electrons):
               1          2          3          4          5          6
     1  C    4.876227   0.203146  -0.053924   0.001512   0.008478  -0.000414
     2  O    0.203146   7.977506   0.350505  -0.084644  -0.090896   0.001106
     3  C   -0.053924   0.350505   4.481928   0.623593   0.302087  -0.008221
     4  O    0.001512  -0.084644   0.623593   7.886157  -0.073949  -0.029528
     5  C    0.008478  -0.090896   0.302087  -0.073949   5.225209   0.286245
     6  C   -0.000414   0.001106  -0.008221  -0.029528   0.286245   5.096932
     7  C   -0.000017   0.000450  -0.003560   0.012430  -0.083044   0.374923
     8  C   -0.000025   0.000089   0.002046   0.000213   0.009072   0.011137
     9  C    0.000009   0.000051   0.000237   0.000202  -0.005338  -0.109314
    10  Cl  -0.000000  -0.000000   0.000006   0.000000  -0.000065  -0.003535
    11  C   -0.000003  -0.000287  -0.001090  -0.000091   0.016661   0.015095
    12  C   -0.000057   0.002401   0.001724   0.000830  -0.070115   0.430738
    13  H    0.417313  -0.035553  -0.005704   0.004675  -0.001034  -0.000379
    14  H    0.421306  -0.033217  -0.009474   0.003277   0.000100  -0.000080
    15  H    0.394796  -0.029379   0.005312   0.001876   0.000699   0.000240
    16  H   -0.000519   0.003187  -0.045707   0.000508   0.423893  -0.037808
    17  H   -0.000130   0.006576  -0.032629   0.004797   0.421671  -0.055227
    18  H   -0.000089   0.000669  -0.004424   0.015125   0.000907  -0.036488
    19  H    0.000000  -0.000001   0.000001  -0.000048   0.000059   0.009284
    20  H    0.000000  -0.000005  -0.000007  -0.000000   0.000090   0.008664
    21  H   -0.000003  -0.000033  -0.000503   0.000007  -0.004883  -0.035804
               7          8          9         10         11         12
     1  C   -0.000017  -0.000025   0.000009  -0.000000  -0.000003  -0.000057
     2  O    0.000450   0.000089   0.000051  -0.000000  -0.000287   0.002401
     3  C   -0.003560   0.002046   0.000237   0.000006  -0.001090   0.001724
     4  O    0.012430   0.000213   0.000202   0.000000  -0.000091   0.000830
     5  C   -0.083044   0.009072  -0.005338  -0.000065   0.016661  -0.070115
     6  C    0.374923   0.011137  -0.109314  -0.003535   0.015095   0.430738
     7  C    5.158137   0.387199   0.057052   0.015201  -0.127135   0.025753
     8  C    0.387199   5.115967   0.336695  -0.058375   0.085940  -0.126256
     9  C    0.057052   0.336695   5.045004   0.299215   0.340757   0.057165
    10  Cl   0.015201  -0.058375   0.299215  16.892136  -0.056858   0.014687
    11  C   -0.127135   0.085940   0.340757  -0.056858   5.123853   0.373799
    12  C    0.025753  -0.126256   0.057165   0.014687   0.373799   5.106741
    13  H    0.000476  -0.000049   0.000011   0.000000  -0.000019   0.000126
    14  H   -0.000081   0.000002  -0.000000  -0.000000  -0.000000   0.000003
    15  H   -0.000063   0.000000  -0.000001  -0.000000  -0.000000  -0.000011
    16  H   -0.010924  -0.000677   0.000453  -0.000001  -0.001096   0.006179
    17  H    0.013345  -0.000489   0.000100   0.000001   0.001296  -0.008618
    18  H    0.396839  -0.020822   0.004690  -0.000201  -0.001199   0.006506
    19  H   -0.033546   0.422052  -0.053675   0.000529   0.012283  -0.003719
    20  H   -0.004362   0.013120  -0.052462   0.001027   0.423027  -0.035989
    21  H    0.008574  -0.001212   0.004631  -0.000256  -0.028480   0.406525
              13         14         15         16         17         18
     1  C    0.417313   0.421306   0.394796  -0.000519  -0.000130  -0.000089
     2  O   -0.035553  -0.033217  -0.029379   0.003187   0.006576   0.000669
     3  C   -0.005704  -0.009474   0.005312  -0.045707  -0.032629  -0.004424
     4  O    0.004675   0.003277   0.001876   0.000508   0.004797   0.015125
     5  C   -0.001034   0.000100   0.000699   0.423893   0.421671   0.000907
     6  C   -0.000379  -0.000080   0.000240  -0.037808  -0.055227  -0.036488
     7  C    0.000476  -0.000081  -0.000063  -0.010924   0.013345   0.396839
     8  C   -0.000049   0.000002   0.000000  -0.000677  -0.000489  -0.020822
     9  C    0.000011  -0.000000  -0.000001   0.000453   0.000100   0.004690
    10  Cl   0.000000  -0.000000  -0.000000  -0.000001   0.000001  -0.000201
    11  C   -0.000019  -0.000000  -0.000000  -0.001096   0.001296  -0.001199
    12  C    0.000126   0.000003  -0.000011   0.006179  -0.008618   0.006506
    13  H    0.522060  -0.040970  -0.022252  -0.000040   0.000112   0.000042
    14  H   -0.040970   0.523285  -0.024343   0.000128  -0.000070  -0.000023
    15  H   -0.022252  -0.024343   0.516901  -0.000003  -0.000308  -0.000003
    16  H   -0.000040   0.000128  -0.000003   0.485923  -0.016993   0.000621
    17  H    0.000112  -0.000070  -0.000308  -0.016993   0.493541   0.000363
    18  H    0.000042  -0.000023  -0.000003   0.000621   0.000363   0.452136
    19  H   -0.000001   0.000000   0.000000  -0.000021   0.000000  -0.003620
    20  H    0.000000  -0.000000   0.000000  -0.000000  -0.000048   0.000035
    21  H    0.000003  -0.000001   0.000003   0.000309   0.000676  -0.000176
              19         20         21
     1  C    0.000000   0.000000  -0.000003
     2  O   -0.000001  -0.000005  -0.000033
     3  C    0.000001  -0.000007  -0.000503
     4  O   -0.000048  -0.000000   0.000007
     5  C    0.000059   0.000090  -0.004883
     6  C    0.009284   0.008664  -0.035804
     7  C   -0.033546  -0.004362   0.008574
     8  C    0.422052   0.013120  -0.001212
     9  C   -0.053675  -0.052462   0.004631
    10  Cl   0.000529   0.001027  -0.000256
    11  C    0.012283   0.423027  -0.028480
    12  C   -0.003719  -0.035989   0.406525
    13  H   -0.000001   0.000000   0.000003
    14  H    0.000000  -0.000000  -0.000001
    15  H    0.000000   0.000000   0.000003
    16  H   -0.000021  -0.000000   0.000309
    17  H    0.000000  -0.000048   0.000676
    18  H   -0.003620   0.000035  -0.000176
    19  H    0.474875   0.000006   0.000054
    20  H    0.000006   0.476564  -0.003581
    21  H    0.000054  -0.003581   0.486221
 Mulliken charges:
               1
     1  C   -0.267606
     2  O   -0.271669
     3  C    0.397805
     4  O   -0.366942
     5  C   -0.365846
     6  C    0.082434
     7  C   -0.187646
     8  C   -0.175627
     9  C    0.074519
    10  Cl  -0.103509
    11  C   -0.176453
    12  C   -0.188413
    13  H    0.161182
    14  H    0.160159
    15  H    0.156535
    16  H    0.192589
    17  H    0.172036
    18  H    0.189114
    19  H    0.175486
    20  H    0.173922
    21  H    0.167929
 Sum of Mulliken charges =  -0.00000
 Mulliken charges with hydrogens summed into heavy atoms:
               1
     1  C    0.210269
     2  O   -0.271669
     3  C    0.397805
     4  O   -0.366942
     5  C   -0.001220
     6  C    0.082434
     7  C    0.001468
     8  C   -0.000141
     9  C    0.074519
    10  Cl  -0.103509
    11  C   -0.002531
    12  C   -0.020484
 Electronic spatial extent (au):  <R**2>=           3262.6315
 Charge=             -0.0000 electrons
 Dipole moment (field-independent basis, Debye):
    X=             -2.1214    Y=             -2.0655    Z=              0.0378  Tot=              2.9611
 Quadrupole moment (field-independent basis, Debye-Ang):
   XX=            -78.7040   YY=            -74.9762   ZZ=            -74.5758
   XY=              4.6421   XZ=              4.0933   YZ=             -1.0770
 Traceless Quadrupole moment (field-independent basis, Debye-Ang):
   XX=             -2.6187   YY=              1.1091   ZZ=              1.5095
   XY=              4.6421   XZ=              4.0933   YZ=             -1.0770
 Octapole moment (field-independent basis, Debye-Ang**2):
  XXX=            -72.6720  YYY=             -7.6060  ZZZ=             -9.3612  XYY=             16.6795
  XXY=            -16.7373  XXZ=            -23.5258  XZZ=            -25.6362  YZZ=              0.5674
  YYZ=             -0.9384  XYZ=              3.8914
 Hexadecapole moment (field-independent basis, Debye-Ang**3):
 XXXX=          -3303.2360 YYYY=           -417.3460 ZZZZ=           -359.8900 XXXY=             35.3701
 XXXZ=             98.5165 YYYX=             19.2590 YYYZ=             -0.2592 ZZZX=             10.0584
 ZZZY=              4.7361 XXYY=           -665.3661 XXZZ=           -583.1681 YYZZ=           -138.5134
 XXYZ=             -1.0614 YYXZ=              1.1377 ZZXY=              6.2754
 N-N= 7.314755222260D+02 E-N=-3.720513834005D+03  KE= 9.560114661563D+02
 Calculating spin-rotation constants.
 Leave Link  601 at Tue Sep 17 10:47:33 2024, MaxMem=  1342177280 cpu:               4.8 elap:               4.8
 (Enter /groups/ReismanLab/Software/Gaussian16_RevC/Linux_Binary_AVX2-enabled-CPU/g16/l9999.exe)
 Unable to Open any file for archive entry.
 1\1\GINC-HPC-21-24\SP\RM062X\def2TZVP\C9H9Cl1O2\MANTIND\17-Sep-2024\0\
 \#p M062X/def2tzvp geom=check guess=read scf(xqc,tight) integral(grid=
 ultrafine) scrf(SMD, solvent=1,4-Dioxane) nmr=giao\\spe\\0,1\C,0,3.986
 3030019,1.2640537651,-1.1185470071\O,0,3.169451394,0.9304699018,0.0174
 965593\C,0,2.6675756768,-0.3204360716,0.0114563311\O,0,2.8885215838,-1
 .1326859694,-0.8611600194\C,0,1.7559731204,-0.5575637024,1.201192932\C
 ,0,0.3039285016,-0.3742857527,0.7992116654\C,0,-0.261300068,-1.1835836
 006,-0.1940888857\C,0,-1.5909254838,-1.0234666045,-0.5741722821\C,0,-2
 .3611677418,-0.0412985991,0.0472050378\Cl,0,-4.0422366768,0.1647981044
 ,-0.4244491955\C,0,-1.8215797179,0.7793496182,1.0335374385\C,0,-0.4870
 915596,0.6072397605,1.4008050999\H,0,3.409150471,1.1749615965,-2.04169
 80773\H,0,4.8506398011,0.5987194296,-1.1771553814\H,0,4.3032069539,2.2
 940582822,-0.9602064954\H,0,1.9288102745,-1.5839874244,1.5382330485\H,
 0,2.0160668518,0.1274232522,2.0099150077\H,0,0.3530946815,-1.933564717
 8,-0.6815214054\H,0,-2.0278752731,-1.6504349295,-1.342701914\H,0,-2.43
 37962159,1.5400053096,1.5038009186\H,0,-0.0602476569,1.2471890045,2.16
 73605562\\Version=ES64L-G16RevC.02\State=1-A\HF=-959.0299134\RMSD=1.71
 0e-09\Dipole=0.8387676,0.5866789,0.5562872\Quadrupole=-2.18628,0.44073
 83,1.7455416,4.5131949,0.4510718,-0.3102736\PG=C01 [X(C9H9Cl1O2)]\\@
 The archive entry for this job was punched.


 HONESTY IN A LAWYER IS LIKE A HEN'S HIND LEGS.
  -- MAGNUS OLESON, LAKE WOBEGON PATRIARCH, C.1875
 Job cpu time:       0 days  0 hours 15 minutes 35.9 seconds.
 Elapsed time:       0 days  0 hours 15 minutes 40.0 seconds.
 File lengths (MBytes):  RWF=    288 Int=      0 D2E=      0 Chk=     32 Scr=     16
 Normal termination of Gaussian 16 at Tue Sep 17 10:47:33 2024.
