 Entering Gaussian System, Link 0=g16
 Input=smiles_00075_conf_2.gjf
 Output=smiles_00075_conf_2.log
 Initial command:
 /groups/ReismanLab/Software/Gaussian16_RevC/Linux_Binary_AVX2-enabled-CPU/g16/l1.exe "/central/groups/ReismanLab/DM/dft_final/smiles_00075/Gau-2398460.inp" -scrdir="/central/groups/ReismanLab/DM/dft_final/smiles_00075/"
 Entering Link 1 = /groups/ReismanLab/Software/Gaussian16_RevC/Linux_Binary_AVX2-enabled-CPU/g16/l1.exe PID=   2398470.
  
 Copyright (c) 1988-2021, Gaussian, Inc.  All Rights Reserved.
  
 This is part of the Gaussian(R) 16 program.  It is based on
 the Gaussian(R) 09 system (copyright 2009, Gaussian, Inc.),
 the Gaussian(R) 03 system (copyright 2003, Gaussian, Inc.),
 the Gaussian(R) 98 system (copyright 1998, Gaussian, Inc.),
 the Gaussian(R) 94 system (copyright 1995, Gaussian, Inc.),
 the Gaussian 92(TM) system (copyright 1992, Gaussian, Inc.),
 the Gaussian 90(TM) system (copyright 1990, Gaussian, Inc.),
 the Gaussian 88(TM) system (copyright 1988, Gaussian, Inc.),
 the Gaussian 86(TM) system (copyright 1986, Carnegie Mellon
 University), and the Gaussian 82(TM) system (copyright 1983,
 Carnegie Mellon University). Gaussian is a federally registered
 trademark of Gaussian, Inc.
  
 This software contains proprietary and confidential information,
 including trade secrets, belonging to Gaussian, Inc.
  
 This software is provided under written license and may be
 used, copied, transmitted, or stored only in accord with that
 written license.
  
 The following legend is applicable only to US Government
 contracts under FAR:
  
                    RESTRICTED RIGHTS LEGEND
  
 Use, reproduction and disclosure by the US Government is
 subject to restrictions as set forth in subparagraphs (a)
 and (c) of the Commercial Computer Software - Restricted
 Rights clause in FAR 52.227-19.
  
 Gaussian, Inc.
 340 Quinnipiac St., Bldg. 40, Wallingford CT 06492
  
  
 ---------------------------------------------------------------
 Warning -- This program may not be used in any manner that
 competes with the business of Gaussian, Inc. or will provide
 assistance to any competitor of Gaussian, Inc.  The licensee
 of this program is prohibited from giving any competitor of
 Gaussian, Inc. access to this program.  By using this program,
 the user acknowledges that Gaussian, Inc. is engaged in the
 business of creating and licensing software in the field of
 computational chemistry and represents and warrants to the
 licensee that it is not a competitor of Gaussian, Inc. and that
 it will not use this program in any manner prohibited above.
 ---------------------------------------------------------------
  

 Cite this work as:
 Gaussian 16, Revision C.02,
 M. J. Frisch, G. W. Trucks, H. B. Schlegel, G. E. Scuseria, 
 M. A. Robb, J. R. Cheeseman, G. Scalmani, V. Barone, 
 G. A. Petersson, H. Nakatsuji, X. Li, M. Caricato, A. V. Marenich, 
 J. Bloino, B. G. Janesko, R. Gomperts, B. Mennucci, H. P. Hratchian, 
 J. V. Ortiz, A. F. Izmaylov, J. L. Sonnenberg, D. Williams-Young, 
 F. Ding, F. Lipparini, F. Egidi, J. Goings, B. Peng, A. Petrone, 
 T. Henderson, D. Ranasinghe, V. G. Zakrzewski, J. Gao, N. Rega, 
 G. Zheng, W. Liang, M. Hada, M. Ehara, K. Toyota, R. Fukuda, 
 J. Hasegawa, M. Ishida, T. Nakajima, Y. Honda, O. Kitao, H. Nakai, 
 T. Vreven, K. Throssell, J. A. Montgomery, Jr., J. E. Peralta, 
 F. Ogliaro, M. J. Bearpark, J. J. Heyd, E. N. Brothers, K. N. Kudin, 
 V. N. Staroverov, T. A. Keith, R. Kobayashi, J. Normand, 
 K. Raghavachari, A. P. Rendell, J. C. Burant, S. S. Iyengar, 
 J. Tomasi, M. Cossi, J. M. Millam, M. Klene, C. Adamo, R. Cammi, 
 J. W. Ochterski, R. L. Martin, K. Morokuma, O. Farkas, 
 J. B. Foresman, and D. J. Fox, Gaussian, Inc., Wallingford CT, 2019.
 
 ******************************************
 Gaussian 16:  ES64L-G16RevC.02  7-Dec-2021
                17-Sep-2024 
 ******************************************
 %nprocshared=8
 Will use up to    8 processors via shared memory.
 %Mem=10GB
 %Chk=smiles_00075_conf_2.chk
 ----------------------------------------------------------------------
 #p B3LYP/6-31G(d,p) EmpiricalDispersion=GD3BJ opt freq scf(xqc,tight) 
 integral(grid=ultrafine)
 ----------------------------------------------------------------------
 1/18=20,19=15,26=4,38=1/1,3;
 2/9=110,12=2,17=6,18=5,40=1/2;
 3/5=1,6=6,7=101,11=2,25=1,30=1,71=1,74=-5,75=-5,124=41/1,2,3;
 4//1;
 5/5=2,8=3,13=1,32=2,38=5/2,8;
 6/7=2,8=2,9=2,10=2,28=1/1;
 7//1,2,3,16;
 1/18=20,19=15,26=4/3(2);
 2/9=110/2;
 99//99;
 2/9=110/2;
 3/5=1,6=6,7=101,11=2,25=1,30=1,71=1,74=-5,75=-5,124=41/1,2,3;
 4/5=5,16=3,69=1/1;
 5/5=2,8=3,13=1,32=2,38=5/2,8;
 7//1,2,3,16;
 1/18=20,19=15,26=4/3(-5);
 2/9=110/2;
 6/7=2,8=2,9=2,10=2,19=2,28=1/1;
 99/9=1/99;
 Leave Link    1 at Tue Sep 17 09:42:33 2024, MaxMem=  1342177280 cpu:               0.1 elap:               0.7
 (Enter /groups/ReismanLab/Software/Gaussian16_RevC/Linux_Binary_AVX2-enabled-CPU/g16/l101.exe)
 ----------------------------------
 opt-freq conformers_unique/conf_ac
 ----------------------------------
 Symbolic Z-matrix:
 Charge =  0 Multiplicity = 1
 C                     3.27067   1.72963   0.17632 
 O                     2.3049    0.71447  -0.06182 
 C                     2.77357  -0.52089  -0.24497 
 O                     3.93965  -0.80902  -0.21594 
 C                     1.65483  -1.52006  -0.49992 
 C                     0.29211  -0.93767  -0.27216 
 C                    -0.26096  -0.91994   1.00252 
 C                    -1.50419  -0.35965   1.2304 
 C                    -2.20409   0.19149   0.16946 
 Cl                   -3.76096   0.89249   0.44422 
 C                    -1.67146   0.18523  -1.1091 
 C                    -0.42659  -0.37847  -1.32105 
 H                     3.82662   1.9437   -0.73881 
 H                     3.97344   1.41107   0.9487 
 H                     2.71558   2.60727   0.49735 
 H                     1.76697  -1.86147  -1.5317 
 H                     1.83603  -2.37677   0.15242 
 H                     0.28637  -1.3492    1.82889 
 H                    -1.9292   -0.34913   2.22178 
 H                    -2.22577   0.6171   -1.92748 
 H                    -0.01039  -0.38185  -2.31763 
 
 ITRead=  0  0  0  0  0  0  0  0  0  0  0  0  0  0  0  0  0  0  0  0
 ITRead=  0
 MicOpt= -1 -1 -1 -1 -1 -1 -1 -1 -1 -1 -1 -1 -1 -1 -1 -1 -1 -1 -1 -1
 MicOpt= -1
 NAtoms=     21 NQM=       21 NQMF=       0 NMMI=      0 NMMIF=      0
                NMic=       0 NMicF=      0.
                    Isotopes and Nuclear Properties:
 (Nuclear quadrupole moments (NQMom) in fm**2, nuclear magnetic moments (NMagM)
  in nuclear magnetons)

  Atom         1           2           3           4           5           6           7           8           9          10
 IAtWgt=          12          16          12          16          12          12          12          12          12          35
 AtmWgt=  12.0000000  15.9949146  12.0000000  15.9949146  12.0000000  12.0000000  12.0000000  12.0000000  12.0000000  34.9688527
 NucSpn=           0           0           0           0           0           0           0           0           0           3
 AtZEff=  -0.0000000  -0.0000000  -0.0000000  -0.0000000  -0.0000000  -0.0000000  -0.0000000  -0.0000000  -0.0000000  -0.0000000
 NQMom=    0.0000000   0.0000000   0.0000000   0.0000000   0.0000000   0.0000000   0.0000000   0.0000000   0.0000000  -8.1650000
 NMagM=    0.0000000   0.0000000   0.0000000   0.0000000   0.0000000   0.0000000   0.0000000   0.0000000   0.0000000   0.8218740
 AtZNuc=   6.0000000   8.0000000   6.0000000   8.0000000   6.0000000   6.0000000   6.0000000   6.0000000   6.0000000  17.0000000

  Atom        11          12          13          14          15          16          17          18          19          20
 IAtWgt=          12          12           1           1           1           1           1           1           1           1
 AtmWgt=  12.0000000  12.0000000   1.0078250   1.0078250   1.0078250   1.0078250   1.0078250   1.0078250   1.0078250   1.0078250
 NucSpn=           0           0           1           1           1           1           1           1           1           1
 AtZEff=  -0.0000000  -0.0000000  -0.0000000  -0.0000000  -0.0000000  -0.0000000  -0.0000000  -0.0000000  -0.0000000  -0.0000000
 NQMom=    0.0000000   0.0000000   0.0000000   0.0000000   0.0000000   0.0000000   0.0000000   0.0000000   0.0000000   0.0000000
 NMagM=    0.0000000   0.0000000   2.7928460   2.7928460   2.7928460   2.7928460   2.7928460   2.7928460   2.7928460   2.7928460
 AtZNuc=   6.0000000   6.0000000   1.0000000   1.0000000   1.0000000   1.0000000   1.0000000   1.0000000   1.0000000   1.0000000

  Atom        21
 IAtWgt=           1
 AtmWgt=   1.0078250
 NucSpn=           1
 AtZEff=  -0.0000000
 NQMom=    0.0000000
 NMagM=    2.7928460
 AtZNuc=   1.0000000
 Leave Link  101 at Tue Sep 17 09:42:33 2024, MaxMem=  1342177280 cpu:               0.1 elap:               0.3
 (Enter /groups/ReismanLab/Software/Gaussian16_RevC/Linux_Binary_AVX2-enabled-CPU/g16/l103.exe)

 GradGradGradGradGradGradGradGradGradGradGradGradGradGradGradGradGradGrad
 Berny optimization.
 Initialization pass.
                           ----------------------------
                           !    Initial Parameters    !
                           ! (Angstroms and Degrees)  !
 --------------------------                            --------------------------
 ! Name  Definition              Value          Derivative Info.                !
 --------------------------------------------------------------------------------
 ! R1    R(1,2)                  1.4213         estimate D2E/DX2                !
 ! R2    R(1,13)                 1.092          estimate D2E/DX2                !
 ! R3    R(1,14)                 1.0918         estimate D2E/DX2                !
 ! R4    R(1,15)                 1.0869         estimate D2E/DX2                !
 ! R5    R(2,3)                  1.3339         estimate D2E/DX2                !
 ! R6    R(3,4)                  1.2015         estimate D2E/DX2                !
 ! R7    R(3,5)                  1.5215         estimate D2E/DX2                !
 ! R8    R(5,6)                  1.4993         estimate D2E/DX2                !
 ! R9    R(5,16)                 1.0926         estimate D2E/DX2                !
 ! R10   R(5,17)                 1.0919         estimate D2E/DX2                !
 ! R11   R(6,7)                  1.3896         estimate D2E/DX2                !
 ! R12   R(6,12)                 1.389          estimate D2E/DX2                !
 ! R13   R(7,8)                  1.3826         estimate D2E/DX2                !
 ! R14   R(7,18)                 1.0801         estimate D2E/DX2                !
 ! R15   R(8,9)                  1.3853         estimate D2E/DX2                !
 ! R16   R(8,19)                 1.0787         estimate D2E/DX2                !
 ! R17   R(9,10)                 1.7294         estimate D2E/DX2                !
 ! R18   R(9,11)                 1.3851         estimate D2E/DX2                !
 ! R19   R(11,12)                1.3829         estimate D2E/DX2                !
 ! R20   R(11,20)                1.0787         estimate D2E/DX2                !
 ! R21   R(12,21)                1.08           estimate D2E/DX2                !
 ! A1    A(2,1,13)             110.2161         estimate D2E/DX2                !
 ! A2    A(2,1,14)             110.3369         estimate D2E/DX2                !
 ! A3    A(2,1,15)             106.2121         estimate D2E/DX2                !
 ! A4    A(13,1,14)            108.807          estimate D2E/DX2                !
 ! A5    A(13,1,15)            110.4401         estimate D2E/DX2                !
 ! A6    A(14,1,15)            110.8172         estimate D2E/DX2                !
 ! A7    A(1,2,3)              116.4711         estimate D2E/DX2                !
 ! A8    A(2,3,4)              124.0403         estimate D2E/DX2                !
 ! A9    A(2,3,5)              111.8911         estimate D2E/DX2                !
 ! A10   A(4,3,5)              124.0683         estimate D2E/DX2                !
 ! A11   A(3,5,6)              112.8146         estimate D2E/DX2                !
 ! A12   A(3,5,16)             106.7375         estimate D2E/DX2                !
 ! A13   A(3,5,17)             107.0442         estimate D2E/DX2                !
 ! A14   A(6,5,16)             110.985          estimate D2E/DX2                !
 ! A15   A(6,5,17)             111.3963         estimate D2E/DX2                !
 ! A16   A(16,5,17)            107.5763         estimate D2E/DX2                !
 ! A17   A(5,6,7)              120.4            estimate D2E/DX2                !
 ! A18   A(5,6,12)             120.7922         estimate D2E/DX2                !
 ! A19   A(7,6,12)             118.7902         estimate D2E/DX2                !
 ! A20   A(6,7,8)              120.9476         estimate D2E/DX2                !
 ! A21   A(6,7,18)             119.6721         estimate D2E/DX2                !
 ! A22   A(8,7,18)             119.3802         estimate D2E/DX2                !
 ! A23   A(7,8,9)              119.2945         estimate D2E/DX2                !
 ! A24   A(7,8,19)             120.6456         estimate D2E/DX2                !
 ! A25   A(9,8,19)             120.0599         estimate D2E/DX2                !
 ! A26   A(8,9,10)             119.6308         estimate D2E/DX2                !
 ! A27   A(8,9,11)             120.7206         estimate D2E/DX2                !
 ! A28   A(10,9,11)            119.6485         estimate D2E/DX2                !
 ! A29   A(9,11,12)            119.3072         estimate D2E/DX2                !
 ! A30   A(9,11,20)            120.0614         estimate D2E/DX2                !
 ! A31   A(12,11,20)           120.6314         estimate D2E/DX2                !
 ! A32   A(6,12,11)            120.9397         estimate D2E/DX2                !
 ! A33   A(6,12,21)            119.7447         estimate D2E/DX2                !
 ! A34   A(11,12,21)           119.3156         estimate D2E/DX2                !
 ! D1    D(13,1,2,3)            71.5088         estimate D2E/DX2                !
 ! D2    D(14,1,2,3)           -48.6814         estimate D2E/DX2                !
 ! D3    D(15,1,2,3)          -168.8454         estimate D2E/DX2                !
 ! D4    D(1,2,3,4)              0.1795         estimate D2E/DX2                !
 ! D5    D(1,2,3,5)           -179.6149         estimate D2E/DX2                !
 ! D6    D(2,3,5,6)             -9.1164         estimate D2E/DX2                !
 ! D7    D(2,3,5,16)           113.0387         estimate D2E/DX2                !
 ! D8    D(2,3,5,17)          -131.9994         estimate D2E/DX2                !
 ! D9    D(4,3,5,6)            171.0893         estimate D2E/DX2                !
 ! D10   D(4,3,5,16)           -66.7556         estimate D2E/DX2                !
 ! D11   D(4,3,5,17)            48.2063         estimate D2E/DX2                !
 ! D12   D(3,5,6,7)            -85.2633         estimate D2E/DX2                !
 ! D13   D(3,5,6,12)            93.1936         estimate D2E/DX2                !
 ! D14   D(16,5,6,7)           155.0026         estimate D2E/DX2                !
 ! D15   D(16,5,6,12)          -26.5405         estimate D2E/DX2                !
 ! D16   D(17,5,6,7)            35.1575         estimate D2E/DX2                !
 ! D17   D(17,5,6,12)         -146.3855         estimate D2E/DX2                !
 ! D18   D(5,6,7,8)            178.584          estimate D2E/DX2                !
 ! D19   D(5,6,7,18)            -1.4006         estimate D2E/DX2                !
 ! D20   D(12,6,7,8)             0.0965         estimate D2E/DX2                !
 ! D21   D(12,6,7,18)         -179.8881         estimate D2E/DX2                !
 ! D22   D(5,6,12,11)         -178.6013         estimate D2E/DX2                !
 ! D23   D(5,6,12,21)            1.3807         estimate D2E/DX2                !
 ! D24   D(7,6,12,11)           -0.1199         estimate D2E/DX2                !
 ! D25   D(7,6,12,21)          179.862          estimate D2E/DX2                !
 ! D26   D(6,7,8,9)             -0.0436         estimate D2E/DX2                !
 ! D27   D(6,7,8,19)           179.9583         estimate D2E/DX2                !
 ! D28   D(18,7,8,9)           179.9411         estimate D2E/DX2                !
 ! D29   D(18,7,8,19)           -0.0571         estimate D2E/DX2                !
 ! D30   D(7,8,9,10)           179.9075         estimate D2E/DX2                !
 ! D31   D(7,8,9,11)             0.012          estimate D2E/DX2                !
 ! D32   D(19,8,9,10)           -0.0943         estimate D2E/DX2                !
 ! D33   D(19,8,9,11)         -179.9898         estimate D2E/DX2                !
 ! D34   D(8,9,11,12)           -0.0348         estimate D2E/DX2                !
 ! D35   D(8,9,11,20)          179.9838         estimate D2E/DX2                !
 ! D36   D(10,9,11,12)        -179.9303         estimate D2E/DX2                !
 ! D37   D(10,9,11,20)           0.0883         estimate D2E/DX2                !
 ! D38   D(9,11,12,6)            0.0898         estimate D2E/DX2                !
 ! D39   D(9,11,12,21)        -179.8922         estimate D2E/DX2                !
 ! D40   D(20,11,12,6)        -179.929          estimate D2E/DX2                !
 ! D41   D(20,11,12,21)          0.089          estimate D2E/DX2                !
 --------------------------------------------------------------------------------
 Trust Radius=3.00D-01 FncErr=1.00D-07 GrdErr=1.00D-06 EigMax=2.50D+02 EigMin=1.00D-04
 Number of steps in this run=    106 maximum allowed number of steps=    126.
 GradGradGradGradGradGradGradGradGradGradGradGradGradGradGradGradGradGrad

 Leave Link  103 at Tue Sep 17 09:42:33 2024, MaxMem=  1342177280 cpu:               0.0 elap:               0.0
 (Enter /groups/ReismanLab/Software/Gaussian16_RevC/Linux_Binary_AVX2-enabled-CPU/g16/l202.exe)
                          Input orientation:                          
 ---------------------------------------------------------------------
 Center     Atomic      Atomic             Coordinates (Angstroms)
 Number     Number       Type             X           Y           Z
 ---------------------------------------------------------------------
      1          6           0        3.270673    1.729628    0.176324
      2          8           0        2.304896    0.714471   -0.061823
      3          6           0        2.773574   -0.520886   -0.244965
      4          8           0        3.939650   -0.809019   -0.215944
      5          6           0        1.654828   -1.520057   -0.499924
      6          6           0        0.292113   -0.937667   -0.272161
      7          6           0       -0.260960   -0.919945    1.002519
      8          6           0       -1.504195   -0.359649    1.230397
      9          6           0       -2.204091    0.191490    0.169463
     10         17           0       -3.760961    0.892494    0.444221
     11          6           0       -1.671462    0.185235   -1.109096
     12          6           0       -0.426590   -0.378469   -1.321054
     13          1           0        3.826615    1.943705   -0.738814
     14          1           0        3.973441    1.411066    0.948700
     15          1           0        2.715582    2.607275    0.497352
     16          1           0        1.766972   -1.861469   -1.531697
     17          1           0        1.836025   -2.376769    0.152423
     18          1           0        0.286367   -1.349195    1.828888
     19          1           0       -1.929203   -0.349134    2.221783
     20          1           0       -2.225773    0.617102   -1.927476
     21          1           0       -0.010387   -0.381852   -2.317627
 ---------------------------------------------------------------------
                    Distance matrix (angstroms):
                    1          2          3          4          5
     1  C    0.000000
     2  O    1.421261   0.000000
     3  C    2.342949   1.333907   0.000000
     4  O    2.654456   2.239910   1.201498   0.000000
     5  C    3.691710   2.368045   1.521492   2.409695   0.000000
     6  C    4.023359   2.612489   2.516365   3.650238   1.499349
     7  C    4.491688   3.223004   3.305126   4.375166   2.507532
     8  C    5.317472   4.163261   4.527913   5.650600   3.784176
     9  C    5.686735   4.545104   5.045431   6.236595   4.274194
    10  Cl   7.086356   6.089532   6.721069   7.913936   6.003548
    11  C    5.334993   4.145877   4.582976   5.768088   3.787257
    12  C    4.511759   3.200187   3.379245   4.524455   2.511928
    13  H    1.091961   2.070015   2.725251   2.804222   4.095287
    14  H    1.091755   2.071339   2.568454   2.507253   4.008236
    15  H    1.086944   2.015948   3.215555   3.698405   4.376600
    16  H    4.251404   3.014193   2.113312   2.749434   1.092563
    17  H    4.349860   3.133928   2.116888   2.649296   1.091945
    18  H    4.595237   3.450793   3.342628   4.221328   2.706519
    19  H    5.961867   4.926836   5.313234   6.371612   4.650165
    20  H    5.989541   4.900725   5.396232   6.555578   4.654505
    21  H    4.630712   3.413372   3.473571   4.494701   2.715234
                    6          7          8          9         10
     6  C    0.000000
     7  C    1.389609   0.000000
     8  C    2.412158   1.382567   0.000000
     9  C    2.775079   2.388520   1.385348   0.000000
    10  Cl   4.504454   3.980784   2.697949   1.729376   0.000000
    11  C    2.411845   2.769450   2.407925   1.385080   2.697965
    12  C    1.389033   2.391573   2.769745   2.388724   3.981152
    13  H    4.583969   5.285925   6.131946   6.345443   7.750867
    14  H    4.534228   4.833907   5.763617   6.344800   7.768165
    15  H    4.362564   4.642873   5.210231   5.490602   6.699918
    16  H    2.148267   3.379531   4.537088   4.783088   6.484336
    17  H    2.152894   2.691161   4.048194   4.787357   6.488411
    18  H    2.140980   1.080142   2.131550   3.365974   4.829424
    19  H    3.391220   2.143703   1.078698   2.140060   2.838434
    20  H    3.390741   3.848100   3.383323   2.139806   2.838589
    21  H    2.141113   3.372788   3.849731   3.365513   4.828930
                   11         12         13         14         15
    11  C    0.000000
    12  C    1.382893   0.000000
    13  H    5.784305   4.880702   0.000000
    14  H    6.132056   5.264456   1.775659   0.000000
    15  H    5.262424   4.700480   1.789645   1.793555   0.000000
    16  H    4.023732   2.656196   4.398880   4.661584   4.998658
    17  H    4.523025   3.359132   4.839757   4.421572   5.072799
    18  H    3.849587   3.372351   5.474454   4.689168   4.829879
    19  H    3.383303   3.848428   6.866709   6.289694   5.769579
    20  H    1.078664   2.143820   6.309057   6.879900   5.852996
    21  H    2.131034   1.079997   4.756412   5.454753   4.928478
                   16         17         18         19         20
    16  H    0.000000
    17  H    1.762545   0.000000
    18  H    3.707850   2.503574   0.000000
    19  H    5.480646   4.750842   2.462364   0.000000
    20  H    4.716139   5.457788   4.928229   4.270588   0.000000
    21  H    2.442531   3.672884   4.268185   4.928404   2.461313
                   21
    21  H    0.000000
 Stoichiometry    C9H9ClO2
 Framework group  C1[X(C9H9ClO2)]
 Deg. of freedom    57
 Full point group                 C1      NOp   1
 Largest Abelian subgroup         C1      NOp   1
 Largest concise Abelian subgroup C1      NOp   1
                         Standard orientation:                         
 ---------------------------------------------------------------------
 Center     Atomic      Atomic             Coordinates (Angstroms)
 Number     Number       Type             X           Y           Z
 ---------------------------------------------------------------------
      1          6           0       -3.005808    2.044738    0.011086
      2          8           0       -2.151147    0.911519    0.084244
      3          6           0       -2.736860   -0.282541   -0.018076
      4          8           0       -3.918316   -0.441500   -0.168043
      5          6           0       -1.730038   -1.418782    0.082932
      6          6           0       -0.309196   -0.940877    0.053564
      7          6           0        0.334042   -0.721605   -1.158533
      8          6           0        1.634263   -0.253326   -1.198933
      9          6           0        2.300638    0.000211   -0.011140
     10         17           0        3.928048    0.583862   -0.051503
     11          6           0        1.678424   -0.210702    1.208209
     12          6           0        0.377433   -0.678930    1.232265
     13          1           0       -3.605868    2.124107    0.919936
     14          1           0       -3.675796    1.959932   -0.846734
     15          1           0       -2.355183    2.909450   -0.090931
     16          1           0       -1.945572   -1.948327    1.013964
     17          1           0       -1.936969   -2.104024   -0.741670
     18          1           0       -0.187157   -0.918836   -2.083822
     19          1           0        2.129147   -0.085460   -2.142596
     20          1           0        2.207367   -0.010006    2.126608
     21          1           0       -0.108461   -0.841768    2.182941
 ---------------------------------------------------------------------
 Rotational constants (GHZ):           2.0601384           0.3696860           0.3535265
 Leave Link  202 at Tue Sep 17 09:42:33 2024, MaxMem=  1342177280 cpu:               0.0 elap:               0.0
 (Enter /groups/ReismanLab/Software/Gaussian16_RevC/Linux_Binary_AVX2-enabled-CPU/g16/l301.exe)
 Standard basis: 6-31G(d,p) (6D, 7F)
 Ernie: Thresh=  0.10000D-02 Tol=  0.10000D-05 Strict=F.
 There are   229 symmetry adapted cartesian basis functions of A   symmetry.
 There are   229 symmetry adapted basis functions of A   symmetry.
   229 basis functions,   423 primitive gaussians,   229 cartesian basis functions
    48 alpha electrons       48 beta electrons
       nuclear repulsion energy       744.5524882583 Hartrees.
 IExCor=  402 DFT=T Ex+Corr=B3LYP ExCW=0 ScaHFX=  0.200000
 ScaDFX=  0.800000  0.720000  1.000000  0.810000 ScalE2=  1.000000  1.000000
 IRadAn=      5 IRanWt=     -1 IRanGd=            0 ICorTp=0 IEmpDi=141
 NAtoms=   21 NActive=   21 NUniq=   21 SFac= 1.00D+00 NAtFMM=   60 NAOKFM=F Big=F
 Integral buffers will be    131072 words long.
 Raffenetti 2 integral format.
 Two-electron integral symmetry is turned on.
 R6Disp:  Grimme-D3(BJ) Dispersion energy=       -0.0403759192 Hartrees.
 Nuclear repulsion after empirical dispersion term =      744.5121123391 Hartrees.
 Leave Link  301 at Tue Sep 17 09:42:33 2024, MaxMem=  1342177280 cpu:               0.1 elap:               0.0
 (Enter /groups/ReismanLab/Software/Gaussian16_RevC/Linux_Binary_AVX2-enabled-CPU/g16/l302.exe)
 NPDir=0 NMtPBC=     1 NCelOv=     1 NCel=       1 NClECP=     1 NCelD=      1
         NCelK=      1 NCelE2=     1 NClLst=     1 CellRange=     0.0.
 One-electron integrals computed using PRISM.
 One-electron integral symmetry used in STVInt
 NBasis=   229 RedAO= T EigKep=  4.13D-04  NBF=   229
 NBsUse=   229 1.00D-06 EigRej= -1.00D+00 NBFU=   229
 Precomputing XC quadrature grid using
 IXCGrd= 4 IRadAn=           5 IRanWt=          -1 IRanGd=           0 AccXCQ= 0.00D+00.
 Generated NRdTot=       0 NPtTot=           0 NUsed=           0 NTot=          32
 NSgBfM=   228   228   228   228   228 MxSgAt=    21 MxSgA2=    21.
 Leave Link  302 at Tue Sep 17 09:42:33 2024, MaxMem=  1342177280 cpu:               0.8 elap:               0.1
 (Enter /groups/ReismanLab/Software/Gaussian16_RevC/Linux_Binary_AVX2-enabled-CPU/g16/l303.exe)
 DipDrv:  MaxL=1.
 Leave Link  303 at Tue Sep 17 09:42:33 2024, MaxMem=  1342177280 cpu:               0.1 elap:               0.0
 (Enter /groups/ReismanLab/Software/Gaussian16_RevC/Linux_Binary_AVX2-enabled-CPU/g16/l401.exe)
 ExpMin= 1.43D-01 ExpMax= 2.52D+04 ExpMxC= 3.78D+03 IAcc=3 IRadAn=         5 AccDes= 0.00D+00
 Harris functional with IExCor=  402 and IRadAn=       5 diagonalized for initial guess.
 HarFok:  IExCor=  402 AccDes= 0.00D+00 IRadAn=         5 IDoV= 1 UseB2=F ITyADJ=14
 ICtDFT=  3500011 ScaDFX=  1.000000  1.000000  1.000000  1.000000
 FoFCou: FMM=F IPFlag=           0 FMFlag=      100000 FMFlg1=           0
         NFxFlg=           0 DoJE=T BraDBF=F KetDBF=T FulRan=T
         wScrn=  0.000000 ICntrl=       500 IOpCl=  0 I1Cent=   200000004 NGrid=           0
         NMat0=    1 NMatS0=      1 NMatT0=    0 NMatD0=    1 NMtDS0=    0 NMtDT0=    0
 Petite list used in FoFCou.
 Harris En= -959.046243334477    
 JPrj=0 DoOrth=F DoCkMO=F.
 Leave Link  401 at Tue Sep 17 09:42:34 2024, MaxMem=  1342177280 cpu:               4.6 elap:               0.6
 (Enter /groups/ReismanLab/Software/Gaussian16_RevC/Linux_Binary_AVX2-enabled-CPU/g16/l502.exe)
 Integral symmetry usage will be decided dynamically.
 Closed shell SCF:
 Using DIIS extrapolation, IDIIS=  1040.
 NGot=  1342177280 LenX=  1342067587 LenY=  1342014705
 Requested convergence on RMS density matrix=1.00D-08 within  32 cycles.
 Requested convergence on MAX density matrix=1.00D-06.
 Requested convergence on             energy=1.00D-06.
 No special actions if energy rises.
 Fock matrices will be formed incrementally for  20 cycles.
 Integral accuracy reduced to 1.0D-05 until final iterations.

 Cycle   1  Pass 0  IDiag  1:
 FoFJK:  IHMeth= 1 ICntrl=       0 DoSepK=F KAlg= 0 I1Cent=           0 FoldK=F
 IRaf= 870000000 NMat=       1 IRICut=       1 DoRegI=T DoRafI=F ISym2E= 0 IDoP0=0 IntGTp=1.
 FoFCou: FMM=F IPFlag=           0 FMFlag=      100000 FMFlg1=           0
         NFxFlg=           0 DoJE=F BraDBF=F KetDBF=F FulRan=T
         wScrn=  0.000000 ICntrl=         0 IOpCl=  0 I1Cent=           0 NGrid=           0
         NMat0=    1 NMatS0=      1 NMatT0=    0 NMatD0=    1 NMtDS0=    0 NMtDT0=    0
 Symmetry not used in FoFCou.
 E= -958.766151671661    
 DIIS: error= 3.77D-02 at cycle   1 NSaved=   1.
 NSaved= 1 IEnMin= 1 EnMin= -958.766151671661     IErMin= 1 ErrMin= 3.77D-02
 ErrMax= 3.77D-02  0.00D+00 EMaxC= 1.00D-01 BMatC= 3.28D-01 BMatP= 3.28D-01
 IDIUse=3 WtCom= 6.23D-01 WtEn= 3.77D-01
 Coeff-Com:  0.100D+01
 Coeff-En:   0.100D+01
 Coeff:      0.100D+01
 Gap=     0.406 Goal=   None    Shift=    0.000
 GapD=    0.406 DampG=2.000 DampE=0.500 DampFc=1.0000 IDamp=-1.
 RMSDP=5.80D-03 MaxDP=2.03D-01              OVMax= 2.45D-01

 Cycle   2  Pass 0  IDiag  1:
 RMSU=  5.76D-03    CP:  9.71D-01
 E= -958.547372663421     Delta-E=        0.218779008239 Rises=F Damp=F
 DIIS: error= 3.71D-02 at cycle   2 NSaved=   2.
 NSaved= 2 IEnMin= 1 EnMin= -958.766151671661     IErMin= 2 ErrMin= 3.71D-02
 ErrMax= 3.71D-02  0.00D+00 EMaxC= 1.00D-01 BMatC= 5.91D-01 BMatP= 3.28D-01
 IDIUse=2 WtCom= 0.00D+00 WtEn= 1.00D+00
 Coeff-En:   0.621D+00 0.379D+00
 Coeff:      0.621D+00 0.379D+00
 Gap=     0.300 Goal=   None    Shift=    0.000
 RMSDP=3.41D-03 MaxDP=1.40D-01 DE= 2.19D-01 OVMax= 1.41D-01

 Cycle   3  Pass 0  IDiag  1:
 RMSU=  1.37D-03    CP:  9.77D-01  4.59D-01
 E= -959.062368814585     Delta-E=       -0.514996151164 Rises=F Damp=F
 DIIS: error= 7.47D-03 at cycle   3 NSaved=   3.
 NSaved= 3 IEnMin= 3 EnMin= -959.062368814585     IErMin= 3 ErrMin= 7.47D-03
 ErrMax= 7.47D-03  0.00D+00 EMaxC= 1.00D-01 BMatC= 2.11D-02 BMatP= 3.28D-01
 IDIUse=3 WtCom= 9.25D-01 WtEn= 7.47D-02
 Coeff-Com:  0.266D+00 0.183D+00 0.551D+00
 Coeff-En:   0.000D+00 0.000D+00 0.100D+01
 Coeff:      0.246D+00 0.170D+00 0.584D+00
 Gap=     0.223 Goal=   None    Shift=    0.000
 RMSDP=9.69D-04 MaxDP=3.62D-02 DE=-5.15D-01 OVMax= 6.83D-02

 Cycle   4  Pass 0  IDiag  1:
 RMSU=  8.04D-04    CP:  9.81D-01  4.05D-01  6.86D-01
 E= -959.074291751427     Delta-E=       -0.011922936842 Rises=F Damp=F
 DIIS: error= 5.61D-03 at cycle   4 NSaved=   4.
 NSaved= 4 IEnMin= 4 EnMin= -959.074291751427     IErMin= 4 ErrMin= 5.61D-03
 ErrMax= 5.61D-03  0.00D+00 EMaxC= 1.00D-01 BMatC= 9.16D-03 BMatP= 2.11D-02
 IDIUse=3 WtCom= 9.44D-01 WtEn= 5.61D-02
 Coeff-Com:  0.449D-01 0.168D-01 0.391D+00 0.547D+00
 Coeff-En:   0.000D+00 0.000D+00 0.307D+00 0.693D+00
 Coeff:      0.424D-01 0.158D-01 0.386D+00 0.555D+00
 Gap=     0.226 Goal=   None    Shift=    0.000
 RMSDP=4.45D-04 MaxDP=1.80D-02 DE=-1.19D-02 OVMax= 3.36D-02

 Cycle   5  Pass 0  IDiag  1:
 RMSU=  1.93D-04    CP:  9.80D-01  4.19D-01  7.77D-01  5.38D-01
 E= -959.081345068186     Delta-E=       -0.007053316759 Rises=F Damp=F
 DIIS: error= 1.55D-03 at cycle   5 NSaved=   5.
 NSaved= 5 IEnMin= 5 EnMin= -959.081345068186     IErMin= 5 ErrMin= 1.55D-03
 ErrMax= 1.55D-03  0.00D+00 EMaxC= 1.00D-01 BMatC= 5.96D-04 BMatP= 9.16D-03
 IDIUse=3 WtCom= 9.85D-01 WtEn= 1.55D-02
 Coeff-Com:  0.854D-02-0.291D-02 0.184D+00 0.321D+00 0.489D+00
 Coeff-En:   0.000D+00 0.000D+00 0.000D+00 0.000D+00 0.100D+01
 Coeff:      0.841D-02-0.287D-02 0.181D+00 0.316D+00 0.497D+00
 Gap=     0.224 Goal=   None    Shift=    0.000
 RMSDP=1.16D-04 MaxDP=4.11D-03 DE=-7.05D-03 OVMax= 7.26D-03

 Cycle   6  Pass 0  IDiag  1:
 RMSU=  6.25D-05    CP:  9.80D-01  4.18D-01  7.88D-01  5.85D-01  5.45D-01
 E= -959.081828044214     Delta-E=       -0.000482976028 Rises=F Damp=F
 DIIS: error= 4.99D-04 at cycle   6 NSaved=   6.
 NSaved= 6 IEnMin= 6 EnMin= -959.081828044214     IErMin= 6 ErrMin= 4.99D-04
 ErrMax= 4.99D-04  0.00D+00 EMaxC= 1.00D-01 BMatC= 4.99D-05 BMatP= 5.96D-04
 IDIUse=3 WtCom= 9.95D-01 WtEn= 4.99D-03
 Coeff-Com:  0.853D-03-0.363D-02 0.698D-01 0.131D+00 0.283D+00 0.519D+00
 Coeff-En:   0.000D+00 0.000D+00 0.000D+00 0.000D+00 0.156D-01 0.984D+00
 Coeff:      0.849D-03-0.361D-02 0.695D-01 0.130D+00 0.282D+00 0.521D+00
 Gap=     0.224 Goal=   None    Shift=    0.000
 RMSDP=4.11D-05 MaxDP=1.47D-03 DE=-4.83D-04 OVMax= 2.90D-03

 Cycle   7  Pass 0  IDiag  1:
 RMSU=  2.16D-05    CP:  9.80D-01  4.17D-01  7.89D-01  5.92D-01  6.00D-01
                    CP:  4.80D-01
 E= -959.081870626897     Delta-E=       -0.000042582682 Rises=F Damp=F
 DIIS: error= 1.86D-04 at cycle   7 NSaved=   7.
 NSaved= 7 IEnMin= 7 EnMin= -959.081870626897     IErMin= 7 ErrMin= 1.86D-04
 ErrMax= 1.86D-04  0.00D+00 EMaxC= 1.00D-01 BMatC= 4.83D-06 BMatP= 4.99D-05
 IDIUse=3 WtCom= 9.98D-01 WtEn= 1.86D-03
 Coeff-Com: -0.147D-03-0.202D-02 0.265D-01 0.512D-01 0.127D+00 0.311D+00
 Coeff-Com:  0.486D+00
 Coeff-En:   0.000D+00 0.000D+00 0.000D+00 0.000D+00 0.000D+00 0.540D-01
 Coeff-En:   0.946D+00
 Coeff:     -0.146D-03-0.202D-02 0.265D-01 0.511D-01 0.127D+00 0.311D+00
 Coeff:      0.487D+00
 Gap=     0.224 Goal=   None    Shift=    0.000
 RMSDP=1.22D-05 MaxDP=3.96D-04 DE=-4.26D-05 OVMax= 9.42D-04

 Cycle   8  Pass 0  IDiag  1:
 RMSU=  5.33D-06    CP:  9.80D-01  4.17D-01  7.90D-01  5.92D-01  5.92D-01
                    CP:  5.85D-01  6.10D-01
 E= -959.081875470928     Delta-E=       -0.000004844031 Rises=F Damp=F
 DIIS: error= 3.09D-05 at cycle   8 NSaved=   8.
 NSaved= 8 IEnMin= 8 EnMin= -959.081875470928     IErMin= 8 ErrMin= 3.09D-05
 ErrMax= 3.09D-05  0.00D+00 EMaxC= 1.00D-01 BMatC= 3.03D-07 BMatP= 4.83D-06
 IDIUse=1 WtCom= 1.00D+00 WtEn= 0.00D+00
 Coeff-Com: -0.151D-03-0.852D-03 0.815D-02 0.157D-01 0.434D-01 0.119D+00
 Coeff-Com:  0.255D+00 0.560D+00
 Coeff:     -0.151D-03-0.852D-03 0.815D-02 0.157D-01 0.434D-01 0.119D+00
 Coeff:      0.255D+00 0.560D+00
 Gap=     0.224 Goal=   None    Shift=    0.000
 RMSDP=3.08D-06 MaxDP=1.09D-04 DE=-4.84D-06 OVMax= 2.45D-04

 Initial convergence to 1.0D-05 achieved.  Increase integral accuracy.
 Cycle   9  Pass 1  IDiag  1:
 E= -959.081872666802     Delta-E=        0.000002804126 Rises=F Damp=F
 DIIS: error= 2.64D-05 at cycle   1 NSaved=   1.
 NSaved= 1 IEnMin= 1 EnMin= -959.081872666802     IErMin= 1 ErrMin= 2.64D-05
 ErrMax= 2.64D-05  0.00D+00 EMaxC= 1.00D-01 BMatC= 9.74D-08 BMatP= 9.74D-08
 IDIUse=1 WtCom= 1.00D+00 WtEn= 0.00D+00
 Coeff-Com:  0.100D+01
 Coeff:      0.100D+01
 Gap=     0.224 Goal=   None    Shift=    0.000
 RMSDP=3.08D-06 MaxDP=1.09D-04 DE= 2.80D-06 OVMax= 1.37D-04

 Cycle  10  Pass 1  IDiag  1:
 RMSU=  1.43D-05    CP:  1.00D+00
 E= -959.081872664035     Delta-E=        0.000000002767 Rises=F Damp=F
 DIIS: error= 1.50D-05 at cycle   2 NSaved=   2.
 NSaved= 2 IEnMin= 1 EnMin= -959.081872666802     IErMin= 2 ErrMin= 1.50D-05
 ErrMax= 1.50D-05  0.00D+00 EMaxC= 1.00D-01 BMatC= 8.46D-08 BMatP= 9.74D-08
 IDIUse=1 WtCom= 1.00D+00 WtEn= 0.00D+00
 Coeff-Com:  0.477D+00 0.523D+00
 Coeff:      0.477D+00 0.523D+00
 Gap=     0.224 Goal=   None    Shift=    0.000
 RMSDP=1.76D-06 MaxDP=7.19D-05 DE= 2.77D-09 OVMax= 1.43D-04

 Cycle  11  Pass 1  IDiag  1:
 RMSU=  1.75D-06    CP:  1.00D+00  9.88D-01
 E= -959.081872724814     Delta-E=       -0.000000060779 Rises=F Damp=F
 DIIS: error= 8.62D-06 at cycle   3 NSaved=   3.
 NSaved= 3 IEnMin= 3 EnMin= -959.081872724814     IErMin= 3 ErrMin= 8.62D-06
 ErrMax= 8.62D-06  0.00D+00 EMaxC= 1.00D-01 BMatC= 1.90D-08 BMatP= 8.46D-08
 IDIUse=1 WtCom= 1.00D+00 WtEn= 0.00D+00
 Coeff-Com:  0.391D-01 0.319D+00 0.642D+00
 Coeff:      0.391D-01 0.319D+00 0.642D+00
 Gap=     0.224 Goal=   None    Shift=    0.000
 RMSDP=7.04D-07 MaxDP=2.18D-05 DE=-6.08D-08 OVMax= 4.99D-05

 Cycle  12  Pass 1  IDiag  1:
 RMSU=  4.28D-07    CP:  1.00D+00  9.99D-01  6.95D-01
 E= -959.081872740131     Delta-E=       -0.000000015317 Rises=F Damp=F
 DIIS: error= 2.79D-06 at cycle   4 NSaved=   4.
 NSaved= 4 IEnMin= 4 EnMin= -959.081872740131     IErMin= 4 ErrMin= 2.79D-06
 ErrMax= 2.79D-06  0.00D+00 EMaxC= 1.00D-01 BMatC= 2.35D-09 BMatP= 1.90D-08
 IDIUse=1 WtCom= 1.00D+00 WtEn= 0.00D+00
 Coeff-Com: -0.314D-02 0.171D+00 0.403D+00 0.429D+00
 Coeff:     -0.314D-02 0.171D+00 0.403D+00 0.429D+00
 Gap=     0.224 Goal=   None    Shift=    0.000
 RMSDP=2.46D-07 MaxDP=1.02D-05 DE=-1.53D-08 OVMax= 1.36D-05

 Cycle  13  Pass 1  IDiag  1:
 RMSU=  6.18D-08    CP:  1.00D+00  9.99D-01  7.09D-01  4.47D-01
 E= -959.081872742373     Delta-E=       -0.000000002242 Rises=F Damp=F
 DIIS: error= 3.28D-07 at cycle   5 NSaved=   5.
 NSaved= 5 IEnMin= 5 EnMin= -959.081872742373     IErMin= 5 ErrMin= 3.28D-07
 ErrMax= 3.28D-07  0.00D+00 EMaxC= 1.00D-01 BMatC= 3.36D-11 BMatP= 2.35D-09
 IDIUse=1 WtCom= 1.00D+00 WtEn= 0.00D+00
 Coeff-Com: -0.242D-02 0.835D-01 0.196D+00 0.227D+00 0.496D+00
 Coeff:     -0.242D-02 0.835D-01 0.196D+00 0.227D+00 0.496D+00
 Gap=     0.224 Goal=   None    Shift=    0.000
 RMSDP=2.57D-08 MaxDP=1.18D-06 DE=-2.24D-09 OVMax= 1.38D-06

 Cycle  14  Pass 1  IDiag  1:
 RMSU=  2.09D-08    CP:  1.00D+00  9.99D-01  7.05D-01  4.48D-01  7.92D-01
 E= -959.081872742416     Delta-E=       -0.000000000043 Rises=F Damp=F
 DIIS: error= 9.63D-08 at cycle   6 NSaved=   6.
 NSaved= 6 IEnMin= 6 EnMin= -959.081872742416     IErMin= 6 ErrMin= 9.63D-08
 ErrMax= 9.63D-08  0.00D+00 EMaxC= 1.00D-01 BMatC= 3.15D-12 BMatP= 3.36D-11
 IDIUse=1 WtCom= 1.00D+00 WtEn= 0.00D+00
 Coeff-Com: -0.997D-03 0.270D-01 0.621D-01 0.759D-01 0.265D+00 0.570D+00
 Coeff:     -0.997D-03 0.270D-01 0.621D-01 0.759D-01 0.265D+00 0.570D+00
 Gap=     0.224 Goal=   None    Shift=    0.000
 RMSDP=9.23D-09 MaxDP=4.50D-07 DE=-4.27D-11 OVMax= 4.89D-07

 SCF Done:  E(RB3LYP) =  -959.081872742     A.U. after   14 cycles
            NFock= 14  Conv=0.92D-08     -V/T= 2.0060
 KE= 9.533818742983D+02 PE=-3.744134953932D+03 EE= 1.087159094553D+03
 Leave Link  502 at Tue Sep 17 09:42:45 2024, MaxMem=  1342177280 cpu:              82.4 elap:              11.1
 (Enter /groups/ReismanLab/Software/Gaussian16_RevC/Linux_Binary_AVX2-enabled-CPU/g16/l508.exe)
 QCSCF skips out because SCF is already converged.
 Leave Link  508 at Tue Sep 17 09:42:45 2024, MaxMem=  1342177280 cpu:               0.0 elap:               0.0
 (Enter /groups/ReismanLab/Software/Gaussian16_RevC/Linux_Binary_AVX2-enabled-CPU/g16/l601.exe)
 Copying SCF densities to generalized density rwf, IOpCl= 0 IROHF=0.

 **********************************************************************

            Population analysis using the SCF Density.

 **********************************************************************

 Orbital symmetries:
       Occupied  (A) (A) (A) (A) (A) (A) (A) (A) (A) (A) (A) (A)
                 (A) (A) (A) (A) (A) (A) (A) (A) (A) (A) (A) (A)
                 (A) (A) (A) (A) (A) (A) (A) (A) (A) (A) (A) (A)
                 (A) (A) (A) (A) (A) (A) (A) (A) (A) (A) (A) (A)
       Virtual   (A) (A) (A) (A) (A) (A) (A) (A) (A) (A) (A) (A)
                 (A) (A) (A) (A) (A) (A) (A) (A) (A) (A) (A) (A)
                 (A) (A) (A) (A) (A) (A) (A) (A) (A) (A) (A) (A)
                 (A) (A) (A) (A) (A) (A) (A) (A) (A) (A) (A) (A)
                 (A) (A) (A) (A) (A) (A) (A) (A) (A) (A) (A) (A)
                 (A) (A) (A) (A) (A) (A) (A) (A) (A) (A) (A) (A)
                 (A) (A) (A) (A) (A) (A) (A) (A) (A) (A) (A) (A)
                 (A) (A) (A) (A) (A) (A) (A) (A) (A) (A) (A) (A)
                 (A) (A) (A) (A) (A) (A) (A) (A) (A) (A) (A) (A)
                 (A) (A) (A) (A) (A) (A) (A) (A) (A) (A) (A) (A)
                 (A) (A) (A) (A) (A) (A) (A) (A) (A) (A) (A) (A)
                 (A) (A) (A) (A) (A) (A) (A) (A) (A) (A) (A) (A)
                 (A) (A) (A) (A) (A) (A) (A) (A) (A) (A) (A) (A)
                 (A) (A) (A) (A) (A) (A) (A) (A) (A) (A) (A) (A)
                 (A) (A) (A) (A) (A) (A) (A) (A) (A) (A) (A) (A)
                 (A)
 The electronic state is 1-A.
 Alpha  occ. eigenvalues -- -101.54807 -19.19842 -19.13590 -10.31765 -10.24891
 Alpha  occ. eigenvalues --  -10.24351 -10.20918 -10.20520 -10.20137 -10.20121
 Alpha  occ. eigenvalues --  -10.19868 -10.19859  -9.46487  -7.22870  -7.21915
 Alpha  occ. eigenvalues --   -7.21881  -1.11505  -1.02222  -0.89810  -0.85101
 Alpha  occ. eigenvalues --   -0.79131  -0.76271  -0.73433  -0.69407  -0.62704
 Alpha  occ. eigenvalues --   -0.59765  -0.57247  -0.52525  -0.50229  -0.49954
 Alpha  occ. eigenvalues --   -0.47879  -0.47622  -0.46094  -0.43751  -0.42702
 Alpha  occ. eigenvalues --   -0.42505  -0.41763  -0.39586  -0.37727  -0.36902
 Alpha  occ. eigenvalues --   -0.35683  -0.35661  -0.33300  -0.31213  -0.30642
 Alpha  occ. eigenvalues --   -0.27945  -0.26484  -0.23753
 Alpha virt. eigenvalues --   -0.01390  -0.01190   0.01416   0.03789   0.09526
 Alpha virt. eigenvalues --    0.11295   0.12506   0.12711   0.13279   0.14888
 Alpha virt. eigenvalues --    0.15865   0.16570   0.17432   0.17980   0.18838
 Alpha virt. eigenvalues --    0.22163   0.26105   0.27770   0.28569   0.29875
 Alpha virt. eigenvalues --    0.32003   0.33126   0.39005   0.40625   0.42045
 Alpha virt. eigenvalues --    0.42525   0.44331   0.45312   0.49248   0.50958
 Alpha virt. eigenvalues --    0.51385   0.52273   0.53251   0.55942   0.56154
 Alpha virt. eigenvalues --    0.56547   0.58364   0.58871   0.59793   0.60396
 Alpha virt. eigenvalues --    0.60649   0.62562   0.65005   0.65062   0.66622
 Alpha virt. eigenvalues --    0.69819   0.70537   0.73975   0.75223   0.76900
 Alpha virt. eigenvalues --    0.79230   0.80303   0.81205   0.82588   0.83353
 Alpha virt. eigenvalues --    0.83622   0.84401   0.86068   0.86561   0.87284
 Alpha virt. eigenvalues --    0.87906   0.89230   0.90624   0.91751   0.93489
 Alpha virt. eigenvalues --    0.94445   0.95459   0.99359   1.00176   1.01189
 Alpha virt. eigenvalues --    1.04466   1.06600   1.10507   1.11297   1.12768
 Alpha virt. eigenvalues --    1.14343   1.15227   1.18401   1.23877   1.25242
 Alpha virt. eigenvalues --    1.32236   1.33069   1.34996   1.37295   1.39072
 Alpha virt. eigenvalues --    1.41075   1.41777   1.43020   1.45316   1.48074
 Alpha virt. eigenvalues --    1.51725   1.54785   1.60396   1.62434   1.63006
 Alpha virt. eigenvalues --    1.71560   1.74989   1.78270   1.78672   1.79010
 Alpha virt. eigenvalues --    1.82342   1.84730   1.85079   1.88650   1.90749
 Alpha virt. eigenvalues --    1.92383   1.92577   1.93970   1.96662   1.96807
 Alpha virt. eigenvalues --    1.99615   2.00275   2.01452   2.02069   2.04150
 Alpha virt. eigenvalues --    2.04742   2.07386   2.08367   2.11713   2.12512
 Alpha virt. eigenvalues --    2.12874   2.17815   2.23282   2.24373   2.28178
 Alpha virt. eigenvalues --    2.30552   2.31224   2.33812   2.40345   2.41252
 Alpha virt. eigenvalues --    2.42906   2.43826   2.45193   2.46649   2.47859
 Alpha virt. eigenvalues --    2.50689   2.51938   2.56502   2.57712   2.59533
 Alpha virt. eigenvalues --    2.60099   2.64994   2.65773   2.68821   2.70905
 Alpha virt. eigenvalues --    2.72472   2.72612   2.73291   2.75763   2.80927
 Alpha virt. eigenvalues --    2.84552   2.88481   2.91502   2.94357   2.96078
 Alpha virt. eigenvalues --    3.05920   3.07547   3.19050   3.21287   3.22483
 Alpha virt. eigenvalues --    3.24952   3.29376   3.30760   3.36690   3.40795
 Alpha virt. eigenvalues --    3.42650   3.47862   3.52124   3.81854   4.01079
 Alpha virt. eigenvalues --    4.09153   4.14761   4.16525   4.23457   4.26700
 Alpha virt. eigenvalues --    4.30873   4.42946   4.44323   4.47824   4.66276
 Alpha virt. eigenvalues --    4.82664
          Condensed to atoms (all electrons):
               1          2          3          4          5          6
     1  C    4.727112   0.215057  -0.022449   0.002585   0.009056  -0.000347
     2  O    0.215057   8.207534   0.294534  -0.081187  -0.111436   0.001801
     3  C   -0.022449   0.294534   4.338536   0.548064   0.342591  -0.047109
     4  O    0.002585  -0.081187   0.548064   8.051697  -0.068031   0.003117
     5  C    0.009056  -0.111436   0.342591  -0.068031   5.282157   0.288209
     6  C   -0.000347   0.001801  -0.047109   0.003117   0.288209   4.731517
     7  C   -0.000139   0.002405  -0.002669   0.000055  -0.060408   0.550710
     8  C    0.000009  -0.000314  -0.000009   0.000000   0.006944  -0.024068
     9  C   -0.000002   0.000129   0.000023  -0.000000   0.000336  -0.034763
    10  Cl  -0.000000  -0.000000   0.000000   0.000000   0.000007   0.000689
    11  C    0.000009  -0.000283  -0.000036   0.000001   0.006933  -0.024671
    12  C   -0.000116   0.003683  -0.003814   0.000003  -0.050954   0.548406
    13  H    0.386451  -0.032091  -0.004671   0.003526  -0.000420   0.000041
    14  H    0.381929  -0.031600  -0.007179   0.010502   0.000045  -0.000054
    15  H    0.390096  -0.033272   0.004670   0.000679  -0.000026  -0.000069
    16  H   -0.000192   0.000806  -0.027511  -0.000592   0.365902  -0.026362
    17  H   -0.000168   0.001867  -0.028982  -0.000081   0.368458  -0.027842
    18  H   -0.000006   0.000264   0.000114  -0.000048  -0.008892  -0.045153
    19  H   -0.000000  -0.000003  -0.000000  -0.000000  -0.000182   0.003992
    20  H    0.000000  -0.000003  -0.000001  -0.000000  -0.000174   0.004067
    21  H   -0.000012   0.000198   0.000094  -0.000015  -0.009756  -0.044555
               7          8          9         10         11         12
     1  C   -0.000139   0.000009  -0.000002  -0.000000   0.000009  -0.000116
     2  O    0.002405  -0.000314   0.000129  -0.000000  -0.000283   0.003683
     3  C   -0.002669  -0.000009   0.000023   0.000000  -0.000036  -0.003814
     4  O    0.000055   0.000000  -0.000000   0.000000   0.000001   0.000003
     5  C   -0.060408   0.006944   0.000336   0.000007   0.006933  -0.050954
     6  C    0.550710  -0.024068  -0.034763   0.000689  -0.024671   0.548406
     7  C    4.870123   0.512985  -0.035479   0.004793  -0.046944  -0.032533
     8  C    0.512985   4.858216   0.532939  -0.070990  -0.032782  -0.046600
     9  C   -0.035479   0.532939   4.980952   0.233820   0.533776  -0.035516
    10  Cl   0.004793  -0.070990   0.233820  16.919641  -0.071082   0.004760
    11  C   -0.046944  -0.032782   0.533776  -0.071082   4.861108   0.510357
    12  C   -0.032533  -0.046600  -0.035516   0.004760   0.510357   4.867313
    13  H    0.000004  -0.000000   0.000000  -0.000000  -0.000000  -0.000017
    14  H   -0.000022  -0.000000   0.000000  -0.000000  -0.000000   0.000003
    15  H    0.000006   0.000004  -0.000002   0.000000   0.000001   0.000009
    16  H    0.003776  -0.000204   0.000014  -0.000000   0.000071  -0.004834
    17  H   -0.004457   0.000046   0.000016  -0.000000  -0.000202   0.003287
    18  H    0.367917  -0.041081   0.005210  -0.000189   0.000569   0.005779
    19  H   -0.032682   0.370694  -0.044582  -0.001273   0.004355   0.000867
    20  H    0.000845   0.004364  -0.044767  -0.001294   0.370661  -0.032527
    21  H    0.005884   0.000566   0.005239  -0.000189  -0.041752   0.367633
              13         14         15         16         17         18
     1  C    0.386451   0.381929   0.390096  -0.000192  -0.000168  -0.000006
     2  O   -0.032091  -0.031600  -0.033272   0.000806   0.001867   0.000264
     3  C   -0.004671  -0.007179   0.004670  -0.027511  -0.028982   0.000114
     4  O    0.003526   0.010502   0.000679  -0.000592  -0.000081  -0.000048
     5  C   -0.000420   0.000045  -0.000026   0.365902   0.368458  -0.008892
     6  C    0.000041  -0.000054  -0.000069  -0.026362  -0.027842  -0.045153
     7  C    0.000004  -0.000022   0.000006   0.003776  -0.004457   0.367917
     8  C   -0.000000  -0.000000   0.000004  -0.000204   0.000046  -0.041081
     9  C    0.000000   0.000000  -0.000002   0.000014   0.000016   0.005210
    10  Cl  -0.000000  -0.000000   0.000000  -0.000000  -0.000000  -0.000189
    11  C   -0.000000  -0.000000   0.000001   0.000071  -0.000202   0.000569
    12  C   -0.000017   0.000003   0.000009  -0.004834   0.003287   0.005779
    13  H    0.592441  -0.037586  -0.034603   0.000051  -0.000013   0.000001
    14  H   -0.037586   0.580918  -0.031058  -0.000017   0.000033  -0.000000
    15  H   -0.034603  -0.031058   0.578496   0.000002   0.000007  -0.000000
    16  H    0.000051  -0.000017   0.000002   0.561400  -0.022768   0.000055
    17  H   -0.000013   0.000033   0.000007  -0.022768   0.560624   0.004402
    18  H    0.000001  -0.000000  -0.000000   0.000055   0.004402   0.629328
    19  H   -0.000000   0.000000   0.000000   0.000003  -0.000005  -0.006598
    20  H   -0.000000  -0.000000   0.000000  -0.000007   0.000003   0.000018
    21  H    0.000002   0.000000  -0.000000   0.005319   0.000064  -0.000216
              19         20         21
     1  C   -0.000000   0.000000  -0.000012
     2  O   -0.000003  -0.000003   0.000198
     3  C   -0.000000  -0.000001   0.000094
     4  O   -0.000000  -0.000000  -0.000015
     5  C   -0.000182  -0.000174  -0.009756
     6  C    0.003992   0.004067  -0.044555
     7  C   -0.032682   0.000845   0.005884
     8  C    0.370694   0.004364   0.000566
     9  C   -0.044582  -0.044767   0.005239
    10  Cl  -0.001273  -0.001294  -0.000189
    11  C    0.004355   0.370661  -0.041752
    12  C    0.000867  -0.032527   0.367633
    13  H   -0.000000  -0.000000   0.000002
    14  H    0.000000  -0.000000   0.000000
    15  H    0.000000   0.000000  -0.000000
    16  H    0.000003  -0.000007   0.005319
    17  H   -0.000005   0.000003   0.000064
    18  H   -0.006598   0.000018  -0.000216
    19  H    0.598954  -0.000198   0.000018
    20  H   -0.000198   0.599309  -0.006673
    21  H    0.000018  -0.006673   0.630995
 Mulliken charges:
               1
     1  C   -0.088872
     2  O   -0.438089
     3  C    0.615805
     4  O   -0.470274
     5  C   -0.360358
     6  C    0.142445
     7  C   -0.104170
     8  C   -0.070716
     9  C   -0.097344
    10  Cl  -0.018694
    11  C   -0.070085
    12  C   -0.105187
    13  H    0.126887
    14  H    0.134086
    15  H    0.125061
    16  H    0.145088
    17  H    0.145713
    18  H    0.088529
    19  H    0.106641
    20  H    0.106377
    21  H    0.087157
 Sum of Mulliken charges =  -0.00000
 Mulliken charges with hydrogens summed into heavy atoms:
               1
     1  C    0.297162
     2  O   -0.438089
     3  C    0.615805
     4  O   -0.470274
     5  C   -0.069557
     6  C    0.142445
     7  C   -0.015641
     8  C    0.035924
     9  C   -0.097344
    10  Cl  -0.018694
    11  C    0.036292
    12  C   -0.018029
 Electronic spatial extent (au):  <R**2>=           3035.2408
 Charge=             -0.0000 electrons
 Dipole moment (field-independent basis, Debye):
    X=             -0.3627    Y=              0.4803    Z=              0.2681  Tot=              0.6589
 Quadrupole moment (field-independent basis, Debye-Ang):
   XX=            -91.7197   YY=            -71.9713   ZZ=            -69.0618
   XY=             -5.4557   XZ=             -1.0863   YZ=             -0.2463
 Traceless Quadrupole moment (field-independent basis, Debye-Ang):
   XX=            -14.1354   YY=              5.6130   ZZ=              8.5224
   XY=             -5.4557   XZ=             -1.0863   YZ=             -0.2463
 Octapole moment (field-independent basis, Debye-Ang**2):
  XXX=             26.0768  YYY=             16.7752  ZZZ=              0.1013  XYY=            -23.1818
  XXY=             26.7069  XXZ=              5.6773  XZZ=             -2.8872  YZZ=             -0.9259
  YYZ=             -0.3271  XYZ=              1.1453
 Hexadecapole moment (field-independent basis, Debye-Ang**3):
 XXXX=          -3387.3640 YYYY=           -469.6043 ZZZZ=           -310.2037 XXXY=            -93.5735
 XXXZ=            -20.3201 YYYX=            -16.6008 YYYZ=              0.5709 ZZZX=              0.2103
 ZZZY=              0.5207 XXYY=           -553.0433 XXZZ=           -535.3997 YYZZ=           -138.4289
 XXYZ=             -2.6803 YYXZ=             -0.4148 ZZXY=              3.5470
 N-N= 7.445121123391D+02 E-N=-3.744134948564D+03  KE= 9.533818742983D+02
 No NMR shielding tensors so no spin-rotation constants.
 Leave Link  601 at Tue Sep 17 09:42:45 2024, MaxMem=  1342177280 cpu:               0.4 elap:               0.1
 (Enter /groups/ReismanLab/Software/Gaussian16_RevC/Linux_Binary_AVX2-enabled-CPU/g16/l701.exe)
 ... and contract with generalized density number  0.
 Compute integral first derivatives.
 R6Disp: Adding Grimme-D3(BJ) dispersion energy 1st derivatives to the gradient.
 Leave Link  701 at Tue Sep 17 09:42:45 2024, MaxMem=  1342177280 cpu:               0.5 elap:               0.1
 (Enter /groups/ReismanLab/Software/Gaussian16_RevC/Linux_Binary_AVX2-enabled-CPU/g16/l702.exe)
 L702 exits ... SP integral derivatives will be done elsewhere.
 Leave Link  702 at Tue Sep 17 09:42:45 2024, MaxMem=  1342177280 cpu:               0.0 elap:               0.0
 (Enter /groups/ReismanLab/Software/Gaussian16_RevC/Linux_Binary_AVX2-enabled-CPU/g16/l703.exe)
 Integral derivatives from FoFJK, PRISM(SPDF).
 Compute integral first derivatives, UseDBF=F ICtDFT=           0.
 Calling FoFJK, ICntrl=      2127 FMM=F ISym2X=0 I1Cent= 0 IOpClX= 0 NMat=1 NMatS=1 NMatT=0.
 FoFJK:  IHMeth= 1 ICntrl=    2127 DoSepK=F KAlg= 0 I1Cent=           0 FoldK=F
 IRaf=         0 NMat=       1 IRICut=       1 DoRegI=T DoRafI=F ISym2E= 0 IDoP0=0 IntGTp=1.
 FoFCou: FMM=F IPFlag=           0 FMFlag=      100000 FMFlg1=         800
         NFxFlg=           0 DoJE=F BraDBF=F KetDBF=F FulRan=T
         wScrn=  0.000000 ICntrl=      2127 IOpCl=  0 I1Cent=           0 NGrid=           0
         NMat0=    1 NMatS0=      1 NMatT0=    0 NMatD0=    1 NMtDS0=    0 NMtDT0=    0
 Symmetry not used in FoFCou.
 Leave Link  703 at Tue Sep 17 09:42:49 2024, MaxMem=  1342177280 cpu:              29.6 elap:               3.8
 (Enter /groups/ReismanLab/Software/Gaussian16_RevC/Linux_Binary_AVX2-enabled-CPU/g16/l716.exe)
 Dipole        =-1.42712739D-01 1.88975466D-01 1.05473041D-01
 ***** Axes restored to original set *****
 -------------------------------------------------------------------
 Center     Atomic                   Forces (Hartrees/Bohr)
 Number     Number              X              Y              Z
 -------------------------------------------------------------------
      1        6           0.006780486    0.002343704    0.001558858
      2        8          -0.010226300    0.006371568    0.000053962
      3        6          -0.007048234   -0.005585212   -0.001024595
      4        8           0.017812854   -0.004729300   -0.000008532
      5        6          -0.000851937    0.004573570    0.001261111
      6        6           0.001440758   -0.006304281   -0.001950373
      7        6           0.001749954   -0.002169223    0.001484903
      8        6          -0.002312072    0.000261062    0.005954940
      9        6           0.003530546   -0.001402700   -0.000684360
     10       17          -0.012414393    0.005572603    0.002188681
     11        6          -0.003233499    0.002791430   -0.004707656
     12        6           0.001488644   -0.001147169   -0.002433634
     13        1           0.001116825    0.000709321   -0.000570878
     14        1           0.000742379    0.000748642    0.000230848
     15        1          -0.001078952    0.001372283    0.000117159
     16        1           0.001030873   -0.001852254   -0.000958190
     17        1           0.001595547   -0.001402611   -0.000582926
     18        1           0.002248062   -0.001762692    0.003417066
     19        1          -0.001874039    0.000096484    0.003454833
     20        1          -0.002332434    0.001568553   -0.002781326
     21        1           0.001834931   -0.000053778   -0.004019889
 -------------------------------------------------------------------
 Cartesian Forces:  Max     0.017812854 RMS     0.004144455
 Leave Link  716 at Tue Sep 17 09:42:49 2024, MaxMem=  1342177280 cpu:               0.0 elap:               0.0
 (Enter /groups/ReismanLab/Software/Gaussian16_RevC/Linux_Binary_AVX2-enabled-CPU/g16/l103.exe)

 GradGradGradGradGradGradGradGradGradGradGradGradGradGradGradGradGradGrad
 Berny optimization.
 FormGI is forming the generalized inverse of G from B-inverse, IUseBI=4.
 Internal  Forces:  Max     0.018421697 RMS     0.004356179
 Search for a local minimum.
 Step number   1 out of a maximum of  106
 All quantities printed in internal units (Hartrees-Bohrs-Radians)
 RMS Force = .43562D-02 SwitMx=.10000D-02 MixMth= 1
 Mixed Optimization -- RFO/linear search
 Second derivative matrix not updated -- first step.
 ITU=  0
     Eigenvalues ---    0.00482   0.00775   0.01003   0.01411   0.01642
     Eigenvalues ---    0.02239   0.02268   0.02275   0.02284   0.02291
     Eigenvalues ---    0.02294   0.02302   0.02304   0.02566   0.04909
     Eigenvalues ---    0.06411   0.10004   0.10304   0.10651   0.13275
     Eigenvalues ---    0.16000   0.16000   0.16000   0.16000   0.16000
     Eigenvalues ---    0.16000   0.16000   0.22000   0.22012   0.22977
     Eigenvalues ---    0.23998   0.24991   0.25000   0.25000   0.25000
     Eigenvalues ---    0.25000   0.30223   0.32446   0.32575   0.34518
     Eigenvalues ---    0.34587   0.34589   0.34611   0.35168   0.35977
     Eigenvalues ---    0.35995   0.36152   0.36156   0.42271   0.43528
     Eigenvalues ---    0.43562   0.47642   0.47823   0.48265   0.48607
     Eigenvalues ---    0.58592   1.04074
 RFO step:  Lambda=-4.83450210D-03 EMin= 4.81653713D-03
 Linear search not attempted -- first point.
 Iteration  1 RMS(Cart)=  0.10647101 RMS(Int)=  0.00123796
 Iteration  2 RMS(Cart)=  0.00316604 RMS(Int)=  0.00011810
 Iteration  3 RMS(Cart)=  0.00000687 RMS(Int)=  0.00011808
 Iteration  4 RMS(Cart)=  0.00000000 RMS(Int)=  0.00011808
 ITry= 1 IFail=0 DXMaxC= 4.30D-01 DCOld= 1.00D+10 DXMaxT= 3.00D-01 DXLimC= 3.00D+00 Rises=F
 Variable       Old X    -DE/DX   Delta X   Delta X   Delta X     New X
                                 (Linear)    (Quad)   (Total)
    R1        2.68579   0.00906   0.00000   0.02118   0.02118   2.70698
    R2        2.06351   0.00119   0.00000   0.00338   0.00338   2.06689
    R3        2.06312   0.00042   0.00000   0.00120   0.00120   2.06432
    R4        2.05403   0.00169   0.00000   0.00475   0.00475   2.05878
    R5        2.52072   0.01182   0.00000   0.02001   0.02001   2.54072
    R6        2.27050   0.01842   0.00000   0.01762   0.01762   2.28812
    R7        2.87520   0.00682   0.00000   0.02222   0.02222   2.89742
    R8        2.83336   0.00797   0.00000   0.02421   0.02421   2.85757
    R9        2.06465   0.00159   0.00000   0.00454   0.00454   2.06919
   R10        2.06348   0.00102   0.00000   0.00290   0.00290   2.06638
   R11        2.62598   0.00896   0.00000   0.01862   0.01862   2.64460
   R12        2.62489   0.00882   0.00000   0.01827   0.01827   2.64317
   R13        2.61267   0.01041   0.00000   0.02120   0.02120   2.63388
   R14        2.04117   0.00445   0.00000   0.01222   0.01222   2.05339
   R15        2.61793   0.00928   0.00000   0.01919   0.01919   2.63712
   R16        2.03844   0.00391   0.00000   0.01068   0.01068   2.04913
   R17        3.26805   0.01378   0.00000   0.04169   0.04169   3.30974
   R18        2.61742   0.00916   0.00000   0.01891   0.01891   2.63634
   R19        2.61329   0.01052   0.00000   0.02144   0.02144   2.63473
   R20        2.03838   0.00394   0.00000   0.01075   0.01075   2.04912
   R21        2.04090   0.00442   0.00000   0.01211   0.01211   2.05301
    A1        1.92363   0.00100   0.00000   0.00607   0.00605   1.92968
    A2        1.92574   0.00149   0.00000   0.00961   0.00960   1.93534
    A3        1.85375  -0.00082   0.00000  -0.00556  -0.00555   1.84820
    A4        1.89904  -0.00085   0.00000  -0.00409  -0.00412   1.89492
    A5        1.92754  -0.00052   0.00000  -0.00430  -0.00430   1.92325
    A6        1.93413  -0.00026   0.00000  -0.00153  -0.00153   1.93260
    A7        2.03280  -0.00287   0.00000  -0.01126  -0.01126   2.02154
    A8        2.16491  -0.00197   0.00000  -0.00776  -0.00804   2.15688
    A9        1.95287   0.00483   0.00000   0.01891   0.01865   1.97151
   A10        2.16540  -0.00287   0.00000  -0.01129  -0.01156   2.15384
   A11        1.96899   0.01375   0.00000   0.06813   0.06780   2.03679
   A12        1.86292  -0.00427   0.00000  -0.01436  -0.01494   1.84798
   A13        1.86827  -0.00497   0.00000  -0.02191  -0.02226   1.84601
   A14        1.93705  -0.00273   0.00000  -0.00468  -0.00500   1.93205
   A15        1.94423  -0.00269   0.00000  -0.00691  -0.00693   1.93730
   A16        1.87756   0.00028   0.00000  -0.02494  -0.02538   1.85218
   A17        2.10138   0.00084   0.00000   0.00367   0.00365   2.10503
   A18        2.10822   0.00088   0.00000   0.00384   0.00383   2.11205
   A19        2.07328  -0.00171   0.00000  -0.00723  -0.00726   2.06602
   A20        2.11093   0.00123   0.00000   0.00502   0.00501   2.11594
   A21        2.08867  -0.00060   0.00000  -0.00242  -0.00242   2.08626
   A22        2.08358  -0.00063   0.00000  -0.00260  -0.00260   2.08098
   A23        2.08208  -0.00005   0.00000  -0.00024  -0.00025   2.08184
   A24        2.10566   0.00038   0.00000   0.00227   0.00227   2.10793
   A25        2.09544  -0.00033   0.00000  -0.00203  -0.00203   2.09341
   A26        2.08795   0.00032   0.00000   0.00116   0.00116   2.08911
   A27        2.10697  -0.00065   0.00000  -0.00234  -0.00235   2.10463
   A28        2.08826   0.00032   0.00000   0.00117   0.00117   2.08943
   A29        2.08230  -0.00008   0.00000  -0.00038  -0.00039   2.08191
   A30        2.09547  -0.00032   0.00000  -0.00201  -0.00201   2.09346
   A31        2.10541   0.00041   0.00000   0.00239   0.00239   2.10781
   A32        2.11080   0.00127   0.00000   0.00519   0.00519   2.11598
   A33        2.08994  -0.00078   0.00000  -0.00351  -0.00351   2.08643
   A34        2.08245  -0.00049   0.00000  -0.00169  -0.00169   2.08076
    D1        1.24806   0.00003   0.00000  -0.01463  -0.01460   1.23346
    D2       -0.84965  -0.00051   0.00000  -0.01961  -0.01964  -0.86929
    D3       -2.94691  -0.00054   0.00000  -0.01975  -0.01975  -2.96666
    D4        0.00313  -0.00046   0.00000  -0.02579  -0.02583  -0.02270
    D5       -3.13487   0.00016   0.00000   0.01612   0.01616  -3.11871
    D6       -0.15911  -0.00063   0.00000  -0.04662  -0.04670  -0.20581
    D7        1.97290   0.00155   0.00000  -0.02011  -0.02024   1.95265
    D8       -2.30382  -0.00253   0.00000  -0.06602  -0.06575  -2.36958
    D9        2.98607  -0.00001   0.00000  -0.00470  -0.00481   2.98127
   D10       -1.16511   0.00218   0.00000   0.02182   0.02165  -1.14346
   D11        0.84136  -0.00191   0.00000  -0.02409  -0.02386   0.81750
   D12       -1.48813   0.00006   0.00000  -0.00714  -0.00713  -1.49526
   D13        1.62653   0.00030   0.00000   0.00518   0.00523   1.63176
   D14        2.70531  -0.00193   0.00000  -0.03191  -0.03206   2.67324
   D15       -0.46322  -0.00169   0.00000  -0.01959  -0.01970  -0.48292
   D16        0.61361   0.00134   0.00000   0.00738   0.00746   0.62108
   D17       -2.55491   0.00159   0.00000   0.01970   0.01982  -2.53509
   D18        3.11688  -0.00002   0.00000   0.00044   0.00043   3.11731
   D19       -0.02444   0.00010   0.00000   0.00499   0.00498  -0.01947
   D20        0.00168  -0.00030   0.00000  -0.01180  -0.01178  -0.01009
   D21       -3.13964  -0.00017   0.00000  -0.00725  -0.00722   3.13632
   D22       -3.11718   0.00002   0.00000  -0.00050  -0.00049  -3.11767
   D23        0.02410  -0.00012   0.00000  -0.00553  -0.00552   0.01858
   D24       -0.00209   0.00030   0.00000   0.01179   0.01176   0.00967
   D25        3.13918   0.00016   0.00000   0.00675   0.00673  -3.13727
   D26       -0.00076   0.00012   0.00000   0.00471   0.00473   0.00397
   D27        3.14086   0.00004   0.00000   0.00186   0.00187  -3.14045
   D28        3.14056  -0.00000   0.00000   0.00018   0.00019   3.14076
   D29       -0.00100  -0.00008   0.00000  -0.00267  -0.00267  -0.00367
   D30        3.13998  -0.00005   0.00000  -0.00174  -0.00174   3.13824
   D31        0.00021   0.00007   0.00000   0.00262   0.00263   0.00284
   D32       -0.00165   0.00003   0.00000   0.00110   0.00110  -0.00055
   D33       -3.14142   0.00014   0.00000   0.00545   0.00547  -3.13595
   D34       -0.00061  -0.00007   0.00000  -0.00263  -0.00264  -0.00325
   D35        3.14131  -0.00013   0.00000  -0.00515  -0.00516   3.13615
   D36       -3.14038   0.00005   0.00000   0.00173   0.00173  -3.13865
   D37        0.00154  -0.00002   0.00000  -0.00079  -0.00079   0.00075
   D38        0.00157  -0.00012   0.00000  -0.00469  -0.00471  -0.00314
   D39       -3.13971   0.00002   0.00000   0.00032   0.00031  -3.13940
   D40       -3.14035  -0.00005   0.00000  -0.00216  -0.00217   3.14066
   D41        0.00155   0.00008   0.00000   0.00285   0.00285   0.00440
         Item               Value     Threshold  Converged?
 Maximum Force            0.018422     0.000450     NO 
 RMS     Force            0.004356     0.000300     NO 
 Maximum Displacement     0.429607     0.001800     NO 
 RMS     Displacement     0.108707     0.001200     NO 
 Predicted change in Energy=-2.481670D-03
 Lowest energy point so far.  Saving SCF results.
 GradGradGradGradGradGradGradGradGradGradGradGradGradGradGradGradGradGrad

 Leave Link  103 at Tue Sep 17 09:42:49 2024, MaxMem=  1342177280 cpu:               0.1 elap:               0.0
 (Enter /groups/ReismanLab/Software/Gaussian16_RevC/Linux_Binary_AVX2-enabled-CPU/g16/l202.exe)
                          Input orientation:                          
 ---------------------------------------------------------------------
 Center     Atomic      Atomic             Coordinates (Angstroms)
 Number     Number       Type             X           Y           Z
 ---------------------------------------------------------------------
      1          6           0        3.446183    1.750540    0.149745
      2          8           0        2.406880    0.789182   -0.068454
      3          6           0        2.809416   -0.484999   -0.217077
      4          8           0        3.970724   -0.827125   -0.196995
      5          6           0        1.648827   -1.452259   -0.478411
      6          6           0        0.252959   -0.913609   -0.259228
      7          6           0       -0.328691   -0.938326    1.013395
      8          6           0       -1.602981   -0.419338    1.235834
      9          6           0       -2.312134    0.130484    0.167087
     10         17           0       -3.916290    0.781153    0.433266
     11          6           0       -1.757595    0.159744   -1.112719
     12          6           0       -0.481375   -0.363897   -1.315136
     13          1           0        4.031991    1.896656   -0.762270
     14          1           0        4.118344    1.423405    0.946303
     15          1           0        2.942920    2.676503    0.425857
     16          1           0        1.772910   -1.797354   -1.510139
     17          1           0        1.837666   -2.321650    0.157355
     18          1           0        0.223094   -1.365542    1.846301
     19          1           0       -2.046128   -0.441414    2.225255
     20          1           0       -2.319863    0.584891   -1.936684
     21          1           0       -0.049744   -0.338691   -2.311797
 ---------------------------------------------------------------------
                    Distance matrix (angstroms):
                    1          2          3          4          5
     1  C    0.000000
     2  O    1.432471   0.000000
     3  C    2.353225   1.344494   0.000000
     4  O    2.653249   2.252683   1.210821   0.000000
     5  C    3.725989   2.401409   1.533250   2.420990   0.000000
     6  C    4.178712   2.752320   2.592481   3.719291   1.512161
     7  C    4.714400   3.411456   3.401071   4.467928   2.529859
     8  C    5.601966   4.386419   4.645913   5.769356   3.818352
     9  C    5.981898   4.770583   5.172686   6.365837   4.314041
    10  Cl   7.431427   6.343049   6.874679   8.073957   6.065460
    11  C    5.586032   4.339301   4.698453   5.884394   3.821597
    12  C    4.694938   3.350496   3.471269   4.613676   2.534246
    13  H    1.093752   2.085393   2.732070   2.782493   4.120107
    14  H    1.092392   2.088320   2.590125   2.528597   4.049415
    15  H    1.089458   2.023280   3.228976   3.704016   4.420300
    16  H    4.259415   3.028291   2.113913   2.737896   1.094966
    17  H    4.378370   3.170532   2.111346   2.628518   1.093480
    18  H    4.793389   3.616358   3.423733   4.302288   2.728465
    19  H    6.267207   5.157979   5.435365   6.497582   4.688742
    20  H    6.241732   5.086660   5.514637   6.677708   4.693297
    21  H    4.758739   3.512790   3.547402   4.568930   2.736144
                    6          7          8          9         10
     6  C    0.000000
     7  C    1.399463   0.000000
     8  C    2.433932   1.393787   0.000000
     9  C    2.802067   2.406790   1.395501   0.000000
    10  Cl   4.553505   4.020451   2.727031   1.751439   0.000000
    11  C    2.433692   2.787092   2.423828   1.395089   2.726937
    12  C    1.398703   2.403193   2.787206   2.406881   4.020782
    13  H    4.736214   5.495967   6.411642   6.650639   8.114729
    14  H    4.675055   5.035712   6.017731   6.605291   8.076573
    15  H    4.538076   4.910767   5.559273   5.845064   7.116261
    16  H    2.157785   3.394536   4.564639   4.818426   6.541599
    17  H    2.160421   2.709150   4.076758   4.820155   6.543052
    18  H    2.153692   1.086606   2.145348   3.388988   4.872317
    19  H    3.417810   2.159888   1.084352   2.152645   2.864158
    20  H    3.417422   3.871424   3.404008   2.152301   2.864221
    21  H    2.152951   3.390321   3.873595   3.388717   4.872330
                   11         12         13         14         15
    11  C    0.000000
    12  C    1.394241   0.000000
    13  H    6.054666   5.078015   0.000000
    14  H    6.353193   5.428257   1.775005   0.000000
    15  H    5.549427   4.899070   1.790498   1.795199   0.000000
    16  H    4.056185   2.678550   4.394140   4.680647   5.013223
    17  H    4.549319   3.373274   4.843023   4.455263   5.125936
    18  H    3.873684   3.390318   5.652811   4.874545   5.074766
    19  H    3.403926   3.871540   7.164873   6.566124   6.152223
    20  H    1.084350   2.160222   6.591359   7.103888   6.136231
    21  H    2.145456   1.086405   4.904934   5.576124   5.053929
                   16         17         18         19         20
    16  H    0.000000
    17  H    1.749175   0.000000
    18  H    3.722107   2.524584   0.000000
    19  H    5.511514   4.784909   2.479312   0.000000
    20  H    4.754768   5.487989   4.958004   4.295343   0.000000
    21  H    2.468284   3.686618   4.291695   4.957917   2.479345
                   21
    21  H    0.000000
 Stoichiometry    C9H9ClO2
 Framework group  C1[X(C9H9ClO2)]
 Deg. of freedom    57
 Full point group                 C1      NOp   1
 RotChk:  IX=0 Diff= 8.97D-02
 Largest Abelian subgroup         C1      NOp   1
 Largest concise Abelian subgroup C1      NOp   1
                         Standard orientation:                         
 ---------------------------------------------------------------------
 Center     Atomic      Atomic             Coordinates (Angstroms)
 Number     Number       Type             X           Y           Z
 ---------------------------------------------------------------------
      1          6           0       -3.270567    1.993771   -0.078858
      2          8           0       -2.304197    0.944172    0.049372
      3          6           0       -2.787117   -0.308560   -0.022137
      4          8           0       -3.961930   -0.566491   -0.161330
      5          6           0       -1.703154   -1.378415    0.154747
      6          6           0       -0.267540   -0.906390    0.101498
      7          6           0        0.395814   -0.779402   -1.124199
      8          6           0        1.709426   -0.318268   -1.190688
      9          6           0        2.375235    0.018054   -0.011278
     10         17           0        4.027814    0.593864   -0.081731
     11          6           0        1.738663   -0.107312    1.223765
     12          6           0        0.424208   -0.569923    1.269678
     13          1           0       -3.907024    2.040598    0.809412
     14          1           0       -3.905200    1.834131   -0.953544
     15          1           0       -2.698426    2.915308   -0.180568
     16          1           0       -1.915437   -1.864539    1.112646
     17          1           0       -1.897738   -2.128918   -0.616344
     18          1           0       -0.122123   -1.040306   -2.043102
     19          1           0        2.215968   -0.221762   -2.144586
     20          1           0        2.267525    0.152193    2.134137
     21          1           0       -0.071171   -0.665182    2.231864
 ---------------------------------------------------------------------
 Rotational constants (GHZ):           2.0736352           0.3483512           0.3347425
 Leave Link  202 at Tue Sep 17 09:42:49 2024, MaxMem=  1342177280 cpu:               0.0 elap:               0.0
 (Enter /groups/ReismanLab/Software/Gaussian16_RevC/Linux_Binary_AVX2-enabled-CPU/g16/l301.exe)
 Standard basis: 6-31G(d,p) (6D, 7F)
 Ernie: Thresh=  0.10000D-02 Tol=  0.10000D-05 Strict=F.
 There are   229 symmetry adapted cartesian basis functions of A   symmetry.
 There are   229 symmetry adapted basis functions of A   symmetry.
   229 basis functions,   423 primitive gaussians,   229 cartesian basis functions
    48 alpha electrons       48 beta electrons
       nuclear repulsion energy       733.4080347644 Hartrees.
 IExCor=  402 DFT=T Ex+Corr=B3LYP ExCW=0 ScaHFX=  0.200000
 ScaDFX=  0.800000  0.720000  1.000000  0.810000 ScalE2=  1.000000  1.000000
 IRadAn=      5 IRanWt=     -1 IRanGd=            0 ICorTp=0 IEmpDi=141
 NAtoms=   21 NActive=   21 NUniq=   21 SFac= 1.00D+00 NAtFMM=   60 NAOKFM=F Big=F
 Integral buffers will be    131072 words long.
 Raffenetti 2 integral format.
 Two-electron integral symmetry is turned on.
 R6Disp:  Grimme-D3(BJ) Dispersion energy=       -0.0396211406 Hartrees.
 Nuclear repulsion after empirical dispersion term =      733.3684136238 Hartrees.
 Leave Link  301 at Tue Sep 17 09:42:49 2024, MaxMem=  1342177280 cpu:               0.1 elap:               0.0
 (Enter /groups/ReismanLab/Software/Gaussian16_RevC/Linux_Binary_AVX2-enabled-CPU/g16/l302.exe)
 NPDir=0 NMtPBC=     1 NCelOv=     1 NCel=       1 NClECP=     1 NCelD=      1
         NCelK=      1 NCelE2=     1 NClLst=     1 CellRange=     0.0.
 One-electron integrals computed using PRISM.
 One-electron integral symmetry used in STVInt
 NBasis=   229 RedAO= T EigKep=  4.46D-04  NBF=   229
 NBsUse=   229 1.00D-06 EigRej= -1.00D+00 NBFU=   229
 Precomputing XC quadrature grid using
 IXCGrd= 4 IRadAn=           5 IRanWt=          -1 IRanGd=           0 AccXCQ= 0.00D+00.
 Generated NRdTot=       0 NPtTot=           0 NUsed=           0 NTot=          32
 NSgBfM=   228   228   228   228   228 MxSgAt=    21 MxSgA2=    21.
 Leave Link  302 at Tue Sep 17 09:42:50 2024, MaxMem=  1342177280 cpu:               0.8 elap:               0.1
 (Enter /groups/ReismanLab/Software/Gaussian16_RevC/Linux_Binary_AVX2-enabled-CPU/g16/l303.exe)
 DipDrv:  MaxL=1.
 Leave Link  303 at Tue Sep 17 09:42:50 2024, MaxMem=  1342177280 cpu:               0.1 elap:               0.0
 (Enter /groups/ReismanLab/Software/Gaussian16_RevC/Linux_Binary_AVX2-enabled-CPU/g16/l401.exe)
 Initial guess from the checkpoint file:  "smiles_00075_conf_2.chk"
 B after Tr=    -0.000000    0.000000    0.000000
         Rot=    0.999571    0.028053    0.000442   -0.008459 Ang=   3.36 deg.
 Guess basis will be translated and rotated to current coordinates.
 JPrj=2 DoOrth=T DoCkMO=T.
 Generating alternative initial guess.
 ExpMin= 1.43D-01 ExpMax= 2.52D+04 ExpMxC= 3.78D+03 IAcc=3 IRadAn=         5 AccDes= 0.00D+00
 Harris functional with IExCor=  402 and IRadAn=       5 diagonalized for initial guess.
 HarFok:  IExCor=  402 AccDes= 0.00D+00 IRadAn=         5 IDoV= 1 UseB2=F ITyADJ=14
 ICtDFT=  3500011 ScaDFX=  1.000000  1.000000  1.000000  1.000000
 FoFCou: FMM=F IPFlag=           0 FMFlag=      100000 FMFlg1=           0
         NFxFlg=           0 DoJE=T BraDBF=F KetDBF=T FulRan=T
         wScrn=  0.000000 ICntrl=       500 IOpCl=  0 I1Cent=   200000004 NGrid=           0
         NMat0=    1 NMatS0=      1 NMatT0=    0 NMatD0=    1 NMtDS0=    0 NMtDT0=    0
 Petite list used in FoFCou.
 Harris En= -959.040191186697    
 Leave Link  401 at Tue Sep 17 09:42:51 2024, MaxMem=  1342177280 cpu:               5.4 elap:               0.9
 (Enter /groups/ReismanLab/Software/Gaussian16_RevC/Linux_Binary_AVX2-enabled-CPU/g16/l502.exe)
 Integral symmetry usage will be decided dynamically.
 Closed shell SCF:
 Using DIIS extrapolation, IDIIS=  1040.
 NGot=  1342177280 LenX=  1342067587 LenY=  1342014705
 Requested convergence on RMS density matrix=1.00D-08 within  32 cycles.
 Requested convergence on MAX density matrix=1.00D-06.
 Requested convergence on             energy=1.00D-06.
 No special actions if energy rises.
 Fock matrices will be formed incrementally for  20 cycles.
 Integral accuracy reduced to 1.0D-05 until final iterations.

 Cycle   1  Pass 0  IDiag  1:
 FoFJK:  IHMeth= 1 ICntrl=       0 DoSepK=F KAlg= 0 I1Cent=           0 FoldK=F
 IRaf= 860000000 NMat=       1 IRICut=       1 DoRegI=T DoRafI=F ISym2E= 0 IDoP0=0 IntGTp=1.
 FoFCou: FMM=F IPFlag=           0 FMFlag=      100000 FMFlg1=           0
         NFxFlg=           0 DoJE=F BraDBF=F KetDBF=F FulRan=T
         wScrn=  0.000000 ICntrl=         0 IOpCl=  0 I1Cent=           0 NGrid=           0
         NMat0=    1 NMatS0=      1 NMatT0=    0 NMatD0=    1 NMtDS0=    0 NMtDT0=    0
 Symmetry not used in FoFCou.
 E= -959.074689149302    
 DIIS: error= 4.37D-03 at cycle   1 NSaved=   1.
 NSaved= 1 IEnMin= 1 EnMin= -959.074689149302     IErMin= 1 ErrMin= 4.37D-03
 ErrMax= 4.37D-03  0.00D+00 EMaxC= 1.00D-01 BMatC= 5.53D-03 BMatP= 5.53D-03
 IDIUse=3 WtCom= 9.56D-01 WtEn= 4.37D-02
 Coeff-Com:  0.100D+01
 Coeff-En:   0.100D+01
 Coeff:      0.100D+01
 Gap=     1.880 Goal=   None    Shift=    0.000
[...]
                 (A) (A) (A) (A) (A) (A) (A) (A) (A) (A) (A) (A)
                 (A) (A) (A) (A) (A) (A) (A) (A) (A) (A) (A) (A)
                 (A) (A) (A) (A) (A) (A) (A) (A) (A) (A) (A) (A)
                 (A) (A) (A) (A) (A) (A) (A) (A) (A) (A) (A) (A)
                 (A) (A) (A) (A) (A) (A) (A) (A) (A) (A) (A) (A)
                 (A) (A) (A) (A) (A) (A) (A) (A) (A) (A) (A) (A)
                 (A) (A) (A) (A) (A) (A) (A) (A) (A) (A) (A) (A)
                 (A) (A) (A) (A) (A) (A) (A) (A) (A) (A) (A) (A)
                 (A) (A) (A) (A) (A) (A) (A) (A) (A) (A) (A) (A)
                 (A) (A) (A) (A) (A) (A) (A) (A) (A) (A) (A) (A)
                 (A) (A) (A) (A) (A) (A) (A) (A) (A) (A) (A) (A)
                 (A) (A) (A) (A) (A) (A) (A) (A) (A) (A) (A) (A)
                 (A) (A) (A) (A) (A) (A) (A) (A) (A) (A) (A) (A)
                 (A) (A) (A) (A) (A) (A) (A) (A) (A) (A) (A) (A)
                 (A) (A) (A) (A) (A) (A) (A) (A) (A) (A) (A) (A)
                 (A) (A) (A) (A) (A) (A) (A) (A) (A) (A) (A) (A)
                 (A) (A) (A) (A) (A) (A) (A) (A) (A) (A) (A) (A)
                 (A) (A) (A) (A) (A) (A) (A) (A) (A) (A) (A) (A)
                 (A) (A) (A) (A) (A) (A) (A) (A) (A) (A) (A) (A)
                 (A) (A) (A) (A) (A) (A) (A) (A) (A) (A) (A) (A)
                 (A) (A) (A) (A) (A) (A) (A) (A) (A) (A) (A) (A)
                 (A) (A) (A) (A) (A) (A) (A) (A) (A) (A) (A) (A)
                 (A) (A) (A) (A) (A) (A) (A) (A) (A) (A) (A) (A)
                 (A) (A) (A) (A) (A) (A) (A) (A) (A) (A) (A) (A)
                 (A) (A) (A) (A) (A) (A) (A) (A) (A) (A) (A) (A)
                 (A) (A) (A) (A) (A) (A) (A) (A) (A) (A) (A) (A)
                 (A) (A) (A) (A) (A) (A) (A) (A) (A) (A) (A) (A)
                 (A) (A) (A) (A) (A) (A) (A) (A) (A) (A) (A) (A)
                 (A) (A) (A) (A) (A) (A) (A) (A) (A) (A) (A) (A)
                 (A) (A) (A) (A) (A) (A) (A) (A) (A) (A) (A) (A)
                 (A) (A) (A) (A) (A) (A) (A) (A) (A) (A) (A) (A)
 The electronic state is 1-A.
 Alpha  occ. eigenvalues -- -102.64594 -19.67720 -19.62131 -10.67836 -10.60785
 Alpha  occ. eigenvalues --  -10.58846 -10.56629 -10.55894 -10.55672 -10.55621
 Alpha  occ. eigenvalues --  -10.55478 -10.55208  -9.80841  -7.53037  -7.52530
 Alpha  occ. eigenvalues --   -7.52518  -1.23598  -1.14347  -0.99637  -0.94633
 Alpha  occ. eigenvalues --   -0.88499  -0.85656  -0.82721  -0.77872  -0.70832
 Alpha  occ. eigenvalues --   -0.67688  -0.65237  -0.59699  -0.58522  -0.57180
 Alpha  occ. eigenvalues --   -0.56034  -0.54569  -0.53435  -0.50115  -0.49862
 Alpha  occ. eigenvalues --   -0.48613  -0.47672  -0.46271  -0.45432  -0.43616
 Alpha  occ. eigenvalues --   -0.42062  -0.41564  -0.39839  -0.38182  -0.37806
 Alpha  occ. eigenvalues --   -0.36052  -0.32119  -0.29758
 Alpha virt. eigenvalues --    0.00440   0.00799   0.04841   0.06487   0.07829
 Alpha virt. eigenvalues --    0.09869   0.10642   0.11664   0.12401   0.13400
 Alpha virt. eigenvalues --    0.14268   0.14531   0.15627   0.16292   0.16715
 Alpha virt. eigenvalues --    0.17906   0.18342   0.19964   0.21086   0.21986
 Alpha virt. eigenvalues --    0.23717   0.24504   0.24796   0.25202   0.25876
 Alpha virt. eigenvalues --    0.27675   0.28032   0.28464   0.28901   0.31087
 Alpha virt. eigenvalues --    0.31404   0.32967   0.33390   0.33913   0.34824
 Alpha virt. eigenvalues --    0.35372   0.35948   0.37055   0.37780   0.38144
 Alpha virt. eigenvalues --    0.38546   0.38774   0.40316   0.40832   0.41584
 Alpha virt. eigenvalues --    0.42433   0.42889   0.43718   0.44459   0.45181
 Alpha virt. eigenvalues --    0.46408   0.46626   0.47746   0.48737   0.49401
 Alpha virt. eigenvalues --    0.49720   0.49923   0.50396   0.51019   0.52374
 Alpha virt. eigenvalues --    0.53764   0.54399   0.54603   0.57242   0.57924
 Alpha virt. eigenvalues --    0.58455   0.59548   0.60047   0.61726   0.62223
 Alpha virt. eigenvalues --    0.63954   0.64616   0.65777   0.67331   0.68268
 Alpha virt. eigenvalues --    0.69540   0.70373   0.73123   0.73874   0.74506
 Alpha virt. eigenvalues --    0.75850   0.76928   0.77777   0.78193   0.80268
 Alpha virt. eigenvalues --    0.81186   0.81953   0.84806   0.85232   0.86817
 Alpha virt. eigenvalues --    0.89024   0.89826   0.90631   0.91068   0.93676
 Alpha virt. eigenvalues --    0.94292   0.95002   0.97494   0.99952   1.00306
 Alpha virt. eigenvalues --    1.02546   1.03867   1.04366   1.05112   1.06828
 Alpha virt. eigenvalues --    1.07163   1.09534   1.10810   1.12672   1.14251
 Alpha virt. eigenvalues --    1.15511   1.16961   1.20535   1.22159   1.24144
 Alpha virt. eigenvalues --    1.25247   1.25599   1.27110   1.27333   1.28541
 Alpha virt. eigenvalues --    1.30456   1.32200   1.35330   1.36437   1.38109
 Alpha virt. eigenvalues --    1.41092   1.44051   1.44859   1.48138   1.49332
 Alpha virt. eigenvalues --    1.50109   1.50416   1.52195   1.53587   1.54333
 Alpha virt. eigenvalues --    1.56374   1.56803   1.57368   1.57893   1.59958
 Alpha virt. eigenvalues --    1.60334   1.61347   1.61907   1.63569   1.63885
 Alpha virt. eigenvalues --    1.66317   1.67740   1.69458   1.71190   1.72328
 Alpha virt. eigenvalues --    1.73419   1.76055   1.77295   1.78363   1.79394
 Alpha virt. eigenvalues --    1.81742   1.83058   1.84595   1.84792   1.86196
 Alpha virt. eigenvalues --    1.88839   1.89552   1.90377   1.92233   1.93311
 Alpha virt. eigenvalues --    1.94366   1.94539   1.95791   1.98102   2.01195
 Alpha virt. eigenvalues --    2.02123   2.04791   2.05167   2.06181   2.07479
 Alpha virt. eigenvalues --    2.09579   2.10293   2.12408   2.12786   2.13732
 Alpha virt. eigenvalues --    2.14932   2.17176   2.18546   2.18817   2.19308
 Alpha virt. eigenvalues --    2.20471   2.21136   2.22321   2.24403   2.25347
 Alpha virt. eigenvalues --    2.27190   2.28050   2.28387   2.29467   2.30784
 Alpha virt. eigenvalues --    2.32449   2.32848   2.34486   2.37744   2.40090
 Alpha virt. eigenvalues --    2.41933   2.43057   2.44607   2.45128   2.48297
 Alpha virt. eigenvalues --    2.50769   2.53149   2.54592   2.55386   2.55726
 Alpha virt. eigenvalues --    2.58964   2.59961   2.61508   2.62675   2.63709
 Alpha virt. eigenvalues --    2.64525   2.64771   2.66072   2.67660   2.69989
 Alpha virt. eigenvalues --    2.70774   2.72394   2.74313   2.76084   2.76487
 Alpha virt. eigenvalues --    2.78172   2.80140   2.80950   2.81767   2.82538
 Alpha virt. eigenvalues --    2.83361   2.85884   2.87994   2.89389   2.91022
 Alpha virt. eigenvalues --    2.91715   2.92568   2.95547   2.96527   3.00155
 Alpha virt. eigenvalues --    3.01569   3.02859   3.03438   3.04696   3.05838
 Alpha virt. eigenvalues --    3.06827   3.08119   3.08746   3.10337   3.10965
 Alpha virt. eigenvalues --    3.12924   3.13623   3.15288   3.16618   3.17519
 Alpha virt. eigenvalues --    3.18856   3.19378   3.20296   3.22254   3.22858
 Alpha virt. eigenvalues --    3.24177   3.25032   3.26379   3.27791   3.29113
 Alpha virt. eigenvalues --    3.31062   3.32427   3.32708   3.34719   3.35047
 Alpha virt. eigenvalues --    3.35557   3.37919   3.39350   3.40311   3.40969
 Alpha virt. eigenvalues --    3.41775   3.43449   3.44594   3.45287   3.45755
 Alpha virt. eigenvalues --    3.46680   3.48793   3.49709   3.50572   3.52280
 Alpha virt. eigenvalues --    3.55113   3.56254   3.56921   3.58730   3.59107
 Alpha virt. eigenvalues --    3.60271   3.62754   3.66697   3.67449   3.72280
 Alpha virt. eigenvalues --    3.75946   3.78454   3.79442   3.81360   3.85954
 Alpha virt. eigenvalues --    3.86379   3.87719   3.90391   3.94169   3.98980
 Alpha virt. eigenvalues --    4.01043   4.03147   4.03899   4.06665   4.10060
 Alpha virt. eigenvalues --    4.13634   4.15925   4.16623   4.17811   4.18035
 Alpha virt. eigenvalues --    4.20151   4.22192   4.23922   4.25995   4.27632
 Alpha virt. eigenvalues --    4.30982   4.34413   4.37184   4.39203   4.39937
 Alpha virt. eigenvalues --    4.46514   4.48534   4.52638   4.56449   4.60422
 Alpha virt. eigenvalues --    4.61301   4.63716   4.68873   4.74400   4.78963
 Alpha virt. eigenvalues --    4.82547   4.85212   4.90409   4.91661   5.09775
 Alpha virt. eigenvalues --    5.14588   5.18861   5.22788   5.28805   5.30648
 Alpha virt. eigenvalues --    5.33033   5.40090   5.41733   5.49778   5.53250
 Alpha virt. eigenvalues --    5.61852   5.66664   5.81101   5.95786   6.02033
 Alpha virt. eigenvalues --    6.10700   6.16705   6.36057   6.37097   6.49906
 Alpha virt. eigenvalues --    6.63365   6.64287   6.76331   6.79576   6.87116
 Alpha virt. eigenvalues --    6.97734   7.09681   7.21420   7.34667  10.81679
 Alpha virt. eigenvalues --   10.88954  11.39908  22.07354  22.41255  22.60098
 Alpha virt. eigenvalues --   22.72545  22.74846  22.80583  22.86313  23.25965
 Alpha virt. eigenvalues --   23.39735  25.94137  44.03745  44.23891
          Condensed to atoms (all electrons):
               1          2          3          4          5          6
     1  C    4.876208   0.203154  -0.053914   0.001515   0.008475  -0.000421
     2  O    0.203154   7.977510   0.350461  -0.084644  -0.090906   0.001146
     3  C   -0.053914   0.350461   4.481990   0.623570   0.302135  -0.008292
     4  O    0.001515  -0.084644   0.623570   7.886179  -0.073914  -0.029526
     5  C    0.008475  -0.090906   0.302135  -0.073914   5.225018   0.286284
     6  C   -0.000421   0.001146  -0.008292  -0.029526   0.286284   5.096987
     7  C   -0.000017   0.000449  -0.003534   0.012405  -0.083038   0.375029
     8  C   -0.000025   0.000088   0.002053   0.000220   0.009062   0.011013
     9  C    0.000009   0.000051   0.000235   0.000200  -0.005333  -0.109255
    10  Cl  -0.000000  -0.000000   0.000006   0.000000  -0.000065  -0.003534
    11  C   -0.000003  -0.000288  -0.001092  -0.000090   0.016655   0.015057
    12  C   -0.000055   0.002392   0.001738   0.000826  -0.070076   0.430777
    13  H    0.421288  -0.033225  -0.009504   0.003312   0.000104  -0.000078
    14  H    0.417333  -0.035545  -0.005674   0.004637  -0.001031  -0.000382
    15  H    0.394800  -0.029375   0.005309   0.001876   0.000698   0.000239
    16  H   -0.000130   0.006568  -0.032596   0.004798   0.421656  -0.055272
    17  H   -0.000520   0.003190  -0.045728   0.000509   0.423873  -0.037750
    18  H   -0.000089   0.000669  -0.004416   0.015110   0.000893  -0.036457
    19  H    0.000000  -0.000001   0.000001  -0.000047   0.000059   0.009280
    20  H    0.000000  -0.000005  -0.000007  -0.000000   0.000090   0.008663
    21  H   -0.000002  -0.000033  -0.000500   0.000007  -0.004879  -0.035813
               7          8          9         10         11         12
     1  C   -0.000017  -0.000025   0.000009  -0.000000  -0.000003  -0.000055
     2  O    0.000449   0.000088   0.000051  -0.000000  -0.000288   0.002392
     3  C   -0.003534   0.002053   0.000235   0.000006  -0.001092   0.001738
     4  O    0.012405   0.000220   0.000200   0.000000  -0.000090   0.000826
     5  C   -0.083038   0.009062  -0.005333  -0.000065   0.016655  -0.070076
     6  C    0.375029   0.011013  -0.109255  -0.003534   0.015057   0.430777
     7  C    5.158060   0.387289   0.057004   0.015201  -0.127083   0.025618
     8  C    0.387289   5.115925   0.336729  -0.058375   0.085910  -0.126200
     9  C    0.057004   0.336729   5.044996   0.299215   0.340770   0.057132
    10  Cl   0.015201  -0.058375   0.299215  16.892117  -0.056854   0.014685
    11  C   -0.127083   0.085910   0.340770  -0.056854   5.123845   0.373809
    12  C    0.025618  -0.126200   0.057132   0.014685   0.373809   5.106760
    13  H   -0.000081   0.000002  -0.000000  -0.000000  -0.000000   0.000003
    14  H    0.000477  -0.000049   0.000011   0.000000  -0.000019   0.000126
    15  H   -0.000063   0.000000  -0.000001  -0.000000  -0.000000  -0.000010
    16  H    0.013357  -0.000489   0.000101   0.000001   0.001296  -0.008621
    17  H   -0.010925  -0.000677   0.000452  -0.000001  -0.001094   0.006170
    18  H    0.396802  -0.020806   0.004686  -0.000201  -0.001198   0.006503
    19  H   -0.033544   0.422048  -0.053670   0.000530   0.012281  -0.003716
    20  H   -0.004362   0.013121  -0.052462   0.001027   0.423022  -0.035984
    21  H    0.008570  -0.001211   0.004631  -0.000256  -0.028482   0.406531
              13         14         15         16         17         18
     1  C    0.421288   0.417333   0.394800  -0.000130  -0.000520  -0.000089
     2  O   -0.033225  -0.035545  -0.029375   0.006568   0.003190   0.000669
     3  C   -0.009504  -0.005674   0.005309  -0.032596  -0.045728  -0.004416
     4  O    0.003312   0.004637   0.001876   0.004798   0.000509   0.015110
     5  C    0.000104  -0.001031   0.000698   0.421656   0.423873   0.000893
     6  C   -0.000078  -0.000382   0.000239  -0.055272  -0.037750  -0.036457
     7  C   -0.000081   0.000477  -0.000063   0.013357  -0.010925   0.396802
     8  C    0.000002  -0.000049   0.000000  -0.000489  -0.000677  -0.020806
     9  C   -0.000000   0.000011  -0.000001   0.000101   0.000452   0.004686
    10  Cl  -0.000000   0.000000  -0.000000   0.000001  -0.000001  -0.000201
    11  C   -0.000000  -0.000019  -0.000000   0.001296  -0.001094  -0.001198
    12  C    0.000003   0.000126  -0.000010  -0.008621   0.006170   0.006503
    13  H    0.523290  -0.040969  -0.024338  -0.000070   0.000127  -0.000024
    14  H   -0.040969   0.522055  -0.022262   0.000112  -0.000039   0.000042
    15  H   -0.024338  -0.022262   0.516903  -0.000307  -0.000003  -0.000003
    16  H   -0.000070   0.000112  -0.000307   0.493537  -0.016987   0.000362
    17  H    0.000127  -0.000039  -0.000003  -0.016987   0.485923   0.000624
    18  H   -0.000024   0.000042  -0.000003   0.000362   0.000624   0.452118
    19  H    0.000000  -0.000001   0.000000   0.000000  -0.000021  -0.003619
    20  H   -0.000000   0.000000   0.000000  -0.000048  -0.000000   0.000035
    21  H   -0.000001   0.000003   0.000003   0.000676   0.000310  -0.000176
              19         20         21
     1  C    0.000000   0.000000  -0.000002
     2  O   -0.000001  -0.000005  -0.000033
     3  C    0.000001  -0.000007  -0.000500
     4  O   -0.000047  -0.000000   0.000007
     5  C    0.000059   0.000090  -0.004879
     6  C    0.009280   0.008663  -0.035813
     7  C   -0.033544  -0.004362   0.008570
     8  C    0.422048   0.013121  -0.001211
     9  C   -0.053670  -0.052462   0.004631
    10  Cl   0.000530   0.001027  -0.000256
    11  C    0.012281   0.423022  -0.028482
    12  C   -0.003716  -0.035984   0.406531
    13  H    0.000000  -0.000000  -0.000001
    14  H   -0.000001   0.000000   0.000003
    15  H    0.000000   0.000000   0.000003
    16  H    0.000000  -0.000048   0.000676
    17  H   -0.000021  -0.000000   0.000310
    18  H   -0.003619   0.000035  -0.000176
    19  H    0.474873   0.000006   0.000054
    20  H    0.000006   0.476562  -0.003582
    21  H    0.000054  -0.003582   0.486226
 Mulliken charges:
               1
     1  C   -0.267606
     2  O   -0.271656
     3  C    0.397760
     4  O   -0.366942
     5  C   -0.365757
     6  C    0.082306
     7  C   -0.187614
     8  C   -0.175628
     9  C    0.074500
    10  Cl  -0.103494
    11  C   -0.176441
    12  C   -0.188406
    13  H    0.160164
    14  H    0.161176
    15  H    0.156534
    16  H    0.172058
    17  H    0.192569
    18  H    0.189144
    19  H    0.175487
    20  H    0.173924
    21  H    0.167925
 Sum of Mulliken charges =  -0.00000
 Mulliken charges with hydrogens summed into heavy atoms:
               1
     1  C    0.210267
     2  O   -0.271656
     3  C    0.397760
     4  O   -0.366942
     5  C   -0.001130
     6  C    0.082306
     7  C    0.001529
     8  C   -0.000141
     9  C    0.074500
    10  Cl  -0.103494
    11  C   -0.002517
    12  C   -0.020481
 Electronic spatial extent (au):  <R**2>=           3262.0609
 Charge=             -0.0000 electrons
 Dipole moment (field-independent basis, Debye):
    X=             -2.1187    Y=              2.0654    Z=              0.0343  Tot=              2.9591
 Quadrupole moment (field-independent basis, Debye-Ang):
   XX=            -78.7180   YY=            -74.9707   ZZ=            -74.5762
   XY=             -4.6396   XZ=              4.1027   YZ=              1.0873
 Traceless Quadrupole moment (field-independent basis, Debye-Ang):
   XX=             -2.6297   YY=              1.1176   ZZ=              1.5121
   XY=             -4.6396   XZ=              4.1027   YZ=              1.0873
 Octapole moment (field-independent basis, Debye-Ang**2):
  XXX=            -72.5580  YYY=              7.5987  ZZZ=             -9.3739  XYY=             16.6661
  XXY=             16.7445  XXZ=            -23.5537  XZZ=            -25.6312  YZZ=             -0.5696
  YYZ=             -0.9465  XYZ=             -3.9432
 Hexadecapole moment (field-independent basis, Debye-Ang**3):
 XXXX=          -3302.7058 YYYY=           -417.3014 ZZZZ=           -360.1374 XXXY=            -35.3568
 XXXZ=             98.5491 YYYX=            -19.2378 YYYZ=              0.2485 ZZZX=             10.1057
 ZZZY=             -4.7237 XXYY=           -665.1767 XXZZ=           -583.0431 YYZZ=           -138.5750
 XXYZ=              1.1867 YYXZ=              1.1513 ZZXY=             -6.2787
 N-N= 7.314952487289D+02 E-N=-3.720553036335D+03  KE= 9.560114423902D+02
 Calculating spin-rotation constants.
 Leave Link  601 at Tue Sep 17 10:52:35 2024, MaxMem=  1342177280 cpu:               5.5 elap:               5.5
 (Enter /groups/ReismanLab/Software/Gaussian16_RevC/Linux_Binary_AVX2-enabled-CPU/g16/l9999.exe)
 Unable to Open any file for archive entry.
 1\1\GINC-HPC-21-24\SP\RM062X\def2TZVP\C9H9Cl1O2\MANTIND\17-Sep-2024\0\
 \#p M062X/def2tzvp geom=check guess=read scf(xqc,tight) integral(grid=
 ultrafine) scrf(SMD, solvent=1,4-Dioxane) nmr=giao\\spe\\0,1\C,0,3.931
 5189469,1.5929303309,-0.0386964691\O,0,3.0305549726,0.7039488974,-0.72
 21003558\C,0,2.5940802596,-0.3397786402,0.0105822694\O,0,2.9348333683,
 -0.5513700697,1.1547665578\C,0,1.5890422241,-1.1759927994,-0.759681143
 \C,0,0.1732679327,-0.7901122467,-0.372022696\C,0,-0.2574647461,-0.9249
 359106,0.9536286385\C,0,-1.5523821854,-0.5714928774,1.3227893332\C,0,-
 2.4237585104,-0.0768718907,0.3531998466\Cl,0,-4.0619251493,0.368241766
 8,0.8105252549\C,0,-2.0184061819,0.0715265735,-0.9701213875\C,0,-0.716
 8932334,-0.285076734,-1.3225995605\H,0,4.828246933,1.0575964874,0.2813
 813086\H,0,3.4464660202,2.0254292396,0.8393485921\H,0,4.183132809,2.36
 85305414,-0.7608841792\H,0,1.7395898744,-1.0419843486,-1.832184016\H,0
 ,1.7795845347,-2.2226149988,-0.5041782315\H,0,0.4351878215,-1.29584712
 96,1.7021039563\H,0,-1.8852182221,-0.676490612,2.3488770863\H,0,-2.707
 8297358,0.4607072234,-1.7102536837\H,0,-0.3945140176,-0.1679882414,-2.
 3529946452\\Version=ES64L-G16RevC.02\State=1-A\HF=-959.0299142\RMSD=1.
 699e-09\Dipole=0.7532217,0.1835055,-0.8685153\Quadrupole=-2.6760213,1.
 0409784,1.635043,3.6392794,-2.4283772,0.3792422\PG=C01 [X(C9H9Cl1O2)]\
 \@
 The archive entry for this job was punched.


 I (ERNEST RUTHERFORD) CAME INTO THE ROOM, WHICH WAS HALF DARK, AND PRESENTLY
 SPOTTED LORD KELVIN IN THE AUDIENCE AND REALIZED I WAS IN TROUBLE AT
 THE LAST PART OF MY SPEECH DEALING THE AGE OF THE EARTH, WHERE MY VIEWS
 CONFLICTED WITH HIS.  TO MY RELIEF KELVIN FELL FAST ASLEEP, BUT AS I CAME
 TO THE IMPORTANT POINT, I SAW THE OLD BIRD SIT UP AND COCK A BALEFUL GLANCE
 AT ME! THEN A SUDDEN INSPIRATION CAME AND I SAID LORD KELVIN HAD LIMITED
 THE AGE OF THE EARTH PROVIDED NO NEW SOURCE WAS DISCOVERED. THAT
 PROPHETIC UTTERANCE REFERS TO WHAT WE ARE NOW CONSIDERING TONIGHT, RADIUM!
 BEHOLD!  THE OLD BOY BEAMED UPON ME.
 Job cpu time:       0 days  0 hours 15 minutes 53.9 seconds.
 Elapsed time:       0 days  0 hours 15 minutes 56.9 seconds.
 File lengths (MBytes):  RWF=    288 Int=      0 D2E=      0 Chk=     32 Scr=     16
 Normal termination of Gaussian 16 at Tue Sep 17 10:52:35 2024.
