 Entering Gaussian System, Link 0=g16
 Input=smiles_00081_conf_2.gjf
 Output=smiles_00081_conf_2.log
 Initial command:
 /groups/ReismanLab/Software/Gaussian16_RevC/Linux_Binary_AVX2-enabled-CPU/g16/l1.exe "/central/groups/ReismanLab/DM/dft_final/smiles_00081/Gau-1002759.inp" -scrdir="/central/groups/ReismanLab/DM/dft_final/smiles_00081/"
 Entering Link 1 = /groups/ReismanLab/Software/Gaussian16_RevC/Linux_Binary_AVX2-enabled-CPU/g16/l1.exe PID=   1002760.
  
 Copyright (c) 1988-2021, Gaussian, Inc.  All Rights Reserved.
  
 This is part of the Gaussian(R) 16 program.  It is based on
 the Gaussian(R) 09 system (copyright 2009, Gaussian, Inc.),
 the Gaussian(R) 03 system (copyright 2003, Gaussian, Inc.),
 the Gaussian(R) 98 system (copyright 1998, Gaussian, Inc.),
 the Gaussian(R) 94 system (copyright 1995, Gaussian, Inc.),
 the Gaussian 92(TM) system (copyright 1992, Gaussian, Inc.),
 the Gaussian 90(TM) system (copyright 1990, Gaussian, Inc.),
 the Gaussian 88(TM) system (copyright 1988, Gaussian, Inc.),
 the Gaussian 86(TM) system (copyright 1986, Carnegie Mellon
 University), and the Gaussian 82(TM) system (copyright 1983,
 Carnegie Mellon University). Gaussian is a federally registered
 trademark of Gaussian, Inc.
  
 This software contains proprietary and confidential information,
 including trade secrets, belonging to Gaussian, Inc.
  
 This software is provided under written license and may be
 used, copied, transmitted, or stored only in accord with that
 written license.
  
 The following legend is applicable only to US Government
 contracts under FAR:
  
                    RESTRICTED RIGHTS LEGEND
  
 Use, reproduction and disclosure by the US Government is
 subject to restrictions as set forth in subparagraphs (a)
 and (c) of the Commercial Computer Software - Restricted
 Rights clause in FAR 52.227-19.
  
 Gaussian, Inc.
 340 Quinnipiac St., Bldg. 40, Wallingford CT 06492
  
  
 ---------------------------------------------------------------
 Warning -- This program may not be used in any manner that
 competes with the business of Gaussian, Inc. or will provide
 assistance to any competitor of Gaussian, Inc.  The licensee
 of this program is prohibited from giving any competitor of
 Gaussian, Inc. access to this program.  By using this program,
 the user acknowledges that Gaussian, Inc. is engaged in the
 business of creating and licensing software in the field of
 computational chemistry and represents and warrants to the
 licensee that it is not a competitor of Gaussian, Inc. and that
 it will not use this program in any manner prohibited above.
 ---------------------------------------------------------------
  

 Cite this work as:
 Gaussian 16, Revision C.02,
 M. J. Frisch, G. W. Trucks, H. B. Schlegel, G. E. Scuseria, 
 M. A. Robb, J. R. Cheeseman, G. Scalmani, V. Barone, 
 G. A. Petersson, H. Nakatsuji, X. Li, M. Caricato, A. V. Marenich, 
 J. Bloino, B. G. Janesko, R. Gomperts, B. Mennucci, H. P. Hratchian, 
 J. V. Ortiz, A. F. Izmaylov, J. L. Sonnenberg, D. Williams-Young, 
 F. Ding, F. Lipparini, F. Egidi, J. Goings, B. Peng, A. Petrone, 
 T. Henderson, D. Ranasinghe, V. G. Zakrzewski, J. Gao, N. Rega, 
 G. Zheng, W. Liang, M. Hada, M. Ehara, K. Toyota, R. Fukuda, 
 J. Hasegawa, M. Ishida, T. Nakajima, Y. Honda, O. Kitao, H. Nakai, 
 T. Vreven, K. Throssell, J. A. Montgomery, Jr., J. E. Peralta, 
 F. Ogliaro, M. J. Bearpark, J. J. Heyd, E. N. Brothers, K. N. Kudin, 
 V. N. Staroverov, T. A. Keith, R. Kobayashi, J. Normand, 
 K. Raghavachari, A. P. Rendell, J. C. Burant, S. S. Iyengar, 
 J. Tomasi, M. Cossi, J. M. Millam, M. Klene, C. Adamo, R. Cammi, 
 J. W. Ochterski, R. L. Martin, K. Morokuma, O. Farkas, 
 J. B. Foresman, and D. J. Fox, Gaussian, Inc., Wallingford CT, 2019.
 
 ******************************************
 Gaussian 16:  ES64L-G16RevC.02  7-Dec-2021
                17-Sep-2024 
 ******************************************
 %nprocshared=8
 Will use up to    8 processors via shared memory.
 %Mem=10GB
 %Chk=smiles_00081_conf_2.chk
 ----------------------------------------------------------------------
 #p B3LYP/6-31G(d,p) EmpiricalDispersion=GD3BJ opt freq scf(xqc,tight) 
 integral(grid=ultrafine)
 ----------------------------------------------------------------------
 1/18=20,19=15,26=4,38=1/1,3;
 2/9=110,12=2,17=6,18=5,40=1/2;
 3/5=1,6=6,7=101,11=2,25=1,30=1,71=1,74=-5,75=-5,124=41/1,2,3;
 4//1;
 5/5=2,8=3,13=1,32=2,38=5/2,8;
 6/7=2,8=2,9=2,10=2,28=1/1;
 7//1,2,3,16;
 1/18=20,19=15,26=4/3(2);
 2/9=110/2;
 99//99;
 2/9=110/2;
 3/5=1,6=6,7=101,11=2,25=1,30=1,71=1,74=-5,75=-5,124=41/1,2,3;
 4/5=5,16=3,69=1/1;
 5/5=2,8=3,13=1,32=2,38=5/2,8;
 7//1,2,3,16;
 1/18=20,19=15,26=4/3(-5);
 2/9=110/2;
 6/7=2,8=2,9=2,10=2,19=2,28=1/1;
 99/9=1/99;
 Leave Link    1 at Tue Sep 17 09:51:14 2024, MaxMem=  1342177280 cpu:               0.1 elap:               0.9
 (Enter /groups/ReismanLab/Software/Gaussian16_RevC/Linux_Binary_AVX2-enabled-CPU/g16/l101.exe)
 ----------------------------------
 opt-freq conformers_unique/conf_ac
 ----------------------------------
 Symbolic Z-matrix:
 Charge =  0 Multiplicity = 1
 C                     3.7213    1.72519   0.69064 
 C                     3.93867   0.46069  -0.09657 
 O                     5.03475   0.05035  -0.39782 
 N                     2.83679  -0.27955  -0.45658 
 C                     1.47339  -0.09382  -0.28465 
 C                     0.83033   1.14307  -0.25033 
 C                    -0.54086   1.23163  -0.09153 
 C                    -1.30178   0.08117   0.02037 
 Br                   -3.18332   0.2081    0.24315 
 C                    -0.70701  -1.16916  -0.04231 
 C                     0.6601   -1.23246  -0.19457 
 F                     1.24938  -2.4451   -0.26801 
 H                     4.63545   1.93648   1.24017 
 H                     3.54107   2.55787   0.01355 
 H                     2.8885    1.62839   1.38154 
 H                     3.09377  -1.19307  -0.81935 
 H                     1.39652   2.04893  -0.37574 
 H                    -1.01781   2.19866  -0.06516 
 H                    -1.28347  -2.07766   0.02685 
 
 ITRead=  0  0  0  0  0  0  0  0  0  0  0  0  0  0  0  0  0  0  0
 MicOpt= -1 -1 -1 -1 -1 -1 -1 -1 -1 -1 -1 -1 -1 -1 -1 -1 -1 -1 -1
 NAtoms=     19 NQM=       19 NQMF=       0 NMMI=      0 NMMIF=      0
                NMic=       0 NMicF=      0.
                    Isotopes and Nuclear Properties:
 (Nuclear quadrupole moments (NQMom) in fm**2, nuclear magnetic moments (NMagM)
  in nuclear magnetons)

  Atom         1           2           3           4           5           6           7           8           9          10
 IAtWgt=          12          12          16          14          12          12          12          12          79          12
 AtmWgt=  12.0000000  12.0000000  15.9949146  14.0030740  12.0000000  12.0000000  12.0000000  12.0000000  78.9183361  12.0000000
 NucSpn=           0           0           0           2           0           0           0           0           3           0
 AtZEff=  -0.0000000  -0.0000000  -0.0000000  -0.0000000  -0.0000000  -0.0000000  -0.0000000  -0.0000000  -0.0000000  -0.0000000
 NQMom=    0.0000000   0.0000000   0.0000000   2.0440000   0.0000000   0.0000000   0.0000000   0.0000000  31.3000000   0.0000000
 NMagM=    0.0000000   0.0000000   0.0000000   0.4037610   0.0000000   0.0000000   0.0000000   0.0000000   2.1063990   0.0000000
 AtZNuc=   6.0000000   6.0000000   8.0000000   7.0000000   6.0000000   6.0000000   6.0000000   6.0000000  35.0000000   6.0000000

  Atom        11          12          13          14          15          16          17          18          19
 IAtWgt=          12          19           1           1           1           1           1           1           1
 AtmWgt=  12.0000000  18.9984032   1.0078250   1.0078250   1.0078250   1.0078250   1.0078250   1.0078250   1.0078250
 NucSpn=           0           1           1           1           1           1           1           1           1
 AtZEff=  -0.0000000  -0.0000000  -0.0000000  -0.0000000  -0.0000000  -0.0000000  -0.0000000  -0.0000000  -0.0000000
 NQMom=    0.0000000   0.0000000   0.0000000   0.0000000   0.0000000   0.0000000   0.0000000   0.0000000   0.0000000
 NMagM=    0.0000000   2.6288670   2.7928460   2.7928460   2.7928460   2.7928460   2.7928460   2.7928460   2.7928460
 AtZNuc=   6.0000000   9.0000000   1.0000000   1.0000000   1.0000000   1.0000000   1.0000000   1.0000000   1.0000000
 Leave Link  101 at Tue Sep 17 09:51:14 2024, MaxMem=  1342177280 cpu:               0.3 elap:               0.3
 (Enter /groups/ReismanLab/Software/Gaussian16_RevC/Linux_Binary_AVX2-enabled-CPU/g16/l103.exe)

 GradGradGradGradGradGradGradGradGradGradGradGradGradGradGradGradGradGrad
 Berny optimization.
 Initialization pass.
                           ----------------------------
                           !    Initial Parameters    !
                           ! (Angstroms and Degrees)  !
 --------------------------                            --------------------------
 ! Name  Definition              Value          Derivative Info.                !
 --------------------------------------------------------------------------------
 ! R1    R(1,2)                  1.5053         estimate D2E/DX2                !
 ! R2    R(1,13)                 1.0873         estimate D2E/DX2                !
 ! R3    R(1,14)                 1.0883         estimate D2E/DX2                !
 ! R4    R(1,15)                 1.0864         estimate D2E/DX2                !
 ! R5    R(2,3)                  1.2085         estimate D2E/DX2                !
 ! R6    R(2,4)                  1.3754         estimate D2E/DX2                !
 ! R7    R(4,5)                  1.3867         estimate D2E/DX2                !
 ! R8    R(4,16)                 1.016          estimate D2E/DX2                !
 ! R9    R(5,6)                  1.3945         estimate D2E/DX2                !
 ! R10   R(5,11)                 1.4022         estimate D2E/DX2                !
 ! R11   R(6,7)                  1.3832         estimate D2E/DX2                !
 ! R12   R(6,17)                 1.0756         estimate D2E/DX2                !
 ! R13   R(7,8)                  1.3839         estimate D2E/DX2                !
 ! R14   R(7,18)                 1.0786         estimate D2E/DX2                !
 ! R15   R(8,9)                  1.8989         estimate D2E/DX2                !
 ! R16   R(8,10)                 1.386          estimate D2E/DX2                !
 ! R17   R(10,11)                1.377          estimate D2E/DX2                !
 ! R18   R(10,19)                1.0782         estimate D2E/DX2                !
 ! R19   R(11,12)                1.3502         estimate D2E/DX2                !
 ! A1    A(2,1,13)             107.8263         estimate D2E/DX2                !
 ! A2    A(2,1,14)             109.9553         estimate D2E/DX2                !
 ! A3    A(2,1,15)             111.6186         estimate D2E/DX2                !
 ! A4    A(13,1,14)            107.7583         estimate D2E/DX2                !
 ! A5    A(13,1,15)            109.9004         estimate D2E/DX2                !
 ! A6    A(14,1,15)            109.6881         estimate D2E/DX2                !
 ! A7    A(1,2,3)              123.1311         estimate D2E/DX2                !
 ! A8    A(1,2,4)              118.249          estimate D2E/DX2                !
 ! A9    A(3,2,4)              118.5948         estimate D2E/DX2                !
 ! A10   A(2,4,5)              133.0898         estimate D2E/DX2                !
 ! A11   A(2,4,16)             112.009          estimate D2E/DX2                !
 ! A12   A(5,4,16)             114.4192         estimate D2E/DX2                !
 ! A13   A(4,5,6)              125.1172         estimate D2E/DX2                !
 ! A14   A(4,5,11)             118.0003         estimate D2E/DX2                !
 ! A15   A(6,5,11)             116.8229         estimate D2E/DX2                !
 ! A16   A(5,6,7)              121.115          estimate D2E/DX2                !
 ! A17   A(5,6,17)             120.0933         estimate D2E/DX2                !
 ! A18   A(7,6,17)             118.7699         estimate D2E/DX2                !
 ! A19   A(6,7,8)              120.0753         estimate D2E/DX2                !
 ! A20   A(6,7,18)             119.906          estimate D2E/DX2                !
 ! A21   A(8,7,18)             120.0158         estimate D2E/DX2                !
 ! A22   A(7,8,9)              119.9163         estimate D2E/DX2                !
 ! A23   A(7,8,10)             120.6868         estimate D2E/DX2                !
 ! A24   A(9,8,10)             119.3935         estimate D2E/DX2                !
 ! A25   A(8,10,11)            118.1975         estimate D2E/DX2                !
 ! A26   A(8,10,19)            121.8575         estimate D2E/DX2                !
 ! A27   A(11,10,19)           119.9449         estimate D2E/DX2                !
 ! A28   A(5,11,10)            123.0671         estimate D2E/DX2                !
 ! A29   A(5,11,12)            118.208          estimate D2E/DX2                !
 ! A30   A(10,11,12)           118.724          estimate D2E/DX2                !
 ! D1    D(13,1,2,3)           -22.2487         estimate D2E/DX2                !
 ! D2    D(13,1,2,4)           155.9007         estimate D2E/DX2                !
 ! D3    D(14,1,2,3)            94.9841         estimate D2E/DX2                !
 ! D4    D(14,1,2,4)           -86.8665         estimate D2E/DX2                !
 ! D5    D(15,1,2,3)          -143.0489         estimate D2E/DX2                !
 ! D6    D(15,1,2,4)            35.1005         estimate D2E/DX2                !
 ! D7    D(1,2,4,5)              2.5532         estimate D2E/DX2                !
 ! D8    D(1,2,4,16)          -168.8286         estimate D2E/DX2                !
 ! D9    D(3,2,4,5)           -179.2118         estimate D2E/DX2                !
 ! D10   D(3,2,4,16)             9.4064         estimate D2E/DX2                !
 ! D11   D(2,4,5,6)             31.8597         estimate D2E/DX2                !
 ! D12   D(2,4,5,11)          -151.045          estimate D2E/DX2                !
 ! D13   D(16,4,5,6)          -156.9167         estimate D2E/DX2                !
 ! D14   D(16,4,5,11)           20.1787         estimate D2E/DX2                !
 ! D15   D(4,5,6,7)            179.1324         estimate D2E/DX2                !
 ! D16   D(4,5,6,17)             0.8539         estimate D2E/DX2                !
 ! D17   D(11,5,6,7)             2.0062         estimate D2E/DX2                !
 ! D18   D(11,5,6,17)         -176.2723         estimate D2E/DX2                !
 ! D19   D(4,5,11,10)         -179.0688         estimate D2E/DX2                !
 ! D20   D(4,5,11,12)            0.5817         estimate D2E/DX2                !
 ! D21   D(6,5,11,10)           -1.731          estimate D2E/DX2                !
 ! D22   D(6,5,11,12)          177.9195         estimate D2E/DX2                !
 ! D23   D(5,6,7,8)             -0.7855         estimate D2E/DX2                !
 ! D24   D(5,6,7,18)           179.843          estimate D2E/DX2                !
 ! D25   D(17,6,7,8)           177.5154         estimate D2E/DX2                !
 ! D26   D(17,6,7,18)           -1.8562         estimate D2E/DX2                !
 ! D27   D(6,7,8,9)            179.8278         estimate D2E/DX2                !
 ! D28   D(6,7,8,10)            -0.8494         estimate D2E/DX2                !
 ! D29   D(18,7,8,9)            -0.8014         estimate D2E/DX2                !
 ! D30   D(18,7,8,10)          178.5214         estimate D2E/DX2                !
 ! D31   D(7,8,10,11)            1.1329         estimate D2E/DX2                !
 ! D32   D(7,8,10,19)         -179.0051         estimate D2E/DX2                !
 ! D33   D(9,8,10,11)         -179.5408         estimate D2E/DX2                !
 ! D34   D(9,8,10,19)            0.3212         estimate D2E/DX2                !
 ! D35   D(8,10,11,5)            0.191          estimate D2E/DX2                !
 ! D36   D(8,10,11,12)        -179.4577         estimate D2E/DX2                !
 ! D37   D(19,10,11,5)        -179.6737         estimate D2E/DX2                !
 ! D38   D(19,10,11,12)          0.6776         estimate D2E/DX2                !
 --------------------------------------------------------------------------------
 Trust Radius=3.00D-01 FncErr=1.00D-07 GrdErr=1.00D-06 EigMax=2.50D+02 EigMin=1.00D-04
 Number of steps in this run=     97 maximum allowed number of steps=    114.
 GradGradGradGradGradGradGradGradGradGradGradGradGradGradGradGradGradGrad

 Leave Link  103 at Tue Sep 17 09:51:14 2024, MaxMem=  1342177280 cpu:               0.1 elap:               0.0
 (Enter /groups/ReismanLab/Software/Gaussian16_RevC/Linux_Binary_AVX2-enabled-CPU/g16/l202.exe)
                          Input orientation:                          
 ---------------------------------------------------------------------
 Center     Atomic      Atomic             Coordinates (Angstroms)
 Number     Number       Type             X           Y           Z
 ---------------------------------------------------------------------
      1          6           0        3.721301    1.725191    0.690644
      2          6           0        3.938672    0.460692   -0.096571
      3          8           0        5.034749    0.050346   -0.397816
      4          7           0        2.836786   -0.279552   -0.456575
      5          6           0        1.473386   -0.093817   -0.284649
      6          6           0        0.830334    1.143065   -0.250333
      7          6           0       -0.540856    1.231629   -0.091526
      8          6           0       -1.301784    0.081167    0.020365
      9         35           0       -3.183324    0.208102    0.243153
     10          6           0       -0.707012   -1.169160   -0.042305
     11          6           0        0.660096   -1.232465   -0.194570
     12          9           0        1.249377   -2.445099   -0.268015
     13          1           0        4.635445    1.936479    1.240171
     14          1           0        3.541069    2.557871    0.013545
     15          1           0        2.888497    1.628390    1.381539
     16          1           0        3.093772   -1.193072   -0.819347
     17          1           0        1.396523    2.048930   -0.375735
     18          1           0       -1.017806    2.198663   -0.065161
     19          1           0       -1.283467   -2.077659    0.026851
 ---------------------------------------------------------------------
                    Distance matrix (angstroms):
                    1          2          3          4          5
     1  C    0.000000
     2  C    1.505295   0.000000
     3  O    2.390606   1.208518   0.000000
     4  N    2.473352   1.375398   2.223360   0.000000
     5  C    3.051738   2.533869   3.566076   1.386692   0.000000
     6  C    3.095480   3.186070   4.346595   2.468243   1.394479
     7  C    4.361350   4.545387   5.707592   3.718251   2.418940
     8  C    5.327614   5.255482   6.350391   4.181548   2.797359
     9  Br   7.083477   7.134567   8.244541   6.080226   4.696241
    10  C    5.340827   4.923591   5.880595   3.677163   2.443201
    11  C    4.347678   3.691266   4.563387   2.390537   1.402167
    12  F    4.941736   3.962995   4.535762   2.691657   2.361988
    13  H    1.087328   2.109578   2.529811   3.320379   4.055342
    14  H    1.088257   2.137376   2.947538   2.961081   3.375749
    15  H    1.086402   2.156663   3.203549   2.649827   2.782933
    16  H    3.345164   1.992786   2.343324   1.015954   2.029757
    17  H    2.578093   3.010474   4.151086   2.739110   2.146059
    18  H    4.822297   5.252447   6.431123   4.599199   3.392591
    19  H    6.320600   5.807684   6.680464   4.521435   3.410704
                    6          7          8          9         10
     6  C    0.000000
     7  C    1.383194   0.000000
     8  C    2.397255   1.383870   0.000000
     9  Br   4.150559   2.853464   1.898932   0.000000
    10  C    2.784438   2.407035   1.386001   2.847886   0.000000
    11  C    2.382275   2.743112   2.370822   4.127798   1.377018
    12  F    3.612594   4.093216   3.601889   5.191301   2.346577
    13  H    4.162929   5.391134   6.338832   8.069355   6.311227
    14  H    3.069102   4.293258   5.439424   7.126822   5.651555
    15  H    2.671064   3.753372   4.669598   6.338782   4.772977
    16  H    3.302191   4.429381   4.652925   6.518752   3.879475
    17  H    1.075587   2.121837   3.363012   4.974603   3.859034
    18  H    2.136398   1.078578   2.138165   2.957510   3.382210
    19  H    3.862389   3.393652   2.158913   2.980091   1.078171
                   11         12         13         14         15
    11  C    0.000000
    12  F    1.350233   0.000000
    13  H    5.282432   5.739191   0.000000
    14  H    4.765497   5.510067   1.757384   0.000000
    15  H    3.954034   4.690529   1.779531   1.777974   0.000000
    16  H    2.512902   2.296374   4.051229   3.868250   3.584227
    17  H    3.367892   4.497728   3.621383   2.238222   2.343257
    18  H    3.821615   5.171634   5.807915   4.573681   4.204444
    19  H    2.130920   2.576288   7.253894   6.690625   5.742409
                   16         17         18         19
    16  H    0.000000
    17  H    3.686194   0.000000
    18  H    5.383097   2.438823   0.000000
    19  H    4.545192   4.936919   4.285554   0.000000
 Stoichiometry    C8H7BrFNO
 Framework group  C1[X(C8H7BrFNO)]
 Deg. of freedom    51
 Full point group                 C1      NOp   1
 Largest Abelian subgroup         C1      NOp   1
 Largest concise Abelian subgroup C1      NOp   1
                         Standard orientation:                         
 ---------------------------------------------------------------------
 Center     Atomic      Atomic             Coordinates (Angstroms)
 Number     Number       Type             X           Y           Z
 ---------------------------------------------------------------------
      1          6           0       -3.532646   -1.730169    0.586254
      2          6           0       -3.757445   -0.354635    0.017672
      3          8           0       -4.856716    0.113593   -0.163663
      4          7           0       -2.656930    0.417196   -0.273640
      5          6           0       -1.291561    0.187279   -0.197350
      6          6           0       -0.674369   -1.048668   -0.387298
      7          6           0        0.700290   -1.180681   -0.309118
      8          6           0        1.489994   -0.073116   -0.054631
      9         35           0        3.376393   -0.260371    0.056609
     10          6           0        0.920056    1.179876    0.107170
     11          6           0       -0.450779    1.285859    0.031300
     12          9           0       -1.016521    2.503248    0.176317
     13          1           0       -4.425873   -2.012165    1.138438
     14          1           0       -3.400546   -2.448500   -0.220501
     15          1           0       -2.668155   -1.755127    1.243749
     16          1           0       -2.910035    1.379974   -0.476519
     17          1           0       -1.264909   -1.915361   -0.626032
     18          1           0        1.157032   -2.146542   -0.456866
     19          1           0        1.518414    2.057867    0.290341
 ---------------------------------------------------------------------
 Rotational constants (GHZ):           1.8569142           0.2739409           0.2418845
 Leave Link  202 at Tue Sep 17 09:51:14 2024, MaxMem=  1342177280 cpu:               0.1 elap:               0.0
 (Enter /groups/ReismanLab/Software/Gaussian16_RevC/Linux_Binary_AVX2-enabled-CPU/g16/l301.exe)
 Standard basis: 6-31G(d,p) (6D, 7F)
 Ernie: Thresh=  0.10000D-02 Tol=  0.10000D-05 Strict=F.
 There are   230 symmetry adapted cartesian basis functions of A   symmetry.
 There are   230 symmetry adapted basis functions of A   symmetry.
   230 basis functions,   440 primitive gaussians,   230 cartesian basis functions
    57 alpha electrons       57 beta electrons
       nuclear repulsion energy       916.9797843204 Hartrees.
 IExCor=  402 DFT=T Ex+Corr=B3LYP ExCW=0 ScaHFX=  0.200000
 ScaDFX=  0.800000  0.720000  1.000000  0.810000 ScalE2=  1.000000  1.000000
 IRadAn=      5 IRanWt=     -1 IRanGd=            0 ICorTp=0 IEmpDi=141
 NAtoms=   19 NActive=   19 NUniq=   19 SFac= 1.00D+00 NAtFMM=   60 NAOKFM=F Big=F
 Integral buffers will be    131072 words long.
 Raffenetti 2 integral format.
 Two-electron integral symmetry is turned on.
 R6Disp:  Grimme-D3(BJ) Dispersion energy=       -0.0390519301 Hartrees.
 Nuclear repulsion after empirical dispersion term =      916.9407323903 Hartrees.
 Leave Link  301 at Tue Sep 17 09:51:15 2024, MaxMem=  1342177280 cpu:               0.1 elap:               0.1
 (Enter /groups/ReismanLab/Software/Gaussian16_RevC/Linux_Binary_AVX2-enabled-CPU/g16/l302.exe)
 NPDir=0 NMtPBC=     1 NCelOv=     1 NCel=       1 NClECP=     1 NCelD=      1
         NCelK=      1 NCelE2=     1 NClLst=     1 CellRange=     0.0.
 One-electron integrals computed using PRISM.
 One-electron integral symmetry used in STVInt
 NBasis=   230 RedAO= T EigKep=  3.66D-04  NBF=   230
 NBsUse=   230 1.00D-06 EigRej= -1.00D+00 NBFU=   230
 Precomputing XC quadrature grid using
 IXCGrd= 4 IRadAn=           5 IRanWt=          -1 IRanGd=           0 AccXCQ= 0.00D+00.
 Generated NRdTot=       0 NPtTot=           0 NUsed=           0 NTot=          32
 NSgBfM=   228   227   228   228   228 MxSgAt=    19 MxSgA2=    19.
 Leave Link  302 at Tue Sep 17 09:51:15 2024, MaxMem=  1342177280 cpu:               1.1 elap:               0.2
 (Enter /groups/ReismanLab/Software/Gaussian16_RevC/Linux_Binary_AVX2-enabled-CPU/g16/l303.exe)
 DipDrv:  MaxL=1.
 Leave Link  303 at Tue Sep 17 09:51:15 2024, MaxMem=  1342177280 cpu:               0.1 elap:               0.1
 (Enter /groups/ReismanLab/Software/Gaussian16_RevC/Linux_Binary_AVX2-enabled-CPU/g16/l401.exe)
 ExpMin= 1.43D-01 ExpMax= 5.74D+05 ExpMxC= 5.74D+03 IAcc=3 IRadAn=         5 AccDes= 0.00D+00
 Harris functional with IExCor=  402 and IRadAn=       5 diagonalized for initial guess.
 HarFok:  IExCor=  402 AccDes= 0.00D+00 IRadAn=         5 IDoV= 1 UseB2=F ITyADJ=14
 ICtDFT=  3500011 ScaDFX=  1.000000  1.000000  1.000000  1.000000
 FoFCou: FMM=F IPFlag=           0 FMFlag=      100000 FMFlg1=           0
         NFxFlg=           0 DoJE=T BraDBF=F KetDBF=T FulRan=T
         wScrn=  0.000000 ICntrl=       500 IOpCl=  0 I1Cent=   200000004 NGrid=           0
         NMat0=    1 NMatS0=      1 NMatT0=    0 NMatD0=    1 NMtDS0=    0 NMtDT0=    0
 Petite list used in FoFCou.
 Harris En= -3110.75781925989    
 JPrj=0 DoOrth=F DoCkMO=F.
 Leave Link  401 at Tue Sep 17 09:51:16 2024, MaxMem=  1342177280 cpu:               5.5 elap:               0.8
 (Enter /groups/ReismanLab/Software/Gaussian16_RevC/Linux_Binary_AVX2-enabled-CPU/g16/l502.exe)
 Integral symmetry usage will be decided dynamically.
 Closed shell SCF:
 Using DIIS extrapolation, IDIIS=  1040.
 NGot=  1342177280 LenX=  1342066761 LenY=  1342013420
 Requested convergence on RMS density matrix=1.00D-08 within  32 cycles.
 Requested convergence on MAX density matrix=1.00D-06.
 Requested convergence on             energy=1.00D-06.
 No special actions if energy rises.
 Fock matrices will be formed incrementally for  20 cycles.
 Integral accuracy reduced to 1.0D-05 until final iterations.

 Cycle   1  Pass 0  IDiag  1:
 FoFJK:  IHMeth= 1 ICntrl=       0 DoSepK=F KAlg= 0 I1Cent=           0 FoldK=F
 IRaf= 850000000 NMat=       1 IRICut=       1 DoRegI=T DoRafI=F ISym2E= 0 IDoP0=0 IntGTp=1.
 FoFCou: FMM=F IPFlag=           0 FMFlag=      100000 FMFlg1=           0
         NFxFlg=           0 DoJE=F BraDBF=F KetDBF=F FulRan=T
         wScrn=  0.000000 ICntrl=         0 IOpCl=  0 I1Cent=           0 NGrid=           0
         NMat0=    1 NMatS0=      1 NMatT0=    0 NMatD0=    1 NMtDS0=    0 NMtDT0=    0
 Symmetry not used in FoFCou.
 E= -3110.36557269789    
 DIIS: error= 1.57D-01 at cycle   1 NSaved=   1.
 NSaved= 1 IEnMin= 1 EnMin= -3110.36557269789     IErMin= 1 ErrMin= 1.57D-01
 ErrMax= 1.57D-01  0.00D+00 EMaxC= 1.00D-01 BMatC= 6.53D-01 BMatP= 6.53D-01
 IDIUse=3 WtCom= 0.00D+00 WtEn= 1.00D+00
 Coeff-Com:  0.100D+01
 Coeff-En:   0.100D+01
 Coeff:      0.100D+01
 Gap=     0.226 Goal=   None    Shift=    0.000
 GapD=    0.226 DampG=1.000 DampE=0.250 DampFc=0.2500 IDamp=-1.
 Damping current iteration by 2.50D-01
 RMSDP=6.28D-03 MaxDP=2.54D-01              OVMax= 2.66D-01

 Cycle   2  Pass 0  IDiag  1:
 RMSU=  1.54D-03    CP:  9.93D-01
 E= -3110.46363788051     Delta-E=       -0.098065182627 Rises=F Damp=T
 DIIS: error= 1.16D-01 at cycle   2 NSaved=   2.
 NSaved= 2 IEnMin= 2 EnMin= -3110.46363788051     IErMin= 2 ErrMin= 1.16D-01
 ErrMax= 1.16D-01  0.00D+00 EMaxC= 1.00D-01 BMatC= 2.56D-01 BMatP= 6.53D-01
 IDIUse=3 WtCom= 0.00D+00 WtEn= 1.00D+00
 Coeff-Com: -0.992D+00 0.199D+01
 Coeff-En:   0.000D+00 0.100D+01
 Coeff:      0.000D+00 0.100D+01
 Gap=     0.216 Goal=   None    Shift=    0.000
 RMSDP=2.55D-03 MaxDP=1.10D-01 DE=-9.81D-02 OVMax= 1.34D-01

 Cycle   3  Pass 0  IDiag  1:
 RMSU=  1.51D-03    CP:  9.71D-01  2.21D+00
 E= -3110.59043912498     Delta-E=       -0.126801244465 Rises=F Damp=F
 DIIS: error= 1.08D-02 at cycle   3 NSaved=   3.
 NSaved= 3 IEnMin= 3 EnMin= -3110.59043912498     IErMin= 3 ErrMin= 1.08D-02
 ErrMax= 1.08D-02  0.00D+00 EMaxC= 1.00D-01 BMatC= 5.87D-02 BMatP= 2.56D-01
 IDIUse=3 WtCom= 8.92D-01 WtEn= 1.08D-01
 Coeff-Com:  0.556D+00-0.551D+00 0.995D+00
 Coeff-En:   0.116D+00 0.000D+00 0.884D+00
 Coeff:      0.509D+00-0.492D+00 0.983D+00
 Gap=     0.202 Goal=   None    Shift=    0.000
 RMSDP=1.49D-03 MaxDP=4.90D-02 DE=-1.27D-01 OVMax= 6.73D-02

 Cycle   4  Pass 0  IDiag  1:
 RMSU=  1.14D-03    CP:  9.73D-01  1.65D+00  7.17D-01
 E= -3110.62119674326     Delta-E=       -0.030757618284 Rises=F Damp=F
 DIIS: error= 7.82D-03 at cycle   4 NSaved=   4.
 NSaved= 4 IEnMin= 4 EnMin= -3110.62119674326     IErMin= 4 ErrMin= 7.82D-03
 ErrMax= 7.82D-03  0.00D+00 EMaxC= 1.00D-01 BMatC= 2.53D-02 BMatP= 5.87D-02
 IDIUse=3 WtCom= 9.22D-01 WtEn= 7.82D-02
 Coeff-Com:  0.465D+00-0.593D+00 0.635D+00 0.493D+00
 Coeff-En:   0.000D+00 0.000D+00 0.266D+00 0.734D+00
 Coeff:      0.429D+00-0.547D+00 0.606D+00 0.511D+00
 Gap=     0.203 Goal=   None    Shift=    0.000
 RMSDP=8.10D-04 MaxDP=3.24D-02 DE=-3.08D-02 OVMax= 5.10D-02

 Cycle   5  Pass 0  IDiag  1:
 RMSU=  2.48D-04    CP:  9.72D-01  1.62D+00  9.36D-01  3.91D-01
 E= -3110.64406852149     Delta-E=       -0.022871778225 Rises=F Damp=F
 DIIS: error= 1.20D-03 at cycle   5 NSaved=   5.
 NSaved= 5 IEnMin= 5 EnMin= -3110.64406852149     IErMin= 5 ErrMin= 1.20D-03
 ErrMax= 1.20D-03  0.00D+00 EMaxC= 1.00D-01 BMatC= 1.22D-03 BMatP= 2.53D-02
 IDIUse=3 WtCom= 9.88D-01 WtEn= 1.20D-02
 Coeff-Com:  0.228D+00-0.296D+00 0.317D+00 0.292D+00 0.458D+00
 Coeff-En:   0.000D+00 0.000D+00 0.000D+00 0.000D+00 0.100D+01
 Coeff:      0.226D+00-0.292D+00 0.313D+00 0.288D+00 0.465D+00
 Gap=     0.197 Goal=   None    Shift=    0.000
 RMSDP=2.06D-04 MaxDP=7.76D-03 DE=-2.29D-02 OVMax= 1.56D-02

 Cycle   6  Pass 0  IDiag  1:
 RMSU=  9.30D-05    CP:  9.72D-01  1.64D+00  9.26D-01  4.71D-01  3.72D-01
 E= -3110.64513261787     Delta-E=       -0.001064096387 Rises=F Damp=F
 DIIS: error= 3.79D-04 at cycle   6 NSaved=   6.
 NSaved= 6 IEnMin= 6 EnMin= -3110.64513261787     IErMin= 6 ErrMin= 3.79D-04
 ErrMax= 3.79D-04  0.00D+00 EMaxC= 1.00D-01 BMatC= 9.63D-05 BMatP= 1.22D-03
 IDIUse=3 WtCom= 9.96D-01 WtEn= 3.79D-03
 Coeff-Com:  0.657D-01-0.858D-01 0.864D-01 0.818D-01 0.255D+00 0.596D+00
 Coeff-En:   0.000D+00 0.000D+00 0.000D+00 0.000D+00 0.534D-01 0.947D+00
 Coeff:      0.655D-01-0.855D-01 0.861D-01 0.814D-01 0.255D+00 0.598D+00
 Gap=     0.197 Goal=   None    Shift=    0.000
 RMSDP=5.51D-05 MaxDP=1.46D-03 DE=-1.06D-03 OVMax= 4.46D-03

 Cycle   7  Pass 0  IDiag  1:
 RMSU=  2.68D-05    CP:  9.72D-01  1.64D+00  9.31D-01  4.67D-01  4.73D-01
                    CP:  5.69D-01
 E= -3110.64522160240     Delta-E=       -0.000088984531 Rises=F Damp=F
 DIIS: error= 1.38D-04 at cycle   7 NSaved=   7.
 NSaved= 7 IEnMin= 7 EnMin= -3110.64522160240     IErMin= 7 ErrMin= 1.38D-04
 ErrMax= 1.38D-04  0.00D+00 EMaxC= 1.00D-01 BMatC= 8.82D-06 BMatP= 9.63D-05
 IDIUse=3 WtCom= 9.99D-01 WtEn= 1.38D-03
 Coeff-Com:  0.233D-01-0.308D-01 0.282D-01 0.248D-01 0.111D+00 0.335D+00
 Coeff-Com:  0.509D+00
 Coeff-En:   0.000D+00 0.000D+00 0.000D+00 0.000D+00 0.000D+00 0.000D+00
 Coeff-En:   0.100D+01
 Coeff:      0.233D-01-0.307D-01 0.282D-01 0.248D-01 0.111D+00 0.334D+00
 Coeff:      0.510D+00
 Gap=     0.197 Goal=   None    Shift=    0.000
 RMSDP=1.48D-05 MaxDP=4.84D-04 DE=-8.90D-05 OVMax= 1.17D-03

 Cycle   8  Pass 0  IDiag  1:
 RMSU=  8.31D-06    CP:  9.72D-01  1.64D+00  9.33D-01  4.64D-01  4.76D-01
                    CP:  6.30D-01  6.47D-01
 E= -3110.64522987138     Delta-E=       -0.000008268975 Rises=F Damp=F
 DIIS: error= 3.27D-05 at cycle   8 NSaved=   8.
 NSaved= 8 IEnMin= 8 EnMin= -3110.64522987138     IErMin= 8 ErrMin= 3.27D-05
 ErrMax= 3.27D-05  0.00D+00 EMaxC= 1.00D-01 BMatC= 6.05D-07 BMatP= 8.82D-06
 IDIUse=1 WtCom= 1.00D+00 WtEn= 0.00D+00
 Coeff-Com:  0.533D-02-0.715D-02 0.548D-02 0.361D-02 0.289D-01 0.106D+00
 Coeff-Com:  0.260D+00 0.597D+00
 Coeff:      0.533D-02-0.715D-02 0.548D-02 0.361D-02 0.289D-01 0.106D+00
 Coeff:      0.260D+00 0.597D+00
 Gap=     0.197 Goal=   None    Shift=    0.000
 RMSDP=4.34D-06 MaxDP=1.31D-04 DE=-8.27D-06 OVMax= 2.17D-04

 Initial convergence to 1.0D-05 achieved.  Increase integral accuracy.
 Cycle   9  Pass 1  IDiag  1:
 E= -3110.64523217103     Delta-E=       -0.000002299648 Rises=F Damp=F
 DIIS: error= 3.75D-05 at cycle   1 NSaved=   1.
 NSaved= 1 IEnMin= 1 EnMin= -3110.64523217103     IErMin= 1 ErrMin= 3.75D-05
 ErrMax= 3.75D-05  0.00D+00 EMaxC= 1.00D-01 BMatC= 1.75D-07 BMatP= 1.75D-07
 IDIUse=1 WtCom= 1.00D+00 WtEn= 0.00D+00
 Coeff-Com:  0.100D+01
 Coeff:      0.100D+01
 Gap=     0.197 Goal=   None    Shift=    0.000
 RMSDP=4.34D-06 MaxDP=1.31D-04 DE=-2.30D-06 OVMax= 2.49D-04

 Cycle  10  Pass 1  IDiag  1:
 RMSU=  1.21D-05    CP:  1.00D+00
 E= -3110.64523209037     Delta-E=        0.000000080659 Rises=F Damp=F
 DIIS: error= 2.16D-05 at cycle   2 NSaved=   2.
 NSaved= 2 IEnMin= 1 EnMin= -3110.64523217103     IErMin= 2 ErrMin= 2.16D-05
 ErrMax= 2.16D-05  0.00D+00 EMaxC= 1.00D-01 BMatC= 1.91D-07 BMatP= 1.75D-07
 IDIUse=1 WtCom= 1.00D+00 WtEn= 0.00D+00
 Coeff-Com:  0.514D+00 0.486D+00
 Coeff:      0.514D+00 0.486D+00
 Gap=     0.197 Goal=   None    Shift=    0.000
 RMSDP=2.97D-06 MaxDP=9.36D-05 DE= 8.07D-08 OVMax= 2.43D-04

 Cycle  11  Pass 1  IDiag  1:
 RMSU=  2.92D-06    CP:  1.00D+00  9.54D-01
 E= -3110.64523224952     Delta-E=       -0.000000159155 Rises=F Damp=F
 DIIS: error= 1.05D-05 at cycle   3 NSaved=   3.
 NSaved= 3 IEnMin= 3 EnMin= -3110.64523224952     IErMin= 3 ErrMin= 1.05D-05
 ErrMax= 1.05D-05  0.00D+00 EMaxC= 1.00D-01 BMatC= 4.34D-08 BMatP= 1.75D-07
 IDIUse=1 WtCom= 1.00D+00 WtEn= 0.00D+00
 Coeff-Com:  0.526D-01 0.319D+00 0.629D+00
 Coeff:      0.526D-01 0.319D+00 0.629D+00
 Gap=     0.197 Goal=   None    Shift=    0.000
 RMSDP=1.11D-06 MaxDP=4.72D-05 DE=-1.59D-07 OVMax= 9.50D-05

 Cycle  12  Pass 1  IDiag  1:
 RMSU=  6.21D-07    CP:  1.00D+00  9.73D-01  6.94D-01
 E= -3110.64523229341     Delta-E=       -0.000000043889 Rises=F Damp=F
 DIIS: error= 2.55D-06 at cycle   4 NSaved=   4.
 NSaved= 4 IEnMin= 4 EnMin= -3110.64523229341     IErMin= 4 ErrMin= 2.55D-06
 ErrMax= 2.55D-06  0.00D+00 EMaxC= 1.00D-01 BMatC= 4.90D-09 BMatP= 4.34D-08
 IDIUse=1 WtCom= 1.00D+00 WtEn= 0.00D+00
 Coeff-Com:  0.201D-02 0.172D+00 0.395D+00 0.431D+00
 Coeff:      0.201D-02 0.172D+00 0.395D+00 0.431D+00
 Gap=     0.197 Goal=   None    Shift=    0.000
 RMSDP=3.54D-07 MaxDP=1.32D-05 DE=-4.39D-08 OVMax= 2.05D-05

 Cycle  13  Pass 1  IDiag  1:
 RMSU=  1.33D-07    CP:  1.00D+00  9.75D-01  7.06D-01  4.76D-01
 E= -3110.64523229751     Delta-E=       -0.000000004099 Rises=F Damp=F
 DIIS: error= 9.33D-07 at cycle   5 NSaved=   5.
 NSaved= 5 IEnMin= 5 EnMin= -3110.64523229751     IErMin= 5 ErrMin= 9.33D-07
 ErrMax= 9.33D-07  0.00D+00 EMaxC= 1.00D-01 BMatC= 2.43D-10 BMatP= 4.90D-09
 IDIUse=1 WtCom= 1.00D+00 WtEn= 0.00D+00
 Coeff-Com: -0.135D-02 0.916D-01 0.215D+00 0.266D+00 0.428D+00
 Coeff:     -0.135D-02 0.916D-01 0.215D+00 0.266D+00 0.428D+00
 Gap=     0.197 Goal=   None    Shift=    0.000
 RMSDP=7.33D-08 MaxDP=3.16D-06 DE=-4.10D-09 OVMax= 4.15D-06

 Cycle  14  Pass 1  IDiag  1:
 RMSU=  3.39D-08    CP:  1.00D+00  9.76D-01  7.06D-01  4.85D-01  5.18D-01
 E= -3110.64523229771     Delta-E=       -0.000000000195 Rises=F Damp=F
 DIIS: error= 1.80D-07 at cycle   6 NSaved=   6.
 NSaved= 6 IEnMin= 6 EnMin= -3110.64523229771     IErMin= 6 ErrMin= 1.80D-07
 ErrMax= 1.80D-07  0.00D+00 EMaxC= 1.00D-01 BMatC= 1.36D-11 BMatP= 2.43D-10
 IDIUse=1 WtCom= 1.00D+00 WtEn= 0.00D+00
 Coeff-Com: -0.937D-03 0.444D-01 0.105D+00 0.133D+00 0.261D+00 0.458D+00
 Coeff:     -0.937D-03 0.444D-01 0.105D+00 0.133D+00 0.261D+00 0.458D+00
 Gap=     0.197 Goal=   None    Shift=    0.000
 RMSDP=1.62D-08 MaxDP=6.57D-07 DE=-1.95D-10 OVMax= 6.70D-07

 Cycle  15  Pass 1  IDiag  1:
 RMSU=  1.26D-08    CP:  1.00D+00  9.76D-01  7.06D-01  4.81D-01  5.35D-01
                    CP:  7.24D-01
 E= -3110.64523229772     Delta-E=       -0.000000000016 Rises=F Damp=F
 DIIS: error= 2.45D-08 at cycle   7 NSaved=   7.
 NSaved= 7 IEnMin= 7 EnMin= -3110.64523229772     IErMin= 7 ErrMin= 2.45D-08
 ErrMax= 2.45D-08  0.00D+00 EMaxC= 1.00D-01 BMatC= 3.26D-13 BMatP= 1.36D-11
 IDIUse=1 WtCom= 1.00D+00 WtEn= 0.00D+00
 Coeff-Com: -0.275D-03 0.112D-01 0.266D-01 0.336D-01 0.777D-01 0.184D+00
 Coeff-Com:  0.667D+00
 Coeff:     -0.275D-03 0.112D-01 0.266D-01 0.336D-01 0.777D-01 0.184D+00
 Coeff:      0.667D+00
 Gap=     0.197 Goal=   None    Shift=    0.000
 RMSDP=4.42D-09 MaxDP=9.54D-08 DE=-1.64D-11 OVMax= 2.84D-07

 SCF Done:  E(RB3LYP) =  -3110.64523230     A.U. after   15 cycles
            NFock= 15  Conv=0.44D-08     -V/T= 2.0065
 KE= 3.090446380851D+03 PE=-9.225689057772D+03 EE= 2.107656712234D+03
 Leave Link  502 at Tue Sep 17 09:51:29 2024, MaxMem=  1342177280 cpu:              99.1 elap:              13.8
 (Enter /groups/ReismanLab/Software/Gaussian16_RevC/Linux_Binary_AVX2-enabled-CPU/g16/l508.exe)
 QCSCF skips out because SCF is already converged.
 Leave Link  508 at Tue Sep 17 09:51:30 2024, MaxMem=  1342177280 cpu:               0.0 elap:               0.0
 (Enter /groups/ReismanLab/Software/Gaussian16_RevC/Linux_Binary_AVX2-enabled-CPU/g16/l601.exe)
 Copying SCF densities to generalized density rwf, IOpCl= 0 IROHF=0.

 **********************************************************************

            Population analysis using the SCF Density.

 **********************************************************************

 Orbital symmetries:
       Occupied  (A) (A) (A) (A) (A) (A) (A) (A) (A) (A) (A) (A)
                 (A) (A) (A) (A) (A) (A) (A) (A) (A) (A) (A) (A)
                 (A) (A) (A) (A) (A) (A) (A) (A) (A) (A) (A) (A)
                 (A) (A) (A) (A) (A) (A) (A) (A) (A) (A) (A) (A)
                 (A) (A) (A) (A) (A) (A) (A) (A) (A)
       Virtual   (A) (A) (A) (A) (A) (A) (A) (A) (A) (A) (A) (A)
                 (A) (A) (A) (A) (A) (A) (A) (A) (A) (A) (A) (A)
                 (A) (A) (A) (A) (A) (A) (A) (A) (A) (A) (A) (A)
                 (A) (A) (A) (A) (A) (A) (A) (A) (A) (A) (A) (A)
                 (A) (A) (A) (A) (A) (A) (A) (A) (A) (A) (A) (A)
                 (A) (A) (A) (A) (A) (A) (A) (A) (A) (A) (A) (A)
                 (A) (A) (A) (A) (A) (A) (A) (A) (A) (A) (A) (A)
                 (A) (A) (A) (A) (A) (A) (A) (A) (A) (A) (A) (A)
                 (A) (A) (A) (A) (A) (A) (A) (A) (A) (A) (A) (A)
                 (A) (A) (A) (A) (A) (A) (A) (A) (A) (A) (A) (A)
                 (A) (A) (A) (A) (A) (A) (A) (A) (A) (A) (A) (A)
                 (A) (A) (A) (A) (A) (A) (A) (A) (A) (A) (A) (A)
                 (A) (A) (A) (A) (A) (A) (A) (A) (A) (A) (A) (A)
                 (A) (A) (A) (A) (A) (A) (A) (A) (A) (A) (A) (A)
                 (A) (A) (A) (A) (A)
 The electronic state is 1-A.
 Alpha  occ. eigenvalues -- -482.92082 -61.88247 -56.40389 -56.39972 -56.39960
 Alpha  occ. eigenvalues --  -24.73137 -19.12359 -14.38246 -10.30234 -10.29374
 Alpha  occ. eigenvalues --  -10.26110 -10.25902 -10.21949 -10.21805 -10.21560
 Alpha  occ. eigenvalues --  -10.20025  -8.59390  -6.54798  -6.53505  -6.53480
 Alpha  occ. eigenvalues --   -2.66370  -2.65998  -2.65981  -2.64948  -2.64948
 Alpha  occ. eigenvalues --   -1.24269  -1.05469  -0.95802  -0.88972  -0.81311
 Alpha  occ. eigenvalues --   -0.78032  -0.76058  -0.73811  -0.65685  -0.63733
 Alpha  occ. eigenvalues --   -0.59419  -0.57083  -0.53661  -0.51471  -0.48939
 Alpha  occ. eigenvalues --   -0.48127  -0.47084  -0.46824  -0.45930  -0.42642
 Alpha  occ. eigenvalues --   -0.41726  -0.41065  -0.40457  -0.39520  -0.38496
 Alpha  occ. eigenvalues --   -0.37086  -0.34002  -0.29664  -0.29255  -0.27477
 Alpha  occ. eigenvalues --   -0.26353  -0.22971
 Alpha virt. eigenvalues --   -0.03255  -0.02249  -0.00327   0.02702   0.08812
 Alpha virt. eigenvalues --    0.09256   0.11722   0.13353   0.13608   0.14436
 Alpha virt. eigenvalues --    0.16226   0.17001   0.20007   0.20980   0.22279
 Alpha virt. eigenvalues --    0.25356   0.27851   0.29253   0.31024   0.31133
 Alpha virt. eigenvalues --    0.33839   0.38110   0.42722   0.44259   0.45466
 Alpha virt. eigenvalues --    0.45499   0.46221   0.47621   0.47716   0.48788
 Alpha virt. eigenvalues --    0.50180   0.50636   0.51347   0.53134   0.55904
 Alpha virt. eigenvalues --    0.57408   0.57787   0.58071   0.59725   0.60100
 Alpha virt. eigenvalues --    0.61215   0.63668   0.64463   0.67539   0.68597
 Alpha virt. eigenvalues --    0.71325   0.72376   0.73580   0.75152   0.77815
 Alpha virt. eigenvalues --    0.79075   0.79885   0.80956   0.82010   0.84856
 Alpha virt. eigenvalues --    0.85077   0.86103   0.86161   0.89549   0.90545
 Alpha virt. eigenvalues --    0.92747   0.93850   0.96659   0.97883   1.01832
 Alpha virt. eigenvalues --    1.03328   1.04642   1.08307   1.10481   1.13919
 Alpha virt. eigenvalues --    1.18506   1.19798   1.20370   1.21623   1.23650
 Alpha virt. eigenvalues --    1.25866   1.33249   1.34446   1.35880   1.36836
 Alpha virt. eigenvalues --    1.38277   1.38708   1.42114   1.43939   1.47956
 Alpha virt. eigenvalues --    1.49628   1.52162   1.56153   1.57760   1.62381
 Alpha virt. eigenvalues --    1.68910   1.71116   1.73416   1.74899   1.75965
 Alpha virt. eigenvalues --    1.77271   1.79474   1.81945   1.82744   1.85087
 Alpha virt. eigenvalues --    1.85574   1.86661   1.90048   1.91642   1.91985
 Alpha virt. eigenvalues --    1.92642   1.99037   2.01888   2.03386   2.03565
 Alpha virt. eigenvalues --    2.05442   2.06664   2.08529   2.09834   2.12367
 Alpha virt. eigenvalues --    2.13363   2.15634   2.23881   2.26640   2.28300
 Alpha virt. eigenvalues --    2.30114   2.32352   2.33489   2.34769   2.37081
 Alpha virt. eigenvalues --    2.41595   2.43831   2.44869   2.50093   2.50568
 Alpha virt. eigenvalues --    2.51891   2.54389   2.55668   2.57967   2.60132
 Alpha virt. eigenvalues --    2.62819   2.64990   2.67413   2.68343   2.70629
 Alpha virt. eigenvalues --    2.72839   2.75353   2.78741   2.83719   2.88238
 Alpha virt. eigenvalues --    2.90473   2.98259   3.05248   3.06268   3.07538
 Alpha virt. eigenvalues --    3.14768   3.18560   3.24280   3.29433   3.33900
 Alpha virt. eigenvalues --    3.42988   3.44559   3.45457   3.52321   3.74929
 Alpha virt. eigenvalues --    4.02073   4.06564   4.08849   4.12796   4.15547
 Alpha virt. eigenvalues --    4.34732   4.38918   4.40790   4.61317   4.74716
 Alpha virt. eigenvalues --    5.63910   8.59738  72.80920
          Condensed to atoms (all electrons):
               1          2          3          4          5          6
     1  C    5.175776   0.339046  -0.086296  -0.127948   0.003195  -0.001607
     2  C    0.339046   4.333304   0.627386   0.248209  -0.012421  -0.007275
     3  O   -0.086296   0.627386   8.016216  -0.101993   0.003398   0.000030
     4  N   -0.127948   0.248209  -0.101993   7.188186   0.195336  -0.062707
     5  C    0.003195  -0.012421   0.003398   0.195336   4.872376   0.493355
     6  C   -0.001607  -0.007275   0.000030  -0.062707   0.493355   4.923746
     7  C   -0.000110   0.000080   0.000000   0.005707  -0.016186   0.495913
     8  C    0.000007   0.000015  -0.000000   0.000016  -0.032016  -0.027998
     9  Br   0.000000  -0.000000   0.000000   0.000001   0.000216   0.005841
    10  C   -0.000014  -0.000097   0.000000   0.006904  -0.060806  -0.046761
    11  C   -0.000190   0.001924  -0.000151  -0.058774   0.414962  -0.018973
    12  F   -0.000010   0.000043   0.000000  -0.005335  -0.056025   0.003094
    13  H    0.369584  -0.022824   0.002674   0.004286   0.000090   0.000308
    14  H    0.370093  -0.022277   0.000253   0.002194  -0.000457  -0.003024
    15  H    0.354787  -0.019731   0.002785   0.002232   0.001072   0.002711
    16  H    0.008271  -0.011646   0.010183   0.317766  -0.036501   0.004505
    17  H    0.001473  -0.000203  -0.000037  -0.005975  -0.042052   0.367166
    18  H   -0.000000  -0.000003  -0.000000  -0.000102   0.004081  -0.034456
    19  H   -0.000000   0.000000  -0.000000  -0.000091   0.006118  -0.000005
               7          8          9         10         11         12
     1  C   -0.000110   0.000007   0.000000  -0.000014  -0.000190  -0.000010
     2  C    0.000080   0.000015  -0.000000  -0.000097   0.001924   0.000043
     3  O    0.000000  -0.000000   0.000000   0.000000  -0.000151   0.000000
     4  N    0.005707   0.000016   0.000001   0.006904  -0.058774  -0.005335
     5  C   -0.016186  -0.032016   0.000216  -0.060806   0.414962  -0.056025
     6  C    0.495913  -0.027998   0.005841  -0.046761  -0.018973   0.003094
     7  C    4.881794   0.529357  -0.057957  -0.035831  -0.045650  -0.000033
     8  C    0.529357   4.844178   0.259666   0.452524  -0.004074   0.003331
     9  Br  -0.057957   0.259666  34.968075  -0.056045   0.005025  -0.000023
    10  C   -0.035831   0.452524  -0.056045   5.102438   0.452840  -0.044369
    11  C   -0.045650  -0.004074   0.005025   0.452840   4.665608   0.304366
    12  F   -0.000033   0.003331  -0.000023  -0.044369   0.304366   9.073268
    13  H   -0.000003  -0.000000  -0.000000  -0.000000   0.000010   0.000000
    14  H    0.000090  -0.000001   0.000000   0.000001  -0.000001   0.000000
    15  H    0.000075  -0.000014   0.000000  -0.000018  -0.000100   0.000000
    16  H   -0.000042  -0.000058   0.000000   0.000648  -0.009143   0.014122
    17  H   -0.031292   0.004435  -0.000163   0.000499   0.004164  -0.000021
    18  H    0.370709  -0.041315  -0.003035   0.005470   0.000546   0.000001
    19  H    0.005469  -0.039835  -0.004110   0.362759  -0.032656  -0.001021
              13         14         15         16         17         18
     1  C    0.369584   0.370093   0.354787   0.008271   0.001473  -0.000000
     2  C   -0.022824  -0.022277  -0.019731  -0.011646  -0.000203  -0.000003
     3  O    0.002674   0.000253   0.002785   0.010183  -0.000037  -0.000000
     4  N    0.004286   0.002194   0.002232   0.317766  -0.005975  -0.000102
     5  C    0.000090  -0.000457   0.001072  -0.036501  -0.042052   0.004081
     6  C    0.000308  -0.003024   0.002711   0.004505   0.367166  -0.034456
     7  C   -0.000003   0.000090   0.000075  -0.000042  -0.031292   0.370709
     8  C   -0.000000  -0.000001  -0.000014  -0.000058   0.004435  -0.041315
     9  Br  -0.000000   0.000000   0.000000   0.000000  -0.000163  -0.003035
    10  C   -0.000000   0.000001  -0.000018   0.000648   0.000499   0.005470
    11  C    0.000010  -0.000001  -0.000100  -0.009143   0.004164   0.000546
    12  F    0.000000   0.000000   0.000000   0.014122  -0.000021   0.000001
    13  H    0.540088  -0.021254  -0.022164  -0.000182   0.000155  -0.000000
    14  H   -0.021254   0.557476  -0.028972  -0.000196   0.003071   0.000001
    15  H   -0.022164  -0.028972   0.575236  -0.000239  -0.000738   0.000001
    16  H   -0.000182  -0.000196  -0.000239   0.423134  -0.000222   0.000002
    17  H    0.000155   0.003071  -0.000738  -0.000222   0.600155  -0.006566
    18  H   -0.000000   0.000001   0.000001   0.000002  -0.006566   0.591179
    19  H    0.000000   0.000000   0.000000  -0.000014   0.000013  -0.000152
              19
     1  C   -0.000000
     2  C    0.000000
     3  O   -0.000000
     4  N   -0.000091
     5  C    0.006118
     6  C   -0.000005
     7  C    0.005469
     8  C   -0.039835
     9  Br  -0.004110
    10  C    0.362759
    11  C   -0.032656
    12  F   -0.001021
    13  H    0.000000
    14  H    0.000000
    15  H    0.000000
    16  H   -0.000014
    17  H    0.000013
    18  H   -0.000152
    19  H    0.575625
 Mulliken charges:
               1
     1  C   -0.406056
     2  C    0.546472
     3  O   -0.474449
     4  N   -0.607912
     5  C    0.262265
     6  C   -0.093861
     7  C   -0.102089
     8  C    0.051783
     9  Br  -0.117491
    10  C   -0.140143
    11  C    0.320265
    12  F   -0.291389
    13  H    0.149233
    14  H    0.143003
    15  H    0.133077
    16  H    0.279612
    17  H    0.106139
    18  H    0.113642
    19  H    0.127899
 Sum of Mulliken charges =  -0.00000
 Mulliken charges with hydrogens summed into heavy atoms:
               1
     1  C    0.019257
     2  C    0.546472
     3  O   -0.474449
     4  N   -0.328299
     5  C    0.262265
     6  C    0.012278
     7  C    0.011553
     8  C    0.051783
     9  Br  -0.117491
    10  C   -0.012244
    11  C    0.320265
    12  F   -0.291389
 Electronic spatial extent (au):  <R**2>=           3911.0043
 Charge=             -0.0000 electrons
 Dipole moment (field-independent basis, Debye):
    X=              1.5857    Y=             -1.5137    Z=              0.1600  Tot=              2.1980
 Quadrupole moment (field-independent basis, Debye-Ang):
   XX=           -100.9734   YY=            -74.1606   ZZ=            -80.7981
   XY=              5.7607   XZ=             -1.5658   YZ=              0.0502
 Traceless Quadrupole moment (field-independent basis, Debye-Ang):
   XX=            -15.6627   YY=             11.1501   ZZ=              4.5126
   XY=              5.7607   XZ=             -1.5658   YZ=              0.0502
 Octapole moment (field-independent basis, Debye-Ang**2):
  XXX=            205.3028  YYY=              1.7797  ZZZ=              4.1974  XYY=             17.1341
  XXY=            -13.8483  XXZ=             12.4294  XZZ=             20.5300  YZZ=              3.6426
  YYZ=             -2.3836  XYZ=              3.9591
 Hexadecapole moment (field-independent basis, Debye-Ang**3):
 XXXX=          -4237.2791 YYYY=           -636.7924 ZZZZ=           -121.2690 XXXY=             27.8882
 XXXZ=            -45.1438 YYYX=            -31.1783 YYYZ=              7.2884 ZZZX=              5.5480
 ZZZY=              0.7672 XXYY=           -644.9516 XXZZ=           -604.4689 YYZZ=           -126.4236
 XXYZ=             -9.4826 YYXZ=              7.2713 ZZXY=            -13.3092
 N-N= 9.169407323903D+02 E-N=-9.225689059762D+03  KE= 3.090446380851D+03
 No NMR shielding tensors so no spin-rotation constants.
 Leave Link  601 at Tue Sep 17 09:51:30 2024, MaxMem=  1342177280 cpu:               0.8 elap:               0.4
 (Enter /groups/ReismanLab/Software/Gaussian16_RevC/Linux_Binary_AVX2-enabled-CPU/g16/l701.exe)
 ... and contract with generalized density number  0.
 Compute integral first derivatives.
 R6Disp: Adding Grimme-D3(BJ) dispersion energy 1st derivatives to the gradient.
 Leave Link  701 at Tue Sep 17 09:51:30 2024, MaxMem=  1342177280 cpu:               0.7 elap:               0.1
 (Enter /groups/ReismanLab/Software/Gaussian16_RevC/Linux_Binary_AVX2-enabled-CPU/g16/l702.exe)
 L702 exits ... SP integral derivatives will be done elsewhere.
 Leave Link  702 at Tue Sep 17 09:51:30 2024, MaxMem=  1342177280 cpu:               0.1 elap:               0.0
 (Enter /groups/ReismanLab/Software/Gaussian16_RevC/Linux_Binary_AVX2-enabled-CPU/g16/l703.exe)
 Integral derivatives from FoFJK, PRISM(SPDF).
 Compute integral first derivatives, UseDBF=F ICtDFT=           0.
 Calling FoFJK, ICntrl=      2127 FMM=F ISym2X=0 I1Cent= 0 IOpClX= 0 NMat=1 NMatS=1 NMatT=0.
 FoFJK:  IHMeth= 1 ICntrl=    2127 DoSepK=F KAlg= 0 I1Cent=           0 FoldK=F
 IRaf=         0 NMat=       1 IRICut=       1 DoRegI=T DoRafI=F ISym2E= 0 IDoP0=0 IntGTp=1.
 FoFCou: FMM=F IPFlag=           0 FMFlag=      100000 FMFlg1=         800
         NFxFlg=           0 DoJE=F BraDBF=F KetDBF=F FulRan=T
         wScrn=  0.000000 ICntrl=      2127 IOpCl=  0 I1Cent=           0 NGrid=           0
         NMat0=    1 NMatS0=      1 NMatT0=    0 NMatD0=    1 NMtDS0=    0 NMtDT0=    0
 Symmetry not used in FoFCou.
 Leave Link  703 at Tue Sep 17 09:51:34 2024, MaxMem=  1342177280 cpu:              30.6 elap:               3.9
 (Enter /groups/ReismanLab/Software/Gaussian16_RevC/Linux_Binary_AVX2-enabled-CPU/g16/l716.exe)
 Dipole        = 6.23853834D-01-5.95520903D-01 6.29580930D-02
 ***** Axes restored to original set *****
 -------------------------------------------------------------------
 Center     Atomic                   Forces (Hartrees/Bohr)
 Number     Number              X              Y              Z
 -------------------------------------------------------------------
      1        6           0.002789748   -0.000020711    0.001577509
      2        6          -0.008414770    0.005593337    0.005446047
      3        8           0.020630644   -0.004993093   -0.004156795
      4        7          -0.002829902   -0.013836688   -0.006329691
      5        6          -0.003501586   -0.000466995    0.001322181
      6        6           0.003183702    0.001566438   -0.001266616
      7        6          -0.005166999    0.004910978    0.001602125
      8        6          -0.004588442    0.000544530    0.000248217
      9       35          -0.002902453    0.000205853    0.000279589
     10        6          -0.001625573   -0.003465246   -0.000259494
     11        6           0.001773297   -0.000789596    0.000469037
     12        9           0.003066427   -0.001013209   -0.000405419
     13        1           0.001962659   -0.000223699    0.000498525
     14        1          -0.002117500    0.003938535   -0.001409486
     15        1          -0.003177589    0.002120250    0.002087526
     16        1           0.001258630    0.002815581    0.000437597
     17        1           0.002483278    0.003043572   -0.000532233
     18        1          -0.001577632    0.002958585    0.000077494
     19        1          -0.001245941   -0.002888421    0.000313887
 -------------------------------------------------------------------
 Cartesian Forces:  Max     0.020630644 RMS     0.004357264
 Leave Link  716 at Tue Sep 17 09:51:34 2024, MaxMem=  1342177280 cpu:               0.1 elap:               0.1
 (Enter /groups/ReismanLab/Software/Gaussian16_RevC/Linux_Binary_AVX2-enabled-CPU/g16/l103.exe)

 GradGradGradGradGradGradGradGradGradGradGradGradGradGradGradGradGradGrad
 Berny optimization.
 FormGI is forming the generalized inverse of G from B-inverse, IUseBI=4.
 Internal  Forces:  Max     0.021442553 RMS     0.003924063
 Search for a local minimum.
 Step number   1 out of a maximum of   97
 All quantities printed in internal units (Hartrees-Bohrs-Radians)
 RMS Force = .39241D-02 SwitMx=.10000D-02 MixMth= 1
 Mixed Optimization -- RFO/linear search
 Second derivative matrix not updated -- first step.
 ITU=  0
     Eigenvalues ---    0.00696   0.01197   0.01868   0.01974   0.02017
     Eigenvalues ---    0.02049   0.02138   0.02221   0.02240   0.02283
     Eigenvalues ---    0.02288   0.02307   0.02312   0.02341   0.07185
     Eigenvalues ---    0.07658   0.15940   0.15993   0.15999   0.16000
     Eigenvalues ---    0.16000   0.16000   0.16000   0.18303   0.22033
     Eigenvalues ---    0.22369   0.23497   0.24604   0.24966   0.24990
     Eigenvalues ---    0.24998   0.25000   0.25000   0.31828   0.35015
     Eigenvalues ---    0.35123   0.35232   0.36167   0.36216   0.36533
     Eigenvalues ---    0.42641   0.43446   0.44990   0.46702   0.47356
     Eigenvalues ---    0.47899   0.48336   0.49257   0.49953   0.54972
     Eigenvalues ---    1.00657
 RFO step:  Lambda=-2.69775984D-03 EMin= 6.95901203D-03
 Linear search not attempted -- first point.
 Iteration  1 RMS(Cart)=  0.02501763 RMS(Int)=  0.00017179
 Iteration  2 RMS(Cart)=  0.00024651 RMS(Int)=  0.00004206
 Iteration  3 RMS(Cart)=  0.00000006 RMS(Int)=  0.00004206
 ITry= 1 IFail=0 DXMaxC= 7.79D-02 DCOld= 1.00D+10 DXMaxT= 3.00D-01 DXLimC= 3.00D+00 Rises=F
 Variable       Old X    -DE/DX   Delta X   Delta X   Delta X     New X
                                 (Linear)    (Quad)   (Total)
    R1        2.84460   0.00640   0.00000   0.01995   0.01995   2.86455
    R2        2.05475   0.00186   0.00000   0.00525   0.00525   2.06000
    R3        2.05651   0.00424   0.00000   0.01202   0.01202   2.06853
    R4        2.05300   0.00357   0.00000   0.01007   0.01007   2.06307
    R5        2.28377   0.02144   0.00000   0.02125   0.02125   2.30501
    R6        2.59912   0.01386   0.00000   0.02760   0.02760   2.62673
    R7        2.62047   0.01078   0.00000   0.02237   0.02237   2.64284
    R8        1.91988  -0.00237   0.00000  -0.00524  -0.00524   1.91464
    R9        2.63518   0.00761   0.00000   0.01615   0.01614   2.65133
   R10        2.64971   0.00184   0.00000   0.00343   0.00342   2.65314
   R11        2.61386   0.01073   0.00000   0.02245   0.02245   2.63631
   R12        2.03257   0.00393   0.00000   0.01069   0.01069   2.04325
   R13        2.61513   0.00743   0.00000   0.01583   0.01584   2.63097
   R14        2.03822   0.00335   0.00000   0.00920   0.00920   2.04742
   R15        3.58846   0.00292   0.00000   0.01573   0.01573   3.60420
   R16        2.61916   0.00808   0.00000   0.01686   0.01687   2.63603
   R17        2.60219   0.00662   0.00000   0.01282   0.01282   2.61500
   R18        2.03745   0.00312   0.00000   0.00855   0.00855   2.04600
   R19        2.55157   0.00227   0.00000   0.00411   0.00411   2.55568
    A1        1.88192  -0.00176   0.00000  -0.01002  -0.00999   1.87193
    A2        1.91908   0.00166   0.00000   0.00924   0.00922   1.92831
    A3        1.94811   0.00291   0.00000   0.01802   0.01800   1.96612
    A4        1.88074   0.00003   0.00000  -0.00011  -0.00009   1.88065
    A5        1.91812  -0.00018   0.00000   0.00070   0.00073   1.91885
    A6        1.91442  -0.00272   0.00000  -0.01819  -0.01825   1.89617
    A7        2.14904  -0.00388   0.00000  -0.01514  -0.01525   2.13380
    A8        2.06383   0.00131   0.00000   0.00539   0.00529   2.06913
    A9        2.06987   0.00258   0.00000   0.01048   0.01038   2.08025
   A10        2.32286  -0.00061   0.00000  -0.00268  -0.00268   2.32017
   A11        1.95493  -0.00154   0.00000  -0.00991  -0.00991   1.94501
   A12        1.99699   0.00215   0.00000   0.01284   0.01284   2.00983
   A13        2.18371   0.00312   0.00000   0.01303   0.01304   2.19675
   A14        2.05949  -0.00309   0.00000  -0.01157  -0.01156   2.04793
   A15        2.03894  -0.00002   0.00000  -0.00140  -0.00142   2.03752
   A16        2.11386   0.00017   0.00000   0.00158   0.00156   2.11542
   A17        2.09602  -0.00059   0.00000  -0.00380  -0.00380   2.09223
   A18        2.07293   0.00042   0.00000   0.00240   0.00240   2.07532
   A19        2.09571  -0.00139   0.00000  -0.00399  -0.00401   2.09170
   A20        2.09275   0.00080   0.00000   0.00261   0.00259   2.09535
   A21        2.09467   0.00059   0.00000   0.00129   0.00127   2.09594
   A22        2.09293   0.00027   0.00000   0.00039   0.00039   2.09333
   A23        2.10638  -0.00058   0.00000  -0.00092  -0.00092   2.10546
   A24        2.08381   0.00031   0.00000   0.00055   0.00055   2.08436
   A25        2.06294   0.00020   0.00000   0.00023   0.00021   2.06315
   A26        2.12681   0.00039   0.00000   0.00291   0.00291   2.12972
   A27        2.09343  -0.00059   0.00000  -0.00315  -0.00315   2.09029
   A28        2.14793   0.00162   0.00000   0.00450   0.00448   2.15241
   A29        2.06312  -0.00379   0.00000  -0.01404  -0.01404   2.04908
   A30        2.07212   0.00216   0.00000   0.00951   0.00951   2.08164
    D1       -0.38831   0.00002   0.00000  -0.00275  -0.00268  -0.39099
    D2        2.72098   0.00046   0.00000   0.02417   0.02409   2.74507
    D3        1.65779  -0.00005   0.00000  -0.00356  -0.00352   1.65427
    D4       -1.51611   0.00039   0.00000   0.02336   0.02325  -1.49286
    D5       -2.49667  -0.00038   0.00000  -0.00809  -0.00798  -2.50465
    D6        0.61262   0.00006   0.00000   0.01883   0.01879   0.63141
    D7        0.04456  -0.00032   0.00000  -0.02226  -0.02239   0.02217
    D8       -2.94662  -0.00049   0.00000  -0.02540  -0.02552  -2.97214
    D9       -3.12784  -0.00002   0.00000   0.00293   0.00305  -3.12479
   D10        0.16417  -0.00019   0.00000  -0.00021  -0.00008   0.16409
   D11        0.55606   0.00024   0.00000   0.00859   0.00859   0.56464
   D12       -2.63623   0.00026   0.00000   0.00986   0.00985  -2.62638
   D13       -2.73871   0.00017   0.00000   0.01027   0.01028  -2.72844
   D14        0.35218   0.00019   0.00000   0.01154   0.01154   0.36372
   D15        3.12645   0.00011   0.00000   0.00702   0.00705   3.13350
   D16        0.01490  -0.00007   0.00000  -0.00026  -0.00024   0.01467
   D17        0.03502   0.00016   0.00000   0.00604   0.00606   0.04108
   D18       -3.07653  -0.00001   0.00000  -0.00124  -0.00123  -3.07776
   D19       -3.12534   0.00001   0.00000   0.00366   0.00368  -3.12166
   D20        0.01015  -0.00012   0.00000  -0.00232  -0.00229   0.00786
   D21       -0.03021   0.00014   0.00000   0.00529   0.00529  -0.02492
   D22        3.10528   0.00001   0.00000  -0.00070  -0.00068   3.10460
   D23       -0.01371  -0.00037   0.00000  -0.01419  -0.01419  -0.02789
   D24        3.13885  -0.00008   0.00000  -0.00361  -0.00362   3.13523
   D25        3.09823  -0.00021   0.00000  -0.00710  -0.00707   3.09115
   D26       -0.03240   0.00008   0.00000   0.00348   0.00349  -0.02891
   D27        3.13859   0.00024   0.00000   0.00862   0.00859  -3.13600
   D28       -0.01483   0.00031   0.00000   0.01118   0.01116  -0.00367
   D29       -0.01399  -0.00005   0.00000  -0.00196  -0.00196  -0.01595
   D30        3.11579   0.00002   0.00000   0.00060   0.00060   3.11639
   D31        0.01977   0.00001   0.00000  -0.00013  -0.00016   0.01962
   D32       -3.12423  -0.00016   0.00000  -0.00603  -0.00605  -3.13028
   D33       -3.13358   0.00008   0.00000   0.00241   0.00239  -3.13119
   D34        0.00561  -0.00009   0.00000  -0.00349  -0.00350   0.00211
   D35        0.00333  -0.00022   0.00000  -0.00819  -0.00821  -0.00488
   D36       -3.13213  -0.00008   0.00000  -0.00210  -0.00206  -3.13419
   D37       -3.13590  -0.00006   0.00000  -0.00242  -0.00246  -3.13836
   D38        0.01183   0.00009   0.00000   0.00367   0.00369   0.01551
         Item               Value     Threshold  Converged?
 Maximum Force            0.021443     0.000450     NO 
 RMS     Force            0.003924     0.000300     NO 
 Maximum Displacement     0.077868     0.001800     NO 
 RMS     Displacement     0.025104     0.001200     NO 
 Predicted change in Energy=-1.362822D-03
 Lowest energy point so far.  Saving SCF results.
 GradGradGradGradGradGradGradGradGradGradGradGradGradGradGradGradGradGrad

 Leave Link  103 at Tue Sep 17 09:51:34 2024, MaxMem=  1342177280 cpu:               0.1 elap:               0.0
 (Enter /groups/ReismanLab/Software/Gaussian16_RevC/Linux_Binary_AVX2-enabled-CPU/g16/l202.exe)
                          Input orientation:                          
 ---------------------------------------------------------------------
 Center     Atomic      Atomic             Coordinates (Angstroms)
 Number     Number       Type             X           Y           Z
 ---------------------------------------------------------------------
      1          6           0        3.750618    1.731081    0.692139
      2          6           0        3.956325    0.444989   -0.083402
      3          8           0        5.065645    0.035770   -0.383012
      4          7           0        2.838302   -0.291541   -0.457112
      5          6           0        1.464783   -0.091168   -0.286259
      6          6           0        0.813268    1.150942   -0.252182
      7          6           0       -0.569065    1.237708   -0.085276
      8          6           0       -1.328866    0.075590    0.017414
      9         35           0       -3.219983    0.191011    0.236475
     10          6           0       -0.721992   -1.178632   -0.049289
     11          6           0        0.652946   -1.233056   -0.195869
     12          9           0        1.262653   -2.437852   -0.271578
     13          1           0        4.676651    1.936291    1.229433
     14          1           0        3.569600    2.566167    0.007996
     15          1           0        2.917903    1.669317    1.395450
     16          1           0        3.098640   -1.198748   -0.825543
     17          1           0        1.382761    2.061456   -0.377580
     18          1           0       -1.052279    2.206981   -0.055768
     19          1           0       -1.292151   -2.096604    0.017626
 ---------------------------------------------------------------------
                    Distance matrix (angstroms):
                    1          2          3          4          5
     1  C    0.000000
     2  C    1.515853   0.000000
     3  O    2.399859   1.219761   0.000000
     4  N    2.498819   1.390004   2.252484   0.000000
     5  C    3.082676   2.556638   3.604397   1.398532   0.000000
     6  C    3.139479   3.225781   4.398117   2.494697   1.403021
     7  C    4.416724   4.594297   5.769165   3.753267   2.437795
     8  C    5.384892   5.299044   6.407161   4.210137   2.815050
     9  Br   7.153232   7.187923   8.310205   6.116922   4.722278
    10  C    5.387057   4.952167   5.923081   3.691739   2.453715
    11  C    4.378383   3.706858   4.595308   2.393841   1.403979
    12  F    4.949618   3.949944   4.538059   2.669034   2.355419
    13  H    1.090107   2.113383   2.522553   3.344727   4.089499
    14  H    1.094618   2.158079   2.965459   2.986238   3.402685
    15  H    1.091730   2.182728   3.231749   2.698756   2.835315
    16  H    3.363381   1.997065   2.364102   1.013184   2.046227
    17  H    2.619197   3.053316   4.203221   2.767945   2.156121
    18  H    4.884022   5.309567   6.500019   4.641154   3.416170
    19  H    6.366762   5.832359   6.717820   4.532579   3.422690
                    6          7          8          9         10
     6  C    0.000000
     7  C    1.395074   0.000000
     8  C    2.412013   1.392251   0.000000
     9  Br   4.174610   2.868182   1.907258   0.000000
    10  C    2.797338   2.421442   1.394926   2.863136   0.000000
    11  C    2.390046   2.758663   2.384455   4.149033   1.383800
    12  F    3.616872   4.110917   3.621723   5.221404   2.360902
    13  H    4.211613   5.452891   6.402924   8.147932   6.362642
    14  H    3.109328   4.347649   5.495274   7.196666   5.696012
    15  H    2.722663   3.812844   4.740675   6.418899   4.842202
    16  H    3.327568   4.465016   4.683729   6.556242   3.898743
    17  H    1.081242   2.138604   3.384170   5.006085   3.877619
    18  H    2.152688   1.083446   2.150508   2.974639   3.401692
    19  H    3.879709   3.413368   2.172504   2.999603   1.082697
                   11         12         13         14         15
    11  C    0.000000
    12  F    1.352408   0.000000
    13  H    5.316620   5.748178   0.000000
    14  H    4.794009   5.517279   1.764714   0.000000
    15  H    4.010747   4.731562   1.786626   1.775972   0.000000
    16  H    2.525684   2.283222   4.067126   3.884736   3.631979
    17  H    3.379269   4.502159   3.667134   2.277206   2.377829
    18  H    3.842041   5.194223   5.877556   4.636254   4.261158
    19  H    2.138855   2.593667   7.304747   6.736331   5.814217
                   16         17         18         19
    16  H    0.000000
    17  H    3.711312   0.000000
    18  H    5.424175   2.460521   0.000000
    19  H    4.560277   4.959920   4.310890   0.000000
 Stoichiometry    C8H7BrFNO
 Framework group  C1[X(C8H7BrFNO)]
 Deg. of freedom    51
 Full point group                 C1      NOp   1
 RotChk:  IX=0 Diff= 4.13D-03
 Largest Abelian subgroup         C1      NOp   1
 Largest concise Abelian subgroup C1      NOp   1
                         Standard orientation:                         
 ---------------------------------------------------------------------
 Center     Atomic      Atomic             Coordinates (Angstroms)
 Number     Number       Type             X           Y           Z
 ---------------------------------------------------------------------
      1          6           0       -3.576392   -1.737712    0.578744
      2          6           0       -3.785295   -0.341840    0.025830
      3          8           0       -4.896662    0.127078   -0.155267
      4          7           0       -2.667551    0.426988   -0.276933
      5          6           0       -1.292961    0.180516   -0.201792
      6          6           0       -0.668855   -1.061354   -0.393418
      7          6           0        0.716944   -1.195182   -0.304646
      8          6           0        1.506478   -0.076127   -0.054215
      9         35           0        3.402022   -0.254504    0.058597
     10          6           0        0.925868    1.182173    0.105129
     11          6           0       -0.452424    1.280733    0.030973
     12          9           0       -1.037358    2.491712    0.173763
     13          1           0       -4.483484   -2.010964    1.118049
     14          1           0       -3.443160   -2.456478   -0.236004
     15          1           0       -2.713732   -1.801342    1.244810
     16          1           0       -2.922521    1.385114   -0.485560
     17          1           0       -1.263557   -1.931406   -0.635123
     18          1           0        1.178921   -2.164335   -0.450170
     19          1           0        1.518952    2.068852    0.290289
 ---------------------------------------------------------------------
 Rotational constants (GHZ):           1.8572444           0.2695951           0.2384732
 Leave Link  202 at Tue Sep 17 09:51:34 2024, MaxMem=  1342177280 cpu:               0.0 elap:               0.0
 (Enter /groups/ReismanLab/Software/Gaussian16_RevC/Linux_Binary_AVX2-enabled-CPU/g16/l301.exe)
 Standard basis: 6-31G(d,p) (6D, 7F)
 Ernie: Thresh=  0.10000D-02 Tol=  0.10000D-05 Strict=F.
 There are   230 symmetry adapted cartesian basis functions of A   symmetry.
 There are   230 symmetry adapted basis functions of A   symmetry.
   230 basis functions,   440 primitive gaussians,   230 cartesian basis functions
    57 alpha electrons       57 beta electrons
       nuclear repulsion energy       911.4868499605 Hartrees.
 IExCor=  402 DFT=T Ex+Corr=B3LYP ExCW=0 ScaHFX=  0.200000
 ScaDFX=  0.800000  0.720000  1.000000  0.810000 ScalE2=  1.000000  1.000000
 IRadAn=      5 IRanWt=     -1 IRanGd=            0 ICorTp=0 IEmpDi=141
 NAtoms=   19 NActive=   19 NUniq=   19 SFac= 1.00D+00 NAtFMM=   60 NAOKFM=F Big=F
 Integral buffers will be    131072 words long.
 Raffenetti 2 integral format.
 Two-electron integral symmetry is turned on.
 R6Disp:  Grimme-D3(BJ) Dispersion energy=       -0.0387602238 Hartrees.
 Nuclear repulsion after empirical dispersion term =      911.4480897367 Hartrees.
 Leave Link  301 at Tue Sep 17 09:51:34 2024, MaxMem=  1342177280 cpu:               0.1 elap:               0.1
 (Enter /groups/ReismanLab/Software/Gaussian16_RevC/Linux_Binary_AVX2-enabled-CPU/g16/l302.exe)
 NPDir=0 NMtPBC=     1 NCelOv=     1 NCel=       1 NClECP=     1 NCelD=      1
         NCelK=      1 NCelE2=     1 NClLst=     1 CellRange=     0.0.
 One-electron integrals computed using PRISM.
 One-electron integral symmetry used in STVInt
 NBasis=   230 RedAO= T EigKep=  3.87D-04  NBF=   230
 NBsUse=   230 1.00D-06 EigRej= -1.00D+00 NBFU=   230
 Precomputing XC quadrature grid using
 IXCGrd= 4 IRadAn=           5 IRanWt=          -1 IRanGd=           0 AccXCQ= 0.00D+00.
 Generated NRdTot=       0 NPtTot=           0 NUsed=           0 NTot=          32
 NSgBfM=   228   228   228   228   228 MxSgAt=    19 MxSgA2=    19.
 Leave Link  302 at Tue Sep 17 09:51:35 2024, MaxMem=  1342177280 cpu:               0.9 elap:               0.2
 (Enter /groups/ReismanLab/Software/Gaussian16_RevC/Linux_Binary_AVX2-enabled-CPU/g16/l303.exe)
 DipDrv:  MaxL=1.
 Leave Link  303 at Tue Sep 17 09:51:35 2024, MaxMem=  1342177280 cpu:               0.1 elap:               0.3
 (Enter /groups/ReismanLab/Software/Gaussian16_RevC/Linux_Binary_AVX2-enabled-CPU/g16/l401.exe)
 Initial guess from the checkpoint file:  "smiles_00081_conf_2.chk"
 B after Tr=     0.000000   -0.000000    0.000000
         Rot=    1.000000   -0.000246    0.000249   -0.000148 Ang=  -0.04 deg.
 Guess basis will be translated and rotated to current coordinates.
 JPrj=2 DoOrth=T DoCkMO=T.
 Generating alternative initial guess.
 ExpMin= 1.43D-01 ExpMax= 5.74D+05 ExpMxC= 5.74D+03 IAcc=3 IRadAn=         5 AccDes= 0.00D+00
 Harris functional with IExCor=  402 and IRadAn=       5 diagonalized for initial guess.
 HarFok:  IExCor=  402 AccDes= 0.00D+00 IRadAn=         5 IDoV= 1 UseB2=F ITyADJ=14
 ICtDFT=  3500011 ScaDFX=  1.000000  1.000000  1.000000  1.000000
 FoFCou: FMM=F IPFlag=           0 FMFlag=      100000 FMFlg1=           0
         NFxFlg=           0 DoJE=T BraDBF=F KetDBF=T FulRan=T
         wScrn=  0.000000 ICntrl=       500 IOpCl=  0 I1Cent=   200000004 NGrid=           0
         NMat0=    1 NMatS0=      1 NMatT0=    0 NMatD0=    1 NMtDS0=    0 NMtDT0=    0
 Petite list used in FoFCou.
 Harris En= -3110.75282879860    
 Leave Link  401 at Tue Sep 17 09:51:36 2024, MaxMem=  1342177280 cpu:               4.9 elap:               0.7
 (Enter /groups/ReismanLab/Software/Gaussian16_RevC/Linux_Binary_AVX2-enabled-CPU/g16/l502.exe)
 Integral symmetry usage will be decided dynamically.
 Closed shell SCF:
 Using DIIS extrapolation, IDIIS=  1040.
 NGot=  1342177280 LenX=  1342066761 LenY=  1342013420
 Requested convergence on RMS density matrix=1.00D-08 within  32 cycles.
 Requested convergence on MAX density matrix=1.00D-06.
 Requested convergence on             energy=1.00D-06.
 No special actions if energy rises.
 Fock matrices will be formed incrementally for  20 cycles.
 Integral accuracy reduced to 1.0D-05 until final iterations.

 Cycle   1  Pass 0  IDiag  1:
 FoFJK:  IHMeth= 1 ICntrl=       0 DoSepK=F KAlg= 0 I1Cent=           0 FoldK=F
 IRaf= 850000000 NMat=       1 IRICut=       1 DoRegI=T DoRafI=F ISym2E= 0 IDoP0=0 IntGTp=1.
 FoFCou: FMM=F IPFlag=           0 FMFlag=      100000 FMFlg1=           0
         NFxFlg=           0 DoJE=F BraDBF=F KetDBF=F FulRan=T
         wScrn=  0.000000 ICntrl=         0 IOpCl=  0 I1Cent=           0 NGrid=           0
         NMat0=    1 NMatS0=      1 NMatT0=    0 NMatD0=    1 NMtDS0=    0 NMtDT0=    0
 Symmetry not used in FoFCou.
 E= -3110.64569436585    
 DIIS: error= 1.73D-03 at cycle   1 NSaved=   1.
 NSaved= 1 IEnMin= 1 EnMin= -3110.64569436585     IErMin= 1 ErrMin= 1.73D-03
 ErrMax= 1.73D-03  0.00D+00 EMaxC= 1.00D-01 BMatC= 1.03D-03 BMatP= 1.03D-03
 IDIUse=3 WtCom= 9.83D-01 WtEn= 1.73D-02
 Coeff-Com:  0.100D+01
 Coeff-En:   0.100D+01
 Coeff:      0.100D+01
 Gap=     1.781 Goal=   None    Shift=    0.000
 GapD=    1.781 DampG=2.000 DampE=1.000 DampFc=2.0000 IDamp=-1.
 RMSDP=2.12D-04 MaxDP=4.29D-03              OVMax= 4.53D-03

 Cycle   2  Pass 0  IDiag  1:
 RMSU=  2.12D-04    CP:  1.00D+00
 E= -3110.64636198899     Delta-E=       -0.000667623137 Rises=F Damp=F
 DIIS: error= 3.28D-04 at cycle   2 NSaved=   2.
 NSaved= 2 IEnMin= 2 EnMin= -3110.64636198899     IErMin= 2 ErrMin= 3.28D-04
 ErrMax= 3.28D-04  0.00D+00 EMaxC= 1.00D-01 BMatC= 6.28D-05 BMatP= 1.03D-03
 IDIUse=3 WtCom= 9.97D-01 WtEn= 3.28D-03
 Coeff-Com:  0.861D-01 0.914D+00
 Coeff-En:   0.000D+00 0.100D+01
 Coeff:      0.859D-01 0.914D+00
 Gap=     0.195 Goal=   None    Shift=    0.000
 RMSDP=7.87D-05 MaxDP=2.08D-03 DE=-6.68D-04 OVMax= 3.49D-03

 Cycle   3  Pass 0  IDiag  1:
 RMSU=  7.81D-05    CP:  1.00D+00  9.57D-01
 E= -3110.64633327291     Delta-E=        0.000028716084 Rises=F Damp=F
 DIIS: error= 3.82D-04 at cycle   3 NSaved=   3.
 NSaved= 3 IEnMin= 2 EnMin= -3110.64636198899     IErMin= 2 ErrMin= 3.28D-04
 ErrMax= 3.82D-04  0.00D+00 EMaxC= 1.00D-01 BMatC= 9.33D-05 BMatP= 6.28D-05
 IDIUse=3 WtCom= 3.38D-01 WtEn= 6.62D-01
 Coeff-Com: -0.136D-02 0.553D+00 0.449D+00
 Coeff-En:   0.000D+00 0.581D+00 0.419D+00
 Coeff:     -0.459D-03 0.571D+00 0.429D+00
 Gap=     0.196 Goal=   None    Shift=    0.000
 RMSDP=4.95D-05 MaxDP=1.35D-03 DE= 2.87D-05 OVMax= 2.67D-03

 Cycle   4  Pass 0  IDiag  1:
 RMSU=  2.22D-05    CP:  1.00D+00  1.01D+00  4.54D-01
 E= -3110.64642355099     Delta-E=       -0.000090278078 Rises=F Damp=F
 DIIS: error= 1.61D-04 at cycle   4 NSaved=   4.
 NSaved= 4 IEnMin= 4 EnMin= -3110.64642355099     IErMin= 4 ErrMin= 1.61D-04
 ErrMax= 1.61D-04  0.00D+00 EMaxC= 1.00D-01 BMatC= 5.85D-06 BMatP= 6.28D-05
 IDIUse=3 WtCom= 9.98D-01 WtEn= 1.61D-03
 Coeff-Com: -0.720D-02 0.277D+00 0.258D+00 0.472D+00
 Coeff-En:   0.000D+00 0.000D+00 0.000D+00 0.100D+01
 Coeff:     -0.719D-02 0.277D+00 0.257D+00 0.473D+00
 Gap=     0.196 Goal=   None    Shift=    0.000
 RMSDP=1.24D-05 MaxDP=5.79D-04 DE=-9.03D-05 OVMax= 8.37D-04

 Cycle   5  Pass 0  IDiag  1:
 RMSU=  7.26D-06    CP:  1.00D+00  1.01D+00  4.59D-01  5.47D-01
 E= -3110.64642822280     Delta-E=       -0.000004671811 Rises=F Damp=F
 DIIS: error= 3.02D-05 at cycle   5 NSaved=   5.
 NSaved= 5 IEnMin= 5 EnMin= -3110.64642822280     IErMin= 5 ErrMin= 3.02D-05
 ErrMax= 3.02D-05  0.00D+00 EMaxC= 1.00D-01 BMatC= 2.84D-07 BMatP= 5.85D-06
 IDIUse=1 WtCom= 1.00D+00 WtEn= 0.00D+00
 Coeff-Com: -0.321D-02 0.825D-01 0.870D-01 0.227D+00 0.607D+00
 Coeff:     -0.321D-02 0.825D-01 0.870D-01 0.227D+00 0.607D+00
 Gap=     0.196 Goal=   None    Shift=    0.000
 RMSDP=3.49D-06 MaxDP=1.44D-04 DE=-4.67D-06 OVMax= 1.92D-04

 Initial convergence to 1.0D-05 achieved.  Increase integral accuracy.
 Cycle   6  Pass 1  IDiag  1:
 E= -3110.64643392544     Delta-E=       -0.000005702647 Rises=F Damp=F
 DIIS: error= 2.73D-05 at cycle   1 NSaved=   1.
 NSaved= 1 IEnMin= 1 EnMin= -3110.64643392544     IErMin= 1 ErrMin= 2.73D-05
 ErrMax= 2.73D-05  0.00D+00 EMaxC= 1.00D-01 BMatC= 1.68D-07 BMatP= 1.68D-07
 IDIUse=1 WtCom= 1.00D+00 WtEn= 0.00D+00
 Coeff-Com:  0.100D+01
 Coeff:      0.100D+01
 Gap=     0.196 Goal=   None    Shift=    0.000
 RMSDP=3.49D-06 MaxDP=1.44D-04 DE=-5.70D-06 OVMax= 1.82D-04

 Cycle   7  Pass 1  IDiag  1:
 RMSU=  1.29D-05    CP:  1.00D+00
 E= -3110.64643378738     Delta-E=        0.000000138059 Rises=F Damp=F
 DIIS: error= 2.97D-05 at cycle   2 NSaved=   2.
 NSaved= 2 IEnMin= 1 EnMin= -3110.64643392544     IErMin= 1 ErrMin= 2.73D-05
 ErrMax= 2.97D-05  0.00D+00 EMaxC= 1.00D-01 BMatC= 3.11D-07 BMatP= 1.68D-07
 IDIUse=1 WtCom= 1.00D+00 WtEn= 0.00D+00
 Coeff-Com:  0.592D+00 0.408D+00
 Coeff:      0.592D+00 0.408D+00
 Gap=     0.196 Goal=   None    Shift=    0.000
 RMSDP=2.85D-06 MaxDP=1.40D-04 DE= 1.38D-07 OVMax= 1.70D-04

 Cycle   8  Pass 1  IDiag  1:
 RMSU=  2.79D-06    CP:  1.00D+00  9.56D-01
 E= -3110.64643401248     Delta-E=       -0.000000225095 Rises=F Damp=F
 DIIS: error= 1.04D-05 at cycle   3 NSaved=   3.
[...]
   XY=     3.2408   YY=    23.5708   ZY=     0.9640
   XZ=     1.1917   YZ=     0.8571   ZZ=    19.6939
   Eigenvalues:    19.4516    21.5310    30.6119
     19  H    Isotropic =    23.9076   Anisotropy =     9.8174
   XX=    27.4184   YX=    -4.2764   ZX=    -0.1172
   XY=    -4.0139   YY=    24.7582   ZY=     0.5002
   XZ=    -0.1193   YZ=     0.3469   ZZ=    19.5463
   Eigenvalues:    19.5022    21.7682    30.4525
 End of Minotr F.D. properties file   721 does not exist.
 End of Minotr F.D. properties file   722 does not exist.
 End of Minotr F.D. properties file   788 does not exist.
 Leave Link 1002 at Tue Sep 17 10:48:59 2024, MaxMem=  1342177280 cpu:             763.0 elap:             765.6
 (Enter /groups/ReismanLab/Software/Gaussian16_RevC/Linux_Binary_AVX2-enabled-CPU/g16/l601.exe)
 Copying SCF densities to generalized density rwf, IOpCl= 0 IROHF=0.

 **********************************************************************

            Population analysis using the SCF Density.

 **********************************************************************

 Orbital symmetries:
       Occupied  (A) (A) (A) (A) (A) (A) (A) (A) (A) (A) (A) (A)
                 (A) (A) (A) (A) (A) (A) (A) (A) (A) (A) (A) (A)
                 (A) (A) (A) (A) (A) (A) (A) (A) (A) (A) (A) (A)
                 (A) (A) (A) (A) (A) (A) (A) (A) (A) (A) (A) (A)
                 (A) (A) (A) (A) (A) (A) (A) (A) (A)
       Virtual   (A) (A) (A) (A) (A) (A) (A) (A) (A) (A) (A) (A)
                 (A) (A) (A) (A) (A) (A) (A) (A) (A) (A) (A) (A)
                 (A) (A) (A) (A) (A) (A) (A) (A) (A) (A) (A) (A)
                 (A) (A) (A) (A) (A) (A) (A) (A) (A) (A) (A) (A)
                 (A) (A) (A) (A) (A) (A) (A) (A) (A) (A) (A) (A)
                 (A) (A) (A) (A) (A) (A) (A) (A) (A) (A) (A) (A)
                 (A) (A) (A) (A) (A) (A) (A) (A) (A) (A) (A) (A)
                 (A) (A) (A) (A) (A) (A) (A) (A) (A) (A) (A) (A)
                 (A) (A) (A) (A) (A) (A) (A) (A) (A) (A) (A) (A)
                 (A) (A) (A) (A) (A) (A) (A) (A) (A) (A) (A) (A)
                 (A) (A) (A) (A) (A) (A) (A) (A) (A) (A) (A) (A)
                 (A) (A) (A) (A) (A) (A) (A) (A) (A) (A) (A) (A)
                 (A) (A) (A) (A) (A) (A) (A) (A) (A) (A) (A) (A)
                 (A) (A) (A) (A) (A) (A) (A) (A) (A) (A) (A) (A)
                 (A) (A) (A) (A) (A) (A) (A) (A) (A) (A) (A) (A)
                 (A) (A) (A) (A) (A) (A) (A) (A) (A) (A) (A) (A)
                 (A) (A) (A) (A) (A) (A) (A) (A) (A) (A) (A) (A)
                 (A) (A) (A) (A) (A) (A) (A) (A) (A) (A) (A) (A)
                 (A) (A) (A) (A) (A) (A) (A) (A) (A) (A) (A) (A)
                 (A) (A) (A) (A) (A) (A) (A) (A) (A) (A) (A) (A)
                 (A) (A) (A) (A) (A) (A) (A) (A) (A) (A) (A) (A)
                 (A) (A) (A) (A) (A) (A) (A) (A) (A) (A) (A) (A)
                 (A) (A) (A) (A) (A) (A) (A) (A) (A) (A) (A) (A)
                 (A) (A) (A) (A) (A) (A) (A) (A) (A) (A) (A) (A)
                 (A) (A) (A) (A) (A) (A) (A) (A) (A) (A) (A) (A)
                 (A) (A) (A) (A) (A) (A) (A) (A) (A) (A) (A) (A)
                 (A) (A) (A) (A) (A) (A) (A) (A) (A) (A) (A) (A)
                 (A) (A) (A) (A) (A) (A) (A) (A) (A) (A) (A) (A)
                 (A) (A) (A) (A) (A) (A) (A) (A) (A) (A) (A) (A)
                 (A) (A) (A) (A) (A) (A) (A) (A) (A) (A) (A) (A)
                 (A) (A) (A) (A) (A) (A) (A) (A) (A) (A) (A) (A)
                 (A) (A)
 The electronic state is 1-A.
 Alpha  occ. eigenvalues -- -485.38383 -63.36858 -57.18806 -57.18565 -57.18560
 Alpha  occ. eigenvalues --  -25.27837 -19.60599 -14.79346 -10.66208 -10.64934
 Alpha  occ. eigenvalues --  -10.61613 -10.61569 -10.57278 -10.57077 -10.56821
 Alpha  occ. eigenvalues --  -10.54623  -9.03503  -6.85922  -6.85027  -6.85009
 Alpha  occ. eigenvalues --   -2.89298  -2.88974  -2.88952  -2.88118  -2.88118
 Alpha  occ. eigenvalues --   -1.39178  -1.17442  -1.06266  -0.98953  -0.90742
 Alpha  occ. eigenvalues --   -0.87413  -0.84894  -0.82752  -0.73946  -0.72369
 Alpha  occ. eigenvalues --   -0.67000  -0.64856  -0.61886  -0.59462  -0.58978
 Alpha  occ. eigenvalues --   -0.55881  -0.54283  -0.53616  -0.52709  -0.51079
 Alpha  occ. eigenvalues --   -0.49199  -0.47898  -0.47095  -0.45791  -0.44680
 Alpha  occ. eigenvalues --   -0.43008  -0.40785  -0.36035  -0.35743  -0.34786
 Alpha  occ. eigenvalues --   -0.33009  -0.28455
 Alpha virt. eigenvalues --   -0.00833   0.00324   0.02648   0.05585   0.06998
 Alpha virt. eigenvalues --    0.08876   0.10504   0.11688   0.12212   0.13925
 Alpha virt. eigenvalues --    0.14789   0.15198   0.16115   0.17024   0.17911
 Alpha virt. eigenvalues --    0.20054   0.20406   0.21408   0.22536   0.23083
 Alpha virt. eigenvalues --    0.23780   0.24149   0.24284   0.25993   0.26222
 Alpha virt. eigenvalues --    0.26797   0.27702   0.29324   0.29810   0.30471
 Alpha virt. eigenvalues --    0.31026   0.31910   0.33050   0.33237   0.34809
 Alpha virt. eigenvalues --    0.35574   0.36759   0.37395   0.38024   0.39274
 Alpha virt. eigenvalues --    0.40560   0.41074   0.41383   0.42258   0.43210
 Alpha virt. eigenvalues --    0.43397   0.44148   0.44582   0.45934   0.46407
 Alpha virt. eigenvalues --    0.47499   0.48196   0.49799   0.50328   0.51302
 Alpha virt. eigenvalues --    0.51581   0.53355   0.53728   0.54258   0.55672
 Alpha virt. eigenvalues --    0.56074   0.57416   0.59405   0.60239   0.61428
 Alpha virt. eigenvalues --    0.63095   0.65006   0.65416   0.66898   0.67619
 Alpha virt. eigenvalues --    0.68585   0.69637   0.69944   0.72013   0.73281
 Alpha virt. eigenvalues --    0.73652   0.74194   0.75105   0.76206   0.79374
 Alpha virt. eigenvalues --    0.80595   0.81799   0.84284   0.85611   0.86340
 Alpha virt. eigenvalues --    0.88720   0.89190   0.89334   0.90698   0.92068
 Alpha virt. eigenvalues --    0.93842   0.95139   0.97762   0.98370   0.99406
 Alpha virt. eigenvalues --    1.01487   1.03504   1.04005   1.05238   1.07222
 Alpha virt. eigenvalues --    1.08512   1.09251   1.12129   1.12559   1.13555
 Alpha virt. eigenvalues --    1.15645   1.16630   1.19473   1.22160   1.22624
 Alpha virt. eigenvalues --    1.23805   1.25169   1.26276   1.27730   1.29753
 Alpha virt. eigenvalues --    1.30296   1.34386   1.35158   1.38557   1.39967
 Alpha virt. eigenvalues --    1.40618   1.42043   1.43532   1.43998   1.46149
 Alpha virt. eigenvalues --    1.46750   1.49378   1.49975   1.51677   1.52331
 Alpha virt. eigenvalues --    1.52845   1.53661   1.54843   1.56179   1.56627
 Alpha virt. eigenvalues --    1.57172   1.58293   1.59368   1.61406   1.62124
 Alpha virt. eigenvalues --    1.63598   1.64417   1.64922   1.65578   1.66539
 Alpha virt. eigenvalues --    1.67236   1.67764   1.68951   1.72140   1.72268
 Alpha virt. eigenvalues --    1.73962   1.75455   1.76734   1.77326   1.79118
 Alpha virt. eigenvalues --    1.81700   1.82913   1.83685   1.86197   1.86464
 Alpha virt. eigenvalues --    1.87935   1.90049   1.91334   1.93552   1.94764
 Alpha virt. eigenvalues --    1.96446   1.99334   2.00070   2.02610   2.03304
 Alpha virt. eigenvalues --    2.05521   2.06412   2.10666   2.12730   2.15701
 Alpha virt. eigenvalues --    2.16688   2.17585   2.19252   2.20118   2.21627
 Alpha virt. eigenvalues --    2.22194   2.25437   2.26109   2.29652   2.31273
 Alpha virt. eigenvalues --    2.33484   2.34972   2.36873   2.39175   2.41429
 Alpha virt. eigenvalues --    2.43093   2.45715   2.46282   2.50088   2.50973
 Alpha virt. eigenvalues --    2.51662   2.54426   2.56445   2.57330   2.58221
 Alpha virt. eigenvalues --    2.59757   2.60632   2.61689   2.65126   2.67228
 Alpha virt. eigenvalues --    2.68715   2.69610   2.70809   2.72067   2.73189
 Alpha virt. eigenvalues --    2.74302   2.76821   2.78968   2.79927   2.81074
 Alpha virt. eigenvalues --    2.81860   2.82631   2.84886   2.85963   2.86685
 Alpha virt. eigenvalues --    2.89080   2.90391   2.92174   2.93540   2.93875
 Alpha virt. eigenvalues --    2.96056   2.97921   3.00547   3.01096   3.03386
 Alpha virt. eigenvalues --    3.04286   3.05508   3.06787   3.07574   3.08719
 Alpha virt. eigenvalues --    3.10189   3.11781   3.13794   3.13869   3.15541
 Alpha virt. eigenvalues --    3.17093   3.17861   3.18426   3.19536   3.21393
 Alpha virt. eigenvalues --    3.22474   3.23467   3.25167   3.26157   3.27298
 Alpha virt. eigenvalues --    3.28406   3.30392   3.32370   3.33114   3.35454
 Alpha virt. eigenvalues --    3.36289   3.36787   3.37839   3.39406   3.40519
 Alpha virt. eigenvalues --    3.41938   3.44582   3.45249   3.46959   3.47999
 Alpha virt. eigenvalues --    3.49660   3.51137   3.53267   3.54570   3.56060
 Alpha virt. eigenvalues --    3.59857   3.61489   3.65701   3.69152   3.71384
 Alpha virt. eigenvalues --    3.72446   3.75076   3.76801   3.78279   3.82415
 Alpha virt. eigenvalues --    3.83986   3.89156   3.89824   3.92741   3.95804
 Alpha virt. eigenvalues --    3.97800   3.99487   4.00478   4.02528   4.04944
 Alpha virt. eigenvalues --    4.06281   4.07352   4.08910   4.12383   4.13551
 Alpha virt. eigenvalues --    4.14582   4.16699   4.17244   4.18024   4.19505
 Alpha virt. eigenvalues --    4.21986   4.24066   4.26812   4.30061   4.33320
 Alpha virt. eigenvalues --    4.36956   4.39124   4.40058   4.44714   4.46599
 Alpha virt. eigenvalues --    4.49887   4.52881   4.54247   4.59739   4.61690
 Alpha virt. eigenvalues --    4.67232   4.69983   4.72525   4.73902   4.77931
 Alpha virt. eigenvalues --    4.82567   4.84380   4.89575   4.99179   5.02991
 Alpha virt. eigenvalues --    5.07005   5.12744   5.14453   5.16442   5.20289
 Alpha virt. eigenvalues --    5.21636   5.24393   5.31626   5.36364   5.39210
 Alpha virt. eigenvalues --    5.49248   5.55829   5.64085   5.66191   5.73675
 Alpha virt. eigenvalues --    5.84714   5.98321   6.10683   6.32099   6.39909
 Alpha virt. eigenvalues --    6.51867   6.65691   6.81090   6.89404   6.91098
 Alpha virt. eigenvalues --    6.99286   7.01906   7.05859   7.08337   7.22451
 Alpha virt. eigenvalues --    7.38696   7.54847   7.85536   8.34827   8.52230
 Alpha virt. eigenvalues --    8.73803   8.95496   8.99989  22.19503  22.47234
 Alpha virt. eigenvalues --   22.72876  22.78657  22.90067  22.93071  23.34546
 Alpha virt. eigenvalues --   23.38337  32.78004  44.00539  57.51261
          Condensed to atoms (all electrons):
               1          2          3          4          5          6
     1  C    5.330692   0.263322  -0.096000  -0.130310   0.014978  -0.003064
     2  C    0.263322   4.511893   0.685115   0.343582  -0.044007  -0.013959
     3  O   -0.096000   0.685115   7.898219  -0.129802   0.001700  -0.000218
     4  N   -0.130310   0.343582  -0.129802   6.702049   0.253760  -0.018055
     5  C    0.014978  -0.044007   0.001700   0.253760   5.224211   0.260247
     6  C   -0.003064  -0.013959  -0.000218  -0.018055   0.260247   5.281177
     7  C   -0.004345   0.003076  -0.000077   0.010052   0.012352   0.299591
     8  C    0.000700  -0.000546   0.000017  -0.001764  -0.121650   0.076988
     9  Br  -0.000001  -0.000001   0.000000  -0.000023  -0.006387   0.025914
    10  C   -0.000764   0.000749  -0.000086   0.012927   0.058892  -0.157598
    11  C    0.003059   0.001995  -0.000310  -0.071982   0.335361   0.109125
    12  F   -0.000171   0.001024  -0.000007   0.002190  -0.076849   0.012008
    13  H    0.389108  -0.026662   0.006910   0.006693  -0.000859   0.002409
    14  H    0.378227  -0.020248   0.001687   0.006099  -0.010732  -0.000131
    15  H    0.392164  -0.038779   0.004011   0.004782   0.008971  -0.013072
    16  H    0.012755  -0.022494   0.012782   0.361442  -0.047866   0.004979
    17  H   -0.004126  -0.001404  -0.000075   0.004884  -0.030316   0.390342
    18  H    0.000056  -0.000012  -0.000000  -0.000094   0.007445  -0.031942
    19  H   -0.000006  -0.000004  -0.000001  -0.000017   0.019602  -0.007398
               7          8          9         10         11         12
     1  C   -0.004345   0.000700  -0.000001  -0.000764   0.003059  -0.000171
     2  C    0.003076  -0.000546  -0.000001   0.000749   0.001995   0.001024
     3  O   -0.000077   0.000017   0.000000  -0.000086  -0.000310  -0.000007
     4  N    0.010052  -0.001764  -0.000023   0.012927  -0.071982   0.002190
     5  C    0.012352  -0.121650  -0.006387   0.058892   0.335361  -0.076849
     6  C    0.299591   0.076988   0.025914  -0.157598   0.109125   0.012008
     7  C    5.252466   0.346947  -0.103465   0.066369  -0.146115  -0.002058
     8  C    0.346947   5.049626   0.367188   0.254046   0.081238   0.010288
     9  Br  -0.103465   0.367188  34.904959  -0.096394   0.022574  -0.000164
    10  C    0.066369   0.254046  -0.096394   5.351783   0.336800  -0.050474
    11  C   -0.146115   0.081238   0.022574   0.336800   4.879366   0.254642
    12  F   -0.002058   0.010288  -0.000164  -0.050474   0.254642   9.051365
    13  H    0.000074  -0.000001  -0.000000  -0.000006  -0.000106   0.000000
    14  H    0.002733  -0.000153   0.000000   0.000155  -0.000768  -0.000001
    15  H   -0.004048   0.000199   0.000001   0.000052   0.000993   0.000030
    16  H   -0.000813   0.000444   0.000001  -0.001672  -0.009268   0.008975
    17  H    0.004342  -0.002106  -0.000241   0.003061  -0.005961  -0.000008
    18  H    0.415714  -0.045162  -0.006765   0.011201  -0.002211   0.000007
    19  H    0.016308  -0.055821  -0.008212   0.427868  -0.049814   0.001097
              13         14         15         16         17         18
     1  C    0.389108   0.378227   0.392164   0.012755  -0.004126   0.000056
     2  C   -0.026662  -0.020248  -0.038779  -0.022494  -0.001404  -0.000012
     3  O    0.006910   0.001687   0.004011   0.012782  -0.000075  -0.000000
     4  N    0.006693   0.006099   0.004782   0.361442   0.004884  -0.000094
     5  C   -0.000859  -0.010732   0.008971  -0.047866  -0.030316   0.007445
     6  C    0.002409  -0.000131  -0.013072   0.004979   0.390342  -0.031942
     7  C    0.000074   0.002733  -0.004048  -0.000813   0.004342   0.415714
     8  C   -0.000001  -0.000153   0.000199   0.000444  -0.002106  -0.045162
     9  Br  -0.000000   0.000000   0.000001   0.000001  -0.000241  -0.006765
    10  C   -0.000006   0.000155   0.000052  -0.001672   0.003061   0.011201
    11  C   -0.000106  -0.000768   0.000993  -0.009268  -0.005961  -0.002211
    12  F    0.000000  -0.000001   0.000030   0.008975  -0.000008   0.000007
    13  H    0.467838  -0.011103  -0.012022  -0.000372   0.000811  -0.000000
    14  H   -0.011103   0.496434  -0.025010  -0.000489   0.000175   0.000017
    15  H   -0.012022  -0.025010   0.492754  -0.000985  -0.004425   0.000008
    16  H   -0.000372  -0.000489  -0.000985   0.416077  -0.000405  -0.000001
    17  H    0.000811   0.000175  -0.004425  -0.000405   0.446030  -0.001677
    18  H   -0.000000   0.000017   0.000008  -0.000001  -0.001677   0.467900
    19  H    0.000000   0.000000   0.000003  -0.000077   0.000040   0.000079
              19
     1  C   -0.000006
     2  C   -0.000004
     3  O   -0.000001
     4  N   -0.000017
     5  C    0.019602
     6  C   -0.007398
     7  C    0.016308
     8  C   -0.055821
     9  Br  -0.008212
    10  C    0.427868
    11  C   -0.049814
    12  F    0.001097
    13  H    0.000000
    14  H    0.000000
    15  H    0.000003
    16  H   -0.000077
    17  H    0.000040
    18  H    0.000079
    19  H    0.463230
 Mulliken charges:
               1
     1  C   -0.546272
     2  C    0.357361
     3  O   -0.383866
     4  N   -0.356413
     5  C    0.141145
     6  C   -0.217342
     7  C   -0.169102
     8  C    0.039523
     9  Br  -0.098984
    10  C   -0.216908
    11  C    0.261382
    12  F   -0.211894
    13  H    0.177286
    14  H    0.183106
    15  H    0.194375
    16  H    0.266986
    17  H    0.201058
    18  H    0.185439
    19  H    0.193120
 Sum of Mulliken charges =  -0.00000
 Mulliken charges with hydrogens summed into heavy atoms:
               1
     1  C    0.008495
     2  C    0.357361
     3  O   -0.383866
     4  N   -0.089427
     5  C    0.141145
     6  C   -0.016284
     7  C    0.016337
     8  C    0.039523
     9  Br  -0.098984
    10  C   -0.023788
    11  C    0.261382
    12  F   -0.211894
 Electronic spatial extent (au):  <R**2>=           3948.1171
 Charge=             -0.0000 electrons
 Dipole moment (field-independent basis, Debye):
    X=              2.0420    Y=             -2.1734    Z=              0.0500  Tot=              2.9826
 Quadrupole moment (field-independent basis, Debye-Ang):
   XX=           -107.3825   YY=            -74.8776   ZZ=            -82.7700
   XY=              7.6576   XZ=             -1.1708   YZ=              0.0189
 Traceless Quadrupole moment (field-independent basis, Debye-Ang):
   XX=            -19.0391   YY=             13.4658   ZZ=              5.5734
   XY=              7.6576   XZ=             -1.1708   YZ=              0.0189
 Octapole moment (field-independent basis, Debye-Ang**2):
  XXX=            230.0321  YYY=             -4.0170  ZZZ=              5.5346  XYY=             17.7580
  XXY=            -18.8313  XXZ=             10.9958  XZZ=             21.1396  YZZ=              2.9636
  YYZ=             -2.7391  XYZ=              5.4327
 Hexadecapole moment (field-independent basis, Debye-Ang**3):
 XXXX=          -4533.6137 YYYY=           -654.1827 ZZZZ=           -135.6778 XXXY=             51.3734
 XXXZ=            -35.3398 YYYX=            -19.1622 YYYZ=              8.1097 ZZZX=              4.9168
 ZZZY=             -0.3138 XXYY=           -663.1792 XXZZ=           -628.9824 YYZZ=           -131.1389
 XXYZ=            -13.7158 YYXZ=              7.6841 ZZXY=            -11.3135
 N-N= 9.128872898367D+02 E-N=-9.237986916770D+03  KE= 3.107092414514D+03
 Calculating spin-rotation constants.
 Leave Link  601 at Tue Sep 17 10:49:03 2024, MaxMem=  1342177280 cpu:               3.9 elap:               3.9
 (Enter /groups/ReismanLab/Software/Gaussian16_RevC/Linux_Binary_AVX2-enabled-CPU/g16/l9999.exe)
 Unable to Open any file for archive entry.
 1\1\GINC-HPC-52-30\SP\RM062X\def2TZVP\C8H7Br1F1N1O1\MANTIND\17-Sep-202
 4\0\\#p M062X/def2tzvp geom=check guess=read scf(xqc,tight) integral(g
 rid=ultrafine) scrf(SMD, solvent=1,4-Dioxane) nmr=giao\\spe\\0,1\C,0,3
 .727297521,1.7202841504,0.7022989997\C,0,3.9481931285,0.439792908,-0.0
 740544103\O,0,5.0637149089,0.0141966613,-0.3251954337\N,0,2.8411062807
 ,-0.2798190569,-0.5053350079\C,0,1.4683546506,-0.0859475995,-0.3127802
 268\C,0,0.8208449937,1.1554558115,-0.2791689998\C,0,-0.5583698118,1.24
 23519908,-0.0920401837\C,0,-1.3136128409,0.0804705244,0.0311696349\Br,
 0,-3.1996758508,0.1974385037,0.2761491988\C,0,-0.7106452722,-1.1748714
 291,-0.0337694077\C,0,0.661039175,-1.2286996279,-0.2005969339\F,0,1.26
 99726952,-2.4339032935,-0.2733268491\H,0,4.6479278469,1.9304868607,1.2
 459303095\H,0,3.538500346,2.5540455668,0.0181999897\H,0,2.8871818323,1
 .6515718096,1.3970344276\H,0,3.1058304574,-1.1864973486,-0.8707750432\
 H,0,1.390511289,2.063881313,-0.4189917007\H,0,-1.0421046503,2.21082874
 63,-0.0618032376\H,0,-1.2803087561,-2.0913646882,0.0507194895\\Version
 =ES64L-G16RevC.02\State=1-A\HF=-3113.0986189\RMSD=3.241e-09\Dipole=-0.
 8116438,0.8249612,0.1941032\Quadrupole=-14.1587161,10.0721218,4.086594
 3,5.042543,2.6092299,0.7143659\PG=C01 [X(C8H7Br1F1N1O1)]\\@
 The archive entry for this job was punched.


 Some scientists claim that hydrogen, because it is so
 plentiful, is the basic building block of the universe. 
 I dispute that. I say that stupidity is far more
 abundant than hydrogen, and THAT is the basic building 
 block of the universe.
                   --Frank Zappa
 Job cpu time:       0 days  0 hours 14 minutes  2.5 seconds.
 Elapsed time:       0 days  0 hours 14 minutes  6.3 seconds.
 File lengths (MBytes):  RWF=    280 Int=      0 D2E=      0 Chk=     32 Scr=     16
 Normal termination of Gaussian 16 at Tue Sep 17 10:49:03 2024.
