 Entering Gaussian System, Link 0=g16
 Input=smiles_00017_conf_3.gjf
 Output=smiles_00017_conf_3.log
 Initial command:
 /groups/ReismanLab/Software/Gaussian16_RevC/Linux_Binary_AVX2-enabled-CPU/g16/l1.exe "/central/groups/ReismanLab/DM/dft_final/smiles_00017/Gau-986807.inp" -scrdir="/central/groups/ReismanLab/DM/dft_final/smiles_00017/"
 Entering Link 1 = /groups/ReismanLab/Software/Gaussian16_RevC/Linux_Binary_AVX2-enabled-CPU/g16/l1.exe PID=    986811.
  
 Copyright (c) 1988-2021, Gaussian, Inc.  All Rights Reserved.
  
 This is part of the Gaussian(R) 16 program.  It is based on
 the Gaussian(R) 09 system (copyright 2009, Gaussian, Inc.),
 the Gaussian(R) 03 system (copyright 2003, Gaussian, Inc.),
 the Gaussian(R) 98 system (copyright 1998, Gaussian, Inc.),
 the Gaussian(R) 94 system (copyright 1995, Gaussian, Inc.),
 the Gaussian 92(TM) system (copyright 1992, Gaussian, Inc.),
 the Gaussian 90(TM) system (copyright 1990, Gaussian, Inc.),
 the Gaussian 88(TM) system (copyright 1988, Gaussian, Inc.),
 the Gaussian 86(TM) system (copyright 1986, Carnegie Mellon
 University), and the Gaussian 82(TM) system (copyright 1983,
 Carnegie Mellon University). Gaussian is a federally registered
 trademark of Gaussian, Inc.
  
 This software contains proprietary and confidential information,
 including trade secrets, belonging to Gaussian, Inc.
  
 This software is provided under written license and may be
 used, copied, transmitted, or stored only in accord with that
 written license.
  
 The following legend is applicable only to US Government
 contracts under FAR:
  
                    RESTRICTED RIGHTS LEGEND
  
 Use, reproduction and disclosure by the US Government is
 subject to restrictions as set forth in subparagraphs (a)
 and (c) of the Commercial Computer Software - Restricted
 Rights clause in FAR 52.227-19.
  
 Gaussian, Inc.
 340 Quinnipiac St., Bldg. 40, Wallingford CT 06492
  
  
 ---------------------------------------------------------------
 Warning -- This program may not be used in any manner that
 competes with the business of Gaussian, Inc. or will provide
 assistance to any competitor of Gaussian, Inc.  The licensee
 of this program is prohibited from giving any competitor of
 Gaussian, Inc. access to this program.  By using this program,
 the user acknowledges that Gaussian, Inc. is engaged in the
 business of creating and licensing software in the field of
 computational chemistry and represents and warrants to the
 licensee that it is not a competitor of Gaussian, Inc. and that
 it will not use this program in any manner prohibited above.
 ---------------------------------------------------------------
  

 Cite this work as:
 Gaussian 16, Revision C.02,
 M. J. Frisch, G. W. Trucks, H. B. Schlegel, G. E. Scuseria, 
 M. A. Robb, J. R. Cheeseman, G. Scalmani, V. Barone, 
 G. A. Petersson, H. Nakatsuji, X. Li, M. Caricato, A. V. Marenich, 
 J. Bloino, B. G. Janesko, R. Gomperts, B. Mennucci, H. P. Hratchian, 
 J. V. Ortiz, A. F. Izmaylov, J. L. Sonnenberg, D. Williams-Young, 
 F. Ding, F. Lipparini, F. Egidi, J. Goings, B. Peng, A. Petrone, 
 T. Henderson, D. Ranasinghe, V. G. Zakrzewski, J. Gao, N. Rega, 
 G. Zheng, W. Liang, M. Hada, M. Ehara, K. Toyota, R. Fukuda, 
 J. Hasegawa, M. Ishida, T. Nakajima, Y. Honda, O. Kitao, H. Nakai, 
 T. Vreven, K. Throssell, J. A. Montgomery, Jr., J. E. Peralta, 
 F. Ogliaro, M. J. Bearpark, J. J. Heyd, E. N. Brothers, K. N. Kudin, 
 V. N. Staroverov, T. A. Keith, R. Kobayashi, J. Normand, 
 K. Raghavachari, A. P. Rendell, J. C. Burant, S. S. Iyengar, 
 J. Tomasi, M. Cossi, J. M. Millam, M. Klene, C. Adamo, R. Cammi, 
 J. W. Ochterski, R. L. Martin, K. Morokuma, O. Farkas, 
 J. B. Foresman, and D. J. Fox, Gaussian, Inc., Wallingford CT, 2019.
 
 ******************************************
 Gaussian 16:  ES64L-G16RevC.02  7-Dec-2021
                17-Sep-2024 
 ******************************************
 %nprocshared=8
 Will use up to    8 processors via shared memory.
 %Mem=10GB
 %Chk=smiles_00017_conf_3.chk
 ----------------------------------------------------------------------
 #p B3LYP/6-31G(d,p) EmpiricalDispersion=GD3BJ opt freq scf(xqc,tight) 
 integral(grid=ultrafine)
 ----------------------------------------------------------------------
 1/18=20,19=15,26=4,38=1/1,3;
 2/9=110,12=2,17=6,18=5,40=1/2;
 3/5=1,6=6,7=101,11=2,25=1,30=1,71=1,74=-5,75=-5,124=41/1,2,3;
 4//1;
 5/5=2,8=3,13=1,32=2,38=5/2,8;
 6/7=2,8=2,9=2,10=2,28=1/1;
 7//1,2,3,16;
 1/18=20,19=15,26=4/3(2);
 2/9=110/2;
 99//99;
 2/9=110/2;
 3/5=1,6=6,7=101,11=2,25=1,30=1,71=1,74=-5,75=-5,124=41/1,2,3;
 4/5=5,16=3,69=1/1;
 5/5=2,8=3,13=1,32=2,38=5/2,8;
 7//1,2,3,16;
 1/18=20,19=15,26=4/3(-5);
 2/9=110/2;
 6/7=2,8=2,9=2,10=2,19=2,28=1/1;
 99/9=1/99;
 Leave Link    1 at Tue Sep 17 09:52:45 2024, MaxMem=  1342177280 cpu:               0.1 elap:               0.6
 (Enter /groups/ReismanLab/Software/Gaussian16_RevC/Linux_Binary_AVX2-enabled-CPU/g16/l101.exe)
 ----------------------------------
 opt-freq conformers_unique/conf_ad
 ----------------------------------
 Symbolic Z-matrix:
 Charge =  0 Multiplicity = 1
 C                     3.18866   0.34546  -1.42982 
 C                     2.61255   0.73438  -0.06817 
 C                     3.33235   0.06285   1.10144 
 O                     1.19818   0.6023   -0.00202 
 C                     0.51962  -0.56169  -0.09456 
 C                     1.02151  -1.84692  -0.26974 
 C                     0.16589  -2.93464  -0.34383 
 C                    -1.20288  -2.77428  -0.24618 
 C                    -1.72726  -1.50376  -0.07127 
 C                    -0.8724   -0.42583   0.0017 
 Br                   -1.56639   1.32615   0.24171 
 H                     3.21361  -0.73031  -1.57667 
 H                     4.20345   0.72623  -1.50853 
 H                     2.58865   0.78855  -2.22151 
 H                     2.72624   1.82092   0.04661 
 H                     4.35741   0.42145   1.14145 
 H                     3.35035  -1.01915   1.00938 
 H                     2.83641   0.32199   2.03419 
 H                     2.08122  -2.01823  -0.3507 
 H                     0.58582  -3.91991  -0.48034 
 H                    -1.86217  -3.62573  -0.30488 
 H                    -2.79203  -1.34836   0.00831 
 
 ITRead=  0  0  0  0  0  0  0  0  0  0  0  0  0  0  0  0  0  0  0  0
 ITRead=  0  0
 MicOpt= -1 -1 -1 -1 -1 -1 -1 -1 -1 -1 -1 -1 -1 -1 -1 -1 -1 -1 -1 -1
 MicOpt= -1 -1
 NAtoms=     22 NQM=       22 NQMF=       0 NMMI=      0 NMMIF=      0
                NMic=       0 NMicF=      0.
                    Isotopes and Nuclear Properties:
 (Nuclear quadrupole moments (NQMom) in fm**2, nuclear magnetic moments (NMagM)
  in nuclear magnetons)

  Atom         1           2           3           4           5           6           7           8           9          10
 IAtWgt=          12          12          12          16          12          12          12          12          12          12
 AtmWgt=  12.0000000  12.0000000  12.0000000  15.9949146  12.0000000  12.0000000  12.0000000  12.0000000  12.0000000  12.0000000
 NucSpn=           0           0           0           0           0           0           0           0           0           0
 AtZEff=  -0.0000000  -0.0000000  -0.0000000  -0.0000000  -0.0000000  -0.0000000  -0.0000000  -0.0000000  -0.0000000  -0.0000000
 NQMom=    0.0000000   0.0000000   0.0000000   0.0000000   0.0000000   0.0000000   0.0000000   0.0000000   0.0000000   0.0000000
 NMagM=    0.0000000   0.0000000   0.0000000   0.0000000   0.0000000   0.0000000   0.0000000   0.0000000   0.0000000   0.0000000
 AtZNuc=   6.0000000   6.0000000   6.0000000   8.0000000   6.0000000   6.0000000   6.0000000   6.0000000   6.0000000   6.0000000

  Atom        11          12          13          14          15          16          17          18          19          20
 IAtWgt=          79           1           1           1           1           1           1           1           1           1
 AtmWgt=  78.9183361   1.0078250   1.0078250   1.0078250   1.0078250   1.0078250   1.0078250   1.0078250   1.0078250   1.0078250
 NucSpn=           3           1           1           1           1           1           1           1           1           1
 AtZEff=  -0.0000000  -0.0000000  -0.0000000  -0.0000000  -0.0000000  -0.0000000  -0.0000000  -0.0000000  -0.0000000  -0.0000000
 NQMom=   31.3000000   0.0000000   0.0000000   0.0000000   0.0000000   0.0000000   0.0000000   0.0000000   0.0000000   0.0000000
 NMagM=    2.1063990   2.7928460   2.7928460   2.7928460   2.7928460   2.7928460   2.7928460   2.7928460   2.7928460   2.7928460
 AtZNuc=  35.0000000   1.0000000   1.0000000   1.0000000   1.0000000   1.0000000   1.0000000   1.0000000   1.0000000   1.0000000

  Atom        21          22
 IAtWgt=           1           1
 AtmWgt=   1.0078250   1.0078250
 NucSpn=           1           1
 AtZEff=  -0.0000000  -0.0000000
 NQMom=    0.0000000   0.0000000
 NMagM=    2.7928460   2.7928460
 AtZNuc=   1.0000000   1.0000000
 Leave Link  101 at Tue Sep 17 09:52:46 2024, MaxMem=  1342177280 cpu:               0.2 elap:               0.2
 (Enter /groups/ReismanLab/Software/Gaussian16_RevC/Linux_Binary_AVX2-enabled-CPU/g16/l103.exe)

 GradGradGradGradGradGradGradGradGradGradGradGradGradGradGradGradGradGrad
 Berny optimization.
 Initialization pass.
                           ----------------------------
                           !    Initial Parameters    !
                           ! (Angstroms and Degrees)  !
 --------------------------                            --------------------------
 ! Name  Definition              Value          Derivative Info.                !
 --------------------------------------------------------------------------------
 ! R1    R(1,2)                  1.5288         estimate D2E/DX2                !
 ! R2    R(1,12)                 1.086          estimate D2E/DX2                !
 ! R3    R(1,13)                 1.0867         estimate D2E/DX2                !
 ! R4    R(1,14)                 1.0877         estimate D2E/DX2                !
 ! R5    R(2,3)                  1.5287         estimate D2E/DX2                !
 ! R6    R(2,4)                  1.4221         estimate D2E/DX2                !
 ! R7    R(2,15)                 1.0985         estimate D2E/DX2                !
 ! R8    R(3,16)                 1.0867         estimate D2E/DX2                !
 ! R9    R(3,17)                 1.0861         estimate D2E/DX2                !
 ! R10   R(3,18)                 1.0877         estimate D2E/DX2                !
 ! R11   R(4,5)                  1.3505         estimate D2E/DX2                !
 ! R12   R(5,6)                  1.3908         estimate D2E/DX2                !
 ! R13   R(5,10)                 1.402          estimate D2E/DX2                !
 ! R14   R(6,7)                  1.3859         estimate D2E/DX2                !
 ! R15   R(6,19)                 1.0765         estimate D2E/DX2                !
 ! R16   R(7,8)                  1.3816         estimate D2E/DX2                !
 ! R17   R(7,20)                 1.0797         estimate D2E/DX2                !
 ! R18   R(8,9)                  1.3856         estimate D2E/DX2                !
 ! R19   R(8,21)                 1.0785         estimate D2E/DX2                !
 ! R20   R(9,10)                 1.3777         estimate D2E/DX2                !
 ! R21   R(9,22)                 1.079          estimate D2E/DX2                !
 ! R22   R(10,11)                1.8997         estimate D2E/DX2                !
 ! A1    A(2,1,12)             112.4004         estimate D2E/DX2                !
 ! A2    A(2,1,13)             109.1028         estimate D2E/DX2                !
 ! A3    A(2,1,14)             109.6797         estimate D2E/DX2                !
 ! A4    A(12,1,13)            108.4105         estimate D2E/DX2                !
 ! A5    A(12,1,14)            108.528          estimate D2E/DX2                !
 ! A6    A(13,1,14)            108.6429         estimate D2E/DX2                !
 ! A7    A(1,2,3)              113.0946         estimate D2E/DX2                !
 ! A8    A(1,2,4)              113.1163         estimate D2E/DX2                !
 ! A9    A(1,2,15)             107.7998         estimate D2E/DX2                !
 ! A10   A(3,2,4)              113.0732         estimate D2E/DX2                !
 ! A11   A(3,2,15)             107.8075         estimate D2E/DX2                !
 ! A12   A(4,2,15)             100.9497         estimate D2E/DX2                !
 ! A13   A(2,3,16)             109.1077         estimate D2E/DX2                !
 ! A14   A(2,3,17)             112.37           estimate D2E/DX2                !
 ! A15   A(2,3,18)             109.6789         estimate D2E/DX2                !
 ! A16   A(16,3,17)            108.4356         estimate D2E/DX2                !
 ! A17   A(16,3,18)            108.6558         estimate D2E/DX2                !
 ! A18   A(17,3,18)            108.5178         estimate D2E/DX2                !
 ! A19   A(2,4,5)              125.2108         estimate D2E/DX2                !
 ! A20   A(4,5,6)              128.5923         estimate D2E/DX2                !
 ! A21   A(4,5,10)             114.2461         estimate D2E/DX2                !
 ! A22   A(6,5,10)             117.1617         estimate D2E/DX2                !
 ! A23   A(5,6,7)              120.6109         estimate D2E/DX2                !
 ! A24   A(5,6,19)             120.781          estimate D2E/DX2                !
 ! A25   A(7,6,19)             118.6082         estimate D2E/DX2                !
 ! A26   A(6,7,8)              121.1165         estimate D2E/DX2                !
 ! A27   A(6,7,20)             118.8715         estimate D2E/DX2                !
 ! A28   A(8,7,20)             120.012          estimate D2E/DX2                !
 ! A29   A(7,8,9)              119.3598         estimate D2E/DX2                !
 ! A30   A(7,8,21)             120.6751         estimate D2E/DX2                !
 ! A31   A(9,8,21)             119.965          estimate D2E/DX2                !
 ! A32   A(8,9,10)             119.2954         estimate D2E/DX2                !
 ! A33   A(8,9,22)             120.9868         estimate D2E/DX2                !
 ! A34   A(10,9,22)            119.7178         estimate D2E/DX2                !
 ! A35   A(5,10,9)             122.4557         estimate D2E/DX2                !
 ! A36   A(5,10,11)            117.438          estimate D2E/DX2                !
 ! A37   A(9,10,11)            120.1063         estimate D2E/DX2                !
 ! D1    D(12,1,2,3)            54.6566         estimate D2E/DX2                !
 ! D2    D(12,1,2,4)           -75.5297         estimate D2E/DX2                !
 ! D3    D(12,1,2,15)          173.7403         estimate D2E/DX2                !
 ! D4    D(13,1,2,3)           -65.6254         estimate D2E/DX2                !
 ! D5    D(13,1,2,4)           164.1883         estimate D2E/DX2                !
 ! D6    D(13,1,2,15)           53.4583         estimate D2E/DX2                !
 ! D7    D(14,1,2,3)           175.4831         estimate D2E/DX2                !
 ! D8    D(14,1,2,4)            45.2968         estimate D2E/DX2                !
 ! D9    D(14,1,2,15)          -65.4332         estimate D2E/DX2                !
 ! D10   D(1,2,3,16)            65.0153         estimate D2E/DX2                !
 ! D11   D(1,2,3,17)           -55.2822         estimate D2E/DX2                !
 ! D12   D(1,2,3,18)          -176.075          estimate D2E/DX2                !
 ! D13   D(4,2,3,16)          -164.7766         estimate D2E/DX2                !
 ! D14   D(4,2,3,17)            74.9259         estimate D2E/DX2                !
 ! D15   D(4,2,3,18)           -45.867          estimate D2E/DX2                !
 ! D16   D(15,2,3,16)          -54.0639         estimate D2E/DX2                !
 ! D17   D(15,2,3,17)         -174.3614         estimate D2E/DX2                !
 ! D18   D(15,2,3,18)           64.8457         estimate D2E/DX2                !
 ! D19   D(1,2,4,5)             65.0213         estimate D2E/DX2                !
 ! D20   D(3,2,4,5)            -65.1758         estimate D2E/DX2                !
 ! D21   D(15,2,4,5)           179.9271         estimate D2E/DX2                !
 ! D22   D(2,4,5,6)             -0.0678         estimate D2E/DX2                !
 ! D23   D(2,4,5,10)           179.9495         estimate D2E/DX2                !
 ! D24   D(4,5,6,7)           -179.9737         estimate D2E/DX2                !
 ! D25   D(4,5,6,19)             0.0194         estimate D2E/DX2                !
 ! D26   D(10,5,6,7)             0.0085         estimate D2E/DX2                !
 ! D27   D(10,5,6,19)         -179.9984         estimate D2E/DX2                !
 ! D28   D(4,5,10,9)           179.979          estimate D2E/DX2                !
 ! D29   D(4,5,10,11)           -0.0367         estimate D2E/DX2                !
 ! D30   D(6,5,10,9)            -0.0057         estimate D2E/DX2                !
 ! D31   D(6,5,10,11)          179.9785         estimate D2E/DX2                !
 ! D32   D(5,6,7,8)             -0.0067         estimate D2E/DX2                !
 ! D33   D(5,6,7,20)           179.9892         estimate D2E/DX2                !
 ! D34   D(19,6,7,8)           180.0            estimate D2E/DX2                !
 ! D35   D(19,6,7,20)           -0.0041         estimate D2E/DX2                !
 ! D36   D(6,7,8,9)              0.0018         estimate D2E/DX2                !
 ! D37   D(6,7,8,21)           179.9949         estimate D2E/DX2                !
 ! D38   D(20,7,8,9)          -179.9941         estimate D2E/DX2                !
 ! D39   D(20,7,8,21)           -0.001          estimate D2E/DX2                !
 ! D40   D(7,8,9,10)             0.001          estimate D2E/DX2                !
 ! D41   D(7,8,9,22)          -179.9917         estimate D2E/DX2                !
 ! D42   D(21,8,9,10)         -179.9921         estimate D2E/DX2                !
 ! D43   D(21,8,9,22)            0.0152         estimate D2E/DX2                !
 ! D44   D(8,9,10,5)             0.001          estimate D2E/DX2                !
 ! D45   D(8,9,10,11)         -179.9828         estimate D2E/DX2                !
 ! D46   D(22,9,10,5)          179.9938         estimate D2E/DX2                !
 ! D47   D(22,9,10,11)           0.01           estimate D2E/DX2                !
 --------------------------------------------------------------------------------
 Trust Radius=3.00D-01 FncErr=1.00D-07 GrdErr=1.00D-06 EigMax=2.50D+02 EigMin=1.00D-04
 Number of steps in this run=    116 maximum allowed number of steps=    132.
 GradGradGradGradGradGradGradGradGradGradGradGradGradGradGradGradGradGrad

 Leave Link  103 at Tue Sep 17 09:52:46 2024, MaxMem=  1342177280 cpu:               0.0 elap:               0.0
 (Enter /groups/ReismanLab/Software/Gaussian16_RevC/Linux_Binary_AVX2-enabled-CPU/g16/l202.exe)
                          Input orientation:                          
 ---------------------------------------------------------------------
 Center     Atomic      Atomic             Coordinates (Angstroms)
 Number     Number       Type             X           Y           Z
 ---------------------------------------------------------------------
      1          6           0        3.188662    0.345462   -1.429825
      2          6           0        2.612552    0.734381   -0.068169
      3          6           0        3.332346    0.062846    1.101438
      4          8           0        1.198175    0.602302   -0.002020
      5          6           0        0.519624   -0.561691   -0.094557
      6          6           0        1.021515   -1.846916   -0.269735
      7          6           0        0.165886   -2.934637   -0.343833
      8          6           0       -1.202885   -2.774282   -0.246184
      9          6           0       -1.727256   -1.503757   -0.071270
     10          6           0       -0.872405   -0.425832    0.001700
     11         35           0       -1.566394    1.326153    0.241706
     12          1           0        3.213609   -0.730313   -1.576674
     13          1           0        4.203450    0.726225   -1.508531
     14          1           0        2.588650    0.788553   -2.221508
     15          1           0        2.726245    1.820922    0.046614
     16          1           0        4.357414    0.421446    1.141448
     17          1           0        3.350346   -1.019155    1.009381
     18          1           0        2.836412    0.321992    2.034190
     19          1           0        2.081218   -2.018234   -0.350701
     20          1           0        0.585819   -3.919906   -0.480344
     21          1           0       -1.862169   -3.625732   -0.304879
     22          1           0       -2.792033   -1.348357    0.008314
 ---------------------------------------------------------------------
                    Distance matrix (angstroms):
                    1          2          3          4          5
     1  C    0.000000
     2  C    1.528812   0.000000
     3  C    2.551040   1.528739   0.000000
     4  O    2.463053   1.422070   2.462380   0.000000
     5  C    3.119235   2.461878   3.119592   1.350509   0.000000
     6  C    3.293760   3.038934   3.296551   2.470131   1.390821
     7  C    4.590817   4.418581   4.593494   3.700324   2.412082
     8  C    5.515387   5.186518   5.516675   4.150425   2.808129
     9  C    5.425083   4.882950   5.424855   3.605333   2.436493
    10  C    4.374519   3.673676   4.373575   2.311790   1.401952
    11  Br   5.134814   4.231997   5.131543   2.868136   2.833461
    12  H    1.086039   2.186821   2.795619   2.883986   3.079393
    13  H    1.086724   2.146081   2.830341   3.364016   4.150737
    14  H    1.087707   2.154153   3.481624   2.625688   3.260054
    15  H    2.137915   1.098486   2.137952   1.955095   3.250530
    16  H    2.825456   2.146077   1.086719   3.364671   4.150047
    17  H    2.799651   2.186399   1.086059   2.878175   3.072610
    18  H    3.481958   2.154088   1.087720   2.628411   3.268022
    19  H    2.824536   2.817629   2.829298   2.787212   2.150744
    20  H    5.086224   5.093125   5.089967   4.588479   3.380950
    21  H    6.522789   6.252179   6.524287   5.228164   3.886582
    22  H    6.380124   5.792511   6.379219   4.441502   3.405363
                    6          7          8          9         10
     6  C    0.000000
     7  C    1.385904   0.000000
     8  C    2.410086   1.381587   0.000000
     9  C    2.777208   2.388659   1.385567   0.000000
    10  C    2.383294   2.737069   2.384509   1.377685   0.000000
    11  Br   4.126404   4.636591   4.145328   2.851705   1.899651
    12  H    2.785708   3.958227   5.045139   5.222701   4.390841
    13  H    4.275556   5.573182   6.563195   6.497061   5.419624
    14  H    3.634698   4.822613   5.565199   5.339031   4.289089
    15  H    4.056996   5.415092   6.053073   5.558871   4.242664
    16  H    4.273772   5.571199   6.561640   6.496175   5.419216
    17  H    2.782944   3.954876   5.038732   5.213893   4.381675
    18  H    3.647751   4.836563   5.577001   5.347279   4.294832
    19  H    1.076511   2.123285   3.371626   3.853211   3.373991
    20  H    2.128727   1.079692   2.136995   3.369783   3.816719
    21  H    3.388370   2.142927   1.078456   2.139054   3.363478
    22  H    3.856037   3.374845   2.150215   1.078997   2.129805
                   11         12         13         14         15
    11  Br   0.000000
    12  H    5.512167   0.000000
    13  H    6.059235   1.762366   0.000000
    14  H    4.860126   1.764466   1.766295   0.000000
    15  H    4.325460   3.062905   2.408105   2.495816   0.000000
    16  H    6.059664   3.165917   2.671888   3.817429   2.412034
    17  H    5.501283   2.605726   3.180254   3.779766   3.063079
    18  H    4.858605   3.779943   3.818778   4.288360   2.491864
    19  H    4.984069   2.108095   3.657390   3.411080   3.913188
    20  H    5.716163   4.275596   5.977538   5.404866   6.149489
    21  H    4.990731   5.980337   7.561748   6.555087   7.130436
    22  H    2.951214   6.241947   7.452616   6.204051   6.363740
                   16         17         18         19         20
    16  H    0.000000
    17  H    1.762656   0.000000
    18  H    1.766444   1.764380   0.000000
    19  H    3.655081   2.111556   3.425593   0.000000
    20  H    5.975155   4.275073   5.420494   2.422681   0.000000
    21  H    7.560074   5.974264   6.567529   4.258690   2.471836
    22  H    7.451898   6.232120   6.210768   4.932160   4.273352
                   21         22
    21  H    0.000000
    22  H    2.479753   0.000000
 Stoichiometry    C9H11BrO
 Framework group  C1[X(C9H11BrO)]
 Deg. of freedom    60
 Full point group                 C1      NOp   1
 Largest Abelian subgroup         C1      NOp   1
 Largest concise Abelian subgroup C1      NOp   1
                         Standard orientation:                         
 ---------------------------------------------------------------------
 Center     Atomic      Atomic             Coordinates (Angstroms)
 Number     Number       Type             X           Y           Z
 ---------------------------------------------------------------------
      1          6           0       -3.054962   -0.585139   -1.274496
      2          6           0       -2.354770   -1.059629   -0.000975
      3          6           0       -3.051661   -0.591275    1.276534
      4          8           0       -0.957072   -0.797480   -0.001546
      5          6           0       -0.395139    0.430569   -0.000405
      6          6           0       -1.022657    1.671780    0.000224
      7          6           0       -0.276597    2.839737    0.000855
      8          6           0        1.104546    2.804708    0.001017
      9          6           0        1.753043    1.580271    0.000501
     10          6           0        1.006788    0.422203   -0.000184
     11         35           0        1.872048   -1.268950   -0.000407
     12          1           0       -3.187634    0.492534   -1.296859
     13          1           0       -4.033871   -1.052835   -1.337477
     14          1           0       -2.472225   -0.879770   -2.144390
     15          1           0       -2.361038   -2.158094   -0.003684
     16          1           0       -4.034745   -1.050792    1.334410
     17          1           0       -3.174279    0.487357    1.308828
     18          1           0       -2.472047   -0.899192    2.143926
     19          1           0       -2.096596    1.746147    0.000120
     20          1           0       -0.792761    3.788056    0.001157
     21          1           0        1.678082    3.718011    0.001426
     22          1           0        2.830481    1.522299    0.000747
 ---------------------------------------------------------------------
 Rotational constants (GHZ):           0.9907354           0.6305846           0.4208386
 Leave Link  202 at Tue Sep 17 09:52:46 2024, MaxMem=  1342177280 cpu:               0.1 elap:               0.0
 (Enter /groups/ReismanLab/Software/Gaussian16_RevC/Linux_Binary_AVX2-enabled-CPU/g16/l301.exe)
 Standard basis: 6-31G(d,p) (6D, 7F)
 Ernie: Thresh=  0.10000D-02 Tol=  0.10000D-05 Strict=F.
 There are   235 symmetry adapted cartesian basis functions of A   symmetry.
 There are   235 symmetry adapted basis functions of A   symmetry.
   235 basis functions,   440 primitive gaussians,   235 cartesian basis functions
    54 alpha electrons       54 beta electrons
       nuclear repulsion energy       879.6224757157 Hartrees.
 IExCor=  402 DFT=T Ex+Corr=B3LYP ExCW=0 ScaHFX=  0.200000
 ScaDFX=  0.800000  0.720000  1.000000  0.810000 ScalE2=  1.000000  1.000000
 IRadAn=      5 IRanWt=     -1 IRanGd=            0 ICorTp=0 IEmpDi=141
 NAtoms=   22 NActive=   22 NUniq=   22 SFac= 1.00D+00 NAtFMM=   60 NAOKFM=F Big=F
 Integral buffers will be    131072 words long.
 Raffenetti 2 integral format.
 Two-electron integral symmetry is turned on.
 R6Disp:  Grimme-D3(BJ) Dispersion energy=       -0.0430479015 Hartrees.
 Nuclear repulsion after empirical dispersion term =      879.5794278141 Hartrees.
 Leave Link  301 at Tue Sep 17 09:52:46 2024, MaxMem=  1342177280 cpu:               0.1 elap:               0.1
 (Enter /groups/ReismanLab/Software/Gaussian16_RevC/Linux_Binary_AVX2-enabled-CPU/g16/l302.exe)
 NPDir=0 NMtPBC=     1 NCelOv=     1 NCel=       1 NClECP=     1 NCelD=      1
         NCelK=      1 NCelE2=     1 NClLst=     1 CellRange=     0.0.
 One-electron integrals computed using PRISM.
 One-electron integral symmetry used in STVInt
 NBasis=   235 RedAO= T EigKep=  4.00D-04  NBF=   235
 NBsUse=   235 1.00D-06 EigRej= -1.00D+00 NBFU=   235
 Precomputing XC quadrature grid using
 IXCGrd= 4 IRadAn=           5 IRanWt=          -1 IRanGd=           0 AccXCQ= 0.00D+00.
 Generated NRdTot=       0 NPtTot=           0 NUsed=           0 NTot=          32
 NSgBfM=   234   234   234   234   234 MxSgAt=    22 MxSgA2=    22.
 Leave Link  302 at Tue Sep 17 09:52:46 2024, MaxMem=  1342177280 cpu:               1.1 elap:               0.2
 (Enter /groups/ReismanLab/Software/Gaussian16_RevC/Linux_Binary_AVX2-enabled-CPU/g16/l303.exe)
 DipDrv:  MaxL=1.
 Leave Link  303 at Tue Sep 17 09:52:46 2024, MaxMem=  1342177280 cpu:               0.1 elap:               0.0
 (Enter /groups/ReismanLab/Software/Gaussian16_RevC/Linux_Binary_AVX2-enabled-CPU/g16/l401.exe)
 ExpMin= 1.43D-01 ExpMax= 5.74D+05 ExpMxC= 5.74D+03 IAcc=3 IRadAn=         5 AccDes= 0.00D+00
 Harris functional with IExCor=  402 and IRadAn=       5 diagonalized for initial guess.
 HarFok:  IExCor=  402 AccDes= 0.00D+00 IRadAn=         5 IDoV= 1 UseB2=F ITyADJ=14
 ICtDFT=  3500011 ScaDFX=  1.000000  1.000000  1.000000  1.000000
 FoFCou: FMM=F IPFlag=           0 FMFlag=      100000 FMFlg1=           0
         NFxFlg=           0 DoJE=T BraDBF=F KetDBF=T FulRan=T
         wScrn=  0.000000 ICntrl=       500 IOpCl=  0 I1Cent=   200000004 NGrid=           0
         NMat0=    1 NMatS0=      1 NMatT0=    0 NMatD0=    1 NMtDS0=    0 NMtDT0=    0
 Petite list used in FoFCou.
 Harris En= -2996.71726996163    
 JPrj=0 DoOrth=F DoCkMO=F.
 Leave Link  401 at Tue Sep 17 09:52:47 2024, MaxMem=  1342177280 cpu:               5.3 elap:               0.7
 (Enter /groups/ReismanLab/Software/Gaussian16_RevC/Linux_Binary_AVX2-enabled-CPU/g16/l502.exe)
 Integral symmetry usage will be decided dynamically.
 Closed shell SCF:
 Using DIIS extrapolation, IDIIS=  1040.
 NGot=  1342177280 LenX=  1342061866 LenY=  1342006200
 Requested convergence on RMS density matrix=1.00D-08 within  32 cycles.
 Requested convergence on MAX density matrix=1.00D-06.
 Requested convergence on             energy=1.00D-06.
 No special actions if energy rises.
 Fock matrices will be formed incrementally for  20 cycles.
 Integral accuracy reduced to 1.0D-05 until final iterations.

 Cycle   1  Pass 0  IDiag  1:
 FoFJK:  IHMeth= 1 ICntrl=       0 DoSepK=F KAlg= 0 I1Cent=           0 FoldK=F
 IRaf= 870000000 NMat=       1 IRICut=       1 DoRegI=T DoRafI=F ISym2E= 0 IDoP0=0 IntGTp=1.
 FoFCou: FMM=F IPFlag=           0 FMFlag=      100000 FMFlg1=           0
         NFxFlg=           0 DoJE=F BraDBF=F KetDBF=F FulRan=T
         wScrn=  0.000000 ICntrl=         0 IOpCl=  0 I1Cent=           0 NGrid=           0
         NMat0=    1 NMatS0=      1 NMatT0=    0 NMatD0=    1 NMtDS0=    0 NMtDT0=    0
 Symmetry not used in FoFCou.
 E= -2996.26708465480    
 DIIS: error= 1.64D-01 at cycle   1 NSaved=   1.
 NSaved= 1 IEnMin= 1 EnMin= -2996.26708465480     IErMin= 1 ErrMin= 1.64D-01
 ErrMax= 1.64D-01  0.00D+00 EMaxC= 1.00D-01 BMatC= 6.28D-01 BMatP= 6.28D-01
 IDIUse=3 WtCom= 0.00D+00 WtEn= 1.00D+00
 Coeff-Com:  0.100D+01
 Coeff-En:   0.100D+01
 Coeff:      0.100D+01
 Gap=     0.253 Goal=   None    Shift=    0.000
 GapD=    0.253 DampG=1.000 DampE=0.250 DampFc=0.2500 IDamp=-1.
 Damping current iteration by 2.50D-01
 RMSDP=5.05D-03 MaxDP=1.43D-01              OVMax= 1.79D-01

 Cycle   2  Pass 0  IDiag  1:
 RMSU=  1.22D-03    CP:  9.92D-01
 E= -2996.37304294194     Delta-E=       -0.105958287138 Rises=F Damp=T
 DIIS: error= 1.21D-01 at cycle   2 NSaved=   2.
 NSaved= 2 IEnMin= 2 EnMin= -2996.37304294194     IErMin= 2 ErrMin= 1.21D-01
 ErrMax= 1.21D-01  0.00D+00 EMaxC= 1.00D-01 BMatC= 2.64D-01 BMatP= 6.28D-01
 IDIUse=3 WtCom= 0.00D+00 WtEn= 1.00D+00
 Coeff-Com: -0.138D+01 0.238D+01
 Coeff-En:   0.000D+00 0.100D+01
 Coeff:      0.000D+00 0.100D+01
 Gap=     0.222 Goal=   None    Shift=    0.000
 RMSDP=2.66D-03 MaxDP=1.11D-01 DE=-1.06D-01 OVMax= 7.27D-02

 Cycle   3  Pass 0  IDiag  1:
 RMSU=  8.63D-04    CP:  9.68D-01  2.92D+00
 E= -2996.49325373238     Delta-E=       -0.120210790445 Rises=F Damp=F
 DIIS: error= 1.65D-02 at cycle   3 NSaved=   3.
 NSaved= 3 IEnMin= 3 EnMin= -2996.49325373238     IErMin= 3 ErrMin= 1.65D-02
 ErrMax= 1.65D-02  0.00D+00 EMaxC= 1.00D-01 BMatC= 6.48D-02 BMatP= 2.64D-01
 IDIUse=3 WtCom= 8.35D-01 WtEn= 1.65D-01
 EnCoef did   100 forward-backward iterations
 Coeff-Com:  0.183D+01-0.236D+01 0.153D+01
 Coeff-En:   0.131D+00 0.164D-02 0.867D+00
 Coeff:      0.155D+01-0.197D+01 0.142D+01
 Gap=     0.223 Goal=   None    Shift=    0.000
 RMSDP=1.38D-03 MaxDP=3.98D-02 DE=-1.20D-01 OVMax= 4.53D-02

 Cycle   4  Pass 0  IDiag  1:
 RMSU=  6.98D-04    CP:  9.70D-01  1.96D+00  1.22D+00
 E= -2996.55089560854     Delta-E=       -0.057641876156 Rises=F Damp=F
 DIIS: error= 5.24D-03 at cycle   4 NSaved=   4.
 NSaved= 4 IEnMin= 4 EnMin= -2996.55089560854     IErMin= 4 ErrMin= 5.24D-03
 ErrMax= 5.24D-03  0.00D+00 EMaxC= 1.00D-01 BMatC= 9.28D-03 BMatP= 6.48D-02
 IDIUse=3 WtCom= 9.48D-01 WtEn= 5.24D-02
 Coeff-Com:  0.104D+01-0.137D+01 0.879D+00 0.447D+00
 Coeff-En:   0.000D+00 0.000D+00 0.000D+00 0.100D+01
 Coeff:      0.987D+00-0.130D+01 0.833D+00 0.476D+00
 Gap=     0.213 Goal=   None    Shift=    0.000
 RMSDP=5.60D-04 MaxDP=1.87D-02 DE=-5.76D-02 OVMax= 4.32D-02

 Cycle   5  Pass 0  IDiag  1:
 RMSU=  1.61D-04    CP:  9.70D-01  2.08D+00  1.37D+00  2.83D-01
 E= -2996.55947142633     Delta-E=       -0.008575817788 Rises=F Damp=F
 DIIS: error= 1.58D-03 at cycle   5 NSaved=   5.
 NSaved= 5 IEnMin= 5 EnMin= -2996.55947142633     IErMin= 5 ErrMin= 1.58D-03
 ErrMax= 1.58D-03  0.00D+00 EMaxC= 1.00D-01 BMatC= 5.77D-04 BMatP= 9.28D-03
 IDIUse=3 WtCom= 9.84D-01 WtEn= 1.58D-02
 Coeff-Com:  0.192D+00-0.252D+00 0.182D+00 0.234D+00 0.643D+00
 Coeff-En:   0.000D+00 0.000D+00 0.000D+00 0.629D-02 0.994D+00
 Coeff:      0.189D+00-0.248D+00 0.180D+00 0.231D+00 0.649D+00
 Gap=     0.212 Goal=   None    Shift=    0.000
 RMSDP=1.41D-04 MaxDP=3.70D-03 DE=-8.58D-03 OVMax= 9.53D-03

 Cycle   6  Pass 0  IDiag  1:
 RMSU=  6.08D-05    CP:  9.70D-01  2.08D+00  1.35D+00  4.29D-01  5.29D-01
 E= -2996.56000082176     Delta-E=       -0.000529395432 Rises=F Damp=F
 DIIS: error= 3.75D-04 at cycle   6 NSaved=   6.
 NSaved= 6 IEnMin= 6 EnMin= -2996.56000082176     IErMin= 6 ErrMin= 3.75D-04
 ErrMax= 3.75D-04  0.00D+00 EMaxC= 1.00D-01 BMatC= 6.07D-05 BMatP= 5.77D-04
 IDIUse=3 WtCom= 9.96D-01 WtEn= 3.75D-03
 Coeff-Com:  0.514D-01-0.675D-01 0.563D-01 0.111D+00 0.383D+00 0.466D+00
 Coeff-En:   0.000D+00 0.000D+00 0.000D+00 0.000D+00 0.205D-01 0.980D+00
 Coeff:      0.512D-01-0.673D-01 0.561D-01 0.110D+00 0.382D+00 0.468D+00
 Gap=     0.212 Goal=   None    Shift=    0.000
 RMSDP=4.01D-05 MaxDP=1.95D-03 DE=-5.29D-04 OVMax= 2.14D-03

 Cycle   7  Pass 0  IDiag  1:
 RMSU=  1.95D-05    CP:  9.70D-01  2.08D+00  1.35D+00  4.21D-01  6.18D-01
                    CP:  5.07D-01
 E= -2996.56006079472     Delta-E=       -0.000059972956 Rises=F Damp=F
 DIIS: error= 1.14D-04 at cycle   7 NSaved=   7.
 NSaved= 7 IEnMin= 7 EnMin= -2996.56006079472     IErMin= 7 ErrMin= 1.14D-04
 ErrMax= 1.14D-04  0.00D+00 EMaxC= 1.00D-01 BMatC= 3.89D-06 BMatP= 6.07D-05
 IDIUse=3 WtCom= 9.99D-01 WtEn= 1.14D-03
 Coeff-Com:  0.157D-01-0.206D-01 0.191D-01 0.449D-01 0.166D+00 0.268D+00
 Coeff-Com:  0.507D+00
 Coeff-En:   0.000D+00 0.000D+00 0.000D+00 0.000D+00 0.000D+00 0.000D+00
 Coeff-En:   0.100D+01
 Coeff:      0.156D-01-0.206D-01 0.191D-01 0.449D-01 0.166D+00 0.267D+00
 Coeff:      0.508D+00
 Gap=     0.212 Goal=   None    Shift=    0.000
 RMSDP=1.10D-05 MaxDP=5.10D-04 DE=-6.00D-05 OVMax= 9.75D-04

 Cycle   8  Pass 0  IDiag  1:
 RMSU=  5.98D-06    CP:  9.70D-01  2.08D+00  1.34D+00  4.21D-01  6.25D-01
                    CP:  5.52D-01  5.75D-01
 E= -2996.56006462717     Delta-E=       -0.000003832450 Rises=F Damp=F
 DIIS: error= 3.38D-05 at cycle   8 NSaved=   8.
 NSaved= 8 IEnMin= 8 EnMin= -2996.56006462717     IErMin= 8 ErrMin= 3.38D-05
 ErrMax= 3.38D-05  0.00D+00 EMaxC= 1.00D-01 BMatC= 2.88D-07 BMatP= 3.89D-06
 IDIUse=1 WtCom= 1.00D+00 WtEn= 0.00D+00
 Coeff-Com:  0.230D-02-0.298D-02 0.355D-02 0.111D-01 0.457D-01 0.920D-01
 Coeff-Com:  0.267D+00 0.581D+00
 Coeff:      0.230D-02-0.298D-02 0.355D-02 0.111D-01 0.457D-01 0.920D-01
 Coeff:      0.267D+00 0.581D+00
 Gap=     0.212 Goal=   None    Shift=    0.000
 RMSDP=2.96D-06 MaxDP=1.13D-04 DE=-3.83D-06 OVMax= 2.70D-04

 Initial convergence to 1.0D-05 achieved.  Increase integral accuracy.
 Cycle   9  Pass 1  IDiag  1:
 E= -2996.56005091544     Delta-E=        0.000013711726 Rises=F Damp=F
 DIIS: error= 6.10D-05 at cycle   1 NSaved=   1.
 NSaved= 1 IEnMin= 1 EnMin= -2996.56005091544     IErMin= 1 ErrMin= 6.10D-05
 ErrMax= 6.10D-05  0.00D+00 EMaxC= 1.00D-01 BMatC= 1.91D-07 BMatP= 1.91D-07
 IDIUse=1 WtCom= 1.00D+00 WtEn= 0.00D+00
 Coeff-Com:  0.100D+01
 Coeff:      0.100D+01
 Gap=     0.212 Goal=   None    Shift=    0.000
 RMSDP=2.96D-06 MaxDP=1.13D-04 DE= 1.37D-05 OVMax= 1.76D-04

 Cycle  10  Pass 1  IDiag  1:
 RMSU=  1.17D-05    CP:  1.00D+00
 E= -2996.56005095192     Delta-E=       -0.000000036478 Rises=F Damp=F
 DIIS: error= 1.86D-05 at cycle   2 NSaved=   2.
 NSaved= 2 IEnMin= 2 EnMin= -2996.56005095192     IErMin= 2 ErrMin= 1.86D-05
 ErrMax= 1.86D-05  0.00D+00 EMaxC= 1.00D-01 BMatC= 7.15D-08 BMatP= 1.91D-07
 IDIUse=1 WtCom= 1.00D+00 WtEn= 0.00D+00
 Coeff-Com:  0.325D+00 0.675D+00
 Coeff:      0.325D+00 0.675D+00
 Gap=     0.212 Goal=   None    Shift=    0.000
 RMSDP=2.33D-06 MaxDP=9.51D-05 DE=-3.65D-08 OVMax= 2.09D-04

 Cycle  11  Pass 1  IDiag  1:
 RMSU=  2.32D-06    CP:  1.00D+00  9.84D-01
 E= -2996.56005096029     Delta-E=       -0.000000008368 Rises=F Damp=F
 DIIS: error= 1.85D-05 at cycle   3 NSaved=   3.
 NSaved= 3 IEnMin= 3 EnMin= -2996.56005096029     IErMin= 3 ErrMin= 1.85D-05
 ErrMax= 1.85D-05  0.00D+00 EMaxC= 1.00D-01 BMatC= 6.23D-08 BMatP= 7.15D-08
 IDIUse=1 WtCom= 1.00D+00 WtEn= 0.00D+00
 Coeff-Com:  0.886D-02 0.481D+00 0.510D+00
 Coeff:      0.886D-02 0.481D+00 0.510D+00
 Gap=     0.212 Goal=   None    Shift=    0.000
 RMSDP=1.23D-06 MaxDP=4.68D-05 DE=-8.37D-09 OVMax= 1.10D-04

 Cycle  12  Pass 1  IDiag  1:
 RMSU=  3.38D-07    CP:  1.00D+00  1.00D+00  4.97D-01
 E= -2996.56005103041     Delta-E=       -0.000000070124 Rises=F Damp=F
 DIIS: error= 1.75D-06 at cycle   4 NSaved=   4.
 NSaved= 4 IEnMin= 4 EnMin= -2996.56005103041     IErMin= 4 ErrMin= 1.75D-06
 ErrMax= 1.75D-06  0.00D+00 EMaxC= 1.00D-01 BMatC= 1.38D-09 BMatP= 6.23D-08
 IDIUse=1 WtCom= 1.00D+00 WtEn= 0.00D+00
 Coeff-Com: -0.209D-02 0.264D+00 0.297D+00 0.441D+00
 Coeff:     -0.209D-02 0.264D+00 0.297D+00 0.441D+00
 Gap=     0.212 Goal=   None    Shift=    0.000
 RMSDP=1.84D-07 MaxDP=8.47D-06 DE=-7.01D-08 OVMax= 1.41D-05

 Cycle  13  Pass 1  IDiag  1:
 RMSU=  6.60D-08    CP:  1.00D+00  1.00D+00  5.20D-01  5.17D-01
 E= -2996.56005103179     Delta-E=       -0.000000001379 Rises=F Damp=F
 DIIS: error= 3.13D-07 at cycle   5 NSaved=   5.
 NSaved= 5 IEnMin= 5 EnMin= -2996.56005103179     IErMin= 5 ErrMin= 3.13D-07
 ErrMax= 3.13D-07  0.00D+00 EMaxC= 1.00D-01 BMatC= 3.39D-11 BMatP= 1.38D-09
 IDIUse=1 WtCom= 1.00D+00 WtEn= 0.00D+00
 Coeff-Com: -0.142D-02 0.125D+00 0.142D+00 0.238D+00 0.496D+00
 Coeff:     -0.142D-02 0.125D+00 0.142D+00 0.238D+00 0.496D+00
 Gap=     0.212 Goal=   None    Shift=    0.000
 RMSDP=2.99D-08 MaxDP=1.26D-06 DE=-1.38D-09 OVMax= 1.37D-06

 Cycle  14  Pass 1  IDiag  1:
 RMSU=  2.22D-08    CP:  1.00D+00  1.00D+00  5.20D-01  5.11D-01  7.03D-01
 E= -2996.56005103183     Delta-E=       -0.000000000040 Rises=F Damp=F
 DIIS: error= 8.50D-08 at cycle   6 NSaved=   6.
 NSaved= 6 IEnMin= 6 EnMin= -2996.56005103183     IErMin= 6 ErrMin= 8.50D-08
 ErrMax= 8.50D-08  0.00D+00 EMaxC= 1.00D-01 BMatC= 1.74D-12 BMatP= 3.39D-11
 IDIUse=1 WtCom= 1.00D+00 WtEn= 0.00D+00
 Coeff-Com: -0.528D-03 0.418D-01 0.480D-01 0.862D-01 0.237D+00 0.587D+00
 Coeff:     -0.528D-03 0.418D-01 0.480D-01 0.862D-01 0.237D+00 0.587D+00
 Gap=     0.212 Goal=   None    Shift=    0.000
 RMSDP=8.88D-09 MaxDP=3.23D-07 DE=-4.00D-11 OVMax= 6.83D-07

 SCF Done:  E(RB3LYP) =  -2996.56005103     A.U. after   14 cycles
            NFock= 14  Conv=0.89D-08     -V/T= 2.0066
 KE= 2.977051631872D+03 PE=-8.879391240696D+03 EE= 2.026200129978D+03
 Leave Link  502 at Tue Sep 17 09:53:01 2024, MaxMem=  1342177280 cpu:             101.1 elap:              13.9
 (Enter /groups/ReismanLab/Software/Gaussian16_RevC/Linux_Binary_AVX2-enabled-CPU/g16/l508.exe)
 QCSCF skips out because SCF is already converged.
 Leave Link  508 at Tue Sep 17 09:53:01 2024, MaxMem=  1342177280 cpu:               0.0 elap:               0.0
 (Enter /groups/ReismanLab/Software/Gaussian16_RevC/Linux_Binary_AVX2-enabled-CPU/g16/l601.exe)
 Copying SCF densities to generalized density rwf, IOpCl= 0 IROHF=0.

 **********************************************************************

            Population analysis using the SCF Density.

 **********************************************************************

 Orbital symmetries:
       Occupied  (A) (A) (A) (A) (A) (A) (A) (A) (A) (A) (A) (A)
                 (A) (A) (A) (A) (A) (A) (A) (A) (A) (A) (A) (A)
                 (A) (A) (A) (A) (A) (A) (A) (A) (A) (A) (A) (A)
                 (A) (A) (A) (A) (A) (A) (A) (A) (A) (A) (A) (A)
                 (A) (A) (A) (A) (A) (A)
       Virtual   (A) (A) (A) (A) (A) (A) (A) (A) (A) (A) (A) (A)
                 (A) (A) (A) (A) (A) (A) (A) (A) (A) (A) (A) (A)
                 (A) (A) (A) (A) (A) (A) (A) (A) (A) (A) (A) (A)
                 (A) (A) (A) (A) (A) (A) (A) (A) (A) (A) (A) (A)
                 (A) (A) (A) (A) (A) (A) (A) (A) (A) (A) (A) (A)
                 (A) (A) (A) (A) (A) (A) (A) (A) (A) (A) (A) (A)
                 (A) (A) (A) (A) (A) (A) (A) (A) (A) (A) (A) (A)
                 (A) (A) (A) (A) (A) (A) (A) (A) (A) (A) (A) (A)
                 (A) (A) (A) (A) (A) (A) (A) (A) (A) (A) (A) (A)
                 (A) (A) (A) (A) (A) (A) (A) (A) (A) (A) (A) (A)
                 (A) (A) (A) (A) (A) (A) (A) (A) (A) (A) (A) (A)
                 (A) (A) (A) (A) (A) (A) (A) (A) (A) (A) (A) (A)
                 (A) (A) (A) (A) (A) (A) (A) (A) (A) (A) (A) (A)
                 (A) (A) (A) (A) (A) (A) (A) (A) (A) (A) (A) (A)
                 (A) (A) (A) (A) (A) (A) (A) (A) (A) (A) (A) (A)
                 (A)
 The electronic state is 1-A.
 Alpha  occ. eigenvalues -- -482.89754 -61.85904 -56.38039 -56.37613 -56.37612
 Alpha  occ. eigenvalues --  -19.17688 -10.25711 -10.25313 -10.23150 -10.19440
 Alpha  occ. eigenvalues --  -10.19218 -10.19158 -10.18579 -10.18408 -10.18404
 Alpha  occ. eigenvalues --   -8.57020  -6.52424  -6.51153  -6.51082  -2.63996
 Alpha  occ. eigenvalues --   -2.63642  -2.63587  -2.62572  -2.62571  -1.07101
 Alpha  occ. eigenvalues --   -0.86963  -0.80419  -0.78879  -0.74772  -0.71484
 Alpha  occ. eigenvalues --   -0.70254  -0.64640  -0.60622  -0.57773  -0.51489
 Alpha  occ. eigenvalues --   -0.49743  -0.48224  -0.46147  -0.45581  -0.44063
 Alpha  occ. eigenvalues --   -0.41862  -0.41084  -0.40848  -0.39210  -0.38571
 Alpha  occ. eigenvalues --   -0.36573  -0.36410  -0.34152  -0.32156  -0.31941
 Alpha  occ. eigenvalues --   -0.30293  -0.26720  -0.24336  -0.21766
 Alpha virt. eigenvalues --   -0.00547   0.00836   0.02074   0.08338   0.09579
 Alpha virt. eigenvalues --    0.12249   0.13630   0.13682   0.15881   0.16554
 Alpha virt. eigenvalues --    0.16660   0.17489   0.18244   0.18464   0.18997
 Alpha virt. eigenvalues --    0.20678   0.24843   0.25744   0.25973   0.28264
 Alpha virt. eigenvalues --    0.29534   0.30440   0.33148   0.36891   0.42779
 Alpha virt. eigenvalues --    0.44240   0.46993   0.47673   0.47775   0.47946
 Alpha virt. eigenvalues --    0.49152   0.50176   0.51226   0.51849   0.52407
 Alpha virt. eigenvalues --    0.53121   0.55228   0.55498   0.57787   0.60073
 Alpha virt. eigenvalues --    0.60402   0.61104   0.61492   0.62457   0.63271
 Alpha virt. eigenvalues --    0.65764   0.67018   0.69930   0.70661   0.71267
 Alpha virt. eigenvalues --    0.73987   0.77129   0.78980   0.79243   0.80595
 Alpha virt. eigenvalues --    0.82792   0.84560   0.86312   0.86668   0.87547
 Alpha virt. eigenvalues --    0.88599   0.89070   0.89894   0.90930   0.92427
 Alpha virt. eigenvalues --    0.95036   0.95833   0.98193   0.99105   1.02980
 Alpha virt. eigenvalues --    1.05656   1.08546   1.09820   1.10484   1.12903
 Alpha virt. eigenvalues --    1.18889   1.23515   1.23982   1.26172   1.27770
 Alpha virt. eigenvalues --    1.32692   1.32765   1.35113   1.41134   1.41915
 Alpha virt. eigenvalues --    1.42462   1.44175   1.45359   1.54649   1.55956
 Alpha virt. eigenvalues --    1.56138   1.58054   1.64960   1.66278   1.72120
 Alpha virt. eigenvalues --    1.77164   1.79845   1.79950   1.81909   1.83602
 Alpha virt. eigenvalues --    1.86959   1.88636   1.91852   1.92646   1.93028
 Alpha virt. eigenvalues --    1.95846   1.98798   1.99922   2.00587   2.03280
 Alpha virt. eigenvalues --    2.04218   2.04476   2.06208   2.06993   2.08528
 Alpha virt. eigenvalues --    2.10162   2.10459   2.12242   2.13854   2.17764
 Alpha virt. eigenvalues --    2.25847   2.28219   2.28935   2.30330   2.32035
 Alpha virt. eigenvalues --    2.35527   2.36369   2.38472   2.38520   2.40131
 Alpha virt. eigenvalues --    2.40628   2.47027   2.48012   2.50532   2.54808
 Alpha virt. eigenvalues --    2.55410   2.55835   2.58154   2.59767   2.63303
 Alpha virt. eigenvalues --    2.66877   2.68319   2.70717   2.72758   2.72825
 Alpha virt. eigenvalues --    2.73366   2.77275   2.77478   2.85116   2.88333
 Alpha virt. eigenvalues --    2.90036   2.92587   2.95372   3.01563   3.03770
 Alpha virt. eigenvalues --    3.18861   3.20250   3.23692   3.24497   3.25723
 Alpha virt. eigenvalues --    3.33488   3.34982   3.39085   3.42971   3.48102
 Alpha virt. eigenvalues --    3.48169   3.49417   3.53129   3.85845   4.10426
 Alpha virt. eigenvalues --    4.14121   4.15880   4.26854   4.39696   4.44581
 Alpha virt. eigenvalues --    4.49247   4.57361   4.69136   4.84651   8.63112
 Alpha virt. eigenvalues --   73.00531
          Condensed to atoms (all electrons):
               1          2          3          4          5          6
     1  C    5.015253   0.358995  -0.061867  -0.046781  -0.005456   0.001132
     2  C    0.358995   4.654793   0.359094   0.244694  -0.031709  -0.001741
     3  C   -0.061867   0.359094   5.015036  -0.046751  -0.005484   0.001053
     4  O   -0.046781   0.244694  -0.046751   8.261564   0.297760  -0.063953
     5  C   -0.005456  -0.031709  -0.005484   0.297760   4.618537   0.454968
     6  C    0.001132  -0.001741   0.001053  -0.063953   0.454968   5.028972
     7  C    0.000046   0.000128   0.000045   0.003506  -0.008531   0.515408
     8  C   -0.000003  -0.000004  -0.000003   0.000070  -0.043310  -0.032042
     9  C   -0.000004  -0.000095  -0.000004   0.003144  -0.024990  -0.048614
    10  C   -0.000605   0.005390  -0.000604  -0.081597   0.469562  -0.072281
    11  Br  -0.000028   0.000685  -0.000028  -0.002241  -0.061189   0.007264
    12  H    0.382898  -0.032476  -0.008760  -0.001503   0.001954  -0.001556
    13  H    0.367798  -0.024298  -0.000351   0.003035   0.000170  -0.000069
    14  H    0.377669  -0.027747   0.005644   0.001401   0.000170   0.000250
    15  H   -0.051024   0.409423  -0.051058  -0.046004   0.003635  -0.000371
    16  H   -0.000392  -0.024373   0.367758   0.003045   0.000169  -0.000073
    17  H   -0.008746  -0.032362   0.382900  -0.001609   0.001997  -0.001412
    18  H    0.005647  -0.027723   0.377732   0.001422   0.000167   0.000244
    19  H   -0.002187   0.004041  -0.002201  -0.005813  -0.044735   0.363444
    20  H    0.000003  -0.000004   0.000003  -0.000049   0.003800  -0.038197
    21  H    0.000000  -0.000000   0.000000   0.000002   0.000755   0.005307
    22  H   -0.000000   0.000002  -0.000000  -0.000050   0.005462   0.000201
               7          8          9         10         11         12
     1  C    0.000046  -0.000003  -0.000004  -0.000605  -0.000028   0.382898
     2  C    0.000128  -0.000004  -0.000095   0.005390   0.000685  -0.032476
     3  C    0.000045  -0.000003  -0.000004  -0.000604  -0.000028  -0.008760
     4  O    0.003506   0.000070   0.003144  -0.081597  -0.002241  -0.001503
     5  C   -0.008531  -0.043310  -0.024990   0.469562  -0.061189   0.001954
     6  C    0.515408  -0.032042  -0.048614  -0.072281   0.007264  -0.001556
     7  C    4.797035   0.553698  -0.032583  -0.036532   0.000041   0.000196
     8  C    0.553698   4.826691   0.518328  -0.032116   0.005754  -0.000006
     9  C   -0.032583   0.518328   4.852184   0.549206  -0.064616   0.000000
    10  C   -0.036532  -0.032116   0.549206   4.984996   0.253606  -0.000034
    11  Br   0.000041   0.005754  -0.064616   0.253606  34.987238  -0.000006
    12  H    0.000196  -0.000006   0.000000  -0.000034  -0.000006   0.596788
    13  H   -0.000001   0.000000  -0.000000   0.000013   0.000000  -0.028914
    14  H   -0.000019   0.000002  -0.000001  -0.000199   0.000037  -0.031168
    15  H    0.000004  -0.000000   0.000007  -0.000013   0.000153   0.005613
    16  H   -0.000001   0.000000  -0.000000   0.000013   0.000000  -0.000011
    17  H    0.000195  -0.000006   0.000000  -0.000036  -0.000007   0.004027
    18  H   -0.000018   0.000002  -0.000001  -0.000195   0.000037   0.000026
    19  H   -0.034130   0.004662   0.000860   0.004294  -0.000171   0.002340
    20  H    0.367831  -0.039933   0.004911   0.000850   0.000008  -0.000008
    21  H   -0.040545   0.369205  -0.039963   0.004671  -0.000158   0.000000
    22  H    0.005255  -0.040792   0.370544  -0.041987  -0.003496   0.000000
              13         14         15         16         17         18
     1  C    0.367798   0.377669  -0.051024  -0.000392  -0.008746   0.005647
     2  C   -0.024298  -0.027747   0.409423  -0.024373  -0.032362  -0.027723
     3  C   -0.000351   0.005644  -0.051058   0.367758   0.382900   0.377732
     4  O    0.003035   0.001401  -0.046004   0.003045  -0.001609   0.001422
     5  C    0.000170   0.000170   0.003635   0.000169   0.001997   0.000167
     6  C   -0.000069   0.000250  -0.000371  -0.000073  -0.001412   0.000244
     7  C   -0.000001  -0.000019   0.000004  -0.000001   0.000195  -0.000018
     8  C    0.000000   0.000002  -0.000000   0.000000  -0.000006   0.000002
     9  C   -0.000000  -0.000001   0.000007  -0.000000   0.000000  -0.000001
    10  C    0.000013  -0.000199  -0.000013   0.000013  -0.000036  -0.000195
    11  Br   0.000000   0.000037   0.000153   0.000000  -0.000007   0.000037
    12  H   -0.028914  -0.031168   0.005613  -0.000011   0.004027   0.000026
    13  H    0.599573  -0.025607  -0.003747   0.001430  -0.000013  -0.000092
    14  H   -0.025607   0.577773  -0.004142  -0.000090   0.000024  -0.000213
    15  H   -0.003747  -0.004142   0.629159  -0.003628   0.005605  -0.004248
    16  H    0.001430  -0.000090  -0.003628   0.599730  -0.028888  -0.025666
    17  H   -0.000013   0.000024   0.005605  -0.028888   0.596466  -0.031153
    18  H   -0.000092  -0.000213  -0.004248  -0.025666  -0.031153   0.577936
    19  H    0.000074  -0.000111  -0.000120   0.000075   0.002318  -0.000105
    20  H   -0.000000   0.000000  -0.000000  -0.000000  -0.000008   0.000000
    21  H   -0.000000  -0.000000   0.000000  -0.000000   0.000000  -0.000000
    22  H    0.000000  -0.000000  -0.000000   0.000000   0.000000  -0.000000
              19         20         21         22
     1  C   -0.002187   0.000003   0.000000  -0.000000
     2  C    0.004041  -0.000004  -0.000000   0.000002
     3  C   -0.002201   0.000003   0.000000  -0.000000
     4  O   -0.005813  -0.000049   0.000002  -0.000050
     5  C   -0.044735   0.003800   0.000755   0.005462
     6  C    0.363444  -0.038197   0.005307   0.000201
     7  C   -0.034130   0.367831  -0.040545   0.005255
     8  C    0.004662  -0.039933   0.369205  -0.040792
     9  C    0.000860   0.004911  -0.039963   0.370544
    10  C    0.004294   0.000850   0.004671  -0.041987
    11  Br  -0.000171   0.000008  -0.000158  -0.003496
    12  H    0.002340  -0.000008   0.000000   0.000000
    13  H    0.000074  -0.000000  -0.000000   0.000000
    14  H   -0.000111   0.000000  -0.000000  -0.000000
    15  H   -0.000120  -0.000000   0.000000  -0.000000
    16  H    0.000075  -0.000000  -0.000000   0.000000
    17  H    0.002318  -0.000008   0.000000   0.000000
    18  H   -0.000105   0.000000  -0.000000  -0.000000
    19  H    0.627824  -0.007256  -0.000215   0.000016
    20  H   -0.007256   0.627452  -0.006283  -0.000202
    21  H   -0.000215  -0.006283   0.626786  -0.006448
    22  H    0.000016  -0.000202  -0.006448   0.606083
 Mulliken charges:
               1
     1  C   -0.332349
     2  C    0.165287
     3  C   -0.332154
     4  O   -0.523291
     5  C    0.366297
     6  C   -0.117935
     7  C   -0.091027
     8  C   -0.090198
     9  C   -0.088313
    10  C   -0.006401
    11  Br  -0.122885
    12  H    0.110602
    13  H    0.111001
    14  H    0.126328
    15  H    0.110756
    16  H    0.110901
    17  H    0.110705
    18  H    0.126201
    19  H    0.087098
    20  H    0.087080
    21  H    0.086885
    22  H    0.105411
 Sum of Mulliken charges =  -0.00000
 Mulliken charges with hydrogens summed into heavy atoms:
               1
     1  C    0.015582
     2  C    0.276043
     3  C    0.015654
     4  O   -0.523291
     5  C    0.366297
     6  C   -0.030837
     7  C   -0.003947
     8  C   -0.003313
     9  C    0.017098
    10  C   -0.006401
    11  Br  -0.122885
 Electronic spatial extent (au):  <R**2>=           2597.1907
 Charge=             -0.0000 electrons
 Dipole moment (field-independent basis, Debye):
    X=             -2.6380    Y=              1.1534    Z=              0.0003  Tot=              2.8791
 Quadrupole moment (field-independent basis, Debye-Ang):
   XX=            -69.4928   YY=            -72.7186   ZZ=            -79.7050
   XY=              3.4117   XZ=              0.0055   YZ=              0.0018
 Traceless Quadrupole moment (field-independent basis, Debye-Ang):
   XX=              4.4794   YY=              1.2535   ZZ=             -5.7329
   XY=              3.4117   XZ=              0.0055   YZ=              0.0018
 Octapole moment (field-independent basis, Debye-Ang**2):
  XXX=             36.6304  YYY=            -33.7696  ZZZ=             -0.0359  XYY=             17.2941
  XXY=            -15.1274  XXZ=             -0.0229  XZZ=             14.8581  YZZ=            -21.6186
  YYZ=              0.0121  XYZ=             -0.0077
 Hexadecapole moment (field-independent basis, Debye-Ang**3):
 XXXX=          -1731.5595 YYYY=          -1072.7393 ZZZZ=           -253.1406 XXXY=            -34.9690
 XXXZ=              0.0837 YYYX=            -69.3142 YYYZ=              0.0714 ZZZX=              0.0057
 ZZZY=             -0.0140 XXYY=           -454.0481 XXZZ=           -351.2339 YYZZ=           -252.1565
 XXYZ=              0.0764 YYXZ=              0.0069 ZZXY=            -22.4662
 N-N= 8.795794278141D+02 E-N=-8.879391218553D+03  KE= 2.977051631872D+03
 No NMR shielding tensors so no spin-rotation constants.
 Leave Link  601 at Tue Sep 17 09:53:01 2024, MaxMem=  1342177280 cpu:               0.5 elap:               0.1
 (Enter /groups/ReismanLab/Software/Gaussian16_RevC/Linux_Binary_AVX2-enabled-CPU/g16/l701.exe)
 ... and contract with generalized density number  0.
 Compute integral first derivatives.
 R6Disp: Adding Grimme-D3(BJ) dispersion energy 1st derivatives to the gradient.
 Leave Link  701 at Tue Sep 17 09:53:01 2024, MaxMem=  1342177280 cpu:               0.8 elap:               0.2
 (Enter /groups/ReismanLab/Software/Gaussian16_RevC/Linux_Binary_AVX2-enabled-CPU/g16/l702.exe)
 L702 exits ... SP integral derivatives will be done elsewhere.
 Leave Link  702 at Tue Sep 17 09:53:01 2024, MaxMem=  1342177280 cpu:               0.1 elap:               0.0
 (Enter /groups/ReismanLab/Software/Gaussian16_RevC/Linux_Binary_AVX2-enabled-CPU/g16/l703.exe)
 Integral derivatives from FoFJK, PRISM(SPDF).
 Compute integral first derivatives, UseDBF=F ICtDFT=           0.
 Calling FoFJK, ICntrl=      2127 FMM=F ISym2X=0 I1Cent= 0 IOpClX= 0 NMat=1 NMatS=1 NMatT=0.
 FoFJK:  IHMeth= 1 ICntrl=    2127 DoSepK=F KAlg= 0 I1Cent=           0 FoldK=F
 IRaf=         0 NMat=       1 IRICut=       1 DoRegI=T DoRafI=F ISym2E= 0 IDoP0=0 IntGTp=1.
 FoFCou: FMM=F IPFlag=           0 FMFlag=      100000 FMFlg1=         800
         NFxFlg=           0 DoJE=F BraDBF=F KetDBF=F FulRan=T
         wScrn=  0.000000 ICntrl=      2127 IOpCl=  0 I1Cent=           0 NGrid=           0
         NMat0=    1 NMatS0=      1 NMatT0=    0 NMatD0=    1 NMtDS0=    0 NMtDT0=    0
 Symmetry not used in FoFCou.
 Leave Link  703 at Tue Sep 17 09:53:05 2024, MaxMem=  1342177280 cpu:              32.7 elap:               4.2
 (Enter /groups/ReismanLab/Software/Gaussian16_RevC/Linux_Binary_AVX2-enabled-CPU/g16/l716.exe)
 Dipole        =-1.03785969D+00 4.53763726D-01 1.19352185D-04
 ***** Axes restored to original set *****
 -------------------------------------------------------------------
 Center     Atomic                   Forces (Hartrees/Bohr)
 Number     Number              X              Y              Z
 -------------------------------------------------------------------
      1        6          -0.004710158    0.002115183    0.002926864
      2        6           0.010847341    0.001425768   -0.000436084
      3        6          -0.005002642    0.002685451   -0.001848813
      4        8          -0.003126809   -0.000576091    0.000105094
      5        6          -0.003039434    0.003993161    0.000619977
      6        6           0.010075431    0.000403775   -0.000541849
      7        6           0.001268998   -0.005793676   -0.000728934
      8        6          -0.003605726   -0.005633809   -0.000445070
      9        6          -0.004611760    0.000874510    0.000375899
     10        6          -0.000861032    0.009100160    0.001106842
     11       35          -0.005533566    0.002928669    0.000646026
     12        1           0.000627170   -0.003633880   -0.001175556
     13        1           0.004622945    0.001041990   -0.000866468
     14        1          -0.001327668    0.001389954   -0.003300924
     15        1           0.000777051   -0.002284917   -0.000309061
     16        1           0.004718875    0.000846842    0.000548721
     17        1           0.000704260   -0.003787316    0.000272786
     18        1          -0.000912068    0.000618261    0.003644720
     19        1           0.003253838    0.000518527   -0.000132404
     20        1           0.001821862   -0.003707156   -0.000522257
     21        1          -0.002755321   -0.003619260   -0.000247879
     22        1          -0.003231585    0.001093853    0.000308371
 -------------------------------------------------------------------
 Cartesian Forces:  Max     0.010847341 RMS     0.003320593
 Leave Link  716 at Tue Sep 17 09:53:05 2024, MaxMem=  1342177280 cpu:               0.1 elap:               0.0
 (Enter /groups/ReismanLab/Software/Gaussian16_RevC/Linux_Binary_AVX2-enabled-CPU/g16/l103.exe)

 GradGradGradGradGradGradGradGradGradGradGradGradGradGradGradGradGradGrad
 Berny optimization.
 FormGI is forming the generalized inverse of G from B-inverse, IUseBI=4.
 GSVD:  received Info=                   1 from GESDD.
 Internal  Forces:  Max     0.011877128 RMS     0.003588282
 Search for a local minimum.
 Step number   1 out of a maximum of  116
 All quantities printed in internal units (Hartrees-Bohrs-Radians)
 RMS Force = .35883D-02 SwitMx=.10000D-02 MixMth= 1
 Mixed Optimization -- RFO/linear search
 Second derivative matrix not updated -- first step.
 ITU=  0
     Eigenvalues ---    0.00385   0.00386   0.01400   0.02143   0.02203
     Eigenvalues ---    0.02229   0.02243   0.02282   0.02297   0.02310
     Eigenvalues ---    0.02319   0.02341   0.02346   0.03590   0.04767
     Eigenvalues ---    0.05474   0.05479   0.05810   0.05810   0.07635
     Eigenvalues ---    0.16000   0.16000   0.16000   0.16000   0.16000
     Eigenvalues ---    0.16000   0.16000   0.16000   0.16000   0.16000
     Eigenvalues ---    0.17962   0.18268   0.20841   0.22000   0.22492
     Eigenvalues ---    0.24480   0.25000   0.25000   0.25000   0.29533
     Eigenvalues ---    0.29540   0.33850   0.35077   0.35079   0.35194
     Eigenvalues ---    0.35195   0.35272   0.35274   0.36032   0.36116
     Eigenvalues ---    0.36182   0.36419   0.42150   0.42625   0.43505
     Eigenvalues ---    0.46766   0.47666   0.48379   0.49132   0.54913
 RFO step:  Lambda=-3.92178013D-03 EMin= 3.84820369D-03
 Linear search not attempted -- first point.
 Iteration  1 RMS(Cart)=  0.05064098 RMS(Int)=  0.00080345
 Iteration  2 RMS(Cart)=  0.00186840 RMS(Int)=  0.00001094
 Iteration  3 RMS(Cart)=  0.00000162 RMS(Int)=  0.00001089
 Iteration  4 RMS(Cart)=  0.00000000 RMS(Int)=  0.00001089
 ITry= 1 IFail=0 DXMaxC= 2.63D-01 DCOld= 1.00D+10 DXMaxT= 3.00D-01 DXLimC= 3.00D+00 Rises=F
 Variable       Old X    -DE/DX   Delta X   Delta X   Delta X     New X
                                 (Linear)    (Quad)   (Total)
    R1        2.88904   0.00162   0.00000   0.00543   0.00543   2.89446
    R2        2.05232   0.00377   0.00000   0.01058   0.01058   2.06290
    R3        2.05361   0.00474   0.00000   0.01333   0.01333   2.06694
    R4        2.05547   0.00370   0.00000   0.01043   0.01043   2.06590
    R5        2.88890   0.00161   0.00000   0.00539   0.00539   2.89429
    R6        2.68732   0.01036   0.00000   0.02434   0.02434   2.71166
    R7        2.07584  -0.00221   0.00000  -0.00646  -0.00646   2.06938
    R8        2.05360   0.00475   0.00000   0.01335   0.01335   2.06695
    R9        2.05235   0.00376   0.00000   0.01055   0.01055   2.06290
   R10        2.05549   0.00369   0.00000   0.01040   0.01040   2.06589
   R11        2.55209   0.00346   0.00000   0.00625   0.00625   2.55834
   R12        2.62827   0.00944   0.00000   0.01985   0.01984   2.64812
   R13        2.64930   0.01188   0.00000   0.02600   0.02601   2.67531
   R14        2.61898   0.01005   0.00000   0.02075   0.02073   2.63971
   R15        2.03431   0.00313   0.00000   0.00850   0.00850   2.04281
   R16        2.61082   0.00917   0.00000   0.01862   0.01861   2.62943
   R17        2.04032   0.00416   0.00000   0.01141   0.01141   2.05174
   R18        2.61834   0.01096   0.00000   0.02261   0.02261   2.64096
   R19        2.03799   0.00456   0.00000   0.01245   0.01245   2.05044
   R20        2.60345   0.01004   0.00000   0.02013   0.02014   2.62359
   R21        2.03901   0.00337   0.00000   0.00923   0.00923   2.04824
   R22        3.58982   0.00480   0.00000   0.02575   0.02575   3.61557
    A1        1.96176   0.00081   0.00000   0.00489   0.00487   1.96663
    A2        1.90420   0.00060   0.00000   0.00266   0.00265   1.90685
    A3        1.91427   0.00103   0.00000   0.00737   0.00734   1.92162
    A4        1.89212  -0.00097   0.00000  -0.00794  -0.00794   1.88418
    A5        1.89417  -0.00077   0.00000  -0.00285  -0.00288   1.89129
    A6        1.89618  -0.00078   0.00000  -0.00464  -0.00466   1.89152
    A7        1.97387   0.00343   0.00000   0.01609   0.01612   1.98999
    A8        1.97425  -0.00142   0.00000  -0.00520  -0.00521   1.96904
    A9        1.88146  -0.00109   0.00000  -0.00781  -0.00777   1.87369
   A10        1.97350  -0.00142   0.00000  -0.00518  -0.00519   1.96831
   A11        1.88160  -0.00108   0.00000  -0.00771  -0.00768   1.87392
   A12        1.76190   0.00127   0.00000   0.00798   0.00795   1.76986
   A13        1.90429   0.00063   0.00000   0.00281   0.00281   1.90709
   A14        1.96123   0.00081   0.00000   0.00485   0.00483   1.96606
   A15        1.91426   0.00104   0.00000   0.00742   0.00740   1.92166
   A16        1.89256  -0.00099   0.00000  -0.00807  -0.00807   1.88448
   A17        1.89640  -0.00079   0.00000  -0.00468  -0.00469   1.89171
   A18        1.89399  -0.00077   0.00000  -0.00285  -0.00288   1.89111
   A19        2.18534  -0.00439   0.00000  -0.01730  -0.01730   2.16804
   A20        2.24436  -0.01126   0.00000  -0.04425  -0.04425   2.20010
   A21        1.99397   0.00936   0.00000   0.03695   0.03695   2.03092
   A22        2.04486   0.00189   0.00000   0.00730   0.00730   2.05216
   A23        2.10506   0.00059   0.00000   0.00240   0.00239   2.10745
   A24        2.10803  -0.00135   0.00000  -0.00763  -0.00762   2.10040
   A25        2.07010   0.00076   0.00000   0.00523   0.00523   2.07534
   A26        2.11388  -0.00084   0.00000  -0.00397  -0.00399   2.10989
   A27        2.07470   0.00019   0.00000   0.00061   0.00062   2.07531
   A28        2.09460   0.00064   0.00000   0.00336   0.00337   2.09798
   A29        2.08322  -0.00040   0.00000  -0.00199  -0.00200   2.08122
   A30        2.10618   0.00016   0.00000   0.00077   0.00078   2.10696
   A31        2.09378   0.00024   0.00000   0.00122   0.00122   2.09501
   A32        2.08210   0.00278   0.00000   0.01225   0.01226   2.09436
   A33        2.11162  -0.00076   0.00000  -0.00227  -0.00228   2.10934
   A34        2.08947  -0.00202   0.00000  -0.00998  -0.00999   2.07948
   A35        2.13726  -0.00402   0.00000  -0.01599  -0.01597   2.12129
   A36        2.04968   0.00931   0.00000   0.03673   0.03672   2.08640
   A37        2.09625  -0.00528   0.00000  -0.02074  -0.02075   2.07550
    D1        0.95394  -0.00015   0.00000   0.01261   0.01261   0.96655
    D2       -1.31824   0.00003   0.00000   0.00998   0.00997  -1.30827
    D3        3.03234  -0.00015   0.00000   0.00755   0.00753   3.03987
    D4       -1.14538   0.00015   0.00000   0.01766   0.01767  -1.12771
    D5        2.86563   0.00033   0.00000   0.01502   0.01503   2.88065
    D6        0.93302   0.00015   0.00000   0.01259   0.01258   0.94560
    D7        3.06276   0.00012   0.00000   0.01735   0.01736   3.08011
    D8        0.79058   0.00031   0.00000   0.01471   0.01472   0.80530
    D9       -1.14203   0.00013   0.00000   0.01228   0.01227  -1.12975
   D10        1.13473  -0.00014   0.00000  -0.01611  -0.01612   1.11861
   D11       -0.96486   0.00017   0.00000  -0.01098  -0.01098  -0.97583
   D12       -3.07309  -0.00011   0.00000  -0.01571  -0.01572  -3.08881
   D13       -2.87589  -0.00032   0.00000  -0.01349  -0.01350  -2.88940
   D14        1.30770  -0.00002   0.00000  -0.00836  -0.00836   1.29935
   D15       -0.80053  -0.00030   0.00000  -0.01309  -0.01310  -0.81363
   D16       -0.94359  -0.00014   0.00000  -0.01099  -0.01098  -0.95458
   D17       -3.04318   0.00016   0.00000  -0.00586  -0.00584  -3.04902
   D18        1.13177  -0.00011   0.00000  -0.01059  -0.01059   1.12119
   D19        1.13484   0.00114   0.00000   0.00742   0.00742   1.14226
   D20       -1.13753  -0.00112   0.00000  -0.00595  -0.00595  -1.14348
   D21        3.14032   0.00001   0.00000   0.00068   0.00068   3.14100
   D22       -0.00118   0.00001   0.00000   0.00029   0.00029  -0.00089
   D23        3.14071  -0.00000   0.00000  -0.00002  -0.00001   3.14070
   D24       -3.14113  -0.00001   0.00000  -0.00036  -0.00035  -3.14148
   D25        0.00034  -0.00001   0.00000  -0.00023  -0.00022   0.00012
   D26        0.00015  -0.00000   0.00000  -0.00003  -0.00003   0.00011
   D27       -3.14156   0.00000   0.00000   0.00010   0.00009  -3.14147
   D28        3.14123   0.00000   0.00000   0.00019   0.00020   3.14143
   D29       -0.00064   0.00001   0.00000   0.00050   0.00051  -0.00013
   D30       -0.00010  -0.00000   0.00000  -0.00007  -0.00007  -0.00017
   D31        3.14122   0.00001   0.00000   0.00024   0.00024   3.14146
   D32       -0.00012   0.00000   0.00000   0.00013   0.00013   0.00001
   D33        3.14140   0.00000   0.00000   0.00016   0.00016   3.14156
   D34        3.14159  -0.00000   0.00000   0.00000   0.00000  -3.14159
   D35       -0.00007   0.00000   0.00000   0.00003   0.00003  -0.00004
   D36        0.00003  -0.00000   0.00000  -0.00011  -0.00012  -0.00008
   D37        3.14150   0.00000   0.00000   0.00001   0.00001   3.14151
   D38       -3.14149  -0.00000   0.00000  -0.00015  -0.00015   3.14155
   D39       -0.00002  -0.00000   0.00000  -0.00002  -0.00002  -0.00004
   D40        0.00002   0.00000   0.00000   0.00001   0.00001   0.00003
   D41       -3.14145  -0.00000   0.00000  -0.00007  -0.00007  -3.14152
   D42       -3.14145  -0.00000   0.00000  -0.00011  -0.00011  -3.14157
   D43        0.00027  -0.00001   0.00000  -0.00019  -0.00019   0.00007
   D44        0.00002   0.00000   0.00000   0.00008   0.00008   0.00010
   D45       -3.14129  -0.00001   0.00000  -0.00024  -0.00024  -3.14153
   D46        3.14149   0.00000   0.00000   0.00016   0.00016  -3.14154
   D47        0.00017  -0.00001   0.00000  -0.00016  -0.00016   0.00002
         Item               Value     Threshold  Converged?
 Maximum Force            0.011877     0.000450     NO 
 RMS     Force            0.003588     0.000300     NO 
 Maximum Displacement     0.262997     0.001800     NO 
 RMS     Displacement     0.052049     0.001200     NO 
 Predicted change in Energy=-1.991201D-03
 Lowest energy point so far.  Saving SCF results.
 GradGradGradGradGradGradGradGradGradGradGradGradGradGradGradGradGradGrad

 Leave Link  103 at Tue Sep 17 09:53:05 2024, MaxMem=  1342177280 cpu:               0.2 elap:               0.0
 (Enter /groups/ReismanLab/Software/Gaussian16_RevC/Linux_Binary_AVX2-enabled-CPU/g16/l202.exe)
                          Input orientation:                          
 ---------------------------------------------------------------------
 Center     Atomic      Atomic             Coordinates (Angstroms)
 Number     Number       Type             X           Y           Z
 ---------------------------------------------------------------------
      1          6           0        3.179870    0.322461   -1.441467
      2          6           0        2.630700    0.727104   -0.070069
      3          6           0        3.324496    0.036430    1.107803
      4          8           0        1.199909    0.645563    0.002555
      5          6           0        0.497551   -0.508311   -0.087372
      6          6           0        1.035948   -1.790009   -0.263677
      7          6           0        0.204109   -2.909436   -0.342332
      8          6           0       -1.178093   -2.780326   -0.247758
      9          6           0       -1.734768   -1.510600   -0.071660
     10          6           0       -0.910560   -0.396149    0.006939
     11         35           0       -1.705565    1.327311    0.248351
     12          1           0        3.155248   -0.756884   -1.602961
     13          1           0        4.219336    0.652340   -1.525400
     14          1           0        2.600770    0.802680   -2.234676
     15          1           0        2.792145    1.804442    0.041519
     16          1           0        4.373261    0.345278    1.140490
     17          1           0        3.296135   -1.052255    1.032696
     18          1           0        2.849366    0.329106    2.047871
     19          1           0        2.105420   -1.927204   -0.341080
     20          1           0        0.653177   -3.888422   -0.479215
     21          1           0       -1.821685   -3.651720   -0.309289
     22          1           0       -2.807988   -1.379930    0.005294
 ---------------------------------------------------------------------
                    Distance matrix (angstroms):
                    1          2          3          4          5
     1  C    0.000000
     2  C    1.531684   0.000000
     3  C    2.569341   1.531590   0.000000
     4  O    2.471809   1.434951   2.471131   0.000000
     5  C    3.117465   2.465131   3.117179   1.353816   0.000000
     6  C    3.232046   2.986063   3.233310   2.455559   1.401322
     7  C    4.528621   4.380285   4.529662   3.707908   2.432389
     8  C    5.481247   5.180786   5.481329   4.177830   2.827642
     9  C    5.421268   4.905572   5.420387   3.642373   2.447055
    10  C    4.398397   3.715931   4.397127   2.353564   1.415716
    11  Br   5.266183   4.389173   5.263701   2.994492   2.887203
    12  H    1.091638   2.197073   2.829529   2.892730   3.069552
    13  H    1.093780   2.155769   2.848480   3.384025   4.155324
    14  H    1.093228   2.166133   3.504724   2.644296   3.279198
    15  H    2.132099   1.095067   2.132187   1.969704   3.260460
    16  H    2.844505   2.155868   1.093784   3.384557   4.154201
    17  H    2.832816   2.196591   1.091642   2.887549   3.063086
    18  H    3.504962   2.166077   1.093222   2.646539   3.285051
    19  H    2.725121   2.719323   2.727869   2.749029   2.159367
    20  H    5.004162   5.037964   5.005900   4.592171   3.406305
    21  H    6.487796   6.249405   6.487973   5.262501   3.912688
    22  H    6.391064   5.833061   6.389755   4.490643   3.419780
                    6          7          8          9         10
     6  C    0.000000
     7  C    1.396875   0.000000
     8  C    2.425481   1.391436   0.000000
     9  C    2.791381   2.406086   1.397534   0.000000
    10  C    2.409351   2.771478   2.412622   1.388344   0.000000
    11  Br   4.182792   4.684633   4.170975   2.856046   1.913277
    12  H    2.711542   3.864180   4.970788   5.179307   4.387789
    13  H    4.206063   5.496175   6.522867   6.499463   5.455568
    14  H    3.613245   4.806740   5.573650   5.369059   4.334912
    15  H    4.012162   5.391282   6.071784   5.612063   4.307414
    16  H    4.203426   5.493064   6.520288   6.497816   5.454669
    17  H    2.708008   3.860110   4.964323   5.171041   4.379376
    18  H    3.622483   4.816493   5.582015   5.375054   4.339175
    19  H    1.081011   2.140039   3.393815   3.872104   3.400203
    20  H    2.143900   1.085732   2.152905   3.394469   3.857148
    21  H    3.410882   2.157758   1.085046   2.156019   3.395423
    22  H    3.875094   3.396021   2.163724   1.083881   2.137303
                   11         12         13         14         15
    11  Br   0.000000
    12  H    5.603457   0.000000
    13  H    6.221434   1.767544   0.000000
    14  H    4.998519   1.771651   1.773536   0.000000
    15  H    4.527674   3.065379   2.412353   2.494237   0.000000
    16  H    6.221931   3.197631   2.687927   3.839621   2.415952
    17  H    5.594152   2.655895   3.209641   3.820999   3.065477
    18  H    4.998208   3.821192   3.840516   4.315818   2.491051
    19  H    5.046078   2.015969   3.539110   3.359068   3.813548
    20  H    5.770346   4.162894   5.867751   5.374123   6.103691
    21  H    5.011506   5.901146   7.516501   6.565585   7.154034
    22  H    2.933184   6.207644   7.473716   6.247873   6.442284
                   16         17         18         19         20
    16  H    0.000000
    17  H    1.767744   0.000000
    18  H    1.773656   1.771536   0.000000
    19  H    3.535863   2.017572   3.369195   0.000000
    20  H    5.864016   4.161122   5.384881   2.444272   0.000000
    21  H    7.513668   5.894932   6.574336   4.289187   2.491957
    22  H    7.472306   6.198648   6.252886   4.955912   4.301970
                   21         22
    21  H    0.000000
    22  H    2.496555   0.000000
 Stoichiometry    C9H11BrO
 Framework group  C1[X(C9H11BrO)]
 Deg. of freedom    60
 Full point group                 C1      NOp   1
 RotChk:  IX=0 Diff= 5.43D-02
 Largest Abelian subgroup         C1      NOp   1
 Largest concise Abelian subgroup C1      NOp   1
                         Standard orientation:                         
 ---------------------------------------------------------------------
 Center     Atomic      Atomic             Coordinates (Angstroms)
 Number     Number       Type             X           Y           Z
 ---------------------------------------------------------------------
      1          6           0       -3.068921   -0.675744   -1.283868
      2          6           0       -2.375277   -1.142433   -0.000469
      3          6           0       -3.066125   -0.678901    1.285469
      4          8           0       -0.965457   -0.875056   -0.001078
      5          6           0       -0.426041    0.366655   -0.000445
      6          6           0       -1.136476    1.574540   -0.000125
      7          6           0       -0.463746    2.798752    0.000403
      8          6           0        0.926757    2.849697    0.000612
      9          6           0        1.653712    1.656115    0.000390
     10          6           0        0.987884    0.437849   -0.000070
     11         35           0        2.013758   -1.177146   -0.000257
     12          1           0       -3.195342    0.407811   -1.323860
     13          1           0       -4.060484   -1.133389   -1.344841
     14          1           0       -2.491084   -0.987560   -2.157952
     15          1           0       -2.388019   -2.237426   -0.001930
     16          1           0       -4.061238   -1.129227    1.343082
     17          1           0       -3.183860    0.405375    1.332009
     18          1           0       -2.491067   -1.000460    2.157847
     19          1           0       -2.217485    1.572308   -0.000276
     20          1           0       -1.043966    3.716443    0.000612
     21          1           0        1.446516    3.802155    0.000946
     22          1           0        2.737554    1.665333    0.000616
 ---------------------------------------------------------------------
 Rotational constants (GHZ):           1.0089701           0.5983235           0.4098229
 Leave Link  202 at Tue Sep 17 09:53:05 2024, MaxMem=  1342177280 cpu:               0.1 elap:               0.0
 (Enter /groups/ReismanLab/Software/Gaussian16_RevC/Linux_Binary_AVX2-enabled-CPU/g16/l301.exe)
 Standard basis: 6-31G(d,p) (6D, 7F)
 Ernie: Thresh=  0.10000D-02 Tol=  0.10000D-05 Strict=F.
 There are   235 symmetry adapted cartesian basis functions of A   symmetry.
 There are   235 symmetry adapted basis functions of A   symmetry.
   235 basis functions,   440 primitive gaussians,   235 cartesian basis functions
    54 alpha electrons       54 beta electrons
       nuclear repulsion energy       871.1505169668 Hartrees.
 IExCor=  402 DFT=T Ex+Corr=B3LYP ExCW=0 ScaHFX=  0.200000
 ScaDFX=  0.800000  0.720000  1.000000  0.810000 ScalE2=  1.000000  1.000000
 IRadAn=      5 IRanWt=     -1 IRanGd=            0 ICorTp=0 IEmpDi=141
 NAtoms=   22 NActive=   22 NUniq=   22 SFac= 1.00D+00 NAtFMM=   60 NAOKFM=F Big=F
 Integral buffers will be    131072 words long.
 Raffenetti 2 integral format.
 Two-electron integral symmetry is turned on.
 R6Disp:  Grimme-D3(BJ) Dispersion energy=       -0.0429162076 Hartrees.
 Nuclear repulsion after empirical dispersion term =      871.1076007593 Hartrees.
 Leave Link  301 at Tue Sep 17 09:53:06 2024, MaxMem=  1342177280 cpu:               0.1 elap:               0.1
 (Enter /groups/ReismanLab/Software/Gaussian16_RevC/Linux_Binary_AVX2-enabled-CPU/g16/l302.exe)
 NPDir=0 NMtPBC=     1 NCelOv=     1 NCel=       1 NClECP=     1 NCelD=      1
         NCelK=      1 NCelE2=     1 NClLst=     1 CellRange=     0.0.
 One-electron integrals computed using PRISM.
 One-electron integral symmetry used in STVInt
[...]
                 (A) (A) (A) (A) (A) (A)
       Virtual   (A) (A) (A) (A) (A) (A) (A) (A) (A) (A) (A) (A)
                 (A) (A) (A) (A) (A) (A) (A) (A) (A) (A) (A) (A)
                 (A) (A) (A) (A) (A) (A) (A) (A) (A) (A) (A) (A)
                 (A) (A) (A) (A) (A) (A) (A) (A) (A) (A) (A) (A)
                 (A) (A) (A) (A) (A) (A) (A) (A) (A) (A) (A) (A)
                 (A) (A) (A) (A) (A) (A) (A) (A) (A) (A) (A) (A)
                 (A) (A) (A) (A) (A) (A) (A) (A) (A) (A) (A) (A)
                 (A) (A) (A) (A) (A) (A) (A) (A) (A) (A) (A) (A)
                 (A) (A) (A) (A) (A) (A) (A) (A) (A) (A) (A) (A)
                 (A) (A) (A) (A) (A) (A) (A) (A) (A) (A) (A) (A)
                 (A) (A) (A) (A) (A) (A) (A) (A) (A) (A) (A) (A)
                 (A) (A) (A) (A) (A) (A) (A) (A) (A) (A) (A) (A)
                 (A) (A) (A) (A) (A) (A) (A) (A) (A) (A) (A) (A)
                 (A) (A) (A) (A) (A) (A) (A) (A) (A) (A) (A) (A)
                 (A) (A) (A) (A) (A) (A) (A) (A) (A) (A) (A) (A)
                 (A) (A) (A) (A) (A) (A) (A) (A) (A) (A) (A) (A)
                 (A) (A) (A) (A) (A) (A) (A) (A) (A) (A) (A) (A)
                 (A) (A) (A) (A) (A) (A) (A) (A) (A) (A) (A) (A)
                 (A) (A) (A) (A) (A) (A) (A) (A) (A) (A) (A) (A)
                 (A) (A) (A) (A) (A) (A) (A) (A) (A) (A) (A) (A)
                 (A) (A) (A) (A) (A) (A) (A) (A) (A) (A) (A) (A)
                 (A) (A) (A) (A) (A) (A) (A) (A) (A) (A) (A) (A)
                 (A) (A) (A) (A) (A) (A) (A) (A) (A) (A) (A) (A)
                 (A) (A) (A) (A) (A) (A) (A) (A) (A) (A) (A) (A)
                 (A) (A) (A) (A) (A) (A) (A) (A) (A) (A) (A) (A)
                 (A) (A) (A) (A) (A) (A) (A) (A) (A) (A) (A) (A)
                 (A) (A) (A) (A) (A) (A) (A) (A) (A) (A) (A) (A)
                 (A) (A) (A) (A) (A) (A) (A) (A) (A) (A) (A) (A)
                 (A) (A) (A) (A) (A) (A) (A) (A) (A) (A) (A) (A)
                 (A) (A) (A) (A) (A) (A) (A) (A) (A) (A) (A) (A)
                 (A) (A) (A) (A) (A) (A) (A) (A) (A) (A)
 The electronic state is 1-A.
 Alpha  occ. eigenvalues -- -485.36767 -63.35236 -57.17185 -57.16948 -57.16935
 Alpha  occ. eigenvalues --  -19.65465 -10.61755 -10.60187 -10.59389 -10.55206
 Alpha  occ. eigenvalues --  -10.54845 -10.54689 -10.54164 -10.52886 -10.52885
 Alpha  occ. eigenvalues --   -9.01876  -6.84295  -6.83416  -6.83370  -2.87672
 Alpha  occ. eigenvalues --   -2.87361  -2.87312  -2.86493  -2.86492  -1.18938
 Alpha  occ. eigenvalues --   -0.97225  -0.90036  -0.88608  -0.84153  -0.80927
 Alpha  occ. eigenvalues --   -0.78800  -0.72652  -0.68960  -0.65705  -0.58572
 Alpha  occ. eigenvalues --   -0.57209  -0.55336  -0.53255  -0.52788  -0.50632
 Alpha  occ. eigenvalues --   -0.48217  -0.47474  -0.47386  -0.45355  -0.44727
 Alpha  occ. eigenvalues --   -0.42666  -0.42656  -0.39740  -0.38964  -0.38286
 Alpha  occ. eigenvalues --   -0.37325  -0.33980  -0.30249  -0.27635
 Alpha virt. eigenvalues --    0.01282   0.02771   0.04275   0.07093   0.09341
 Alpha virt. eigenvalues --    0.10699   0.11310   0.12257   0.12944   0.13863
 Alpha virt. eigenvalues --    0.14142   0.15325   0.16283   0.16292   0.17479
 Alpha virt. eigenvalues --    0.17709   0.19569   0.20271   0.21560   0.21952
 Alpha virt. eigenvalues --    0.22084   0.23635   0.23902   0.24510   0.25354
 Alpha virt. eigenvalues --    0.25755   0.27006   0.28141   0.28456   0.29169
 Alpha virt. eigenvalues --    0.29600   0.31660   0.32094   0.32418   0.32426
 Alpha virt. eigenvalues --    0.33506   0.33862   0.34587   0.36108   0.36235
 Alpha virt. eigenvalues --    0.36529   0.38437   0.39210   0.40012   0.41558
 Alpha virt. eigenvalues --    0.41864   0.43369   0.44070   0.44292   0.45300
 Alpha virt. eigenvalues --    0.45623   0.46224   0.47086   0.47947   0.48608
 Alpha virt. eigenvalues --    0.49619   0.49718   0.50344   0.51120   0.51412
 Alpha virt. eigenvalues --    0.51741   0.52437   0.54961   0.55385   0.57255
 Alpha virt. eigenvalues --    0.57677   0.58903   0.59331   0.59388   0.62716
 Alpha virt. eigenvalues --    0.62979   0.64883   0.67179   0.67792   0.67804
 Alpha virt. eigenvalues --    0.69409   0.71125   0.73640   0.73757   0.75171
 Alpha virt. eigenvalues --    0.76322   0.78190   0.78704   0.79473   0.81874
 Alpha virt. eigenvalues --    0.82992   0.84091   0.85572   0.86278   0.87735
 Alpha virt. eigenvalues --    0.89163   0.90846   0.91531   0.92465   0.93781
 Alpha virt. eigenvalues --    0.95651   0.97639   0.98563   1.00420   1.03613
 Alpha virt. eigenvalues --    1.04081   1.05575   1.07462   1.07515   1.08146
 Alpha virt. eigenvalues --    1.09974   1.11465   1.12261   1.12744   1.16877
 Alpha virt. eigenvalues --    1.17926   1.18759   1.19705   1.20924   1.22873
 Alpha virt. eigenvalues --    1.24736   1.24908   1.25754   1.26583   1.28899
 Alpha virt. eigenvalues --    1.30489   1.31353   1.36488   1.37233   1.38625
 Alpha virt. eigenvalues --    1.40393   1.41532   1.42743   1.45813   1.47505
 Alpha virt. eigenvalues --    1.47866   1.48904   1.50618   1.50707   1.54429
 Alpha virt. eigenvalues --    1.55142   1.55371   1.56331   1.58620   1.58993
 Alpha virt. eigenvalues --    1.59587   1.59834   1.60043   1.61845   1.61941
 Alpha virt. eigenvalues --    1.63027   1.63453   1.63760   1.66389   1.66937
 Alpha virt. eigenvalues --    1.67189   1.67790   1.68602   1.70879   1.73022
 Alpha virt. eigenvalues --    1.73573   1.74071   1.75205   1.76435   1.77185
 Alpha virt. eigenvalues --    1.79403   1.79882   1.81942   1.83237   1.84040
 Alpha virt. eigenvalues --    1.87342   1.88888   1.90730   1.91375   1.91786
 Alpha virt. eigenvalues --    1.92731   1.95685   1.99319   2.00105   2.00829
 Alpha virt. eigenvalues --    2.01562   2.04021   2.05134   2.06641   2.07304
 Alpha virt. eigenvalues --    2.10878   2.11890   2.13097   2.15180   2.15721
 Alpha virt. eigenvalues --    2.16898   2.20168   2.21027   2.22272   2.27230
 Alpha virt. eigenvalues --    2.28762   2.31659   2.32019   2.32614   2.36566
 Alpha virt. eigenvalues --    2.38537   2.39932   2.40452   2.43065   2.44076
 Alpha virt. eigenvalues --    2.44331   2.45675   2.47899   2.50762   2.50801
 Alpha virt. eigenvalues --    2.52332   2.53304   2.57948   2.58714   2.59480
 Alpha virt. eigenvalues --    2.59981   2.62359   2.62529   2.63507   2.65929
 Alpha virt. eigenvalues --    2.66829   2.68779   2.69315   2.69402   2.69513
 Alpha virt. eigenvalues --    2.69658   2.73161   2.73438   2.76267   2.76821
 Alpha virt. eigenvalues --    2.76965   2.78004   2.79555   2.80900   2.82232
 Alpha virt. eigenvalues --    2.84802   2.85907   2.86072   2.87255   2.88251
 Alpha virt. eigenvalues --    2.89835   2.90514   2.92824   2.93882   2.97103
 Alpha virt. eigenvalues --    2.98069   3.02726   3.02779   3.07086   3.08352
 Alpha virt. eigenvalues --    3.08923   3.10203   3.11020   3.11780   3.12787
 Alpha virt. eigenvalues --    3.13008   3.14168   3.16700   3.18450   3.19947
 Alpha virt. eigenvalues --    3.20448   3.21700   3.24295   3.24512   3.24617
 Alpha virt. eigenvalues --    3.25619   3.28557   3.28945   3.31798   3.32785
 Alpha virt. eigenvalues --    3.33881   3.34653   3.35085   3.36153   3.37860
 Alpha virt. eigenvalues --    3.38203   3.41283   3.41663   3.42477   3.43729
 Alpha virt. eigenvalues --    3.45514   3.46731   3.48044   3.49722   3.50284
 Alpha virt. eigenvalues --    3.51646   3.51673   3.52587   3.55925   3.57077
 Alpha virt. eigenvalues --    3.59194   3.59991   3.62211   3.63341   3.64279
 Alpha virt. eigenvalues --    3.69214   3.70794   3.74842   3.76584   3.81433
 Alpha virt. eigenvalues --    3.84406   3.86875   3.89918   3.93391   3.94592
 Alpha virt. eigenvalues --    3.98484   3.99618   4.00594   4.01527   4.04691
 Alpha virt. eigenvalues --    4.07107   4.07766   4.07854   4.11707   4.14058
 Alpha virt. eigenvalues --    4.14207   4.16213   4.16873   4.18893   4.19244
 Alpha virt. eigenvalues --    4.22298   4.24748   4.25654   4.28292   4.30128
 Alpha virt. eigenvalues --    4.35000   4.36570   4.38100   4.39836   4.42884
 Alpha virt. eigenvalues --    4.44679   4.46917   4.51859   4.53883   4.57036
 Alpha virt. eigenvalues --    4.57541   4.59606   4.60743   4.67097   4.75662
 Alpha virt. eigenvalues --    4.78219   4.79018   4.79511   4.82285   4.93151
 Alpha virt. eigenvalues --    5.00784   5.10141   5.10988   5.19002   5.26450
 Alpha virt. eigenvalues --    5.32761   5.35430   5.46804   5.52592   5.75858
 Alpha virt. eigenvalues --    5.98703   6.00830   6.33626   6.52891   6.64499
 Alpha virt. eigenvalues --    6.80913   6.94891   7.23334   7.42468   7.88789
 Alpha virt. eigenvalues --   22.14431  22.46632  22.52239  22.68322  22.69575
 Alpha virt. eigenvalues --   22.75704  22.85275  22.92275  23.33527  44.54781
          Condensed to atoms (all electrons):
               1          2          3          4          5          6
     1  C    5.158286   0.277992  -0.110022  -0.045969  -0.001572  -0.009901
     2  C    0.277992   5.042724   0.278022   0.212854  -0.059862   0.029220
     3  C   -0.110022   0.278022   5.158040  -0.046010  -0.001492  -0.009935
     4  O   -0.045969   0.212854  -0.046010   7.998910   0.382138  -0.077780
     5  C   -0.001572  -0.059862  -0.001492   0.382138   5.023753   0.388876
     6  C   -0.009901   0.029220  -0.009935  -0.077780   0.388876   5.239475
     7  C    0.003909  -0.005638   0.003891   0.006311  -0.017474   0.343601
     8  C   -0.000456   0.000561  -0.000454  -0.000620  -0.096206  -0.004614
     9  C    0.000210   0.000144   0.000206   0.006099   0.047170  -0.111651
    10  C    0.002691  -0.003512   0.002762  -0.127106   0.191161   0.051020
    11  Br  -0.000327   0.000644  -0.000326  -0.006638  -0.167781   0.016878
    12  H    0.403017  -0.023498  -0.007720   0.000260  -0.007948  -0.004106
    13  H    0.397620  -0.033075   0.003777   0.004561   0.001086  -0.000039
    14  H    0.405848  -0.041692   0.012160   0.004466  -0.000167  -0.001768
    15  H   -0.048042   0.428486  -0.047961  -0.039562  -0.000814   0.000188
    16  H    0.003793  -0.033093   0.397605   0.004565   0.001081  -0.000039
    17  H   -0.007774  -0.023473   0.403074   0.000246  -0.007901  -0.004136
    18  H    0.012163  -0.041702   0.405902   0.004469  -0.000191  -0.001749
    19  H   -0.008527   0.016353  -0.008546  -0.002236  -0.042552   0.401893
    20  H   -0.000011   0.000113  -0.000011  -0.000142   0.003701  -0.022004
    21  H    0.000001  -0.000008   0.000001   0.000015  -0.000899   0.008565
    22  H   -0.000002   0.000056  -0.000002   0.000010   0.022502  -0.003502
               7          8          9         10         11         12
     1  C    0.003909  -0.000456   0.000210   0.002691  -0.000327   0.403017
     2  C   -0.005638   0.000561   0.000144  -0.003512   0.000644  -0.023498
     3  C    0.003891  -0.000454   0.000206   0.002762  -0.000326  -0.007720
     4  O    0.006311  -0.000620   0.006099  -0.127106  -0.006638   0.000260
     5  C   -0.017474  -0.096206   0.047170   0.191161  -0.167781  -0.007948
     6  C    0.343601  -0.004614  -0.111651   0.051020   0.016878  -0.004106
     7  C    5.076294   0.478343   0.001644  -0.086175  -0.003839   0.006500
     8  C    0.478343   5.003125   0.418552   0.026144   0.019726  -0.000420
     9  C    0.001644   0.418552   5.103510   0.386456  -0.102869   0.000355
    10  C   -0.086175   0.026144   0.386456   5.267551   0.436495  -0.001577
    11  Br  -0.003839   0.019726  -0.102869   0.436495  34.921753   0.000003
    12  H    0.006500  -0.000420   0.000355  -0.001577   0.000003   0.528307
    13  H   -0.000105   0.000009  -0.000013   0.000045   0.000012  -0.025563
    14  H   -0.000422   0.000074  -0.000005   0.000276   0.000232  -0.025422
    15  H    0.000703  -0.000099   0.000198  -0.000261   0.000084   0.007823
    16  H   -0.000104   0.000009  -0.000013   0.000043   0.000012  -0.000252
    17  H    0.006498  -0.000421   0.000356  -0.001570   0.000004   0.003312
    18  H   -0.000420   0.000074  -0.000005   0.000266   0.000234  -0.000384
    19  H    0.005336  -0.001451   0.002980  -0.006339  -0.000291  -0.001364
    20  H    0.399567  -0.029212   0.003811   0.000121   0.000022   0.000061
    21  H   -0.037868   0.417483  -0.036931   0.005191  -0.000364  -0.000003
    22  H    0.006743  -0.041763   0.420933  -0.058486  -0.003032   0.000000
              13         14         15         16         17         18
     1  C    0.397620   0.405848  -0.048042   0.003793  -0.007774   0.012163
     2  C   -0.033075  -0.041692   0.428486  -0.033093  -0.023473  -0.041702
     3  C    0.003777   0.012160  -0.047961   0.397605   0.403074   0.405902
     4  O    0.004561   0.004466  -0.039562   0.004565   0.000246   0.004469
     5  C    0.001086  -0.000167  -0.000814   0.001081  -0.007901  -0.000191
     6  C   -0.000039  -0.001768   0.000188  -0.000039  -0.004136  -0.001749
     7  C   -0.000105  -0.000422   0.000703  -0.000104   0.006498  -0.000420
     8  C    0.000009   0.000074  -0.000099   0.000009  -0.000421   0.000074
     9  C   -0.000013  -0.000005   0.000198  -0.000013   0.000356  -0.000005
    10  C    0.000045   0.000276  -0.000261   0.000043  -0.001570   0.000266
    11  Br   0.000012   0.000232   0.000084   0.000012   0.000004   0.000234
    12  H   -0.025563  -0.025422   0.007823  -0.000252   0.003312  -0.000384
    13  H    0.516859  -0.014540  -0.006834  -0.000643  -0.000247  -0.000317
    14  H   -0.014540   0.502309  -0.007081  -0.000317  -0.000382  -0.000410
    15  H   -0.006834  -0.007081   0.573058  -0.006810   0.007816  -0.007101
    16  H   -0.000643  -0.000317  -0.006810   0.516885  -0.025555  -0.014551
    17  H   -0.000247  -0.000382   0.007816  -0.025555   0.528209  -0.025419
    18  H   -0.000317  -0.000410  -0.007101  -0.014551  -0.025419   0.502298
    19  H    0.000162   0.000276   0.000122   0.000162  -0.001385   0.000280
    20  H   -0.000001   0.000001   0.000001  -0.000001   0.000061   0.000001
    21  H    0.000000   0.000000  -0.000000   0.000000  -0.000003   0.000000
    22  H    0.000000  -0.000000  -0.000001   0.000000   0.000000  -0.000000
              19         20         21         22
     1  C   -0.008527  -0.000011   0.000001  -0.000002
     2  C    0.016353   0.000113  -0.000008   0.000056
     3  C   -0.008546  -0.000011   0.000001  -0.000002
     4  O   -0.002236  -0.000142   0.000015   0.000010
     5  C   -0.042552   0.003701  -0.000899   0.022502
     6  C    0.401893  -0.022004   0.008565  -0.003502
     7  C    0.005336   0.399567  -0.037868   0.006743
     8  C   -0.001451  -0.029212   0.417483  -0.041763
     9  C    0.002980   0.003811  -0.036931   0.420933
    10  C   -0.006339   0.000121   0.005191  -0.058486
    11  Br  -0.000291   0.000022  -0.000364  -0.003032
    12  H   -0.001364   0.000061  -0.000003   0.000000
    13  H    0.000162  -0.000001   0.000000   0.000000
    14  H    0.000276   0.000001   0.000000  -0.000000
    15  H    0.000122   0.000001  -0.000000  -0.000001
    16  H    0.000162  -0.000001   0.000000   0.000000
    17  H   -0.001385   0.000061  -0.000003   0.000000
    18  H    0.000280   0.000001   0.000000  -0.000000
    19  H    0.472230  -0.002725  -0.000219   0.000066
    20  H   -0.002725   0.486985  -0.003217  -0.000194
    21  H   -0.000219  -0.003217   0.489128  -0.003234
    22  H    0.000066  -0.000194  -0.003234   0.488017
 Mulliken charges:
               1
     1  C   -0.432928
     2  C   -0.021616
     3  C   -0.432962
     4  O   -0.278841
     5  C    0.343390
     6  C   -0.228490
     7  C   -0.187294
     8  C   -0.188388
     9  C   -0.141137
    10  C   -0.085197
    11  Br  -0.110633
    12  H    0.148617
    13  H    0.157245
    14  H    0.166564
    15  H    0.146087
    16  H    0.157225
    17  H    0.148692
    18  H    0.166561
    19  H    0.175777
    20  H    0.163072
    21  H    0.162363
    22  H    0.171889
 Sum of Mulliken charges =  -0.00000
 Mulliken charges with hydrogens summed into heavy atoms:
               1
     1  C    0.039498
     2  C    0.124471
     3  C    0.039516
     4  O   -0.278841
     5  C    0.343390
     6  C   -0.052712
     7  C   -0.024221
     8  C   -0.026025
     9  C    0.030752
    10  C   -0.085197
    11  Br  -0.110633
 Electronic spatial extent (au):  <R**2>=           2648.2835
 Charge=             -0.0000 electrons
 Dipole moment (field-independent basis, Debye):
    X=             -3.2665    Y=              1.3936    Z=              0.0015  Tot=              3.5514
 Quadrupole moment (field-independent basis, Debye-Ang):
   XX=            -68.9804   YY=            -72.9955   ZZ=            -81.8761
   XY=              4.0428   XZ=              0.0011   YZ=             -0.0007
 Traceless Quadrupole moment (field-independent basis, Debye-Ang):
   XX=              5.6370   YY=              1.6218   ZZ=             -7.2588
   XY=              4.0428   XZ=              0.0011   YZ=             -0.0007
 Octapole moment (field-independent basis, Debye-Ang**2):
  XXX=             31.6801  YYY=            -26.5413  ZZZ=             -0.0084  XYY=             16.3011
  XXY=            -14.8787  XXZ=              0.0001  XZZ=             14.9253  YZZ=            -23.4413
  YYZ=              0.0061  XYZ=              0.0057
 Hexadecapole moment (field-independent basis, Debye-Ang**3):
 XXXX=          -1788.6175 YYYY=          -1072.1039 ZZZZ=           -271.6614 XXXY=            -25.3519
 XXXZ=              0.0074 YYYX=            -65.9474 YYYZ=              0.0268 ZZZX=              0.0013
 ZZZY=              0.0034 XXYY=           -462.0175 XXZZ=           -368.2445 YYZZ=           -263.7011
 XXYZ=              0.0081 YYXZ=              0.0129 ZZXY=            -21.7588
 N-N= 8.723354880818D+02 E-N=-8.885346854148D+03  KE= 2.993314509390D+03
 Calculating spin-rotation constants.
 Leave Link  601 at Tue Sep 17 11:06:35 2024, MaxMem=  1342177280 cpu:               6.4 elap:               6.4
 (Enter /groups/ReismanLab/Software/Gaussian16_RevC/Linux_Binary_AVX2-enabled-CPU/g16/l9999.exe)
 Unable to Open any file for archive entry.
 1\1\GINC-HPC-82-16\SP\RM062X\def2TZVP\C9H11Br1O1\MANTIND\17-Sep-2024\0
 \\#p M062X/def2tzvp geom=check guess=read scf(xqc,tight) integral(grid
 =ultrafine) scrf(SMD, solvent=1,4-Dioxane) nmr=giao\\spe\\0,1\C,0,3.18
 59932373,0.3376306706,-1.444195699\C,0,2.636504638,0.722786805,-0.0710
 394325\C,0,3.3309389278,0.0496076404,1.1123299631\O,0,1.19854885,0.627
 5914444,-0.0001166244\C,0,0.5002614991,-0.5294015616,-0.0901131971\C,0
 ,1.0283075927,-1.8162472456,-0.2658150799\C,0,0.1879062304,-2.92748997
 15,-0.3425389946\C,0,-1.1931124862,-2.7860335455,-0.2467272497\C,0,-1.
 7355826232,-1.5124801517,-0.0717223259\C,0,-0.9000423281,-0.4057896138
 ,0.0048099421\Br,0,-1.6692218351,1.3226914126,0.2442978526\H,0,3.15817
 10923,-0.7369623252,-1.6327772401\H,0,4.2280170715,0.6636762482,-1.519
 1462318\H,0,2.6123283171,0.8383943151,-2.2282480857\H,0,2.7747108732,1
 .8025754095,0.0427110053\H,0,4.3792836739,0.3625637909,1.1399817367\H,
 0,3.3092175825,-1.04031302,1.0604972913\H,0,2.8557762604,0.3579999561,
 2.0470525285\H,0,2.0954046208,-1.9598644324,-0.3437856538\H,0,0.628456
 7264,-3.9101597514,-0.4788601484\H,0,-1.8460025279,-3.6500654054,-0.30
 64278188\H,0,-2.8070845554,-1.3692392374,0.0063943257\\Version=ES64L-G
 16RevC.02\State=1-A\HF=-2998.9699544\RMSD=1.913e-09\Dipole=1.2074893,-
 0.6875342,-0.1465437\Quadrupole=4.8351982,0.4862495,-5.3214477,2.60511
 1,-0.2952394,0.5151755\PG=C01 [X(C9H11Br1O1)]\\@
 The archive entry for this job was punched.


 A politician is a person who can make waves and then
 make you think he's the only one who can save the ship.
 -- Ivern Ball
 Job cpu time:       0 days  0 hours 18 minutes  2.4 seconds.
 Elapsed time:       0 days  0 hours 18 minutes  7.2 seconds.
 File lengths (MBytes):  RWF=    272 Int=      0 D2E=      0 Chk=     32 Scr=     16
 Normal termination of Gaussian 16 at Tue Sep 17 11:06:36 2024.
