 Entering Gaussian System, Link 0=g16
 Input=smiles_00014_conf_0.gjf
 Output=smiles_00014_conf_0.log
 Initial command:
 /groups/ReismanLab/Software/Gaussian16_RevC/Linux_Binary_AVX2-enabled-CPU/g16/l1.exe "/central/groups/ReismanLab/DM/dft_final/smiles_00014/Gau-101794.inp" -scrdir="/central/groups/ReismanLab/DM/dft_final/smiles_00014/"
 Entering Link 1 = /groups/ReismanLab/Software/Gaussian16_RevC/Linux_Binary_AVX2-enabled-CPU/g16/l1.exe PID=    101796.
  
 Copyright (c) 1988-2021, Gaussian, Inc.  All Rights Reserved.
  
 This is part of the Gaussian(R) 16 program.  It is based on
 the Gaussian(R) 09 system (copyright 2009, Gaussian, Inc.),
 the Gaussian(R) 03 system (copyright 2003, Gaussian, Inc.),
 the Gaussian(R) 98 system (copyright 1998, Gaussian, Inc.),
 the Gaussian(R) 94 system (copyright 1995, Gaussian, Inc.),
 the Gaussian 92(TM) system (copyright 1992, Gaussian, Inc.),
 the Gaussian 90(TM) system (copyright 1990, Gaussian, Inc.),
 the Gaussian 88(TM) system (copyright 1988, Gaussian, Inc.),
 the Gaussian 86(TM) system (copyright 1986, Carnegie Mellon
 University), and the Gaussian 82(TM) system (copyright 1983,
 Carnegie Mellon University). Gaussian is a federally registered
 trademark of Gaussian, Inc.
  
 This software contains proprietary and confidential information,
 including trade secrets, belonging to Gaussian, Inc.
  
 This software is provided under written license and may be
 used, copied, transmitted, or stored only in accord with that
 written license.
  
 The following legend is applicable only to US Government
 contracts under FAR:
  
                    RESTRICTED RIGHTS LEGEND
  
 Use, reproduction and disclosure by the US Government is
 subject to restrictions as set forth in subparagraphs (a)
 and (c) of the Commercial Computer Software - Restricted
 Rights clause in FAR 52.227-19.
  
 Gaussian, Inc.
 340 Quinnipiac St., Bldg. 40, Wallingford CT 06492
  
  
 ---------------------------------------------------------------
 Warning -- This program may not be used in any manner that
 competes with the business of Gaussian, Inc. or will provide
 assistance to any competitor of Gaussian, Inc.  The licensee
 of this program is prohibited from giving any competitor of
 Gaussian, Inc. access to this program.  By using this program,
 the user acknowledges that Gaussian, Inc. is engaged in the
 business of creating and licensing software in the field of
 computational chemistry and represents and warrants to the
 licensee that it is not a competitor of Gaussian, Inc. and that
 it will not use this program in any manner prohibited above.
 ---------------------------------------------------------------
  

 Cite this work as:
 Gaussian 16, Revision C.02,
 M. J. Frisch, G. W. Trucks, H. B. Schlegel, G. E. Scuseria, 
 M. A. Robb, J. R. Cheeseman, G. Scalmani, V. Barone, 
 G. A. Petersson, H. Nakatsuji, X. Li, M. Caricato, A. V. Marenich, 
 J. Bloino, B. G. Janesko, R. Gomperts, B. Mennucci, H. P. Hratchian, 
 J. V. Ortiz, A. F. Izmaylov, J. L. Sonnenberg, D. Williams-Young, 
 F. Ding, F. Lipparini, F. Egidi, J. Goings, B. Peng, A. Petrone, 
 T. Henderson, D. Ranasinghe, V. G. Zakrzewski, J. Gao, N. Rega, 
 G. Zheng, W. Liang, M. Hada, M. Ehara, K. Toyota, R. Fukuda, 
 J. Hasegawa, M. Ishida, T. Nakajima, Y. Honda, O. Kitao, H. Nakai, 
 T. Vreven, K. Throssell, J. A. Montgomery, Jr., J. E. Peralta, 
 F. Ogliaro, M. J. Bearpark, J. J. Heyd, E. N. Brothers, K. N. Kudin, 
 V. N. Staroverov, T. A. Keith, R. Kobayashi, J. Normand, 
 K. Raghavachari, A. P. Rendell, J. C. Burant, S. S. Iyengar, 
 J. Tomasi, M. Cossi, J. M. Millam, M. Klene, C. Adamo, R. Cammi, 
 J. W. Ochterski, R. L. Martin, K. Morokuma, O. Farkas, 
 J. B. Foresman, and D. J. Fox, Gaussian, Inc., Wallingford CT, 2019.
 
 ******************************************
 Gaussian 16:  ES64L-G16RevC.02  7-Dec-2021
                17-Sep-2024 
 ******************************************
 %nprocshared=8
 Will use up to    8 processors via shared memory.
 %Mem=10GB
 %Chk=smiles_00014_conf_0.chk
 ----------------------------------------------------------------------
 #p B3LYP/6-31G(d,p) EmpiricalDispersion=GD3BJ opt freq scf(xqc,tight) 
 integral(grid=ultrafine)
 ----------------------------------------------------------------------
 1/18=20,19=15,26=4,38=1/1,3;
 2/9=110,12=2,17=6,18=5,40=1/2;
 3/5=1,6=6,7=101,11=2,25=1,30=1,71=1,74=-5,75=-5,124=41/1,2,3;
 4//1;
 5/5=2,8=3,13=1,32=2,38=5/2,8;
 6/7=2,8=2,9=2,10=2,28=1/1;
 7//1,2,3,16;
 1/18=20,19=15,26=4/3(2);
 2/9=110/2;
 99//99;
 2/9=110/2;
 3/5=1,6=6,7=101,11=2,25=1,30=1,71=1,74=-5,75=-5,124=41/1,2,3;
 4/5=5,16=3,69=1/1;
 5/5=2,8=3,13=1,32=2,38=5/2,8;
 7//1,2,3,16;
 1/18=20,19=15,26=4/3(-5);
 2/9=110/2;
 6/7=2,8=2,9=2,10=2,19=2,28=1/1;
 99/9=1/99;
 Leave Link    1 at Tue Sep 17 09:53:47 2024, MaxMem=  1342177280 cpu:               0.1 elap:               0.7
 (Enter /groups/ReismanLab/Software/Gaussian16_RevC/Linux_Binary_AVX2-enabled-CPU/g16/l101.exe)
 ----------------------------------
 opt-freq conformers_unique/conf_aa
 ----------------------------------
 Symbolic Z-matrix:
 Charge =  0 Multiplicity = 1
 Br                   -2.05491   0.23723   0.00003 
 C                    -0.29426  -0.49144  -0.00012 
 C                    -0.10855  -1.85437  -0.00008 
 C                     1.18174  -2.39093   0.00002 
 C                     2.299    -1.58422  0. 
 C                     2.10274  -0.20836  -0.00002 
 N                     2.99728   0.82019   0.00014 
 C                     2.31747   2.00687  0. 
 C                     0.97663   1.775    -0.00012 
 C                     0.80534   0.3651   -0.00008 
 H                    -0.96169  -2.515    -0.00005 
 H                     1.29526  -3.46407   0.00039 
 H                     3.29324  -2.00467   0.00013 
 H                     3.99811   0.72127  -0.00012 
 H                     2.84637   2.94032   0.00018 
 H                     0.19434   2.5071   -0.00007 
 
 ITRead=  0  0  0  0  0  0  0  0  0  0  0  0  0  0  0  0
 MicOpt= -1 -1 -1 -1 -1 -1 -1 -1 -1 -1 -1 -1 -1 -1 -1 -1
 NAtoms=     16 NQM=       16 NQMF=       0 NMMI=      0 NMMIF=      0
                NMic=       0 NMicF=      0.
                    Isotopes and Nuclear Properties:
 (Nuclear quadrupole moments (NQMom) in fm**2, nuclear magnetic moments (NMagM)
  in nuclear magnetons)

  Atom         1           2           3           4           5           6           7           8           9          10
 IAtWgt=          79          12          12          12          12          12          14          12          12          12
 AtmWgt=  78.9183361  12.0000000  12.0000000  12.0000000  12.0000000  12.0000000  14.0030740  12.0000000  12.0000000  12.0000000
 NucSpn=           3           0           0           0           0           0           2           0           0           0
 AtZEff=  -0.0000000  -0.0000000  -0.0000000  -0.0000000  -0.0000000  -0.0000000  -0.0000000  -0.0000000  -0.0000000  -0.0000000
 NQMom=   31.3000000   0.0000000   0.0000000   0.0000000   0.0000000   0.0000000   2.0440000   0.0000000   0.0000000   0.0000000
 NMagM=    2.1063990   0.0000000   0.0000000   0.0000000   0.0000000   0.0000000   0.4037610   0.0000000   0.0000000   0.0000000
 AtZNuc=  35.0000000   6.0000000   6.0000000   6.0000000   6.0000000   6.0000000   7.0000000   6.0000000   6.0000000   6.0000000

  Atom        11          12          13          14          15          16
 IAtWgt=           1           1           1           1           1           1
 AtmWgt=   1.0078250   1.0078250   1.0078250   1.0078250   1.0078250   1.0078250
 NucSpn=           1           1           1           1           1           1
 AtZEff=  -0.0000000  -0.0000000  -0.0000000  -0.0000000  -0.0000000  -0.0000000
 NQMom=    0.0000000   0.0000000   0.0000000   0.0000000   0.0000000   0.0000000
 NMagM=    2.7928460   2.7928460   2.7928460   2.7928460   2.7928460   2.7928460
 AtZNuc=   1.0000000   1.0000000   1.0000000   1.0000000   1.0000000   1.0000000
 Leave Link  101 at Tue Sep 17 09:53:48 2024, MaxMem=  1342177280 cpu:               0.3 elap:               0.5
 (Enter /groups/ReismanLab/Software/Gaussian16_RevC/Linux_Binary_AVX2-enabled-CPU/g16/l103.exe)

 GradGradGradGradGradGradGradGradGradGradGradGradGradGradGradGradGradGrad
 Berny optimization.
 Initialization pass.
                           ----------------------------
                           !    Initial Parameters    !
                           ! (Angstroms and Degrees)  !
 --------------------------                            --------------------------
 ! Name  Definition              Value          Derivative Info.                !
 --------------------------------------------------------------------------------
 ! R1    R(1,2)                  1.9055         estimate D2E/DX2                !
 ! R2    R(2,3)                  1.3755         estimate D2E/DX2                !
 ! R3    R(2,10)                 1.3938         estimate D2E/DX2                !
 ! R4    R(3,4)                  1.3974         estimate D2E/DX2                !
 ! R5    R(3,11)                 1.079          estimate D2E/DX2                !
 ! R6    R(4,5)                  1.3781         estimate D2E/DX2                !
 ! R7    R(4,12)                 1.0791         estimate D2E/DX2                !
 ! R8    R(5,6)                  1.3898         estimate D2E/DX2                !
 ! R9    R(5,13)                 1.0795         estimate D2E/DX2                !
 ! R10   R(6,7)                  1.3631         estimate D2E/DX2                !
 ! R11   R(6,10)                 1.4185         estimate D2E/DX2                !
 ! R12   R(7,8)                  1.3676         estimate D2E/DX2                !
 ! R13   R(7,14)                 1.0057         estimate D2E/DX2                !
 ! R14   R(8,9)                  1.3607         estimate D2E/DX2                !
 ! R15   R(8,15)                 1.0729         estimate D2E/DX2                !
 ! R16   R(9,10)                 1.4203         estimate D2E/DX2                !
 ! R17   R(9,16)                 1.0714         estimate D2E/DX2                !
 ! A1    A(1,2,3)              120.2421         estimate D2E/DX2                !
 ! A2    A(1,2,10)             119.6004         estimate D2E/DX2                !
 ! A3    A(3,2,10)             120.1575         estimate D2E/DX2                !
 ! A4    A(2,3,4)              120.3388         estimate D2E/DX2                !
 ! A5    A(2,3,11)             119.9932         estimate D2E/DX2                !
 ! A6    A(4,3,11)             119.668          estimate D2E/DX2                !
 ! A7    A(3,4,5)              121.5897         estimate D2E/DX2                !
 ! A8    A(3,4,12)             118.618          estimate D2E/DX2                !
 ! A9    A(5,4,12)             119.7922         estimate D2E/DX2                !
 ! A10   A(4,5,6)              117.7125         estimate D2E/DX2                !
 ! A11   A(4,5,13)             121.2468         estimate D2E/DX2                !
 ! A12   A(6,5,13)             121.0407         estimate D2E/DX2                !
 ! A13   A(5,6,7)              130.8679         estimate D2E/DX2                !
 ! A14   A(5,6,10)             121.9639         estimate D2E/DX2                !
 ! A15   A(7,6,10)             107.1683         estimate D2E/DX2                !
 ! A16   A(6,7,8)              109.1791         estimate D2E/DX2                !
 ! A17   A(6,7,14)             125.3693         estimate D2E/DX2                !
 ! A18   A(8,7,14)             125.4515         estimate D2E/DX2                !
 ! A19   A(7,8,9)              109.9959         estimate D2E/DX2                !
 ! A20   A(7,8,15)             120.6567         estimate D2E/DX2                !
 ! A21   A(9,8,15)             129.3474         estimate D2E/DX2                !
 ! A22   A(8,9,10)             106.7383         estimate D2E/DX2                !
 ! A23   A(8,9,16)             127.0873         estimate D2E/DX2                !
 ! A24   A(10,9,16)            126.1744         estimate D2E/DX2                !
 ! A25   A(2,10,6)             118.2377         estimate D2E/DX2                !
 ! A26   A(2,10,9)             134.8439         estimate D2E/DX2                !
 ! A27   A(6,10,9)             106.9185         estimate D2E/DX2                !
 ! D1    D(1,2,3,4)           -179.9901         estimate D2E/DX2                !
 ! D2    D(1,2,3,11)             0.0048         estimate D2E/DX2                !
 ! D3    D(10,2,3,4)             0.0018         estimate D2E/DX2                !
 ! D4    D(10,2,3,11)          179.9966         estimate D2E/DX2                !
 ! D5    D(1,2,10,6)           179.9921         estimate D2E/DX2                !
 ! D6    D(1,2,10,9)            -0.0091         estimate D2E/DX2                !
 ! D7    D(3,2,10,6)             0.0002         estimate D2E/DX2                !
 ! D8    D(3,2,10,9)           179.999          estimate D2E/DX2                !
 ! D9    D(2,3,4,5)             -0.0044         estimate D2E/DX2                !
 ! D10   D(2,3,4,12)           179.9788         estimate D2E/DX2                !
 ! D11   D(11,3,4,5)          -179.9993         estimate D2E/DX2                !
 ! D12   D(11,3,4,12)           -0.0161         estimate D2E/DX2                !
 ! D13   D(3,4,5,6)              0.0049         estimate D2E/DX2                !
 ! D14   D(3,4,5,13)           179.9965         estimate D2E/DX2                !
 ! D15   D(12,4,5,6)          -179.9781         estimate D2E/DX2                !
 ! D16   D(12,4,5,13)            0.0135         estimate D2E/DX2                !
 ! D17   D(4,5,6,7)            179.9894         estimate D2E/DX2                !
 ! D18   D(4,5,6,10)            -0.0029         estimate D2E/DX2                !
 ! D19   D(13,5,6,7)            -0.0022         estimate D2E/DX2                !
 ! D20   D(13,5,6,10)         -179.9946         estimate D2E/DX2                !
 ! D21   D(5,6,7,8)            179.9983         estimate D2E/DX2                !
 ! D22   D(5,6,7,14)             0.0307         estimate D2E/DX2                !
 ! D23   D(10,6,7,8)            -0.0085         estimate D2E/DX2                !
 ! D24   D(10,6,7,14)         -179.9761         estimate D2E/DX2                !
 ! D25   D(5,6,10,2)             0.0004         estimate D2E/DX2                !
 ! D26   D(5,6,10,9)          -179.9987         estimate D2E/DX2                !
 ! D27   D(7,6,10,2)          -179.9935         estimate D2E/DX2                !
 ! D28   D(7,6,10,9)             0.0074         estimate D2E/DX2                !
 ! D29   D(6,7,8,9)              0.0065         estimate D2E/DX2                !
 ! D30   D(6,7,8,15)           179.9949         estimate D2E/DX2                !
 ! D31   D(14,7,8,9)           179.9741         estimate D2E/DX2                !
 ! D32   D(14,7,8,15)           -0.0375         estimate D2E/DX2                !
 ! D33   D(7,8,9,10)            -0.0017         estimate D2E/DX2                !
 ! D34   D(7,8,9,16)           179.9879         estimate D2E/DX2                !
 ! D35   D(15,8,9,10)         -179.9888         estimate D2E/DX2                !
 ! D36   D(15,8,9,16)            0.0007         estimate D2E/DX2                !
 ! D37   D(8,9,10,2)           179.9976         estimate D2E/DX2                !
 ! D38   D(8,9,10,6)            -0.0035         estimate D2E/DX2                !
 ! D39   D(16,9,10,2)            0.0079         estimate D2E/DX2                !
 ! D40   D(16,9,10,6)         -179.9932         estimate D2E/DX2                !
 --------------------------------------------------------------------------------
 Trust Radius=3.00D-01 FncErr=1.00D-07 GrdErr=1.00D-06 EigMax=2.50D+02 EigMin=1.00D-04
 Number of steps in this run=     94 maximum allowed number of steps=    100.
 GradGradGradGradGradGradGradGradGradGradGradGradGradGradGradGradGradGrad

 Leave Link  103 at Tue Sep 17 09:53:48 2024, MaxMem=  1342177280 cpu:               0.1 elap:               0.0
 (Enter /groups/ReismanLab/Software/Gaussian16_RevC/Linux_Binary_AVX2-enabled-CPU/g16/l202.exe)
                          Input orientation:                          
 ---------------------------------------------------------------------
 Center     Atomic      Atomic             Coordinates (Angstroms)
 Number     Number       Type             X           Y           Z
 ---------------------------------------------------------------------
      1         35           0       -2.054908    0.237230    0.000030
      2          6           0       -0.294264   -0.491435   -0.000116
      3          6           0       -0.108553   -1.854371   -0.000083
      4          6           0        1.181742   -2.390929    0.000020
      5          6           0        2.299003   -1.584224   -0.000001
      6          6           0        2.102742   -0.208362   -0.000023
      7          7           0        2.997284    0.820187    0.000145
      8          6           0        2.317470    2.006874   -0.000002
      9          6           0        0.976632    1.775003   -0.000121
     10          6           0        0.805337    0.365096   -0.000085
     11          1           0       -0.961695   -2.515003   -0.000051
     12          1           0        1.295263   -3.464066    0.000395
     13          1           0        3.293240   -2.004666    0.000135
     14          1           0        3.998114    0.721269   -0.000119
     15          1           0        2.846371    2.940322    0.000175
     16          1           0        0.194342    2.507098   -0.000067
 ---------------------------------------------------------------------
                    Distance matrix (angstroms):
                    1          2          3          4          5
     1  Br   0.000000
     2  C    1.905471   0.000000
     3  C    2.857113   1.375530   0.000000
     4  C    4.169307   2.405550   1.397410   0.000000
     5  C    4.719559   2.814111   2.422665   1.378059   0.000000
     6  C    4.181460   2.413663   2.756660   2.368932   1.389789
     7  N    5.085714   3.543254   4.098718   3.688829   2.503755
     8  C    4.716920   3.614237   4.560132   4.542086   3.591145
     9  C    3.399262   2.598446   3.788137   4.170978   3.610134
    10  C    2.863102   1.393833   2.400256   2.781610   2.455786
    11  H    2.961402   2.130795   1.079020   2.147025   3.390944
    12  H    4.992318   3.370924   2.135841   1.079125   2.131033
    13  H    5.799033   3.893592   3.405112   2.146537   1.079481
    14  H    6.072344   4.460399   4.847539   4.197347   2.863961
    15  H    5.597253   4.651940   5.632109   5.585089   4.557535
    16  H    3.195532   3.038081   4.371974   4.996561   4.600924
                    6          7          8          9         10
     6  C    0.000000
     7  N    1.363128   0.000000
     8  C    2.225619   1.367616   0.000000
     9  C    2.280759   2.234884   1.360739   0.000000
    10  C    1.418490   2.238692   2.232035   1.420274   0.000000
    11  H    3.835540   5.176582   5.585722   4.707575   3.378960
    12  H    3.354345   4.609957   5.565617   5.248749   3.860377
    13  H    2.154993   2.840314   4.128508   4.433122   3.435904
    14  H    2.111077   1.005706   2.115973   3.199954   3.212582
    15  H    3.235304   2.125499   1.072875   2.203155   3.285971
    16  H    3.318992   3.271414   2.181260   1.071420   2.227439
                   11         12         13         14         15
    11  H    0.000000
    12  H    2.448383   0.000000
    13  H    4.285431   2.474220   0.000000
    14  H    5.922259   4.982212   2.815594   0.000000
    15  H    6.652964   6.589546   4.965138   2.500141   0.000000
    16  H    5.153437   6.071805   5.473498   4.202126   2.687181
                   16
    16  H    0.000000
 Stoichiometry    C8H6BrN
 Framework group  C1[X(C8H6BrN)]
 Deg. of freedom    42
 Full point group                 C1      NOp   1
 Largest Abelian subgroup         C1      NOp   1
 Largest concise Abelian subgroup C1      NOp   1
                         Standard orientation:                         
 ---------------------------------------------------------------------
 Center     Atomic      Atomic             Coordinates (Angstroms)
 Number     Number       Type             X           Y           Z
 ---------------------------------------------------------------------
      1         35           0        2.209201   -0.307075    0.000030
      2          6           0        0.464896    0.459881   -0.000117
      3          6           0        0.309004    1.826548   -0.000084
      4          6           0       -0.969261    2.391167    0.000019
      5          6           0       -2.103879    1.609062   -0.000002
      6          6           0       -1.937722    0.229241   -0.000024
      7          7           0       -2.854521   -0.779520    0.000144
      8          6           0       -2.200795   -1.980775   -0.000003
      9          6           0       -0.855211   -1.778252   -0.000122
     10          6           0       -0.653155   -0.372424   -0.000086
     11          1           0        1.176375    2.468384   -0.000052
     12          1           0       -1.059310    3.466528    0.000394
     13          1           0       -3.088693    2.051125    0.000134
     14          1           0       -3.852951   -0.658761   -0.000120
     15          1           0       -2.749962   -2.902445    0.000174
     16          1           0       -0.089101   -2.527262   -0.000068
 ---------------------------------------------------------------------
 Rotational constants (GHZ):           1.7852362           0.7068330           0.5063519
 Leave Link  202 at Tue Sep 17 09:53:48 2024, MaxMem=  1342177280 cpu:               0.1 elap:               0.0
 (Enter /groups/ReismanLab/Software/Gaussian16_RevC/Linux_Binary_AVX2-enabled-CPU/g16/l301.exe)
 Standard basis: 6-31G(d,p) (6D, 7F)
 Ernie: Thresh=  0.10000D-02 Tol=  0.10000D-05 Strict=F.
 There are   195 symmetry adapted cartesian basis functions of A   symmetry.
 There are   195 symmetry adapted basis functions of A   symmetry.
   195 basis functions,   377 primitive gaussians,   195 cartesian basis functions
    48 alpha electrons       48 beta electrons
       nuclear repulsion energy       711.0456917534 Hartrees.
 IExCor=  402 DFT=T Ex+Corr=B3LYP ExCW=0 ScaHFX=  0.200000
 ScaDFX=  0.800000  0.720000  1.000000  0.810000 ScalE2=  1.000000  1.000000
 IRadAn=      5 IRanWt=     -1 IRanGd=            0 ICorTp=0 IEmpDi=141
 NAtoms=   16 NActive=   16 NUniq=   16 SFac= 1.00D+00 NAtFMM=   60 NAOKFM=F Big=F
 Integral buffers will be    131072 words long.
 Raffenetti 2 integral format.
 Two-electron integral symmetry is turned on.
 R6Disp:  Grimme-D3(BJ) Dispersion energy=       -0.0351090577 Hartrees.
 Nuclear repulsion after empirical dispersion term =      711.0105826957 Hartrees.
 Leave Link  301 at Tue Sep 17 09:53:48 2024, MaxMem=  1342177280 cpu:               0.1 elap:               0.1
 (Enter /groups/ReismanLab/Software/Gaussian16_RevC/Linux_Binary_AVX2-enabled-CPU/g16/l302.exe)
 NPDir=0 NMtPBC=     1 NCelOv=     1 NCel=       1 NClECP=     1 NCelD=      1
         NCelK=      1 NCelE2=     1 NClLst=     1 CellRange=     0.0.
 One-electron integrals computed using PRISM.
 One-electron integral symmetry used in STVInt
 NBasis=   195 RedAO= T EigKep=  3.38D-04  NBF=   195
 NBsUse=   195 1.00D-06 EigRej= -1.00D+00 NBFU=   195
 Precomputing XC quadrature grid using
 IXCGrd= 4 IRadAn=           5 IRanWt=          -1 IRanGd=           0 AccXCQ= 0.00D+00.
 Generated NRdTot=       0 NPtTot=           0 NUsed=           0 NTot=          32
 NSgBfM=   195   195   195   195   195 MxSgAt=    16 MxSgA2=    16.
 Leave Link  302 at Tue Sep 17 09:53:48 2024, MaxMem=  1342177280 cpu:               0.9 elap:               0.2
 (Enter /groups/ReismanLab/Software/Gaussian16_RevC/Linux_Binary_AVX2-enabled-CPU/g16/l303.exe)
 DipDrv:  MaxL=1.
 Leave Link  303 at Tue Sep 17 09:53:49 2024, MaxMem=  1342177280 cpu:               0.1 elap:               0.1
 (Enter /groups/ReismanLab/Software/Gaussian16_RevC/Linux_Binary_AVX2-enabled-CPU/g16/l401.exe)
 ExpMin= 1.43D-01 ExpMax= 5.74D+05 ExpMxC= 5.74D+03 IAcc=3 IRadAn=         5 AccDes= 0.00D+00
 Harris functional with IExCor=  402 and IRadAn=       5 diagonalized for initial guess.
 HarFok:  IExCor=  402 AccDes= 0.00D+00 IRadAn=         5 IDoV= 1 UseB2=F ITyADJ=14
 ICtDFT=  3500011 ScaDFX=  1.000000  1.000000  1.000000  1.000000
 FoFCou: FMM=F IPFlag=           0 FMFlag=      100000 FMFlg1=           0
         NFxFlg=           0 DoJE=T BraDBF=F KetDBF=T FulRan=T
         wScrn=  0.000000 ICntrl=       500 IOpCl=  0 I1Cent=   200000004 NGrid=           0
         NMat0=    1 NMatS0=      1 NMatT0=    0 NMatD0=    1 NMtDS0=    0 NMtDT0=    0
 Petite list used in FoFCou.
 Harris En= -2935.08337613402    
 JPrj=0 DoOrth=F DoCkMO=F.
 Leave Link  401 at Tue Sep 17 09:53:49 2024, MaxMem=  1342177280 cpu:               4.0 elap:               0.6
 (Enter /groups/ReismanLab/Software/Gaussian16_RevC/Linux_Binary_AVX2-enabled-CPU/g16/l502.exe)
 Integral symmetry usage will be decided dynamically.
 Closed shell SCF:
 Using DIIS extrapolation, IDIIS=  1040.
 NGot=  1342177280 LenX=  1342097241 LenY=  1342058775
 Requested convergence on RMS density matrix=1.00D-08 within  32 cycles.
 Requested convergence on MAX density matrix=1.00D-06.
 Requested convergence on             energy=1.00D-06.
 No special actions if energy rises.
 Fock matrices will be formed incrementally for  20 cycles.
 Integral accuracy reduced to 1.0D-05 until final iterations.

 Cycle   1  Pass 0  IDiag  1:
 FoFJK:  IHMeth= 1 ICntrl=       0 DoSepK=F KAlg= 0 I1Cent=           0 FoldK=F
 IRaf= 910000000 NMat=       1 IRICut=       1 DoRegI=T DoRafI=F ISym2E= 0 IDoP0=0 IntGTp=1.
 FoFCou: FMM=F IPFlag=           0 FMFlag=      100000 FMFlg1=           0
         NFxFlg=           0 DoJE=F BraDBF=F KetDBF=F FulRan=T
         wScrn=  0.000000 ICntrl=         0 IOpCl=  0 I1Cent=           0 NGrid=           0
         NMat0=    1 NMatS0=      1 NMatT0=    0 NMatD0=    1 NMtDS0=    0 NMtDT0=    0
 Symmetry not used in FoFCou.
 E= -2934.74659893047    
 DIIS: error= 1.94D-01 at cycle   1 NSaved=   1.
 NSaved= 1 IEnMin= 1 EnMin= -2934.74659893047     IErMin= 1 ErrMin= 1.94D-01
 ErrMax= 1.94D-01  0.00D+00 EMaxC= 1.00D-01 BMatC= 5.56D-01 BMatP= 5.56D-01
 IDIUse=3 WtCom= 0.00D+00 WtEn= 1.00D+00
 Coeff-Com:  0.100D+01
 Coeff-En:   0.100D+01
 Coeff:      0.100D+01
 Gap=     0.206 Goal=   None    Shift=    0.000
 GapD=    0.206 DampG=1.000 DampE=0.250 DampFc=0.2500 IDamp=-1.
 Damping current iteration by 2.50D-01
 RMSDP=6.34D-03 MaxDP=1.46D-01              OVMax= 2.09D-01

 Cycle   2  Pass 0  IDiag  1:
 RMSU=  1.54D-03    CP:  9.91D-01
 E= -2934.82555012779     Delta-E=       -0.078951197318 Rises=F Damp=T
 DIIS: error= 1.43D-01 at cycle   2 NSaved=   2.
 NSaved= 2 IEnMin= 2 EnMin= -2934.82555012779     IErMin= 2 ErrMin= 1.43D-01
 ErrMax= 1.43D-01  0.00D+00 EMaxC= 1.00D-01 BMatC= 2.46D-01 BMatP= 5.56D-01
 IDIUse=3 WtCom= 0.00D+00 WtEn= 1.00D+00
 Coeff-Com: -0.145D+01 0.245D+01
 Coeff-En:   0.000D+00 0.100D+01
 Coeff:      0.000D+00 0.100D+01
 Gap=     0.227 Goal=   None    Shift=    0.000
 RMSDP=3.33D-03 MaxDP=1.11D-01 DE=-7.90D-02 OVMax= 1.05D-01

 Cycle   3  Pass 0  IDiag  1:
 RMSU=  1.47D-03    CP:  9.65D-01  2.77D+00
 E= -2934.92281997163     Delta-E=       -0.097269843840 Rises=F Damp=F
 DIIS: error= 1.60D-02 at cycle   3 NSaved=   3.
 NSaved= 3 IEnMin= 3 EnMin= -2934.92281997163     IErMin= 3 ErrMin= 1.60D-02
 ErrMax= 1.60D-02  0.00D+00 EMaxC= 1.00D-01 BMatC= 4.33D-02 BMatP= 2.46D-01
 IDIUse=3 WtCom= 8.40D-01 WtEn= 1.60D-01
 Coeff-Com:  0.130D+01-0.162D+01 0.132D+01
 Coeff-En:   0.107D+00 0.000D+00 0.893D+00
 Coeff:      0.111D+01-0.136D+01 0.125D+01
 Gap=     0.196 Goal=   None    Shift=    0.000
 RMSDP=1.65D-03 MaxDP=3.88D-02 DE=-9.73D-02 OVMax= 6.61D-02

 Cycle   4  Pass 0  IDiag  1:
 RMSU=  9.61D-04    CP:  9.65D-01  1.93D+00  1.24D+00
 E= -2934.95739299752     Delta-E=       -0.034573025888 Rises=F Damp=F
 DIIS: error= 6.70D-03 at cycle   4 NSaved=   4.
 NSaved= 4 IEnMin= 4 EnMin= -2934.95739299752     IErMin= 4 ErrMin= 6.70D-03
 ErrMax= 6.70D-03  0.00D+00 EMaxC= 1.00D-01 BMatC= 1.11D-02 BMatP= 4.33D-02
 IDIUse=3 WtCom= 9.33D-01 WtEn= 6.70D-02
 Coeff-Com:  0.804D+00-0.105D+01 0.773D+00 0.475D+00
 Coeff-En:   0.000D+00 0.000D+00 0.856D-01 0.914D+00
 Coeff:      0.750D+00-0.982D+00 0.727D+00 0.505D+00
 Gap=     0.196 Goal=   None    Shift=    0.000
 RMSDP=7.29D-04 MaxDP=2.14D-02 DE=-3.46D-02 OVMax= 5.97D-02

 Cycle   5  Pass 0  IDiag  1:
 RMSU=  2.21D-04    CP:  9.65D-01  2.00D+00  1.29D+00  2.90D-01
 E= -2934.96829232791     Delta-E=       -0.010899330397 Rises=F Damp=F
 DIIS: error= 2.18D-03 at cycle   5 NSaved=   5.
 NSaved= 5 IEnMin= 5 EnMin= -2934.96829232791     IErMin= 5 ErrMin= 2.18D-03
 ErrMax= 2.18D-03  0.00D+00 EMaxC= 1.00D-01 BMatC= 7.17D-04 BMatP= 1.11D-02
 IDIUse=3 WtCom= 9.78D-01 WtEn= 2.18D-02
 Coeff-Com:  0.241D+00-0.316D+00 0.249D+00 0.268D+00 0.558D+00
 Coeff-En:   0.000D+00 0.000D+00 0.000D+00 0.102D-01 0.990D+00
 Coeff:      0.236D+00-0.309D+00 0.243D+00 0.263D+00 0.567D+00
 Gap=     0.192 Goal=   None    Shift=    0.000
 RMSDP=2.04D-04 MaxDP=7.86D-03 DE=-1.09D-02 OVMax= 1.65D-02

 Cycle   6  Pass 0  IDiag  1:
 RMSU=  8.24D-05    CP:  9.65D-01  2.01D+00  1.29D+00  4.30D-01  4.29D-01
 E= -2934.96900057979     Delta-E=       -0.000708251877 Rises=F Damp=F
 DIIS: error= 6.95D-04 at cycle   6 NSaved=   6.
 NSaved= 6 IEnMin= 6 EnMin= -2934.96900057979     IErMin= 6 ErrMin= 6.95D-04
 ErrMax= 6.95D-04  0.00D+00 EMaxC= 1.00D-01 BMatC= 9.59D-05 BMatP= 7.17D-04
 IDIUse=3 WtCom= 9.93D-01 WtEn= 6.95D-03
 Coeff-Com:  0.576D-01-0.756D-01 0.655D-01 0.116D+00 0.371D+00 0.465D+00
 Coeff-En:   0.000D+00 0.000D+00 0.000D+00 0.000D+00 0.730D-01 0.927D+00
 Coeff:      0.572D-01-0.751D-01 0.650D-01 0.115D+00 0.369D+00 0.468D+00
 Gap=     0.192 Goal=   None    Shift=    0.000
 RMSDP=5.90D-05 MaxDP=1.90D-03 DE=-7.08D-04 OVMax= 4.12D-03

 Cycle   7  Pass 0  IDiag  1:
 RMSU=  2.28D-05    CP:  9.65D-01  2.01D+00  1.29D+00  4.29D-01  5.61D-01
                    CP:  4.44D-01
 E= -2934.96910297436     Delta-E=       -0.000102394572 Rises=F Damp=F
 DIIS: error= 6.98D-05 at cycle   7 NSaved=   7.
 NSaved= 7 IEnMin= 7 EnMin= -2934.96910297436     IErMin= 7 ErrMin= 6.98D-05
 ErrMax= 6.98D-05  0.00D+00 EMaxC= 1.00D-01 BMatC= 2.41D-06 BMatP= 9.59D-05
 IDIUse=1 WtCom= 1.00D+00 WtEn= 0.00D+00
 Coeff-Com:  0.165D-01-0.218D-01 0.197D-01 0.434D-01 0.151D+00 0.230D+00
 Coeff-Com:  0.561D+00
 Coeff:      0.165D-01-0.218D-01 0.197D-01 0.434D-01 0.151D+00 0.230D+00
 Coeff:      0.561D+00
 Gap=     0.192 Goal=   None    Shift=    0.000
 RMSDP=1.13D-05 MaxDP=3.23D-04 DE=-1.02D-04 OVMax= 6.13D-04

 Cycle   8  Pass 0  IDiag  1:
 RMSU=  6.18D-06    CP:  9.65D-01  2.01D+00  1.29D+00  4.27D-01  5.65D-01
                    CP:  4.93D-01  6.56D-01
 E= -2934.96910523371     Delta-E=       -0.000002259345 Rises=F Damp=F
 DIIS: error= 3.94D-05 at cycle   8 NSaved=   8.
 NSaved= 8 IEnMin= 8 EnMin= -2934.96910523371     IErMin= 8 ErrMin= 3.94D-05
 ErrMax= 3.94D-05  0.00D+00 EMaxC= 1.00D-01 BMatC= 2.94D-07 BMatP= 2.41D-06
 IDIUse=1 WtCom= 1.00D+00 WtEn= 0.00D+00
 Coeff-Com:  0.224D-02-0.297D-02 0.313D-02 0.114D-01 0.443D-01 0.795D-01
 Coeff-Com:  0.308D+00 0.554D+00
 Coeff:      0.224D-02-0.297D-02 0.313D-02 0.114D-01 0.443D-01 0.795D-01
 Coeff:      0.308D+00 0.554D+00
 Gap=     0.192 Goal=   None    Shift=    0.000
 RMSDP=3.80D-06 MaxDP=1.29D-04 DE=-2.26D-06 OVMax= 2.27D-04

 Initial convergence to 1.0D-05 achieved.  Increase integral accuracy.
 Cycle   9  Pass 1  IDiag  1:
 E= -2934.96908437188     Delta-E=        0.000020861826 Rises=F Damp=F
 DIIS: error= 3.90D-05 at cycle   1 NSaved=   1.
 NSaved= 1 IEnMin= 1 EnMin= -2934.96908437188     IErMin= 1 ErrMin= 3.90D-05
 ErrMax= 3.90D-05  0.00D+00 EMaxC= 1.00D-01 BMatC= 1.22D-07 BMatP= 1.22D-07
 IDIUse=1 WtCom= 1.00D+00 WtEn= 0.00D+00
 Coeff-Com:  0.100D+01
 Coeff:      0.100D+01
 Gap=     0.192 Goal=   None    Shift=    0.000
 RMSDP=3.80D-06 MaxDP=1.29D-04 DE= 2.09D-05 OVMax= 1.57D-04

 Cycle  10  Pass 1  IDiag  1:
 RMSU=  1.08D-05    CP:  1.00D+00
 E= -2934.96908438182     Delta-E=       -0.000000009941 Rises=F Damp=F
 DIIS: error= 2.40D-05 at cycle   2 NSaved=   2.
 NSaved= 2 IEnMin= 2 EnMin= -2934.96908438182     IErMin= 2 ErrMin= 2.40D-05
 ErrMax= 2.40D-05  0.00D+00 EMaxC= 1.00D-01 BMatC= 6.66D-08 BMatP= 1.22D-07
 IDIUse=1 WtCom= 1.00D+00 WtEn= 0.00D+00
 Coeff-Com:  0.394D+00 0.606D+00
 Coeff:      0.394D+00 0.606D+00
 Gap=     0.192 Goal=   None    Shift=    0.000
 RMSDP=2.63D-06 MaxDP=7.54D-05 DE=-9.94D-09 OVMax= 1.83D-04

 Cycle  11  Pass 1  IDiag  1:
 RMSU=  2.60D-06    CP:  1.00D+00  9.64D-01
 E= -2934.96908441310     Delta-E=       -0.000000031275 Rises=F Damp=F
 DIIS: error= 1.84D-05 at cycle   3 NSaved=   3.
 NSaved= 3 IEnMin= 3 EnMin= -2934.96908441310     IErMin= 3 ErrMin= 1.84D-05
 ErrMax= 1.84D-05  0.00D+00 EMaxC= 1.00D-01 BMatC= 3.68D-08 BMatP= 6.66D-08
 IDIUse=1 WtCom= 1.00D+00 WtEn= 0.00D+00
 Coeff-Com:  0.151D-01 0.424D+00 0.561D+00
 Coeff:      0.151D-01 0.424D+00 0.561D+00
 Gap=     0.192 Goal=   None    Shift=    0.000
 RMSDP=1.17D-06 MaxDP=2.93D-05 DE=-3.13D-08 OVMax= 8.24D-05

 Cycle  12  Pass 1  IDiag  1:
 RMSU=  4.19D-07    CP:  1.00D+00  9.90D-01  5.93D-01
 E= -2934.96908445216     Delta-E=       -0.000000039057 Rises=F Damp=F
 DIIS: error= 1.85D-06 at cycle   4 NSaved=   4.
 NSaved= 4 IEnMin= 4 EnMin= -2934.96908445216     IErMin= 4 ErrMin= 1.85D-06
 ErrMax= 1.85D-06  0.00D+00 EMaxC= 1.00D-01 BMatC= 8.47D-10 BMatP= 3.68D-08
 IDIUse=1 WtCom= 1.00D+00 WtEn= 0.00D+00
 Coeff-Com: -0.154D-02 0.216D+00 0.306D+00 0.479D+00
 Coeff:     -0.154D-02 0.216D+00 0.306D+00 0.479D+00
 Gap=     0.192 Goal=   None    Shift=    0.000
 RMSDP=2.15D-07 MaxDP=5.73D-06 DE=-3.91D-08 OVMax= 1.23D-05

 Cycle  13  Pass 1  IDiag  1:
 RMSU=  8.28D-08    CP:  1.00D+00  9.90D-01  6.01D-01  5.31D-01
 E= -2934.96908445308     Delta-E=       -0.000000000922 Rises=F Damp=F
 DIIS: error= 5.19D-07 at cycle   5 NSaved=   5.
 NSaved= 5 IEnMin= 5 EnMin= -2934.96908445308     IErMin= 5 ErrMin= 5.19D-07
 ErrMax= 5.19D-07  0.00D+00 EMaxC= 1.00D-01 BMatC= 4.53D-11 BMatP= 8.47D-10
 IDIUse=1 WtCom= 1.00D+00 WtEn= 0.00D+00
 Coeff-Com: -0.151D-02 0.110D+00 0.158D+00 0.286D+00 0.448D+00
 Coeff:     -0.151D-02 0.110D+00 0.158D+00 0.286D+00 0.448D+00
 Gap=     0.192 Goal=   None    Shift=    0.000
 RMSDP=4.74D-08 MaxDP=1.07D-06 DE=-9.22D-10 OVMax= 3.37D-06

 Cycle  14  Pass 1  IDiag  1:
 RMSU=  3.10D-08    CP:  1.00D+00  9.90D-01  5.98D-01  5.28D-01  5.78D-01
 E= -2934.96908445310     Delta-E=       -0.000000000020 Rises=F Damp=F
 DIIS: error= 1.05D-07 at cycle   6 NSaved=   6.
 NSaved= 6 IEnMin= 6 EnMin= -2934.96908445310     IErMin= 6 ErrMin= 1.05D-07
 ErrMax= 1.05D-07  0.00D+00 EMaxC= 1.00D-01 BMatC= 1.46D-12 BMatP= 4.53D-11
 IDIUse=1 WtCom= 1.00D+00 WtEn= 0.00D+00
 Coeff-Com: -0.707D-03 0.460D-01 0.664D-01 0.125D+00 0.230D+00 0.534D+00
 Coeff:     -0.707D-03 0.460D-01 0.664D-01 0.125D+00 0.230D+00 0.534D+00
 Gap=     0.192 Goal=   None    Shift=    0.000
 RMSDP=1.01D-08 MaxDP=3.70D-07 DE=-2.05D-11 OVMax= 7.46D-07

 Cycle  15  Pass 1  IDiag  1:
 RMSU=  8.15D-09    CP:  1.00D+00  9.90D-01  5.98D-01  5.33D-01  6.17D-01
                    CP:  8.53D-01
 E= -2934.96908445310     Delta-E=        0.000000000000 Rises=F Damp=F
 DIIS: error= 3.94D-08 at cycle   7 NSaved=   7.
 NSaved= 7 IEnMin= 6 EnMin= -2934.96908445310     IErMin= 7 ErrMin= 3.94D-08
 ErrMax= 3.94D-08  0.00D+00 EMaxC= 1.00D-01 BMatC= 3.22D-13 BMatP= 1.46D-12
 IDIUse=1 WtCom= 1.00D+00 WtEn= 0.00D+00
 Coeff-Com: -0.933D-04 0.401D-02 0.600D-02 0.148D-01 0.428D-01 0.326D+00
 Coeff-Com:  0.607D+00
 Coeff:     -0.933D-04 0.401D-02 0.600D-02 0.148D-01 0.428D-01 0.326D+00
 Coeff:      0.607D+00
 Gap=     0.192 Goal=   None    Shift=    0.000
 RMSDP=4.28D-09 MaxDP=1.23D-07 DE= 0.00D+00 OVMax= 3.67D-07

 SCF Done:  E(RB3LYP) =  -2934.96908445     A.U. after   15 cycles
            NFock= 15  Conv=0.43D-08     -V/T= 2.0065
 KE= 2.916036257002D+03 PE=-8.398267954438D+03 EE= 1.836252030287D+03
 Leave Link  502 at Tue Sep 17 09:53:59 2024, MaxMem=  1342177280 cpu:              70.4 elap:               9.8
 (Enter /groups/ReismanLab/Software/Gaussian16_RevC/Linux_Binary_AVX2-enabled-CPU/g16/l508.exe)
 QCSCF skips out because SCF is already converged.
 Leave Link  508 at Tue Sep 17 09:53:59 2024, MaxMem=  1342177280 cpu:               0.0 elap:               0.0
 (Enter /groups/ReismanLab/Software/Gaussian16_RevC/Linux_Binary_AVX2-enabled-CPU/g16/l601.exe)
 Copying SCF densities to generalized density rwf, IOpCl= 0 IROHF=0.

 **********************************************************************

            Population analysis using the SCF Density.

 **********************************************************************

 Orbital symmetries:
       Occupied  (A) (A) (A) (A) (A) (A) (A) (A) (A) (A) (A) (A)
                 (A) (A) (A) (A) (A) (A) (A) (A) (A) (A) (A) (A)
                 (A) (A) (A) (A) (A) (A) (A) (A) (A) (A) (A) (A)
                 (A) (A) (A) (A) (A) (A) (A) (A) (A) (A) (A) (A)
       Virtual   (A) (A) (A) (A) (A) (A) (A) (A) (A) (A) (A) (A)
                 (A) (A) (A) (A) (A) (A) (A) (A) (A) (A) (A) (A)
                 (A) (A) (A) (A) (A) (A) (A) (A) (A) (A) (A) (A)
                 (A) (A) (A) (A) (A) (A) (A) (A) (A) (A) (A) (A)
                 (A) (A) (A) (A) (A) (A) (A) (A) (A) (A) (A) (A)
                 (A) (A) (A) (A) (A) (A) (A) (A) (A) (A) (A) (A)
                 (A) (A) (A) (A) (A) (A) (A) (A) (A) (A) (A) (A)
                 (A) (A) (A) (A) (A) (A) (A) (A) (A) (A) (A) (A)
                 (A) (A) (A) (A) (A) (A) (A) (A) (A) (A) (A) (A)
                 (A) (A) (A) (A) (A) (A) (A) (A) (A) (A) (A) (A)
                 (A) (A) (A) (A) (A) (A) (A) (A) (A) (A) (A) (A)
                 (A) (A) (A) (A) (A) (A) (A) (A) (A) (A) (A) (A)
                 (A) (A) (A)
 The electronic state is 1-A.
 Alpha  occ. eigenvalues -- -482.90116 -61.86261 -56.38387 -56.37979 -56.37964
 Alpha  occ. eigenvalues --  -14.38635 -10.23303 -10.22286 -10.22173 -10.19060
 Alpha  occ. eigenvalues --  -10.18911 -10.18725 -10.18457 -10.17504  -8.57366
 Alpha  occ. eigenvalues --   -6.52742  -6.51490  -6.51465  -2.64317  -2.63958
 Alpha  occ. eigenvalues --   -2.63940  -2.62941  -2.62941  -0.99317  -0.85936
 Alpha  occ. eigenvalues --   -0.79904  -0.77673  -0.73605  -0.70645  -0.62832
 Alpha  occ. eigenvalues --   -0.60374  -0.58885  -0.53200  -0.48912  -0.47935
 Alpha  occ. eigenvalues --   -0.44820  -0.43151  -0.42219  -0.41528  -0.39684
 Alpha  occ. eigenvalues --   -0.36823  -0.35588  -0.34035  -0.30553  -0.27669
 Alpha  occ. eigenvalues --   -0.26415  -0.22842  -0.20564
 Alpha virt. eigenvalues --   -0.01398   0.02212   0.02315   0.07035   0.07326
 Alpha virt. eigenvalues --    0.11556   0.13583   0.16199   0.17010   0.17824
 Alpha virt. eigenvalues --    0.18591   0.21669   0.24757   0.25749   0.27306
 Alpha virt. eigenvalues --    0.31150   0.33585   0.34304   0.37335   0.41360
 Alpha virt. eigenvalues --    0.44230   0.47314   0.47389   0.47496   0.49154
 Alpha virt. eigenvalues --    0.49820   0.50141   0.51882   0.53570   0.54633
 Alpha virt. eigenvalues --    0.55532   0.56173   0.58101   0.59687   0.60682
 Alpha virt. eigenvalues --    0.61726   0.62237   0.63435   0.63786   0.64634
 Alpha virt. eigenvalues --    0.65413   0.70990   0.73067   0.74165   0.79268
 Alpha virt. eigenvalues --    0.79502   0.80113   0.81315   0.82912   0.83561
 Alpha virt. eigenvalues --    0.85057   0.85267   0.87251   0.88987   0.92956
 Alpha virt. eigenvalues --    0.94111   0.96882   0.99572   1.04738   1.07396
 Alpha virt. eigenvalues --    1.10779   1.13647   1.20433   1.20970   1.21598
 Alpha virt. eigenvalues --    1.25451   1.29283   1.32731   1.34111   1.35779
 Alpha virt. eigenvalues --    1.37970   1.39418   1.42026   1.43287   1.45238
 Alpha virt. eigenvalues --    1.48430   1.53838   1.55383   1.59212   1.62158
 Alpha virt. eigenvalues --    1.73826   1.78751   1.81753   1.83866   1.85472
 Alpha virt. eigenvalues --    1.89368   1.90361   1.91782   1.93635   1.95380
 Alpha virt. eigenvalues --    2.00879   2.00933   2.04449   2.05373   2.07847
 Alpha virt. eigenvalues --    2.09154   2.16232   2.17445   2.20640   2.24035
 Alpha virt. eigenvalues --    2.27687   2.29706   2.31220   2.38671   2.39622
 Alpha virt. eigenvalues --    2.41395   2.41524   2.45719   2.46924   2.48312
 Alpha virt. eigenvalues --    2.52041   2.52047   2.52714   2.55762   2.57289
 Alpha virt. eigenvalues --    2.59938   2.67099   2.70486   2.71186   2.74484
 Alpha virt. eigenvalues --    2.75457   2.79030   2.83418   2.89795   2.96360
 Alpha virt. eigenvalues --    3.02996   3.05437   3.17688   3.22078   3.25680
 Alpha virt. eigenvalues --    3.27164   3.34736   3.41456   3.55017   3.77624
 Alpha virt. eigenvalues --    3.81738   4.08652   4.13789   4.14505   4.19498
 Alpha virt. eigenvalues --    4.30832   4.40489   4.49536   4.72374   4.86802
 Alpha virt. eigenvalues --    8.62945  73.04719
          Condensed to atoms (all electrons):
               1          2          3          4          5          6
     1  Br  35.006868   0.265840  -0.070999   0.005639   0.000052   0.006196
     2  C    0.265840   5.072850   0.485646  -0.011894  -0.062900  -0.033156
     3  C   -0.070999   0.485646   4.939343   0.491058  -0.030130  -0.054229
     4  C    0.005639  -0.011894   0.491058   4.836640   0.527588   0.006224
     5  C    0.000052  -0.062900  -0.030130   0.527588   4.991500   0.474440
     6  C    0.006196  -0.033156  -0.054229   0.006224   0.474440   4.791435
     7  N   -0.000134   0.013067   0.000094   0.005219  -0.095021   0.263589
     8  C    0.000100   0.013151  -0.000394  -0.000010   0.004179  -0.114275
     9  C   -0.007708  -0.118517   0.010206  -0.000897   0.017143  -0.035966
    10  C   -0.067345   0.424252  -0.006252  -0.044127  -0.057240   0.460527
    11  H   -0.002878  -0.039451   0.369609  -0.038666   0.005142   0.000698
    12  H   -0.000161   0.004148  -0.036131   0.365627  -0.035887   0.002433
    13  H    0.000010   0.000927   0.004322  -0.037440   0.356894  -0.037793
    14  H    0.000004  -0.000058  -0.000013  -0.000034  -0.005319  -0.032159
    15  H   -0.000002  -0.000235   0.000005   0.000001  -0.000151   0.006564
    16  H    0.008027  -0.008832  -0.000075   0.000006  -0.000200   0.007616
               7          8          9         10         11         12
     1  Br  -0.000134   0.000100  -0.007708  -0.067345  -0.002878  -0.000161
     2  C    0.013067   0.013151  -0.118517   0.424252  -0.039451   0.004148
     3  C    0.000094  -0.000394   0.010206  -0.006252   0.369609  -0.036131
     4  C    0.005219  -0.000010  -0.000897  -0.044127  -0.038666   0.365627
     5  C   -0.095021   0.004179   0.017143  -0.057240   0.005142  -0.035887
     6  C    0.263589  -0.114275  -0.035966   0.460527   0.000698   0.002433
     7  N    6.872909   0.349891  -0.074780  -0.045356   0.000003  -0.000139
     8  C    0.349891   4.830734   0.531666  -0.000612   0.000005   0.000002
     9  C   -0.074780   0.531666   5.031074   0.445274  -0.000159   0.000015
    10  C   -0.045356  -0.000612   0.445274   4.817455   0.003965   0.001409
    11  H    0.000003   0.000005  -0.000159   0.003965   0.612518  -0.006464
    12  H   -0.000139   0.000002   0.000015   0.001409  -0.006464   0.624900
    13  H   -0.006159   0.000037  -0.000354   0.004620  -0.000180  -0.005839
    14  H    0.361557  -0.033387   0.004812   0.007252  -0.000000  -0.000001
    15  H   -0.047961   0.375691  -0.028836   0.001523  -0.000000  -0.000000
    16  H    0.004322  -0.051525   0.378441  -0.030020  -0.000001   0.000000
              13         14         15         16
     1  Br   0.000010   0.000004  -0.000002   0.008027
     2  C    0.000927  -0.000058  -0.000235  -0.008832
     3  C    0.004322  -0.000013   0.000005  -0.000075
     4  C   -0.037440  -0.000034   0.000001   0.000006
     5  C    0.356894  -0.005319  -0.000151  -0.000200
     6  C   -0.037793  -0.032159   0.006564   0.007616
     7  N   -0.006159   0.361557  -0.047961   0.004322
     8  C    0.000037  -0.033387   0.375691  -0.051525
     9  C   -0.000354   0.004812  -0.028836   0.378441
    10  C    0.004620   0.007252   0.001523  -0.030020
    11  H   -0.000180  -0.000000  -0.000000  -0.000001
    12  H   -0.005839  -0.000001  -0.000000   0.000000
    13  H    0.639861   0.002649   0.000003   0.000002
    14  H    0.002649   0.435194  -0.002625  -0.000102
    15  H    0.000003  -0.002625   0.588539  -0.001144
    16  H    0.000002  -0.000102  -0.001144   0.594064
 Mulliken charges:
               1
     1  Br  -0.143510
     2  C   -0.004839
     3  C   -0.102061
     4  C   -0.104934
     5  C   -0.090089
     6  C    0.287854
     7  N   -0.601101
     8  C    0.094748
     9  C   -0.151414
    10  C    0.084675
    11  H    0.095860
    12  H    0.086090
    13  H    0.078441
    14  H    0.262230
    15  H    0.108628
    16  H    0.099421
 Sum of Mulliken charges =  -0.00000
 Mulliken charges with hydrogens summed into heavy atoms:
               1
     1  Br  -0.143510
     2  C   -0.004839
     3  C   -0.006200
     4  C   -0.018844
     5  C   -0.011648
     6  C    0.287854
     7  N   -0.338871
     8  C    0.203376
     9  C   -0.051993
    10  C    0.084675
 Electronic spatial extent (au):  <R**2>=           1980.0595
 Charge=             -0.0000 electrons
 Dipole moment (field-independent basis, Debye):
    X=             -3.8455    Y=             -0.2317    Z=              0.0001  Tot=              3.8525
 Quadrupole moment (field-independent basis, Debye-Ang):
   XX=            -54.7411   YY=            -62.3377   ZZ=            -73.3555
   XY=              2.6100   XZ=              0.0008   YZ=              0.0008
 Traceless Quadrupole moment (field-independent basis, Debye-Ang):
   XX=              8.7370   YY=              1.1404   ZZ=             -9.8774
   XY=              2.6100   XZ=              0.0008   YZ=              0.0008
 Octapole moment (field-independent basis, Debye-Ang**2):
  XXX=              0.9461  YYY=            -11.0652  ZZZ=              0.0020  XYY=             13.0366
  XXY=            -15.3818  XXZ=             -0.0023  XZZ=             26.0666  YZZ=             -4.7668
  YYZ=              0.0061  XYZ=             -0.0015
 Hexadecapole moment (field-independent basis, Debye-Ang**3):
 XXXX=          -1165.0166 YYYY=           -762.8801 ZZZZ=            -76.6283 XXXY=             14.1253
 XXXZ=              0.0217 YYYX=              1.1587 YYYZ=              0.0077 ZZZX=              0.0041
 ZZZY=             -0.0019 XXYY=           -341.7766 XXZZ=           -271.6119 YYZZ=           -168.7682
 XXYZ=              0.0017 YYXZ=             -0.0076 ZZXY=             -6.3449
 N-N= 7.110105826957D+02 E-N=-8.398267954872D+03  KE= 2.916036257002D+03
 No NMR shielding tensors so no spin-rotation constants.
 Leave Link  601 at Tue Sep 17 09:53:59 2024, MaxMem=  1342177280 cpu:               0.6 elap:               0.1
 (Enter /groups/ReismanLab/Software/Gaussian16_RevC/Linux_Binary_AVX2-enabled-CPU/g16/l701.exe)
 ... and contract with generalized density number  0.
 Compute integral first derivatives.
 R6Disp: Adding Grimme-D3(BJ) dispersion energy 1st derivatives to the gradient.
 Leave Link  701 at Tue Sep 17 09:53:59 2024, MaxMem=  1342177280 cpu:               0.6 elap:               0.1
 (Enter /groups/ReismanLab/Software/Gaussian16_RevC/Linux_Binary_AVX2-enabled-CPU/g16/l702.exe)
 L702 exits ... SP integral derivatives will be done elsewhere.
 Leave Link  702 at Tue Sep 17 09:53:59 2024, MaxMem=  1342177280 cpu:               0.0 elap:               0.0
 (Enter /groups/ReismanLab/Software/Gaussian16_RevC/Linux_Binary_AVX2-enabled-CPU/g16/l703.exe)
 Integral derivatives from FoFJK, PRISM(SPDF).
 Compute integral first derivatives, UseDBF=F ICtDFT=           0.
 Calling FoFJK, ICntrl=      2127 FMM=F ISym2X=0 I1Cent= 0 IOpClX= 0 NMat=1 NMatS=1 NMatT=0.
 FoFJK:  IHMeth= 1 ICntrl=    2127 DoSepK=F KAlg= 0 I1Cent=           0 FoldK=F
 IRaf=         0 NMat=       1 IRICut=       1 DoRegI=T DoRafI=F ISym2E= 0 IDoP0=0 IntGTp=1.
 FoFCou: FMM=F IPFlag=           0 FMFlag=      100000 FMFlg1=         800
         NFxFlg=           0 DoJE=F BraDBF=F KetDBF=F FulRan=T
         wScrn=  0.000000 ICntrl=      2127 IOpCl=  0 I1Cent=           0 NGrid=           0
         NMat0=    1 NMatS0=      1 NMatT0=    0 NMatD0=    1 NMtDS0=    0 NMtDT0=    0
 Symmetry not used in FoFCou.
 Leave Link  703 at Tue Sep 17 09:54:02 2024, MaxMem=  1342177280 cpu:              20.4 elap:               2.6
 (Enter /groups/ReismanLab/Software/Gaussian16_RevC/Linux_Binary_AVX2-enabled-CPU/g16/l716.exe)
 Dipole        =-1.51295581D+00-9.11388176D-02 4.02264407D-05
 ***** Axes restored to original set *****
 -------------------------------------------------------------------
 Center     Atomic                   Forces (Hartrees/Bohr)
 Number     Number              X              Y              Z
 -------------------------------------------------------------------
      1       35          -0.001305511    0.001195613   -0.000004425
      2        6          -0.002936598    0.001873432    0.000003096
      3        6          -0.007559305   -0.004701470    0.000003959
      4        6           0.000575699   -0.005443041    0.000008996
      5        6           0.007629443   -0.000447665    0.000007613
      6        6          -0.005472024   -0.010676989    0.000002354
      7        7           0.013040588   -0.001057501   -0.000011995
      8        6           0.001893331    0.014137071    0.000008162
      9        6          -0.005601543    0.003731712    0.000008722
     10        6          -0.002036717    0.000782834   -0.000010896
     11        1          -0.003041815   -0.001600496    0.000001586
     12        1           0.000850912   -0.004232726   -0.000013622
     13        1           0.004011962   -0.002132534    0.000000750
     14        1           0.000552644   -0.000183455    0.000002741
     15        1           0.003065231    0.004539074   -0.000004123
     16        1          -0.003666297    0.004216141   -0.000002917
 -------------------------------------------------------------------
 Cartesian Forces:  Max     0.014137071 RMS     0.004243026
 Leave Link  716 at Tue Sep 17 09:54:02 2024, MaxMem=  1342177280 cpu:               0.0 elap:               0.0
 (Enter /groups/ReismanLab/Software/Gaussian16_RevC/Linux_Binary_AVX2-enabled-CPU/g16/l103.exe)

 GradGradGradGradGradGradGradGradGradGradGradGradGradGradGradGradGradGrad
 Berny optimization.
 FormGI is forming the generalized inverse of G from B-inverse, IUseBI=4.
 Internal  Forces:  Max     0.015257418 RMS     0.004129955
 Search for a local minimum.
 Step number   1 out of a maximum of   94
 All quantities printed in internal units (Hartrees-Bohrs-Radians)
 RMS Force = .41300D-02 SwitMx=.10000D-02 MixMth= 1
 Mixed Optimization -- RFO/linear search
 Second derivative matrix not updated -- first step.
 ITU=  0
     Eigenvalues ---    0.01956   0.02034   0.02101   0.02150   0.02191
     Eigenvalues ---    0.02209   0.02236   0.02262   0.02267   0.02296
     Eigenvalues ---    0.02308   0.02334   0.02424   0.16000   0.16000
     Eigenvalues ---    0.16000   0.16000   0.16000   0.16000   0.17986
     Eigenvalues ---    0.22074   0.22268   0.23511   0.24175   0.24925
     Eigenvalues ---    0.25000   0.36057   0.36100   0.36113   0.36869
     Eigenvalues ---    0.37051   0.37267   0.39868   0.43650   0.44487
     Eigenvalues ---    0.46699   0.46769   0.48474   0.48671   0.49125
     Eigenvalues ---    0.49343   0.52414
 RFO step:  Lambda=-3.13393152D-03 EMin= 1.95601846D-02
 Linear search not attempted -- first point.
 Iteration  1 RMS(Cart)=  0.01702041 RMS(Int)=  0.00003147
 Iteration  2 RMS(Cart)=  0.00003966 RMS(Int)=  0.00000324
 Iteration  3 RMS(Cart)=  0.00000000 RMS(Int)=  0.00000324
 ITry= 1 IFail=0 DXMaxC= 6.09D-02 DCOld= 1.00D+10 DXMaxT= 3.00D-01 DXLimC= 3.00D+00 Rises=F
 Variable       Old X    -DE/DX   Delta X   Delta X   Delta X     New X
                                 (Linear)    (Quad)   (Total)
    R1        3.60082   0.00166   0.00000   0.00909   0.00909   3.60991
    R2        2.59937   0.00975   0.00000   0.01956   0.01956   2.61893
    R3        2.63396   0.00782   0.00000   0.01616   0.01616   2.65012
    R4        2.64072   0.01083   0.00000   0.02402   0.02403   2.66475
    R5        2.03905   0.00338   0.00000   0.00929   0.00929   2.04835
    R6        2.60415   0.01071   0.00000   0.02199   0.02200   2.62615
    R7        2.03925   0.00430   0.00000   0.01181   0.01181   2.05106
    R8        2.62632   0.00898   0.00000   0.01868   0.01868   2.64500
    R9        2.03992   0.00453   0.00000   0.01244   0.01244   2.05237
   R10        2.57594   0.01526   0.00000   0.02940   0.02940   2.60534
   R11        2.68056   0.00795   0.00000   0.01659   0.01657   2.69713
   R12        2.58442   0.01478   0.00000   0.02981   0.02981   2.61423
   R13        1.90051   0.00057   0.00000   0.00121   0.00121   1.90172
   R14        2.57142   0.01072   0.00000   0.02058   0.02059   2.59201
   R15        2.02744   0.00546   0.00000   0.01468   0.01468   2.04212
   R16        2.68393   0.01253   0.00000   0.02811   0.02811   2.71204
   R17        2.02469   0.00556   0.00000   0.01488   0.01488   2.03957
    A1        2.09862  -0.00021   0.00000  -0.00035  -0.00035   2.09827
    A2        2.08742  -0.00239   0.00000  -0.00896  -0.00895   2.07847
    A3        2.09714   0.00259   0.00000   0.00931   0.00930   2.10645
    A4        2.10031  -0.00147   0.00000  -0.00525  -0.00524   2.09506
    A5        2.09428   0.00013   0.00000  -0.00110  -0.00110   2.09317
    A6        2.08860   0.00134   0.00000   0.00635   0.00635   2.09495
    A7        2.12214  -0.00051   0.00000  -0.00023  -0.00022   2.12192
    A8        2.07028   0.00066   0.00000   0.00262   0.00262   2.07290
    A9        2.09077  -0.00015   0.00000  -0.00240  -0.00240   2.08837
   A10        2.05447  -0.00089   0.00000  -0.00360  -0.00360   2.05087
   A11        2.11616   0.00004   0.00000  -0.00071  -0.00071   2.11545
   A12        2.11256   0.00085   0.00000   0.00431   0.00431   2.11687
   A13        2.28408   0.00003   0.00000   0.00181   0.00182   2.28589
   A14        2.12867   0.00243   0.00000   0.00859   0.00859   2.13726
   A15        1.87044  -0.00246   0.00000  -0.01040  -0.01040   1.86004
   A16        1.90554   0.00178   0.00000   0.01084   0.01085   1.91638
   A17        2.18811  -0.00101   0.00000  -0.00617  -0.00617   2.18194
   A18        2.18954  -0.00077   0.00000  -0.00468  -0.00468   2.18486
   A19        1.91979  -0.00300   0.00000  -0.01063  -0.01062   1.90917
   A20        2.10586   0.00106   0.00000   0.00265   0.00265   2.10850
   A21        2.25754   0.00193   0.00000   0.00798   0.00797   2.26551
   A22        1.86293   0.00111   0.00000   0.00314   0.00314   1.86607
   A23        2.21809  -0.00114   0.00000  -0.00512  -0.00512   2.21297
   A24        2.20216   0.00002   0.00000   0.00199   0.00198   2.20414
   A25        2.06364  -0.00215   0.00000  -0.00882  -0.00882   2.05481
   A26        2.35347  -0.00041   0.00000   0.00178   0.00179   2.35526
   A27        1.86608   0.00256   0.00000   0.00704   0.00704   1.87312
    D1       -3.14142  -0.00000   0.00000  -0.00018  -0.00018   3.14158
    D2        0.00008  -0.00000   0.00000  -0.00006  -0.00006   0.00003
    D3        0.00003  -0.00000   0.00000  -0.00002  -0.00002   0.00001
    D4        3.14153   0.00000   0.00000   0.00011   0.00011  -3.14154
    D5        3.14145   0.00000   0.00000   0.00014   0.00014  -3.14159
    D6       -0.00016   0.00000   0.00000   0.00017   0.00017   0.00001
    D7        0.00000  -0.00000   0.00000  -0.00003  -0.00003  -0.00002
    D8        3.14158   0.00000   0.00000   0.00001   0.00001   3.14158
    D9       -0.00008   0.00000   0.00000   0.00010   0.00010   0.00002
   D10        3.14122   0.00001   0.00000   0.00033   0.00033   3.14155
   D11       -3.14158  -0.00000   0.00000  -0.00003  -0.00003   3.14158
   D12       -0.00028   0.00001   0.00000   0.00020   0.00020  -0.00008
   D13        0.00008  -0.00000   0.00000  -0.00013  -0.00013  -0.00004
   D14        3.14153   0.00000   0.00000   0.00007   0.00007  -3.14159
   D15       -3.14121  -0.00001   0.00000  -0.00036  -0.00036  -3.14157
   D16        0.00024  -0.00000   0.00000  -0.00016  -0.00016   0.00007
   D17        3.14141   0.00001   0.00000   0.00021   0.00021  -3.14156
   D18       -0.00005   0.00000   0.00000   0.00008   0.00008   0.00003
   D19       -0.00004   0.00000   0.00000   0.00002   0.00002  -0.00002
   D20       -3.14150  -0.00000   0.00000  -0.00011  -0.00011   3.14158
   D21        3.14156   0.00000   0.00000   0.00001   0.00001   3.14158
   D22        0.00054  -0.00000   0.00000  -0.00008  -0.00008   0.00045
   D23       -0.00015   0.00000   0.00000   0.00013   0.00013  -0.00002
   D24       -3.14118   0.00000   0.00000   0.00003   0.00003  -3.14114
   D25        0.00001  -0.00000   0.00000  -0.00001  -0.00001   0.00000
   D26       -3.14157  -0.00000   0.00000  -0.00003  -0.00003   3.14158
   D27       -3.14148  -0.00000   0.00000  -0.00011  -0.00011  -3.14159
   D28        0.00013  -0.00000   0.00000  -0.00014  -0.00014  -0.00001
   D29        0.00011  -0.00000   0.00000  -0.00008  -0.00008   0.00004
   D30        3.14150   0.00000   0.00000   0.00003   0.00003   3.14154
   D31        3.14114   0.00000   0.00000   0.00002   0.00002   3.14116
   D32       -0.00065   0.00000   0.00000   0.00013   0.00013  -0.00052
   D33       -0.00003  -0.00000   0.00000  -0.00001  -0.00001  -0.00004
   D34        3.14138   0.00000   0.00000   0.00012   0.00012   3.14150
   D35       -3.14140  -0.00000   0.00000  -0.00013  -0.00013  -3.14153
   D36        0.00001  -0.00000   0.00000  -0.00001  -0.00001   0.00001
   D37        3.14155   0.00000   0.00000   0.00006   0.00006  -3.14157
   D38       -0.00006   0.00000   0.00000   0.00009   0.00009   0.00003
   D39        0.00014  -0.00000   0.00000  -0.00007  -0.00007   0.00007
   D40       -3.14147  -0.00000   0.00000  -0.00003  -0.00003  -3.14151
         Item               Value     Threshold  Converged?
 Maximum Force            0.015257     0.000450     NO 
 RMS     Force            0.004130     0.000300     NO 
 Maximum Displacement     0.060892     0.001800     NO 
 RMS     Displacement     0.017022     0.001200     NO 
 Predicted change in Energy=-1.578178D-03
 Lowest energy point so far.  Saving SCF results.
 GradGradGradGradGradGradGradGradGradGradGradGradGradGradGradGradGradGrad

 Leave Link  103 at Tue Sep 17 09:54:02 2024, MaxMem=  1342177280 cpu:               0.1 elap:               0.0
 (Enter /groups/ReismanLab/Software/Gaussian16_RevC/Linux_Binary_AVX2-enabled-CPU/g16/l202.exe)
                          Input orientation:                          
 ---------------------------------------------------------------------
 Center     Atomic      Atomic             Coordinates (Angstroms)
 Number     Number       Type             X           Y           Z
 ---------------------------------------------------------------------
      1         35           0       -2.061482    0.243095   -0.000147
      2          6           0       -0.300385   -0.496981   -0.000030
      3          6           0       -0.121216   -1.871230    0.000000
      4          6           0        1.180529   -2.413366    0.000073
      5          6           0        2.307482   -1.600199    0.000141
      6          6           0        2.105269   -0.215210    0.000083
      7          7           0        3.004698    0.829685    0.000093
      8          6           0        2.323946    2.033989   -0.000004
      9          6           0        0.973530    1.793673   -0.000031
     10          6           0        0.802918    0.368701   -0.000004
     11          1           0       -0.982793   -2.528957   -0.000067
     12          1           0        1.296957   -3.492475    0.000138
     13          1           0        3.307352   -2.024226    0.000191
     14          1           0        4.006058    0.729640   -0.000224
     15          1           0        2.859586    2.972545    0.000039
     16          1           0        0.185674    2.531340   -0.000020
 ---------------------------------------------------------------------
                    Distance matrix (angstroms):
                    1          2          3          4          5
     1  Br   0.000000
     2  C    1.910281   0.000000
     3  C    2.869670   1.385879   0.000000
     4  C    4.191350   2.421907   1.410124   0.000000
     5  C    4.741895   2.831618   2.443773   1.389699   0.000000
     6  C    4.191880   2.422100   2.774822   2.384750   1.399673
     7  N    5.100026   3.561407   4.131135   3.720883   2.527933
     8  C    4.737012   3.645947   4.607554   4.591990   3.634226
     9  C    3.408165   2.621061   3.824916   4.212128   3.646614
    10  C    2.867152   1.402385   2.423080   2.807576   2.477959
    11  H    2.974533   2.143504   1.083938   2.166408   3.418845
    12  H    5.023305   3.394773   2.153984   1.085372   2.145196
    13  H    5.827960   3.917684   3.431980   2.162130   1.086066
    14  H    6.087016   4.477729   4.878413   4.226358   2.883282
    15  H    5.627326   4.692870   5.687472   5.641565   4.605953
    16  H    3.207144   3.067081   4.413253   5.043793   4.644533
                    6          7          8          9         10
     6  C    0.000000
     7  N    1.378687   0.000000
     8  C    2.259805   1.383392   0.000000
     9  C    2.305742   2.248315   1.371633   0.000000
    10  C    1.427260   2.249521   2.255374   1.435149   0.000000
    11  H    3.858699   5.213498   5.635158   4.744717   3.403702
    12  H    3.375475   4.647305   5.621077   5.296033   3.892654
    13  H    2.171990   2.869914   4.175667   4.474716   3.463855
    14  H    2.122673   1.006345   2.128574   3.213782   3.223412
    15  H    3.275786   2.147768   1.080646   2.224173   3.318115
    16  H    3.350878   3.292800   2.195352   1.079291   2.248999
                   11         12         13         14         15
    11  H    0.000000
    12  H    2.475001   0.000000
    13  H    4.319734   2.489466   0.000000
    14  H    5.958783   5.016521   2.841121   0.000000
    15  H    6.710470   6.651186   5.016793   2.518932   0.000000
    16  H    5.193450   6.125463   5.522505   4.223915   2.710068
                   16
    16  H    0.000000
 Stoichiometry    C8H6BrN
 Framework group  C1[X(C8H6BrN)]
 Deg. of freedom    42
 Full point group                 C1      NOp   1
 RotChk:  IX=0 Diff= 2.81D-04
 Largest Abelian subgroup         C1      NOp   1
 Largest concise Abelian subgroup C1      NOp   1
                         Standard orientation:                         
 ---------------------------------------------------------------------
 Center     Atomic      Atomic             Coordinates (Angstroms)
 Number     Number       Type             X           Y           Z
 ---------------------------------------------------------------------
      1         35           0        2.213337   -0.311754   -0.000115
      2          6           0        0.468985    0.466967    0.000002
      3          6           0        0.320154    1.844832    0.000032
      4          6           0       -0.969322    2.415533    0.000105
      5          6           0       -2.113928    1.627408    0.000173
      6          6           0       -1.942297    0.238298    0.000115
      7          7           0       -2.864543   -0.786514    0.000125
      8          6           0       -2.210506   -2.005534    0.000028
      9          6           0       -0.855120   -1.795047    0.000001
     10          6           0       -0.653135   -0.374182    0.000028
     11          1           0        1.196022    2.483405   -0.000035
     12          1           0       -1.061933    3.496946    0.000170
     13          1           0       -3.104207    2.073375    0.000223
     14          1           0       -3.863454   -0.664419   -0.000192
     15          1           0       -2.766706   -2.932053    0.000071
     16          1           0       -0.083717   -2.549903    0.000012
 ---------------------------------------------------------------------
 Rotational constants (GHZ):           1.7480426           0.7029737           0.5013545
 Leave Link  202 at Tue Sep 17 09:54:02 2024, MaxMem=  1342177280 cpu:               0.0 elap:               0.0
 (Enter /groups/ReismanLab/Software/Gaussian16_RevC/Linux_Binary_AVX2-enabled-CPU/g16/l301.exe)
 Standard basis: 6-31G(d,p) (6D, 7F)
 Ernie: Thresh=  0.10000D-02 Tol=  0.10000D-05 Strict=F.
 There are   195 symmetry adapted cartesian basis functions of A   symmetry.
 There are   195 symmetry adapted basis functions of A   symmetry.
   195 basis functions,   377 primitive gaussians,   195 cartesian basis functions
    48 alpha electrons       48 beta electrons
       nuclear repulsion energy       706.7461103358 Hartrees.
 IExCor=  402 DFT=T Ex+Corr=B3LYP ExCW=0 ScaHFX=  0.200000
 ScaDFX=  0.800000  0.720000  1.000000  0.810000 ScalE2=  1.000000  1.000000
 IRadAn=      5 IRanWt=     -1 IRanGd=            0 ICorTp=0 IEmpDi=141
 NAtoms=   16 NActive=   16 NUniq=   16 SFac= 1.00D+00 NAtFMM=   60 NAOKFM=F Big=F
 Integral buffers will be    131072 words long.
 Raffenetti 2 integral format.
 Two-electron integral symmetry is turned on.
 R6Disp:  Grimme-D3(BJ) Dispersion energy=       -0.0351341063 Hartrees.
 Nuclear repulsion after empirical dispersion term =      706.7109762295 Hartrees.
 Leave Link  301 at Tue Sep 17 09:54:02 2024, MaxMem=  1342177280 cpu:               0.1 elap:               0.0
 (Enter /groups/ReismanLab/Software/Gaussian16_RevC/Linux_Binary_AVX2-enabled-CPU/g16/l302.exe)
 NPDir=0 NMtPBC=     1 NCelOv=     1 NCel=       1 NClECP=     1 NCelD=      1
         NCelK=      1 NCelE2=     1 NClLst=     1 CellRange=     0.0.
 One-electron integrals computed using PRISM.
 One-electron integral symmetry used in STVInt
 NBasis=   195 RedAO= T EigKep=  3.68D-04  NBF=   195
 NBsUse=   195 1.00D-06 EigRej= -1.00D+00 NBFU=   195
 Precomputing XC quadrature grid using
 IXCGrd= 4 IRadAn=           5 IRanWt=          -1 IRanGd=           0 AccXCQ= 0.00D+00.
 Generated NRdTot=       0 NPtTot=           0 NUsed=           0 NTot=          32
 NSgBfM=   195   195   195   195   195 MxSgAt=    16 MxSgA2=    16.
 Leave Link  302 at Tue Sep 17 09:54:02 2024, MaxMem=  1342177280 cpu:               0.8 elap:               0.1
 (Enter /groups/ReismanLab/Software/Gaussian16_RevC/Linux_Binary_AVX2-enabled-CPU/g16/l303.exe)
 DipDrv:  MaxL=1.
 Leave Link  303 at Tue Sep 17 09:54:02 2024, MaxMem=  1342177280 cpu:               0.1 elap:               0.0
 (Enter /groups/ReismanLab/Software/Gaussian16_RevC/Linux_Binary_AVX2-enabled-CPU/g16/l401.exe)
 Initial guess from the checkpoint file:  "smiles_00014_conf_0.chk"
 B after Tr=    -0.000000    0.000000    0.000000
         Rot=    1.000000   -0.000012   -0.000022    0.000395 Ang=  -0.05 deg.
 Guess basis will be translated and rotated to current coordinates.
 JPrj=2 DoOrth=T DoCkMO=T.
 Generating alternative initial guess.
 ExpMin= 1.43D-01 ExpMax= 5.74D+05 ExpMxC= 5.74D+03 IAcc=3 IRadAn=         5 AccDes= 0.00D+00
 Harris functional with IExCor=  402 and IRadAn=       5 diagonalized for initial guess.
 HarFok:  IExCor=  402 AccDes= 0.00D+00 IRadAn=         5 IDoV= 1 UseB2=F ITyADJ=14
 ICtDFT=  3500011 ScaDFX=  1.000000  1.000000  1.000000  1.000000
 FoFCou: FMM=F IPFlag=           0 FMFlag=      100000 FMFlg1=           0
         NFxFlg=           0 DoJE=T BraDBF=F KetDBF=T FulRan=T
         wScrn=  0.000000 ICntrl=       500 IOpCl=  0 I1Cent=   200000004 NGrid=           0
         NMat0=    1 NMatS0=      1 NMatT0=    0 NMatD0=    1 NMtDS0=    0 NMtDT0=    0
 Petite list used in FoFCou.
 Harris En= -2935.07462379132    
 Leave Link  401 at Tue Sep 17 09:54:03 2024, MaxMem=  1342177280 cpu:               3.7 elap:               0.5
 (Enter /groups/ReismanLab/Software/Gaussian16_RevC/Linux_Binary_AVX2-enabled-CPU/g16/l502.exe)
 Integral symmetry usage will be decided dynamically.
 Closed shell SCF:
 Using DIIS extrapolation, IDIIS=  1040.
 NGot=  1342177280 LenX=  1342097241 LenY=  1342058775
 Requested convergence on RMS density matrix=1.00D-08 within  32 cycles.
 Requested convergence on MAX density matrix=1.00D-06.
 Requested convergence on             energy=1.00D-06.
 No special actions if energy rises.
 Fock matrices will be formed incrementally for  20 cycles.
 Integral accuracy reduced to 1.0D-05 until final iterations.

 Cycle   1  Pass 0  IDiag  1:
 FoFJK:  IHMeth= 1 ICntrl=       0 DoSepK=F KAlg= 0 I1Cent=           0 FoldK=F
 IRaf= 910000000 NMat=       1 IRICut=       1 DoRegI=T DoRafI=F ISym2E= 0 IDoP0=0 IntGTp=1.
 FoFCou: FMM=F IPFlag=           0 FMFlag=      100000 FMFlg1=           0
         NFxFlg=           0 DoJE=F BraDBF=F KetDBF=F FulRan=T
         wScrn=  0.000000 ICntrl=         0 IOpCl=  0 I1Cent=           0 NGrid=           0
         NMat0=    1 NMatS0=      1 NMatT0=    0 NMatD0=    1 NMtDS0=    0 NMtDT0=    0
 Symmetry not used in FoFCou.
 E= -2934.97006141104    
 DIIS: error= 1.65D-03 at cycle   1 NSaved=   1.
 NSaved= 1 IEnMin= 1 EnMin= -2934.97006141104     IErMin= 1 ErrMin= 1.65D-03
 ErrMax= 1.65D-03  0.00D+00 EMaxC= 1.00D-01 BMatC= 1.06D-03 BMatP= 1.06D-03
 IDIUse=3 WtCom= 9.84D-01 WtEn= 1.65D-02
 Coeff-Com:  0.100D+01
 Coeff-En:   0.100D+01
 Coeff:      0.100D+01
 Gap=     1.754 Goal=   None    Shift=    0.000
 GapD=    1.754 DampG=2.000 DampE=1.000 DampFc=2.0000 IDamp=-1.
 RMSDP=3.75D-04 MaxDP=7.54D-03              OVMax= 4.29D-03

 Cycle   2  Pass 0  IDiag  1:
 RMSU=  3.73D-04    CP:  9.99D-01
 E= -2934.97043033444     Delta-E=       -0.000368923398 Rises=F Damp=F
 DIIS: error= 6.90D-04 at cycle   2 NSaved=   2.
 NSaved= 2 IEnMin= 2 EnMin= -2934.97043033444     IErMin= 2 ErrMin= 6.90D-04
 ErrMax= 6.90D-04  0.00D+00 EMaxC= 1.00D-01 BMatC= 7.76D-05 BMatP= 1.06D-03
 IDIUse=3 WtCom= 9.93D-01 WtEn= 6.90D-03
 Coeff-Com:  0.119D+00 0.881D+00
 Coeff-En:   0.000D+00 0.100D+01
 Coeff:      0.119D+00 0.881D+00
 Gap=     0.189 Goal=   None    Shift=    0.000
 RMSDP=9.48D-05 MaxDP=2.73D-03 DE=-3.69D-04 OVMax= 3.58D-03

 Cycle   3  Pass 0  IDiag  1:
 RMSU=  9.46D-05    CP:  9.99D-01  1.01D+00
 E= -2934.97044039790     Delta-E=       -0.000010063466 Rises=F Damp=F
 DIIS: error= 5.37D-04 at cycle   3 NSaved=   3.
 NSaved= 3 IEnMin= 3 EnMin= -2934.97044039790     IErMin= 3 ErrMin= 5.37D-04
 ErrMax= 5.37D-04  0.00D+00 EMaxC= 1.00D-01 BMatC= 6.67D-05 BMatP= 7.76D-05
 IDIUse=3 WtCom= 9.95D-01 WtEn= 5.37D-03
 Coeff-Com:  0.322D-02 0.481D+00 0.516D+00
 Coeff-En:   0.000D+00 0.468D+00 0.532D+00
 Coeff:      0.320D-02 0.481D+00 0.516D+00
 Gap=     0.189 Goal=   None    Shift=    0.000
 RMSDP=5.49D-05 MaxDP=1.56D-03 DE=-1.01D-05 OVMax= 2.01D-03

 Cycle   4  Pass 0  IDiag  1:
 RMSU=  2.10D-05    CP:  9.99D-01  1.00D+00  4.67D-01
 E= -2934.97050674927     Delta-E=       -0.000066351362 Rises=F Damp=F
 DIIS: error= 1.28D-04 at cycle   4 NSaved=   4.
 NSaved= 4 IEnMin= 4 EnMin= -2934.97050674927     IErMin= 4 ErrMin= 1.28D-04
 ErrMax= 1.28D-04  0.00D+00 EMaxC= 1.00D-01 BMatC= 2.34D-06 BMatP= 6.67D-05
 IDIUse=3 WtCom= 9.99D-01 WtEn= 1.28D-03
 Coeff-Com: -0.104D-02 0.236D+00 0.287D+00 0.477D+00
 Coeff-En:   0.000D+00 0.000D+00 0.000D+00 0.100D+01
 Coeff:     -0.104D-02 0.236D+00 0.287D+00 0.478D+00
 Gap=     0.189 Goal=   None    Shift=    0.000
 RMSDP=1.03D-05 MaxDP=3.08D-04 DE=-6.64D-05 OVMax= 5.40D-04

 Cycle   5  Pass 0  IDiag  1:
 RMSU=  5.49D-06    CP:  9.99D-01  1.00D+00  4.90D-01  6.03D-01
 E= -2934.97050902642     Delta-E=       -0.000002277156 Rises=F Damp=F
 DIIS: error= 2.87D-05 at cycle   5 NSaved=   5.
 NSaved= 5 IEnMin= 5 EnMin= -2934.97050902642     IErMin= 5 ErrMin= 2.87D-05
 ErrMax= 2.87D-05  0.00D+00 EMaxC= 1.00D-01 BMatC= 1.88D-07 BMatP= 2.34D-06
 IDIUse=1 WtCom= 1.00D+00 WtEn= 0.00D+00
 Coeff-Com: -0.102D-02 0.694D-01 0.957D-01 0.254D+00 0.582D+00
 Coeff:     -0.102D-02 0.694D-01 0.957D-01 0.254D+00 0.582D+00
 Gap=     0.189 Goal=   None    Shift=    0.000
 RMSDP=2.99D-06 MaxDP=8.50D-05 DE=-2.28D-06 OVMax= 1.69D-04

 Initial convergence to 1.0D-05 achieved.  Increase integral accuracy.
 Cycle   6  Pass 1  IDiag  1:
 E= -2934.97048877203     Delta-E=        0.000020254387 Rises=F Damp=F
 DIIS: error= 3.15D-05 at cycle   1 NSaved=   1.
 NSaved= 1 IEnMin= 1 EnMin= -2934.97048877203     IErMin= 1 ErrMin= 3.15D-05
 ErrMax= 3.15D-05  0.00D+00 EMaxC= 1.00D-01 BMatC= 9.24D-08 BMatP= 9.24D-08
 IDIUse=1 WtCom= 1.00D+00 WtEn= 0.00D+00
 Coeff-Com:  0.100D+01
 Coeff:      0.100D+01
 Gap=     0.189 Goal=   None    Shift=    0.000
 RMSDP=2.99D-06 MaxDP=8.50D-05 DE= 2.03D-05 OVMax= 1.39D-04

 Cycle   7  Pass 1  IDiag  1:
 RMSU=  9.69D-06    CP:  1.00D+00
 E= -2934.97048878253     Delta-E=       -0.000000010495 Rises=F Damp=F
 DIIS: error= 1.85D-05 at cycle   2 NSaved=   2.
 NSaved= 2 IEnMin= 2 EnMin= -2934.97048878253     IErMin= 2 ErrMin= 1.85D-05
 ErrMax= 1.85D-05  0.00D+00 EMaxC= 1.00D-01 BMatC= 4.64D-08 BMatP= 9.24D-08
 IDIUse=1 WtCom= 1.00D+00 WtEn= 0.00D+00
 Coeff-Com:  0.378D+00 0.622D+00
 Coeff:      0.378D+00 0.622D+00
 Gap=     0.189 Goal=   None    Shift=    0.000
 RMSDP=2.19D-06 MaxDP=7.38D-05 DE=-1.05D-08 OVMax= 1.68D-04

 Cycle   8  Pass 1  IDiag  1:
 RMSU=  2.17D-06    CP:  1.00D+00  9.74D-01
 E= -2934.97048879954     Delta-E=       -0.000000017010 Rises=F Damp=F
 DIIS: error= 1.50D-05 at cycle   3 NSaved=   3.
 NSaved= 3 IEnMin= 3 EnMin= -2934.97048879954     IErMin= 3 ErrMin= 1.50D-05
 ErrMax= 1.50D-05  0.00D+00 EMaxC= 1.00D-01 BMatC= 3.08D-08 BMatP= 4.64D-08
 IDIUse=1 WtCom= 1.00D+00 WtEn= 0.00D+00
 Coeff-Com:  0.862D-02 0.447D+00 0.544D+00
 Coeff:      0.862D-02 0.447D+00 0.544D+00
 Gap=     0.189 Goal=   None    Shift=    0.000
 RMSDP=1.03D-06 MaxDP=3.43D-05 DE=-1.70D-08 OVMax= 8.37D-05

 Cycle   9  Pass 1  IDiag  1:
 RMSU=  3.15D-07    CP:  1.00D+00  9.95D-01  5.56D-01
 E= -2934.97048883432     Delta-E=       -0.000000034785 Rises=F Damp=F
 DIIS: error= 1.38D-06 at cycle   4 NSaved=   4.
 NSaved= 4 IEnMin= 4 EnMin= -2934.97048883432     IErMin= 4 ErrMin= 1.38D-06
 ErrMax= 1.38D-06  0.00D+00 EMaxC= 1.00D-01 BMatC= 6.31D-10 BMatP= 3.08D-08
 IDIUse=1 WtCom= 1.00D+00 WtEn= 0.00D+00
 Coeff-Com: -0.236D-02 0.244D+00 0.314D+00 0.444D+00
 Coeff:     -0.236D-02 0.244D+00 0.314D+00 0.444D+00
 Gap=     0.189 Goal=   None    Shift=    0.000
 RMSDP=1.61D-07 MaxDP=4.26D-06 DE=-3.48D-08 OVMax= 8.61D-06

 Cycle  10  Pass 1  IDiag  1:
 RMSU=  7.01D-08    CP:  1.00D+00  9.96D-01  5.70D-01  5.55D-01
 E= -2934.97048883494     Delta-E=       -0.000000000619 Rises=F Damp=F
 DIIS: error= 2.40D-07 at cycle   5 NSaved=   5.
 NSaved= 5 IEnMin= 5 EnMin= -2934.97048883494     IErMin= 5 ErrMin= 2.40D-07
 ErrMax= 2.40D-07  0.00D+00 EMaxC= 1.00D-01 BMatC= 1.76D-11 BMatP= 6.31D-10
 IDIUse=1 WtCom= 1.00D+00 WtEn= 0.00D+00
 Coeff-Com: -0.164D-02 0.110D+00 0.144D+00 0.233D+00 0.514D+00
 Coeff:     -0.164D-02 0.110D+00 0.144D+00 0.233D+00 0.514D+00
 Gap=     0.189 Goal=   None    Shift=    0.000
 RMSDP=2.93D-08 MaxDP=7.78D-07 DE=-6.19D-10 OVMax= 1.32D-06

 Cycle  11  Pass 1  IDiag  1:
 RMSU=  2.08D-08    CP:  1.00D+00  9.96D-01  5.69D-01  5.49D-01  7.12D-01
 E= -2934.97048883494     Delta-E=        0.000000000005 Rises=F Damp=F
 DIIS: error= 8.78D-08 at cycle   6 NSaved=   6.
 NSaved= 6 IEnMin= 5 EnMin= -2934.97048883494     IErMin= 6 ErrMin= 8.78D-08
 ErrMax= 8.78D-08  0.00D+00 EMaxC= 1.00D-01 BMatC= 8.26D-13 BMatP= 1.76D-11
 IDIUse=1 WtCom= 1.00D+00 WtEn= 0.00D+00
 Coeff-Com: -0.612D-03 0.361D-01 0.478D-01 0.816D-01 0.237D+00 0.598D+00
 Coeff:     -0.612D-03 0.361D-01 0.478D-01 0.816D-01 0.237D+00 0.598D+00
 Gap=     0.189 Goal=   None    Shift=    0.000
 RMSDP=8.43D-09 MaxDP=2.26D-07 DE= 4.55D-12 OVMax= 6.13D-07

 SCF Done:  E(RB3LYP) =  -2934.97048883     A.U. after   11 cycles
            NFock= 11  Conv=0.84D-08     -V/T= 2.0066
 KE= 2.915684529131D+03 PE=-8.389388496188D+03 EE= 1.832022501992D+03
 Leave Link  502 at Tue Sep 17 09:54:10 2024, MaxMem=  1342177280 cpu:              52.6 elap:               7.3
 (Enter /groups/ReismanLab/Software/Gaussian16_RevC/Linux_Binary_AVX2-enabled-CPU/g16/l508.exe)
 QCSCF skips out because SCF is already converged.
 Leave Link  508 at Tue Sep 17 09:54:10 2024, MaxMem=  1342177280 cpu:               0.0 elap:               0.0
 (Enter /groups/ReismanLab/Software/Gaussian16_RevC/Linux_Binary_AVX2-enabled-CPU/g16/l701.exe)
 ... and contract with generalized density number  0.
 Compute integral first derivatives.
 R6Disp: Adding Grimme-D3(BJ) dispersion energy 1st derivatives to the gradient.
 Leave Link  701 at Tue Sep 17 09:54:10 2024, MaxMem=  1342177280 cpu:               0.7 elap:               0.1
 (Enter /groups/ReismanLab/Software/Gaussian16_RevC/Linux_Binary_AVX2-enabled-CPU/g16/l702.exe)
 L702 exits ... SP integral derivatives will be done elsewhere.
 Leave Link  702 at Tue Sep 17 09:54:10 2024, MaxMem=  1342177280 cpu:               0.1 elap:               0.0
 (Enter /groups/ReismanLab/Software/Gaussian16_RevC/Linux_Binary_AVX2-enabled-CPU/g16/l703.exe)
 Integral derivatives from FoFJK, PRISM(SPDF).
 Compute integral first derivatives, UseDBF=F ICtDFT=           0.
 Calling FoFJK, ICntrl=      2127 FMM=F ISym2X=0 I1Cent= 0 IOpClX= 0 NMat=1 NMatS=1 NMatT=0.
 FoFJK:  IHMeth= 1 ICntrl=    2127 DoSepK=F KAlg= 0 I1Cent=           0 FoldK=F
 IRaf=         0 NMat=       1 IRICut=       1 DoRegI=T DoRafI=F ISym2E= 0 IDoP0=0 IntGTp=1.
 FoFCou: FMM=F IPFlag=           0 FMFlag=      100000 FMFlg1=         800
         NFxFlg=           0 DoJE=F BraDBF=F KetDBF=F FulRan=T
         wScrn=  0.000000 ICntrl=      2127 IOpCl=  0 I1Cent=           0 NGrid=           0
         NMat0=    1 NMatS0=      1 NMatT0=    0 NMatD0=    1 NMtDS0=    0 NMtDT0=    0
 Symmetry not used in FoFCou.
 Leave Link  703 at Tue Sep 17 09:54:13 2024, MaxMem=  1342177280 cpu:              20.1 elap:               2.6
 (Enter /groups/ReismanLab/Software/Gaussian16_RevC/Linux_Binary_AVX2-enabled-CPU/g16/l716.exe)
 Dipole        =-1.49526096D+00-8.76695700D-02-1.31385349D-04
 ***** Axes restored to original set *****
 -------------------------------------------------------------------
 Center     Atomic                   Forces (Hartrees/Bohr)
 Number     Number              X              Y              Z
 -------------------------------------------------------------------
      1       35           0.000075311   -0.000017400    0.000000275
      2        6           0.001502899   -0.000546786   -0.000000704
      3        6           0.000111754    0.000145124   -0.000002513
      4        6          -0.000325611    0.001244068    0.000005297
      5        6           0.000476582    0.001009759   -0.000005074
      6        6          -0.002971827   -0.000121185   -0.000004286
      7        7           0.002561228   -0.000398688   -0.000001015
      8        6          -0.003052186   -0.000595934    0.000001747
      9        6           0.000653282   -0.001008157    0.000000511
     10        6           0.000633303    0.000623464    0.000004238
     11        1           0.000162697    0.000421920    0.000001712
     12        1           0.000098629    0.000237868   -0.000001995
     13        1          -0.000451962    0.000074627    0.000000992
     14        1           0.000133697   -0.000003282    0.000004424
     15        1           0.000227004   -0.000829228   -0.000002459
     16        1           0.000165199   -0.000236168   -0.000001149
 -------------------------------------------------------------------
[...]
   XY=    29.7693   YY=    40.1237   ZY=    -0.0033
   XZ=     0.0078   YZ=    -0.0046   ZZ=   118.0112
   Eigenvalues:   -63.7786    49.6433   118.0112
      3  C    Isotropic =    42.5011   Anisotropy =   169.9519
   XX=   -37.4861   YX=   -51.7314   ZX=     0.0072
   XY=   -52.3776   YY=     9.1870   ZY=    -0.0012
   XZ=     0.0071   YZ=    -0.0013   ZZ=   155.8023
   Eigenvalues:   -71.1957    42.8967   155.8023
      4  C    Isotropic =    42.4318   Anisotropy =   200.1690
   XX=    27.8137   YX=    22.2376   ZX=     0.0071
   XY=    16.4130   YY=   -76.3961   ZY=    -0.0057
   XZ=     0.0074   YZ=    -0.0057   ZZ=   175.8778
   Eigenvalues:   -79.8644    31.2821   175.8778
      5  C    Isotropic =    56.9865   Anisotropy =   178.4818
   XX=   -18.2787   YX=    41.1677   ZX=     0.0099
   XY=    38.4010   YY=    13.2638   ZY=    -0.0048
   XZ=     0.0134   YZ=    -0.0068   ZZ=   175.9743
   Eigenvalues:   -45.3038    40.2889   175.9743
      6  C    Isotropic =    29.7195   Anisotropy =   170.7554
   XX=   -44.3555   YX=   -30.8447   ZX=     0.0047
   XY=   -27.1762   YY=   -10.0425   ZY=    -0.0046
   XZ=    -0.0044   YZ=     0.0134   ZZ=   143.5565
   Eigenvalues:   -60.9029     6.5049   143.5565
      7  N    Isotropic =    99.5691   Anisotropy =   104.5050
   XX=    20.7255   YX=    11.0315   ZX=    -0.0141
   XY=    -4.2889   YY=   108.7426   ZY=     0.0000
   XZ=     0.0052   YZ=    -0.0091   ZZ=   169.2391
   Eigenvalues:    20.5966   108.8715   169.2391
      8  C    Isotropic =    42.0571   Anisotropy =   145.2980
   XX=    47.5048   YX=     8.6380   ZX=     0.0016
   XY=    -8.3189   YY=   -60.2560   ZY=    -0.0033
   XZ=    -0.0115   YZ=    -0.0193   ZZ=   138.9224
   Eigenvalues:   -60.2562    47.5050   138.9224
      9  C    Isotropic =    67.1664   Anisotropy =   138.6739
   XX=    54.5603   YX=    28.3084   ZX=     0.0036
   XY=    40.8779   YY=   -12.6767   ZY=    -0.0042
   XZ=     0.0104   YZ=    -0.0120   ZZ=   159.6157
   Eigenvalues:   -27.2961    69.1796   159.6157
     10  C    Isotropic =    35.7075   Anisotropy =   179.2412
   XX=   -13.6645   YX=    10.2342   ZX=     0.0083
   XY=    10.7481   YY=   -34.4146   ZY=    -0.0061
   XZ=     0.0100   YZ=    -0.0045   ZZ=   155.2016
   Eigenvalues:   -38.7944    -9.2847   155.2016
     11  H    Isotropic =    23.8645   Anisotropy =    10.5349
   XX=    24.1057   YX=    -4.1932   ZX=    -0.0003
   XY=    -3.2180   YY=    28.8631   ZY=     0.0004
   XZ=    -0.0003   YZ=     0.0004   ZZ=    18.6247
   Eigenvalues:    18.6247    22.0810    30.8877
     12  H    Isotropic =    23.9290   Anisotropy =     5.8976
   XX=    27.8379   YX=     0.4492   ZX=    -0.0003
   XY=     0.1519   YY=    23.9096   ZY=     0.0001
   XZ=    -0.0003   YZ=     0.0000   ZZ=    20.0396
   Eigenvalues:    20.0396    23.8868    27.8608
     13  H    Isotropic =    23.8003   Anisotropy =     6.5394
   XX=    24.8276   YX=     1.6044   ZX=    -0.0003
   XY=     1.6496   YY=    27.3655   ZY=     0.0002
   XZ=    -0.0001   YZ=     0.0002   ZZ=    19.2078
   Eigenvalues:    19.2078    24.0332    28.1598
     14  H    Isotropic =    23.4037   Anisotropy =     9.2690
   XX=    29.4460   YX=    -0.9934   ZX=     0.0006
   XY=    -0.5863   YY=    25.0303   ZY=    -0.0000
   XZ=     0.0037   YZ=     0.0006   ZZ=    15.7348
   Eigenvalues:    15.7348    24.8933    29.5831
     15  H    Isotropic =    23.9662   Anisotropy =     4.2081
   XX=    26.7716   YX=     1.3028   ZX=    -0.0002
   XY=    -1.3064   YY=    24.9795   ZY=     0.0002
   XZ=    -0.0009   YZ=    -0.0004   ZZ=    20.1476
   Eigenvalues:    20.1476    24.9795    26.7716
     16  H    Isotropic =    24.4116   Anisotropy =     8.0674
   XX=    27.6554   YX=     2.8819   ZX=    -0.0003
   XY=     2.8738   YY=    25.9096   ZY=     0.0001
   XZ=     0.0001   YZ=    -0.0005   ZZ=    19.6697
   Eigenvalues:    19.6697    23.7752    29.7898
 End of Minotr F.D. properties file   721 does not exist.
 End of Minotr F.D. properties file   722 does not exist.
 End of Minotr F.D. properties file   788 does not exist.
 Leave Link 1002 at Tue Sep 17 10:28:53 2024, MaxMem=  1342177280 cpu:             465.4 elap:             466.4
 (Enter /groups/ReismanLab/Software/Gaussian16_RevC/Linux_Binary_AVX2-enabled-CPU/g16/l601.exe)
 Copying SCF densities to generalized density rwf, IOpCl= 0 IROHF=0.

 **********************************************************************

            Population analysis using the SCF Density.

 **********************************************************************

 Orbital symmetries:
       Occupied  (A) (A) (A) (A) (A) (A) (A) (A) (A) (A) (A) (A)
                 (A) (A) (A) (A) (A) (A) (A) (A) (A) (A) (A) (A)
                 (A) (A) (A) (A) (A) (A) (A) (A) (A) (A) (A) (A)
                 (A) (A) (A) (A) (A) (A) (A) (A) (A) (A) (A) (A)
       Virtual   (A) (A) (A) (A) (A) (A) (A) (A) (A) (A) (A) (A)
                 (A) (A) (A) (A) (A) (A) (A) (A) (A) (A) (A) (A)
                 (A) (A) (A) (A) (A) (A) (A) (A) (A) (A) (A) (A)
                 (A) (A) (A) (A) (A) (A) (A) (A) (A) (A) (A) (A)
                 (A) (A) (A) (A) (A) (A) (A) (A) (A) (A) (A) (A)
                 (A) (A) (A) (A) (A) (A) (A) (A) (A) (A) (A) (A)
                 (A) (A) (A) (A) (A) (A) (A) (A) (A) (A) (A) (A)
                 (A) (A) (A) (A) (A) (A) (A) (A) (A) (A) (A) (A)
                 (A) (A) (A) (A) (A) (A) (A) (A) (A) (A) (A) (A)
                 (A) (A) (A) (A) (A) (A) (A) (A) (A) (A) (A) (A)
                 (A) (A) (A) (A) (A) (A) (A) (A) (A) (A) (A) (A)
                 (A) (A) (A) (A) (A) (A) (A) (A) (A) (A) (A) (A)
                 (A) (A) (A) (A) (A) (A) (A) (A) (A) (A) (A) (A)
                 (A) (A) (A) (A) (A) (A) (A) (A) (A) (A) (A) (A)
                 (A) (A) (A) (A) (A) (A) (A) (A) (A) (A) (A) (A)
                 (A) (A) (A) (A) (A) (A) (A) (A) (A) (A) (A) (A)
                 (A) (A) (A) (A) (A) (A) (A) (A) (A) (A) (A) (A)
                 (A) (A) (A) (A) (A) (A) (A) (A) (A) (A) (A) (A)
                 (A) (A) (A) (A) (A) (A) (A) (A) (A) (A) (A) (A)
                 (A) (A) (A) (A) (A) (A) (A) (A) (A) (A) (A) (A)
                 (A) (A) (A) (A) (A) (A) (A) (A) (A) (A) (A) (A)
                 (A) (A) (A) (A) (A) (A) (A) (A) (A) (A) (A) (A)
                 (A) (A) (A) (A) (A) (A) (A) (A) (A) (A) (A) (A)
                 (A) (A) (A) (A) (A) (A) (A) (A) (A) (A) (A) (A)
                 (A) (A) (A) (A) (A) (A) (A) (A) (A) (A) (A) (A)
                 (A) (A) (A) (A) (A) (A) (A) (A) (A) (A) (A) (A)
                 (A) (A) (A)
 The electronic state is 1-A.
 Alpha  occ. eigenvalues -- -485.36978 -63.35451 -57.17394 -57.17163 -57.17156
 Alpha  occ. eigenvalues --  -14.79723 -10.59722 -10.58349 -10.58023 -10.55064
 Alpha  occ. eigenvalues --  -10.54856 -10.54598 -10.54416 -10.53325  -9.02089
 Alpha  occ. eigenvalues --   -6.84485  -6.83629  -6.83607  -2.87862  -2.87552
 Alpha  occ. eigenvalues --   -2.87526  -2.86729  -2.86728  -1.09587  -0.96364
 Alpha  occ. eigenvalues --   -0.89874  -0.87228  -0.83079  -0.80043  -0.70890
 Alpha  occ. eigenvalues --   -0.68524  -0.66845  -0.60613  -0.55835  -0.55165
 Alpha  occ. eigenvalues --   -0.51429  -0.50898  -0.48848  -0.48099  -0.46068
 Alpha  occ. eigenvalues --   -0.43197  -0.42971  -0.39867  -0.37520  -0.34610
 Alpha  occ. eigenvalues --   -0.32950  -0.28520  -0.26179
 Alpha virt. eigenvalues --    0.00245   0.03996   0.04528   0.06840   0.08817
 Alpha virt. eigenvalues --    0.10109   0.11140   0.11952   0.13256   0.13746
 Alpha virt. eigenvalues --    0.15134   0.17728   0.19173   0.19490   0.21101
 Alpha virt. eigenvalues --    0.21856   0.22612   0.23162   0.24676   0.25636
 Alpha virt. eigenvalues --    0.25948   0.26939   0.27285   0.28256   0.29287
 Alpha virt. eigenvalues --    0.29885   0.31548   0.31992   0.32030   0.32611
 Alpha virt. eigenvalues --    0.34246   0.35157   0.36818   0.37049   0.38613
 Alpha virt. eigenvalues --    0.39169   0.40638   0.41031   0.41066   0.42841
 Alpha virt. eigenvalues --    0.43833   0.44751   0.44765   0.46039   0.47172
 Alpha virt. eigenvalues --    0.48228   0.48408   0.49931   0.50458   0.51014
 Alpha virt. eigenvalues --    0.51555   0.52453   0.54633   0.56791   0.58870
 Alpha virt. eigenvalues --    0.59727   0.60929   0.62574   0.63397   0.64340
 Alpha virt. eigenvalues --    0.65326   0.66399   0.66753   0.70394   0.72287
 Alpha virt. eigenvalues --    0.73037   0.74473   0.75905   0.76639   0.77162
 Alpha virt. eigenvalues --    0.78056   0.78572   0.82773   0.84386   0.85331
 Alpha virt. eigenvalues --    0.85914   0.87689   0.89483   0.91434   0.93287
 Alpha virt. eigenvalues --    0.95054   0.96285   1.00339   1.01151   1.04281
 Alpha virt. eigenvalues --    1.05023   1.06223   1.09090   1.10321   1.11548
 Alpha virt. eigenvalues --    1.12119   1.13028   1.16948   1.17608   1.21969
 Alpha virt. eigenvalues --    1.22544   1.23021   1.23613   1.26132   1.28149
 Alpha virt. eigenvalues --    1.28846   1.30002   1.31899   1.34822   1.36240
 Alpha virt. eigenvalues --    1.36882   1.37570   1.39083   1.41534   1.42797
 Alpha virt. eigenvalues --    1.45450   1.46224   1.46852   1.47355   1.49624
 Alpha virt. eigenvalues --    1.51227   1.51456   1.52178   1.55766   1.56329
 Alpha virt. eigenvalues --    1.58247   1.59021   1.59765   1.60692   1.61325
 Alpha virt. eigenvalues --    1.62388   1.63345   1.64554   1.66042   1.67497
 Alpha virt. eigenvalues --    1.67500   1.69555   1.72355   1.73158   1.73300
 Alpha virt. eigenvalues --    1.75833   1.78701   1.78876   1.79616   1.80022
 Alpha virt. eigenvalues --    1.81280   1.82997   1.89417   1.90098   1.91620
 Alpha virt. eigenvalues --    1.92100   1.93734   1.95930   1.97484   2.00503
 Alpha virt. eigenvalues --    2.02262   2.02307   2.08348   2.09019   2.10116
 Alpha virt. eigenvalues --    2.11817   2.17239   2.19400   2.20190   2.21704
 Alpha virt. eigenvalues --    2.25130   2.26113   2.27598   2.30172   2.33046
 Alpha virt. eigenvalues --    2.36264   2.40721   2.44029   2.44638   2.48985
 Alpha virt. eigenvalues --    2.50510   2.53239   2.55691   2.58012   2.59050
 Alpha virt. eigenvalues --    2.59733   2.61457   2.63177   2.66012   2.66664
 Alpha virt. eigenvalues --    2.67274   2.68515   2.70992   2.71425   2.73892
 Alpha virt. eigenvalues --    2.76001   2.77400   2.78510   2.79002   2.80428
 Alpha virt. eigenvalues --    2.80764   2.83080   2.83841   2.84446   2.86622
 Alpha virt. eigenvalues --    2.89503   2.90057   2.91124   2.93410   2.94568
 Alpha virt. eigenvalues --    2.97879   2.98542   3.02329   3.02662   3.04067
 Alpha virt. eigenvalues --    3.06311   3.07256   3.11038   3.12281   3.13015
 Alpha virt. eigenvalues --    3.13950   3.16419   3.16754   3.17626   3.19550
 Alpha virt. eigenvalues --    3.20873   3.22109   3.23018   3.24010   3.25792
 Alpha virt. eigenvalues --    3.26688   3.28082   3.31369   3.33419   3.36511
 Alpha virt. eigenvalues --    3.37924   3.38129   3.40679   3.41727   3.43469
 Alpha virt. eigenvalues --    3.43705   3.44541   3.45293   3.46475   3.49214
 Alpha virt. eigenvalues --    3.49815   3.53746   3.54938   3.56139   3.59229
 Alpha virt. eigenvalues --    3.59935   3.60057   3.65355   3.67084   3.72327
 Alpha virt. eigenvalues --    3.77210   3.81063   3.81313   3.87154   3.88848
 Alpha virt. eigenvalues --    3.90188   3.92577   3.93716   3.98848   4.00630
 Alpha virt. eigenvalues --    4.06176   4.07699   4.07839   4.11393   4.12471
 Alpha virt. eigenvalues --    4.13422   4.15569   4.16258   4.18869   4.19638
 Alpha virt. eigenvalues --    4.21924   4.25771   4.27085   4.27312   4.32531
 Alpha virt. eigenvalues --    4.33185   4.38377   4.39249   4.47057   4.51721
 Alpha virt. eigenvalues --    4.52324   4.54205   4.55190   4.62632   4.66104
 Alpha virt. eigenvalues --    4.67701   4.72781   4.76354   4.77143   4.80333
 Alpha virt. eigenvalues --    4.81424   4.84447   4.88874   4.93025   4.98907
 Alpha virt. eigenvalues --    4.99241   5.05601   5.13083   5.18694   5.19641
 Alpha virt. eigenvalues --    5.22093   5.30045   5.33210   5.38175   5.44392
 Alpha virt. eigenvalues --    5.54013   5.61401   5.70381   5.93595   6.01002
 Alpha virt. eigenvalues --    7.87441  22.34526  22.56879  22.71764  22.78208
 Alpha virt. eigenvalues --   22.90079  23.01968  23.07901  23.67692  32.48960
          Condensed to atoms (all electrons):
               1          2          3          4          5          6
     1  Br  34.927760   0.410400  -0.094561   0.019223  -0.003324   0.030102
     2  C    0.410400   5.177404   0.427936   0.022324  -0.076021   0.029620
     3  C   -0.094561   0.427936   5.125406   0.418541  -0.008363  -0.119331
     4  C    0.019223   0.022324   0.418541   4.966301   0.521757  -0.034700
     5  C   -0.003324  -0.076021  -0.008363   0.521757   5.066108   0.428188
     6  C    0.030102   0.029620  -0.119331  -0.034700   0.428188   5.057567
     7  N   -0.000696  -0.008893   0.004061  -0.002484  -0.044223   0.395651
     8  C   -0.001250   0.001525   0.000727  -0.001482   0.010644  -0.108236
     9  C   -0.008033  -0.108598   0.014332  -0.001786   0.014316  -0.057039
    10  C   -0.161717   0.246402   0.031251  -0.114064   0.001469   0.307469
    11  H   -0.005769  -0.057640   0.423467  -0.041794   0.006460  -0.003104
    12  H   -0.000345   0.004142  -0.035403   0.419111  -0.041284   0.008571
    13  H    0.000030   0.000972   0.002118  -0.015962   0.386726  -0.024555
    14  H    0.000032   0.000439  -0.000217   0.000376  -0.008176  -0.042471
    15  H   -0.000036   0.000019   0.000002   0.000044  -0.000398   0.005525
    16  H    0.007504  -0.003504  -0.000392   0.000099  -0.000467   0.012972
               7          8          9         10         11         12
     1  Br  -0.000696  -0.001250  -0.008033  -0.161717  -0.005769  -0.000345
     2  C   -0.008893   0.001525  -0.108598   0.246402  -0.057640   0.004142
     3  C    0.004061   0.000727   0.014332   0.031251   0.423467  -0.035403
     4  C   -0.002484  -0.001482  -0.001786  -0.114064  -0.041794   0.419111
     5  C   -0.044223   0.010644   0.014316   0.001469   0.006460  -0.041284
     6  C    0.395651  -0.108236  -0.057039   0.307469  -0.003104   0.008571
     7  N    6.409237   0.388801  -0.098694  -0.096976   0.000059  -0.000165
     8  C    0.388801   4.868582   0.644183  -0.120479   0.000051   0.000025
     9  C   -0.098694   0.644183   5.063687   0.453460   0.000175   0.000087
    10  C   -0.096976  -0.120479   0.453460   5.245390   0.022136  -0.000386
    11  H    0.000059   0.000051   0.000175   0.022136   0.489737  -0.003194
    12  H   -0.000165   0.000025   0.000087  -0.000386  -0.003194   0.491215
    13  H    0.000441   0.000335  -0.001173   0.006471  -0.000188  -0.004145
    14  H    0.389534  -0.036969   0.006294   0.012344  -0.000003  -0.000002
    15  H   -0.030760   0.411975  -0.025782   0.005628  -0.000000  -0.000000
    16  H    0.002855  -0.022024   0.404093  -0.028592  -0.000002   0.000001
              13         14         15         16
     1  Br   0.000030   0.000032  -0.000036   0.007504
     2  C    0.000972   0.000439   0.000019  -0.003504
     3  C    0.002118  -0.000217   0.000002  -0.000392
     4  C   -0.015962   0.000376   0.000044   0.000099
     5  C    0.386726  -0.008176  -0.000398  -0.000467
     6  C   -0.024555  -0.042471   0.005525   0.012972
     7  N    0.000441   0.389534  -0.030760   0.002855
     8  C    0.000335  -0.036969   0.411975  -0.022024
     9  C   -0.001173   0.006294  -0.025782   0.404093
    10  C    0.006471   0.012344   0.005628  -0.028592
    11  H   -0.000188  -0.000003  -0.000000  -0.000002
    12  H   -0.004145  -0.000002  -0.000000   0.000001
    13  H    0.479266   0.001900  -0.000002   0.000003
    14  H    0.001900   0.410326  -0.003415  -0.000073
    15  H   -0.000002  -0.003415   0.453779  -0.000875
    16  H    0.000003  -0.000073  -0.000875   0.457868
 Mulliken charges:
               1
     1  Br  -0.119321
     2  C   -0.066529
     3  C   -0.189574
     4  C   -0.155504
     5  C   -0.253411
     6  C    0.113771
     7  N   -0.307749
     8  C   -0.036409
     9  C   -0.299522
    10  C    0.190194
    11  H    0.169607
    12  H    0.161772
    13  H    0.167765
    14  H    0.270080
    15  H    0.184294
    16  H    0.170536
 Sum of Mulliken charges =  -0.00000
 Mulliken charges with hydrogens summed into heavy atoms:
               1
     1  Br  -0.119321
     2  C   -0.066529
     3  C   -0.019966
     4  C    0.006268
     5  C   -0.085647
     6  C    0.113771
     7  N   -0.037669
     8  C    0.147885
     9  C   -0.128986
    10  C    0.190194
 Electronic spatial extent (au):  <R**2>=           1997.7312
 Charge=              0.0000 electrons
 Dipole moment (field-independent basis, Debye):
    X=             -4.5731    Y=             -0.1683    Z=             -0.0002  Tot=              4.5762
 Quadrupole moment (field-independent basis, Debye-Ang):
   XX=            -54.0491   YY=            -61.8957   ZZ=            -76.1014
   XY=              3.1176   XZ=              0.0010   YZ=              0.0004
 Traceless Quadrupole moment (field-independent basis, Debye-Ang):
   XX=              9.9663   YY=              2.1197   ZZ=            -12.0860
   XY=              3.1176   XZ=              0.0010   YZ=              0.0004
 Octapole moment (field-independent basis, Debye-Ang**2):
  XXX=            -10.9808  YYY=            -10.2331  ZZZ=             -0.0039  XYY=              9.2636
  XXY=            -16.1995  XXZ=             -0.0053  XZZ=             27.5004  YZZ=             -5.0834
  YYZ=             -0.0004  XYZ=             -0.0013
 Hexadecapole moment (field-independent basis, Debye-Ang**3):
 XXXX=          -1166.5416 YYYY=           -769.0493 ZZZZ=            -89.7254 XXXY=             19.3633
 XXXZ=              0.0437 YYYX=              5.9637 YYYZ=             -0.0071 ZZZX=              0.0307
 ZZZY=             -0.0110 XXYY=           -338.1813 XXZZ=           -283.6232 YYZZ=           -182.2116
 XXYZ=              0.0023 YYXZ=              0.0073 ZZXY=             -6.5021
 N-N= 7.072434902595D+02 E-N=-8.410976448782D+03  KE= 2.932082604660D+03
 Calculating spin-rotation constants.
 Leave Link  601 at Tue Sep 17 10:28:55 2024, MaxMem=  1342177280 cpu:               2.2 elap:               2.2
 (Enter /groups/ReismanLab/Software/Gaussian16_RevC/Linux_Binary_AVX2-enabled-CPU/g16/l9999.exe)
 Unable to Open any file for archive entry.
 1\1\GINC-HPC-53-06\SP\RM062X\def2TZVP\C8H6Br1N1\MANTIND\17-Sep-2024\0\
 \#p M062X/def2tzvp geom=check guess=read scf(xqc,tight) integral(grid=
 ultrafine) scrf(SMD, solvent=1,4-Dioxane) nmr=giao\\spe\\0,1\Br,0,-2.0
 597871098,0.2433652878,-0.0001199694\C,0,-0.2985645452,-0.4970749008,-
 0.0000331149\C,0,-0.1205590561,-1.8702439247,0.0000061785\C,0,1.180804
 0461,-2.4104197027,0.0000743794\C,0,2.3070529555,-1.597413223,0.000112
 4143\C,0,2.1028177827,-0.2146996525,0.0000702149\N,0,3.005704148,0.828
 1115158,0.0000993751\C,0,2.3211989424,2.0310510308,0.0000059997\C,0,0.
 9724524353,1.7914059898,-0.0000388879\C,0,0.8028637409,0.3686405539,-0
 .0000098523\H,0,-0.9826840535,-2.5262431766,-0.0000170219\H,0,1.298966
 9848,-3.4890934854,0.0000979632\H,0,3.3062009592,-2.0213040327,0.00016
 23821\H,0,4.0070709886,0.7282862466,-0.0001257216\H,0,2.859828842,2.96
 70624311,0.0000139374\H,0,0.1847552306,2.5285934611,-0.0000670262\\Ver
 sion=ES64L-G16RevC.02\State=1-A\HF=-2937.4071241\RMSD=1.186e-09\Dipole
 =1.7973469,0.1049963,-0.0000891\Quadrupole=7.3070369,1.6785757,-8.9856
 126,2.4414432,-0.0007629,-0.0003291\PG=C01 [X(C8H6Br1N1)]\\@
 The archive entry for this job was punched.


 MEN HAVE BECOME THE TOOLS OF THEIR TOOLS... THOREAU   
 Job cpu time:       0 days  0 hours  8 minutes 34.5 seconds.
 Elapsed time:       0 days  0 hours  8 minutes 36.5 seconds.
 File lengths (MBytes):  RWF=    224 Int=      0 D2E=      0 Chk=     24 Scr=     16
 Normal termination of Gaussian 16 at Tue Sep 17 10:28:55 2024.
