 Entering Gaussian System, Link 0=g16
 Input=smiles_00122_conf_0.gjf
 Output=smiles_00122_conf_0.log
 Initial command:
 /groups/ReismanLab/Software/Gaussian16_RevC/Linux_Binary_AVX2-enabled-CPU/g16/l1.exe "/central/groups/ReismanLab/DM/dft_final/smiles_00122/Gau-1809629.inp" -scrdir="/central/groups/ReismanLab/DM/dft_final/smiles_00122/"
 Entering Link 1 = /groups/ReismanLab/Software/Gaussian16_RevC/Linux_Binary_AVX2-enabled-CPU/g16/l1.exe PID=   1809630.
  
 Copyright (c) 1988-2021, Gaussian, Inc.  All Rights Reserved.
  
 This is part of the Gaussian(R) 16 program.  It is based on
 the Gaussian(R) 09 system (copyright 2009, Gaussian, Inc.),
 the Gaussian(R) 03 system (copyright 2003, Gaussian, Inc.),
 the Gaussian(R) 98 system (copyright 1998, Gaussian, Inc.),
 the Gaussian(R) 94 system (copyright 1995, Gaussian, Inc.),
 the Gaussian 92(TM) system (copyright 1992, Gaussian, Inc.),
 the Gaussian 90(TM) system (copyright 1990, Gaussian, Inc.),
 the Gaussian 88(TM) system (copyright 1988, Gaussian, Inc.),
 the Gaussian 86(TM) system (copyright 1986, Carnegie Mellon
 University), and the Gaussian 82(TM) system (copyright 1983,
 Carnegie Mellon University). Gaussian is a federally registered
 trademark of Gaussian, Inc.
  
 This software contains proprietary and confidential information,
 including trade secrets, belonging to Gaussian, Inc.
  
 This software is provided under written license and may be
 used, copied, transmitted, or stored only in accord with that
 written license.
  
 The following legend is applicable only to US Government
 contracts under FAR:
  
                    RESTRICTED RIGHTS LEGEND
  
 Use, reproduction and disclosure by the US Government is
 subject to restrictions as set forth in subparagraphs (a)
 and (c) of the Commercial Computer Software - Restricted
 Rights clause in FAR 52.227-19.
  
 Gaussian, Inc.
 340 Quinnipiac St., Bldg. 40, Wallingford CT 06492
  
  
 ---------------------------------------------------------------
 Warning -- This program may not be used in any manner that
 competes with the business of Gaussian, Inc. or will provide
 assistance to any competitor of Gaussian, Inc.  The licensee
 of this program is prohibited from giving any competitor of
 Gaussian, Inc. access to this program.  By using this program,
 the user acknowledges that Gaussian, Inc. is engaged in the
 business of creating and licensing software in the field of
 computational chemistry and represents and warrants to the
 licensee that it is not a competitor of Gaussian, Inc. and that
 it will not use this program in any manner prohibited above.
 ---------------------------------------------------------------
  

 Cite this work as:
 Gaussian 16, Revision C.02,
 M. J. Frisch, G. W. Trucks, H. B. Schlegel, G. E. Scuseria, 
 M. A. Robb, J. R. Cheeseman, G. Scalmani, V. Barone, 
 G. A. Petersson, H. Nakatsuji, X. Li, M. Caricato, A. V. Marenich, 
 J. Bloino, B. G. Janesko, R. Gomperts, B. Mennucci, H. P. Hratchian, 
 J. V. Ortiz, A. F. Izmaylov, J. L. Sonnenberg, D. Williams-Young, 
 F. Ding, F. Lipparini, F. Egidi, J. Goings, B. Peng, A. Petrone, 
 T. Henderson, D. Ranasinghe, V. G. Zakrzewski, J. Gao, N. Rega, 
 G. Zheng, W. Liang, M. Hada, M. Ehara, K. Toyota, R. Fukuda, 
 J. Hasegawa, M. Ishida, T. Nakajima, Y. Honda, O. Kitao, H. Nakai, 
 T. Vreven, K. Throssell, J. A. Montgomery, Jr., J. E. Peralta, 
 F. Ogliaro, M. J. Bearpark, J. J. Heyd, E. N. Brothers, K. N. Kudin, 
 V. N. Staroverov, T. A. Keith, R. Kobayashi, J. Normand, 
 K. Raghavachari, A. P. Rendell, J. C. Burant, S. S. Iyengar, 
 J. Tomasi, M. Cossi, J. M. Millam, M. Klene, C. Adamo, R. Cammi, 
 J. W. Ochterski, R. L. Martin, K. Morokuma, O. Farkas, 
 J. B. Foresman, and D. J. Fox, Gaussian, Inc., Wallingford CT, 2019.
 
 ******************************************
 Gaussian 16:  ES64L-G16RevC.02  7-Dec-2021
                17-Sep-2024 
 ******************************************
 %nprocshared=8
 Will use up to    8 processors via shared memory.
 %Mem=10GB
 %Chk=smiles_00122_conf_0.chk
 ----------------------------------------------------------------------
 #p B3LYP/6-31G(d,p) EmpiricalDispersion=GD3BJ opt freq scf(xqc,tight) 
 integral(grid=ultrafine)
 ----------------------------------------------------------------------
 1/18=20,19=15,26=4,38=1/1,3;
 2/9=110,12=2,17=6,18=5,40=1/2;
 3/5=1,6=6,7=101,11=2,25=1,30=1,71=1,74=-5,75=-5,124=41/1,2,3;
 4//1;
 5/5=2,8=3,13=1,32=2,38=5/2,8;
 6/7=2,8=2,9=2,10=2,28=1/1;
 7//1,2,3,16;
 1/18=20,19=15,26=4/3(2);
 2/9=110/2;
 99//99;
 2/9=110/2;
 3/5=1,6=6,7=101,11=2,25=1,30=1,71=1,74=-5,75=-5,124=41/1,2,3;
 4/5=5,16=3,69=1/1;
 5/5=2,8=3,13=1,32=2,38=5/2,8;
 7//1,2,3,16;
 1/18=20,19=15,26=4/3(-5);
 2/9=110/2;
 6/7=2,8=2,9=2,10=2,19=2,28=1/1;
 99/9=1/99;
 Leave Link    1 at Tue Sep 17 09:46:07 2024, MaxMem=  1342177280 cpu:               0.1 elap:               0.8
 (Enter /groups/ReismanLab/Software/Gaussian16_RevC/Linux_Binary_AVX2-enabled-CPU/g16/l101.exe)
 ----------------------------------
 opt-freq conformers_unique/conf_aa
 ----------------------------------
 Symbolic Z-matrix:
 Charge =  0 Multiplicity = 1
 Br                    1.63772   0.00001   0. 
 C                    -0.25599  -0.00014   0.0001 
 C                    -0.98014  -1.18696  -0.00002 
 N                    -2.29984  -1.17766  -0.00007 
 C                    -2.89789   0.00005   0.00007 
 N                    -2.29968   1.17781  -0.00001 
 C                    -0.98013   1.18683  -0.0001 
 H                    -0.49613  -2.15462   0.00006 
 H                    -3.97922   0.00007   0.00035 
 H                    -0.4958    2.15433   0.00006 
 
 ITRead=  0  0  0  0  0  0  0  0  0  0
 MicOpt= -1 -1 -1 -1 -1 -1 -1 -1 -1 -1
 NAtoms=     10 NQM=       10 NQMF=       0 NMMI=      0 NMMIF=      0
                NMic=       0 NMicF=      0.
                    Isotopes and Nuclear Properties:
 (Nuclear quadrupole moments (NQMom) in fm**2, nuclear magnetic moments (NMagM)
  in nuclear magnetons)

  Atom         1           2           3           4           5           6           7           8           9          10
 IAtWgt=          79          12          12          14          12          14          12           1           1           1
 AtmWgt=  78.9183361  12.0000000  12.0000000  14.0030740  12.0000000  14.0030740  12.0000000   1.0078250   1.0078250   1.0078250
 NucSpn=           3           0           0           2           0           2           0           1           1           1
 AtZEff=  -0.0000000  -0.0000000  -0.0000000  -0.0000000  -0.0000000  -0.0000000  -0.0000000  -0.0000000  -0.0000000  -0.0000000
 NQMom=   31.3000000   0.0000000   0.0000000   2.0440000   0.0000000   2.0440000   0.0000000   0.0000000   0.0000000   0.0000000
 NMagM=    2.1063990   0.0000000   0.0000000   0.4037610   0.0000000   0.4037610   0.0000000   2.7928460   2.7928460   2.7928460
 AtZNuc=  35.0000000   6.0000000   6.0000000   7.0000000   6.0000000   7.0000000   6.0000000   1.0000000   1.0000000   1.0000000
 Leave Link  101 at Tue Sep 17 09:46:07 2024, MaxMem=  1342177280 cpu:               0.2 elap:               0.3
 (Enter /groups/ReismanLab/Software/Gaussian16_RevC/Linux_Binary_AVX2-enabled-CPU/g16/l103.exe)

 GradGradGradGradGradGradGradGradGradGradGradGradGradGradGradGradGradGrad
 Berny optimization.
 Initialization pass.
                           ----------------------------
                           !    Initial Parameters    !
                           ! (Angstroms and Degrees)  !
 --------------------------                            --------------------------
 ! Name  Definition              Value          Derivative Info.                !
 --------------------------------------------------------------------------------
 ! R1    R(1,2)                  1.8937         estimate D2E/DX2                !
 ! R2    R(2,3)                  1.3903         estimate D2E/DX2                !
 ! R3    R(2,7)                  1.3904         estimate D2E/DX2                !
 ! R4    R(3,4)                  1.3197         estimate D2E/DX2                !
 ! R5    R(3,8)                  1.0819         estimate D2E/DX2                !
 ! R6    R(4,5)                  1.3209         estimate D2E/DX2                !
 ! R7    R(5,6)                  1.321          estimate D2E/DX2                !
 ! R8    R(5,9)                  1.0813         estimate D2E/DX2                !
 ! R9    R(6,7)                  1.3196         estimate D2E/DX2                !
 ! R10   R(7,10)                 1.082          estimate D2E/DX2                !
 ! A1    A(1,2,3)              121.3945         estimate D2E/DX2                !
 ! A2    A(1,2,7)              121.3816         estimate D2E/DX2                !
 ! A3    A(3,2,7)              117.2239         estimate D2E/DX2                !
 ! A4    A(2,3,4)              120.9859         estimate D2E/DX2                !
 ! A5    A(2,3,8)              122.0368         estimate D2E/DX2                !
 ! A6    A(4,3,8)              116.9773         estimate D2E/DX2                !
 ! A7    A(3,4,5)              117.3254         estimate D2E/DX2                !
 ! A8    A(4,5,6)              126.1514         estimate D2E/DX2                !
 ! A9    A(4,5,9)              116.9223         estimate D2E/DX2                !
 ! A10   A(6,5,9)              116.9263         estimate D2E/DX2                !
 ! A11   A(5,6,7)              117.3187         estimate D2E/DX2                !
 ! A12   A(2,7,6)              120.9948         estimate D2E/DX2                !
 ! A13   A(2,7,10)             122.0214         estimate D2E/DX2                !
 ! A14   A(6,7,10)             116.9839         estimate D2E/DX2                !
 ! D1    D(1,2,3,4)           -179.9937         estimate D2E/DX2                !
 ! D2    D(1,2,3,8)              0.0146         estimate D2E/DX2                !
 ! D3    D(7,2,3,4)             -0.0123         estimate D2E/DX2                !
 ! D4    D(7,2,3,8)            179.996          estimate D2E/DX2                !
 ! D5    D(1,2,7,6)           -179.9988         estimate D2E/DX2                !
 ! D6    D(1,2,7,10)            -0.024          estimate D2E/DX2                !
 ! D7    D(3,2,7,6)              0.0198         estimate D2E/DX2                !
 ! D8    D(3,2,7,10)           179.9947         estimate D2E/DX2                !
 ! D9    D(2,3,4,5)             -0.0035         estimate D2E/DX2                !
 ! D10   D(8,3,4,5)            179.9886         estimate D2E/DX2                !
 ! D11   D(3,4,5,6)              0.014          estimate D2E/DX2                !
 ! D12   D(3,4,5,9)           -179.9808         estimate D2E/DX2                !
 ! D13   D(4,5,6,7)             -0.0068         estimate D2E/DX2                !
 ! D14   D(9,5,6,7)            179.9881         estimate D2E/DX2                !
 ! D15   D(5,6,7,2)             -0.0109         estimate D2E/DX2                !
 ! D16   D(5,6,7,10)          -179.9869         estimate D2E/DX2                !
 --------------------------------------------------------------------------------
 Trust Radius=3.00D-01 FncErr=1.00D-07 GrdErr=1.00D-06 EigMax=2.50D+02 EigMin=1.00D-04
 Number of steps in this run=     50 maximum allowed number of steps=    100.
 GradGradGradGradGradGradGradGradGradGradGradGradGradGradGradGradGradGrad

 Leave Link  103 at Tue Sep 17 09:46:07 2024, MaxMem=  1342177280 cpu:               0.1 elap:               0.0
 (Enter /groups/ReismanLab/Software/Gaussian16_RevC/Linux_Binary_AVX2-enabled-CPU/g16/l202.exe)
                          Input orientation:                          
 ---------------------------------------------------------------------
 Center     Atomic      Atomic             Coordinates (Angstroms)
 Number     Number       Type             X           Y           Z
 ---------------------------------------------------------------------
      1         35           0        1.637721    0.000010    0.000001
      2          6           0       -0.255987   -0.000144    0.000102
      3          6           0       -0.980136   -1.186965   -0.000021
      4          7           0       -2.299844   -1.177660   -0.000074
      5          6           0       -2.897888    0.000055    0.000067
      6          7           0       -2.299676    1.177812   -0.000005
      7          6           0       -0.980129    1.186829   -0.000101
      8          1           0       -0.496134   -2.154617    0.000056
      9          1           0       -3.979217    0.000071    0.000346
     10          1           0       -0.495802    2.154330    0.000061
 ---------------------------------------------------------------------
                    Distance matrix (angstroms):
                    1          2          3          4          5
     1  Br   0.000000
     2  C    1.893708   0.000000
     3  C    2.874384   1.390300   0.000000
     4  N    4.109906   2.358792   1.319741   0.000000
     5  C    4.535609   2.641901   2.255391   1.320859   0.000000
     6  N    4.109783   2.358866   2.708017   2.355472   1.320973
     7  C    2.874313   1.390427   2.373794   2.707852   2.255268
     8  H    3.032450   2.167815   1.081947   2.051296   3.226613
     9  H    5.616938   3.723230   3.225452   2.051181   1.081329
    10  H    3.031998   2.167780   3.376215   3.789027   3.226595
                    6          7          8          9         10
     6  N    0.000000
     7  C    1.319578   0.000000
     8  H    3.789175   3.376317   0.000000
     9  H    2.051325   3.225357   4.095674   0.000000
    10  H    2.051231   1.081956   4.308947   4.095731   0.000000
 Stoichiometry    C4H3BrN2
 Framework group  C1[X(C4H3BrN2)]
 Deg. of freedom    24
 Full point group                 C1      NOp   1
 Largest Abelian subgroup         C1      NOp   1
 Largest concise Abelian subgroup C1      NOp   1
                         Standard orientation:                         
 ---------------------------------------------------------------------
 Center     Atomic      Atomic             Coordinates (Angstroms)
 Number     Number       Type             X           Y           Z
 ---------------------------------------------------------------------
      1         35           0       -1.776305   -0.000010   -0.000002
      2          6           0        0.117402    0.000142    0.000099
      3          6           0        0.841553    1.186962   -0.000024
      4          7           0        2.161261    1.177656   -0.000077
      5          6           0        2.759304   -0.000059    0.000064
      6          7           0        2.161091   -1.177816   -0.000008
      7          6           0        0.841543   -1.186832   -0.000104
      8          1           0        0.357552    2.154615    0.000053
      9          1           0        3.840633   -0.000076    0.000343
     10          1           0        0.357216   -2.154332    0.000058
 ---------------------------------------------------------------------
 Rotational constants (GHZ):           6.1622705           1.0090529           0.8670724
 Leave Link  202 at Tue Sep 17 09:46:07 2024, MaxMem=  1342177280 cpu:               0.1 elap:               0.0
 (Enter /groups/ReismanLab/Software/Gaussian16_RevC/Linux_Binary_AVX2-enabled-CPU/g16/l301.exe)
 Standard basis: 6-31G(d,p) (6D, 7F)
 Ernie: Thresh=  0.10000D-02 Tol=  0.10000D-05 Strict=F.
 There are   135 symmetry adapted cartesian basis functions of A   symmetry.
 There are   135 symmetry adapted basis functions of A   symmetry.
   135 basis functions,   272 primitive gaussians,   135 cartesian basis functions
    38 alpha electrons       38 beta electrons
       nuclear repulsion energy       440.2132033808 Hartrees.
 IExCor=  402 DFT=T Ex+Corr=B3LYP ExCW=0 ScaHFX=  0.200000
 ScaDFX=  0.800000  0.720000  1.000000  0.810000 ScalE2=  1.000000  1.000000
 IRadAn=      5 IRanWt=     -1 IRanGd=            0 ICorTp=0 IEmpDi=141
 NAtoms=   10 NActive=   10 NUniq=   10 SFac= 1.00D+00 NAtFMM=   60 NAOKFM=F Big=F
 Integral buffers will be    131072 words long.
 Raffenetti 2 integral format.
 Two-electron integral symmetry is turned on.
 R6Disp:  Grimme-D3(BJ) Dispersion energy=       -0.0198087374 Hartrees.
 Nuclear repulsion after empirical dispersion term =      440.1933946434 Hartrees.
 Leave Link  301 at Tue Sep 17 09:46:07 2024, MaxMem=  1342177280 cpu:               0.1 elap:               0.1
 (Enter /groups/ReismanLab/Software/Gaussian16_RevC/Linux_Binary_AVX2-enabled-CPU/g16/l302.exe)
 NPDir=0 NMtPBC=     1 NCelOv=     1 NCel=       1 NClECP=     1 NCelD=      1
         NCelK=      1 NCelE2=     1 NClLst=     1 CellRange=     0.0.
 One-electron integrals computed using PRISM.
 One-electron integral symmetry used in STVInt
 NBasis=   135 RedAO= T EigKep=  7.53D-04  NBF=   135
 NBsUse=   135 1.00D-06 EigRej= -1.00D+00 NBFU=   135
 Precomputing XC quadrature grid using
 IXCGrd= 4 IRadAn=           5 IRanWt=          -1 IRanGd=           0 AccXCQ= 0.00D+00.
 Generated NRdTot=       0 NPtTot=           0 NUsed=           0 NTot=          32
 NSgBfM=   135   135   135   135   135 MxSgAt=    10 MxSgA2=    10.
 Leave Link  302 at Tue Sep 17 09:46:08 2024, MaxMem=  1342177280 cpu:               0.9 elap:               0.5
 (Enter /groups/ReismanLab/Software/Gaussian16_RevC/Linux_Binary_AVX2-enabled-CPU/g16/l303.exe)
 DipDrv:  MaxL=1.
 Leave Link  303 at Tue Sep 17 09:46:08 2024, MaxMem=  1342177280 cpu:               0.1 elap:               0.1
 (Enter /groups/ReismanLab/Software/Gaussian16_RevC/Linux_Binary_AVX2-enabled-CPU/g16/l401.exe)
 ExpMin= 1.43D-01 ExpMax= 5.74D+05 ExpMxC= 5.74D+03 IAcc=3 IRadAn=         5 AccDes= 0.00D+00
 Harris functional with IExCor=  402 and IRadAn=       5 diagonalized for initial guess.
 HarFok:  IExCor=  402 AccDes= 0.00D+00 IRadAn=         5 IDoV= 1 UseB2=F ITyADJ=14
 ICtDFT=  3500011 ScaDFX=  1.000000  1.000000  1.000000  1.000000
 FoFCou: FMM=F IPFlag=           0 FMFlag=      100000 FMFlg1=           0
         NFxFlg=           0 DoJE=T BraDBF=F KetDBF=T FulRan=T
         wScrn=  0.000000 ICntrl=       500 IOpCl=  0 I1Cent=   200000004 NGrid=           0
         NMat0=    1 NMatS0=      1 NMatT0=    0 NMatD0=    1 NMtDS0=    0 NMtDT0=    0
 Petite list used in FoFCou.
 Harris En= -2835.51433837006    
 JPrj=0 DoOrth=F DoCkMO=F.
 Leave Link  401 at Tue Sep 17 09:46:09 2024, MaxMem=  1342177280 cpu:               2.3 elap:               0.6
 (Enter /groups/ReismanLab/Software/Gaussian16_RevC/Linux_Binary_AVX2-enabled-CPU/g16/l502.exe)
 Keep R1 ints in memory in canonical form, NReq=49821054.
 FoFCou: FMM=F IPFlag=           0 FMFlag=           0 FMFlg1=           0
         NFxFlg=           0 DoJE=F BraDBF=F KetDBF=F FulRan=T
         wScrn=  0.000000 ICntrl=       600 IOpCl=  0 I1Cent=           0 NGrid=           0
         NMat0=    1 NMatS0=   9180 NMatT0=    0 NMatD0=    1 NMtDS0=    0 NMtDT0=    0
 Symmetry not used in FoFCou.
 Two-electron integral symmetry not used.
 Closed shell SCF:
 Using DIIS extrapolation, IDIIS=  1040.
 NGot=  1342177280 LenX=  1299997284 LenY=  1299978618
 Requested convergence on RMS density matrix=1.00D-08 within  32 cycles.
 Requested convergence on MAX density matrix=1.00D-06.
 Requested convergence on             energy=1.00D-06.
 No special actions if energy rises.
 Integral accuracy reduced to 1.0D-05 until final iterations.

 Cycle   1  Pass 0  IDiag  1:
 E= -2835.36444994044    
 DIIS: error= 2.14D-01 at cycle   1 NSaved=   1.
 NSaved= 1 IEnMin= 1 EnMin= -2835.36444994044     IErMin= 1 ErrMin= 2.14D-01
 ErrMax= 2.14D-01  0.00D+00 EMaxC= 1.00D-01 BMatC= 4.39D-01 BMatP= 4.39D-01
 IDIUse=3 WtCom= 0.00D+00 WtEn= 1.00D+00
 Coeff-Com:  0.100D+01
 Coeff-En:   0.100D+01
 Coeff:      0.100D+01
 Gap=     0.271 Goal=   None    Shift=    0.000
 GapD=    0.271 DampG=1.000 DampE=0.250 DampFc=0.2500 IDamp=-1.
 Damping current iteration by 2.50D-01
 RMSDP=5.66D-03 MaxDP=1.42D-01              OVMax= 1.17D-01

 Cycle   2  Pass 0  IDiag  1:
 E= -2835.39300222312     Delta-E=       -0.028552282685 Rises=F Damp=T
 DIIS: error= 1.58D-01 at cycle   2 NSaved=   2.
 NSaved= 2 IEnMin= 2 EnMin= -2835.39300222312     IErMin= 2 ErrMin= 1.58D-01
 ErrMax= 1.58D-01  0.00D+00 EMaxC= 1.00D-01 BMatC= 2.18D-01 BMatP= 4.39D-01
 IDIUse=3 WtCom= 0.00D+00 WtEn= 1.00D+00
 Coeff-Com: -0.197D+01 0.297D+01
 Coeff-En:   0.000D+00 0.100D+01
 Coeff:      0.000D+00 0.100D+01
 Gap=     0.208 Goal=   None    Shift=    0.000
 RMSDP=3.30D-03 MaxDP=1.09D-01 DE=-2.86D-02 OVMax= 4.66D-02

 Cycle   3  Pass 0  IDiag  1:
 E= -2835.43416966611     Delta-E=       -0.041167442991 Rises=F Damp=F
 DIIS: error= 1.16D-02 at cycle   3 NSaved=   3.
 NSaved= 3 IEnMin= 3 EnMin= -2835.43416966611     IErMin= 3 ErrMin= 1.16D-02
 ErrMax= 1.16D-02  0.00D+00 EMaxC= 1.00D-01 BMatC= 1.57D-02 BMatP= 2.18D-01
 IDIUse=3 WtCom= 8.84D-01 WtEn= 1.16D-01
 Coeff-Com:  0.176D+01-0.230D+01 0.154D+01
 Coeff-En:   0.481D-02 0.000D+00 0.995D+00
 Coeff:      0.156D+01-0.204D+01 0.148D+01
 Gap=     0.208 Goal=   None    Shift=    0.000
 RMSDP=1.28D-03 MaxDP=2.68D-02 DE=-4.12D-02 OVMax= 3.51D-02

 Cycle   4  Pass 0  IDiag  1:
 E= -2835.44761919639     Delta-E=       -0.013449530280 Rises=F Damp=F
 DIIS: error= 2.71D-03 at cycle   4 NSaved=   4.
 NSaved= 4 IEnMin= 4 EnMin= -2835.44761919639     IErMin= 4 ErrMin= 2.71D-03
 ErrMax= 2.71D-03  0.00D+00 EMaxC= 1.00D-01 BMatC= 9.52D-04 BMatP= 1.57D-02
 IDIUse=3 WtCom= 9.73D-01 WtEn= 2.71D-02
 Coeff-Com:  0.704D+00-0.925D+00 0.665D+00 0.557D+00
 Coeff-En:   0.000D+00 0.000D+00 0.000D+00 0.100D+01
 Coeff:      0.685D+00-0.900D+00 0.647D+00 0.569D+00
 Gap=     0.211 Goal=   None    Shift=    0.000
 RMSDP=3.44D-04 MaxDP=8.45D-03 DE=-1.34D-02 OVMax= 1.17D-02

 Cycle   5  Pass 0  IDiag  1:
 E= -2835.44841557916     Delta-E=       -0.000796382766 Rises=F Damp=F
 DIIS: error= 1.24D-03 at cycle   5 NSaved=   5.
 NSaved= 5 IEnMin= 5 EnMin= -2835.44841557916     IErMin= 5 ErrMin= 1.24D-03
 ErrMax= 1.24D-03  0.00D+00 EMaxC= 1.00D-01 BMatC= 1.97D-04 BMatP= 9.52D-04
 IDIUse=3 WtCom= 9.88D-01 WtEn= 1.24D-02
 Coeff-Com:  0.254D+00-0.335D+00 0.251D+00 0.357D+00 0.473D+00
 Coeff-En:   0.000D+00 0.000D+00 0.000D+00 0.149D+00 0.851D+00
 Coeff:      0.251D+00-0.331D+00 0.248D+00 0.354D+00 0.477D+00
 Gap=     0.209 Goal=   None    Shift=    0.000
 RMSDP=1.19D-04 MaxDP=2.52D-03 DE=-7.96D-04 OVMax= 5.12D-03

 Cycle   6  Pass 0  IDiag  1:
 E= -2835.44860319204     Delta-E=       -0.000187612879 Rises=F Damp=F
 DIIS: error= 4.15D-04 at cycle   6 NSaved=   6.
 NSaved= 6 IEnMin= 6 EnMin= -2835.44860319204     IErMin= 6 ErrMin= 4.15D-04
 ErrMax= 4.15D-04  0.00D+00 EMaxC= 1.00D-01 BMatC= 1.43D-05 BMatP= 1.97D-04
 IDIUse=3 WtCom= 9.96D-01 WtEn= 4.15D-03
 Coeff-Com:  0.102D+00-0.134D+00 0.104D+00 0.187D+00 0.303D+00 0.439D+00
 Coeff-En:   0.000D+00 0.000D+00 0.000D+00 0.000D+00 0.000D+00 0.100D+01
 Coeff:      0.101D+00-0.134D+00 0.103D+00 0.186D+00 0.301D+00 0.442D+00
 Gap=     0.209 Goal=   None    Shift=    0.000
 RMSDP=3.28D-05 MaxDP=9.29D-04 DE=-1.88D-04 OVMax= 1.98D-03

 Cycle   7  Pass 0  IDiag  1:
 E= -2835.44861877966     Delta-E=       -0.000015587620 Rises=F Damp=F
 DIIS: error= 3.68D-05 at cycle   7 NSaved=   7.
 NSaved= 7 IEnMin= 7 EnMin= -2835.44861877966     IErMin= 7 ErrMin= 3.68D-05
 ErrMax= 3.68D-05  0.00D+00 EMaxC= 1.00D-01 BMatC= 1.77D-07 BMatP= 1.43D-05
 IDIUse=1 WtCom= 1.00D+00 WtEn= 0.00D+00
 Coeff-Com:  0.124D-01-0.164D-01 0.137D-01 0.351D-01 0.575D-01 0.137D+00
 Coeff-Com:  0.761D+00
 Coeff:      0.124D-01-0.164D-01 0.137D-01 0.351D-01 0.575D-01 0.137D+00
 Coeff:      0.761D+00
 Gap=     0.209 Goal=   None    Shift=    0.000
 RMSDP=4.53D-06 MaxDP=1.05D-04 DE=-1.56D-05 OVMax= 1.80D-04

 Initial convergence to 1.0D-05 achieved.  Increase integral accuracy.
 Cycle   8  Pass 1  IDiag  1:
 E= -2835.44864034863     Delta-E=       -0.000021568974 Rises=F Damp=F
 DIIS: error= 9.35D-06 at cycle   1 NSaved=   1.
 NSaved= 1 IEnMin= 1 EnMin= -2835.44864034863     IErMin= 1 ErrMin= 9.35D-06
 ErrMax= 9.35D-06  0.00D+00 EMaxC= 1.00D-01 BMatC= 1.56D-08 BMatP= 1.56D-08
 IDIUse=1 WtCom= 1.00D+00 WtEn= 0.00D+00
 Coeff-Com:  0.100D+01
 Coeff:      0.100D+01
 Gap=     0.209 Goal=   None    Shift=    0.000
 RMSDP=4.53D-06 MaxDP=1.05D-04 DE=-2.16D-05 OVMax= 7.07D-05

 Cycle   9  Pass 1  IDiag  1:
 E= -2835.44864035341     Delta-E=       -0.000000004781 Rises=F Damp=F
 DIIS: error= 9.49D-06 at cycle   2 NSaved=   2.
 NSaved= 2 IEnMin= 2 EnMin= -2835.44864035341     IErMin= 1 ErrMin= 9.35D-06
 ErrMax= 9.49D-06  0.00D+00 EMaxC= 1.00D-01 BMatC= 1.12D-08 BMatP= 1.56D-08
 IDIUse=1 WtCom= 1.00D+00 WtEn= 0.00D+00
 Coeff-Com:  0.448D+00 0.552D+00
 Coeff:      0.448D+00 0.552D+00
 Gap=     0.209 Goal=   None    Shift=    0.000
 RMSDP=1.01D-06 MaxDP=3.14D-05 DE=-4.78D-09 OVMax= 4.19D-05

 Cycle  10  Pass 1  IDiag  1:
 E= -2835.44864036302     Delta-E=       -0.000000009607 Rises=F Damp=F
 DIIS: error= 4.26D-06 at cycle   3 NSaved=   3.
 NSaved= 3 IEnMin= 3 EnMin= -2835.44864036302     IErMin= 3 ErrMin= 4.26D-06
 ErrMax= 4.26D-06  0.00D+00 EMaxC= 1.00D-01 BMatC= 1.60D-09 BMatP= 1.12D-08
 IDIUse=1 WtCom= 1.00D+00 WtEn= 0.00D+00
 Coeff-Com:  0.296D-01 0.274D+00 0.697D+00
 Coeff:      0.296D-01 0.274D+00 0.697D+00
 Gap=     0.209 Goal=   None    Shift=    0.000
 RMSDP=3.08D-07 MaxDP=1.08D-05 DE=-9.61D-09 OVMax= 1.31D-05

 Cycle  11  Pass 1  IDiag  1:
 E= -2835.44864036447     Delta-E=       -0.000000001447 Rises=F Damp=F
 DIIS: error= 1.09D-06 at cycle   4 NSaved=   4.
 NSaved= 4 IEnMin= 4 EnMin= -2835.44864036447     IErMin= 4 ErrMin= 1.09D-06
 ErrMax= 1.09D-06  0.00D+00 EMaxC= 1.00D-01 BMatC= 1.12D-10 BMatP= 1.60D-09
 IDIUse=1 WtCom= 1.00D+00 WtEn= 0.00D+00
 Coeff-Com: -0.478D-02 0.115D+00 0.353D+00 0.537D+00
 Coeff:     -0.478D-02 0.115D+00 0.353D+00 0.537D+00
 Gap=     0.209 Goal=   None    Shift=    0.000
 RMSDP=1.14D-07 MaxDP=2.60D-06 DE=-1.45D-09 OVMax= 4.81D-06

 Cycle  12  Pass 1  IDiag  1:
 E= -2835.44864036458     Delta-E=       -0.000000000114 Rises=F Damp=F
 DIIS: error= 5.03D-07 at cycle   5 NSaved=   5.
 NSaved= 5 IEnMin= 5 EnMin= -2835.44864036458     IErMin= 5 ErrMin= 5.03D-07
 ErrMax= 5.03D-07  0.00D+00 EMaxC= 1.00D-01 BMatC= 2.66D-11 BMatP= 1.12D-10
 IDIUse=1 WtCom= 1.00D+00 WtEn= 0.00D+00
 Coeff-Com: -0.560D-02 0.543D-01 0.182D+00 0.365D+00 0.404D+00
 Coeff:     -0.560D-02 0.543D-01 0.182D+00 0.365D+00 0.404D+00
 Gap=     0.209 Goal=   None    Shift=    0.000
 RMSDP=3.86D-08 MaxDP=1.18D-06 DE=-1.14D-10 OVMax= 1.65D-06

 Cycle  13  Pass 1  IDiag  1:
 E= -2835.44864036458     Delta-E=        0.000000000001 Rises=F Damp=F
 DIIS: error= 3.50D-08 at cycle   6 NSaved=   6.
 NSaved= 6 IEnMin= 5 EnMin= -2835.44864036458     IErMin= 6 ErrMin= 3.50D-08
 ErrMax= 3.50D-08  0.00D+00 EMaxC= 1.00D-01 BMatC= 1.54D-13 BMatP= 2.66D-11
 IDIUse=1 WtCom= 1.00D+00 WtEn= 0.00D+00
 Coeff-Com: -0.104D-02 0.681D-02 0.268D-01 0.659D-01 0.107D+00 0.794D+00
 Coeff:     -0.104D-02 0.681D-02 0.268D-01 0.659D-01 0.107D+00 0.794D+00
 Gap=     0.209 Goal=   None    Shift=    0.000
 RMSDP=7.47D-09 MaxDP=1.71D-07 DE= 9.09D-13 OVMax= 2.26D-07

 SCF Done:  E(RB3LYP) =  -2835.44864036     A.U. after   13 cycles
            NFock= 13  Conv=0.75D-08     -V/T= 2.0064
 KE= 2.817486591483D+03 PE=-7.625998165948D+03 EE= 1.532869539457D+03
 Leave Link  502 at Tue Sep 17 09:46:12 2024, MaxMem=  1342177280 cpu:              18.1 elap:               3.2
 (Enter /groups/ReismanLab/Software/Gaussian16_RevC/Linux_Binary_AVX2-enabled-CPU/g16/l508.exe)
 QCSCF skips out because SCF is already converged.
 Leave Link  508 at Tue Sep 17 09:46:12 2024, MaxMem=  1342177280 cpu:               0.1 elap:               0.0
 (Enter /groups/ReismanLab/Software/Gaussian16_RevC/Linux_Binary_AVX2-enabled-CPU/g16/l601.exe)
 Copying SCF densities to generalized density rwf, IOpCl= 0 IROHF=0.

 **********************************************************************

            Population analysis using the SCF Density.

 **********************************************************************

 Orbital symmetries:
       Occupied  (A) (A) (A) (A) (A) (A) (A) (A) (A) (A) (A) (A)
                 (A) (A) (A) (A) (A) (A) (A) (A) (A) (A) (A) (A)
                 (A) (A) (A) (A) (A) (A) (A) (A) (A) (A) (A) (A)
                 (A) (A)
       Virtual   (A) (A) (A) (A) (A) (A) (A) (A) (A) (A) (A) (A)
                 (A) (A) (A) (A) (A) (A) (A) (A) (A) (A) (A) (A)
                 (A) (A) (A) (A) (A) (A) (A) (A) (A) (A) (A) (A)
                 (A) (A) (A) (A) (A) (A) (A) (A) (A) (A) (A) (A)
                 (A) (A) (A) (A) (A) (A) (A) (A) (A) (A) (A) (A)
                 (A) (A) (A) (A) (A) (A) (A) (A) (A) (A) (A) (A)
                 (A) (A) (A) (A) (A) (A) (A) (A) (A) (A) (A) (A)
                 (A) (A) (A) (A) (A) (A) (A) (A) (A) (A) (A) (A)
                 (A)
 The electronic state is 1-A.
 Alpha  occ. eigenvalues -- -482.93230 -61.89403 -56.41548 -56.41120 -56.41114
 Alpha  occ. eigenvalues --  -14.35502 -14.35501 -10.26943 -10.26679 -10.25899
 Alpha  occ. eigenvalues --  -10.25898  -8.60552  -6.55974  -6.54663  -6.54632
 Alpha  occ. eigenvalues --   -2.67543  -2.67168  -2.67145  -2.66098  -2.66098
 Alpha  occ. eigenvalues --   -1.01431  -0.91367  -0.85231  -0.76566  -0.68165
 Alpha  occ. eigenvalues --   -0.66047  -0.55448  -0.54271  -0.45261  -0.45129
 Alpha  occ. eigenvalues --   -0.44451  -0.42848  -0.35084  -0.33720  -0.31559
 Alpha  occ. eigenvalues --   -0.31133  -0.27250  -0.26284
 Alpha virt. eigenvalues --   -0.05358  -0.04315  -0.00655   0.11676   0.12306
 Alpha virt. eigenvalues --    0.14753   0.15058   0.19770   0.22070   0.26973
 Alpha virt. eigenvalues --    0.30337   0.33649   0.35842   0.35896   0.44453
 Alpha virt. eigenvalues --    0.44454   0.44762   0.46390   0.46815   0.47260
 Alpha virt. eigenvalues --    0.52004   0.52240   0.57970   0.57981   0.58121
 Alpha virt. eigenvalues --    0.60155   0.62188   0.65904   0.66460   0.72363
 Alpha virt. eigenvalues --    0.73060   0.76662   0.78156   0.78454   0.82886
 Alpha virt. eigenvalues --    0.82903   0.86337   0.86392   0.87840   0.89524
 Alpha virt. eigenvalues --    0.99377   1.02835   1.09920   1.15392   1.17754
 Alpha virt. eigenvalues --    1.22004   1.22186   1.32889   1.38341   1.40095
 Alpha virt. eigenvalues --    1.41699   1.42378   1.49009   1.51171   1.53712
 Alpha virt. eigenvalues --    1.60290   1.71466   1.78596   1.82813   1.83363
 Alpha virt. eigenvalues --    1.86212   2.00586   2.02538   2.02923   2.07088
 Alpha virt. eigenvalues --    2.13184   2.14484   2.16899   2.31228   2.33738
 Alpha virt. eigenvalues --    2.34771   2.37521   2.46725   2.49492   2.49655
 Alpha virt. eigenvalues --    2.54083   2.54530   2.57361   2.62980   2.67438
 Alpha virt. eigenvalues --    2.72943   2.73299   2.93816   3.10458   3.16122
 Alpha virt. eigenvalues --    3.16332   3.37648   3.39104   3.65161   3.91121
 Alpha virt. eigenvalues --    4.01338   4.25039   4.25361   4.32513   4.55373
 Alpha virt. eigenvalues --    8.58469  72.77277
          Condensed to atoms (all electrons):
               1          2          3          4          5          6
     1  Br  34.943989   0.243118  -0.051480   0.004137   0.000627   0.004139
     2  C    0.243118   5.043779   0.453611  -0.024380  -0.035560  -0.024391
     3  C   -0.051480   0.453611   4.769509   0.461117  -0.071359  -0.042046
     4  N    0.004137  -0.024380   0.461117   6.706971   0.455607  -0.054256
     5  C    0.000627  -0.035560  -0.071359   0.455607   4.614878   0.455466
     6  N    0.004139  -0.024391  -0.042046  -0.054256   0.455466   6.706998
     7  C   -0.051479   0.453513  -0.040401  -0.042041  -0.071360   0.461243
     8  H    0.001468  -0.068490   0.396254  -0.049054   0.004883  -0.000548
     9  H    0.000023   0.000412   0.004807  -0.064991   0.406118  -0.064988
    10  H    0.001471  -0.068511   0.003661  -0.000548   0.004885  -0.049054
               7          8          9         10
     1  Br  -0.051479   0.001468   0.000023   0.001471
     2  C    0.453513  -0.068490   0.000412  -0.068511
     3  C   -0.040401   0.396254   0.004807   0.003661
     4  N   -0.042041  -0.049054  -0.064991  -0.000548
     5  C   -0.071360   0.004883   0.406118   0.004885
     6  N    0.461243  -0.000548  -0.064988  -0.049054
     7  C    4.769425   0.003659   0.004806   0.396248
     8  H    0.003659   0.580674  -0.000175  -0.000157
     9  H    0.004806  -0.000175   0.591411  -0.000175
    10  H    0.396248  -0.000157  -0.000175   0.580708
 Mulliken charges:
               1
     1  Br  -0.096012
     2  C    0.026899
     3  C    0.116326
     4  N   -0.392563
     5  C    0.235816
     6  N   -0.392563
     7  C    0.116385
     8  H    0.131487
     9  H    0.122753
    10  H    0.131472
 Sum of Mulliken charges =  -0.00000
 Mulliken charges with hydrogens summed into heavy atoms:
               1
     1  Br  -0.096012
     2  C    0.026899
     3  C    0.247812
     4  N   -0.392563
     5  C    0.358569
     6  N   -0.392563
     7  C    0.247857
 Electronic spatial extent (au):  <R**2>=           1155.6804
 Charge=             -0.0000 electrons
 Dipole moment (field-independent basis, Debye):
    X=             -0.7943    Y=              0.0003    Z=              0.0003  Tot=              0.7943
 Quadrupole moment (field-independent basis, Debye-Ang):
   XX=            -53.0434   YY=            -52.8576   ZZ=            -52.2358
   XY=              0.0003   XZ=              0.0012   YZ=              0.0002
 Traceless Quadrupole moment (field-independent basis, Debye-Ang):
   XX=             -0.3311   YY=             -0.1453   ZZ=              0.4765
   XY=              0.0003   XZ=              0.0012   YZ=              0.0002
 Octapole moment (field-independent basis, Debye-Ang**2):
  XXX=            -55.1234  YYY=              0.0053  ZZZ=             -0.0001  XYY=            -31.9912
  XXY=             -0.0032  XXZ=              0.0032  XZZ=            -17.2321  YZZ=             -0.0005
  YYZ=              0.0007  XYZ=              0.0005
 Hexadecapole moment (field-independent basis, Debye-Ang**3):
 XXXX=           -945.0482 YYYY=           -261.5476 ZZZZ=            -52.5920 XXXY=             -0.0068
 XXXZ=              0.0165 YYYX=              0.0078 YYYZ=              0.0001 ZZZX=             -0.0010
 ZZZY=             -0.0001 XXYY=           -262.9743 XXZZ=           -183.8619 YYZZ=            -54.9228
 XXYZ=              0.0012 YYXZ=              0.0002 ZZXY=             -0.0002
 N-N= 4.401933946434D+02 E-N=-7.625998174753D+03  KE= 2.817486591483D+03
 No NMR shielding tensors so no spin-rotation constants.
 Leave Link  601 at Tue Sep 17 09:46:12 2024, MaxMem=  1342177280 cpu:               1.0 elap:               0.3
 (Enter /groups/ReismanLab/Software/Gaussian16_RevC/Linux_Binary_AVX2-enabled-CPU/g16/l701.exe)
 ... and contract with generalized density number  0.
 Compute integral first derivatives.
 R6Disp: Adding Grimme-D3(BJ) dispersion energy 1st derivatives to the gradient.
 Leave Link  701 at Tue Sep 17 09:46:13 2024, MaxMem=  1342177280 cpu:               0.8 elap:               0.3
 (Enter /groups/ReismanLab/Software/Gaussian16_RevC/Linux_Binary_AVX2-enabled-CPU/g16/l702.exe)
 L702 exits ... SP integral derivatives will be done elsewhere.
 Leave Link  702 at Tue Sep 17 09:46:13 2024, MaxMem=  1342177280 cpu:               0.1 elap:               0.1
 (Enter /groups/ReismanLab/Software/Gaussian16_RevC/Linux_Binary_AVX2-enabled-CPU/g16/l703.exe)
 Integral derivatives from FoFJK, PRISM(SPDF).
 Compute integral first derivatives, UseDBF=F ICtDFT=           0.
 Calling FoFJK, ICntrl=      2127 FMM=F ISym2X=0 I1Cent= 0 IOpClX= 0 NMat=1 NMatS=1 NMatT=0.
 FoFJK:  IHMeth= 1 ICntrl=    2127 DoSepK=F KAlg= 0 I1Cent=           0 FoldK=F
 IRaf=         0 NMat=       1 IRICut=       1 DoRegI=T DoRafI=F ISym2E= 0 IDoP0=0 IntGTp=1.
 FoFCou: FMM=F IPFlag=           0 FMFlag=      100000 FMFlg1=         800
         NFxFlg=           0 DoJE=F BraDBF=F KetDBF=F FulRan=T
         wScrn=  0.000000 ICntrl=      2127 IOpCl=  0 I1Cent=           0 NGrid=           0
         NMat0=    1 NMatS0=      1 NMatT0=    0 NMatD0=    1 NMtDS0=    0 NMtDT0=    0
 Symmetry not used in FoFCou.
 Leave Link  703 at Tue Sep 17 09:46:14 2024, MaxMem=  1342177280 cpu:               7.6 elap:               1.1
 (Enter /groups/ReismanLab/Software/Gaussian16_RevC/Linux_Binary_AVX2-enabled-CPU/g16/l716.exe)
 Dipole        =-3.12483458D-01 1.12326637D-04 1.16170958D-04
 ***** Axes restored to original set *****
 -------------------------------------------------------------------
 Center     Atomic                   Forces (Hartrees/Bohr)
 Number     Number              X              Y              Z
 -------------------------------------------------------------------
      1       35           0.001609876   -0.000006617    0.000006627
      2        6           0.003918439    0.000043799   -0.000032963
      3        6           0.011127802   -0.001144694    0.000008951
      4        7          -0.011341646   -0.017033415    0.000012303
      5        6          -0.008926659    0.000035052   -0.000002095
      6        7          -0.011465377    0.016971596   -0.000000760
      7        6           0.011278208    0.001121875    0.000038331
      8        1           0.004104152   -0.002179620   -0.000006513
      9        1          -0.004399699    0.000008992   -0.000008829
     10        1           0.004094903    0.002183032   -0.000015052
 -------------------------------------------------------------------
 Cartesian Forces:  Max     0.017033415 RMS     0.006460079
 Leave Link  716 at Tue Sep 17 09:46:14 2024, MaxMem=  1342177280 cpu:               0.1 elap:               0.0
 (Enter /groups/ReismanLab/Software/Gaussian16_RevC/Linux_Binary_AVX2-enabled-CPU/g16/l103.exe)

 GradGradGradGradGradGradGradGradGradGradGradGradGradGradGradGradGradGrad
 Berny optimization.
 FormGI is forming the generalized inverse of G from B-inverse, IUseBI=4.
 Internal  Forces:  Max     0.018108974 RMS     0.005971222
 Search for a local minimum.
 Step number   1 out of a maximum of   50
 All quantities printed in internal units (Hartrees-Bohrs-Radians)
 RMS Force = .59712D-02 SwitMx=.10000D-02 MixMth= 1
 Mixed Optimization -- RFO/linear search
 Second derivative matrix not updated -- first step.
 ITU=  0
     Eigenvalues ---    0.02216   0.02289   0.02364   0.02408   0.02627
     Eigenvalues ---    0.02738   0.02743   0.16000   0.16000   0.16000
     Eigenvalues ---    0.18562   0.23156   0.23200   0.23434   0.25000
     Eigenvalues ---    0.35759   0.35760   0.35834   0.44610   0.46330
     Eigenvalues ---    0.57544   0.58605   0.61759   0.62017
 RFO step:  Lambda=-2.58945310D-03 EMin= 2.21622508D-02
 Linear search not attempted -- first point.
 Iteration  1 RMS(Cart)=  0.01668134 RMS(Int)=  0.00011595
 Iteration  2 RMS(Cart)=  0.00012684 RMS(Int)=  0.00001336
 Iteration  3 RMS(Cart)=  0.00000001 RMS(Int)=  0.00001336
 ITry= 1 IFail=0 DXMaxC= 4.97D-02 DCOld= 1.00D+10 DXMaxT= 3.00D-01 DXLimC= 3.00D+00 Rises=F
 Variable       Old X    -DE/DX   Delta X   Delta X   Delta X     New X
                                 (Linear)    (Quad)   (Total)
    R1        3.57859   0.00161   0.00000   0.00855   0.00855   3.58714
    R2        2.62729   0.00526   0.00000   0.00937   0.00935   2.63664
    R3        2.62753   0.00521   0.00000   0.00927   0.00925   2.63677
    R4        2.49395   0.01801   0.00000   0.02893   0.02893   2.52288
    R5        2.04458   0.00379   0.00000   0.01051   0.01051   2.05509
    R6        2.49606   0.01719   0.00000   0.02910   0.02912   2.52518
    R7        2.49628   0.01714   0.00000   0.02904   0.02906   2.52533
    R8        2.04342   0.00440   0.00000   0.01219   0.01219   2.05561
    R9        2.49364   0.01811   0.00000   0.02908   0.02908   2.52273
   R10        2.04460   0.00379   0.00000   0.01051   0.01051   2.05511
    A1        2.11873  -0.00174   0.00000  -0.00333  -0.00331   2.11543
    A2        2.11851  -0.00171   0.00000  -0.00323  -0.00321   2.11530
    A3        2.04594   0.00345   0.00000   0.00656   0.00652   2.05246
    A4        2.11160   0.00171   0.00000   0.00349   0.00347   2.11508
    A5        2.12994  -0.00361   0.00000  -0.01869  -0.01869   2.11126
    A6        2.04164   0.00190   0.00000   0.01520   0.01521   2.05685
    A7        2.04771  -0.00335   0.00000  -0.00946  -0.00943   2.03828
    A8        2.20176  -0.00015   0.00000   0.00540   0.00543   2.20719
    A9        2.04068   0.00009   0.00000  -0.00264  -0.00266   2.03802
   A10        2.04075   0.00007   0.00000  -0.00276  -0.00277   2.03798
   A11        2.04760  -0.00333   0.00000  -0.00936  -0.00934   2.03826
   A12        2.11176   0.00168   0.00000   0.00337   0.00335   2.11511
   A13        2.12967  -0.00358   0.00000  -0.01856  -0.01855   2.11112
   A14        2.04175   0.00191   0.00000   0.01519   0.01520   2.05696
    D1       -3.14148  -0.00000   0.00000  -0.00008  -0.00008  -3.14157
    D2        0.00026  -0.00001   0.00000  -0.00029  -0.00029  -0.00004
    D3       -0.00022   0.00001   0.00000   0.00029   0.00028   0.00007
    D4        3.14152   0.00000   0.00000   0.00008   0.00008  -3.14159
    D5       -3.14157  -0.00000   0.00000  -0.00009  -0.00009   3.14153
    D6       -0.00042   0.00001   0.00000   0.00055   0.00055   0.00013
    D7        0.00035  -0.00001   0.00000  -0.00045  -0.00045  -0.00011
    D8        3.14150   0.00001   0.00000   0.00019   0.00018  -3.14150
    D9       -0.00006   0.00000   0.00000   0.00004   0.00004  -0.00002
   D10        3.14139   0.00001   0.00000   0.00024   0.00024  -3.14155
   D11        0.00024  -0.00001   0.00000  -0.00024  -0.00024   0.00001
   D12       -3.14126  -0.00001   0.00000  -0.00039  -0.00039   3.14154
   D13       -0.00012   0.00000   0.00000   0.00007   0.00007  -0.00005
   D14        3.14138   0.00001   0.00000   0.00022   0.00022  -3.14158
   D15       -0.00019   0.00001   0.00000   0.00028   0.00029   0.00010
   D16       -3.14136  -0.00001   0.00000  -0.00032  -0.00032   3.14150
         Item               Value     Threshold  Converged?
 Maximum Force            0.018109     0.000450     NO 
 RMS     Force            0.005971     0.000300     NO 
 Maximum Displacement     0.049696     0.001800     NO 
 RMS     Displacement     0.016671     0.001200     NO 
 Predicted change in Energy=-1.301467D-03
 Lowest energy point so far.  Saving SCF results.
 GradGradGradGradGradGradGradGradGradGradGradGradGradGradGradGradGradGrad

 Leave Link  103 at Tue Sep 17 09:46:14 2024, MaxMem=  1342177280 cpu:               0.1 elap:               0.0
 (Enter /groups/ReismanLab/Software/Gaussian16_RevC/Linux_Binary_AVX2-enabled-CPU/g16/l202.exe)
                          Input orientation:                          
 ---------------------------------------------------------------------
 Center     Atomic      Atomic             Coordinates (Angstroms)
 Number     Number       Type             X           Y           Z
 ---------------------------------------------------------------------
      1         35           0        1.643551   -0.000070   -0.000084
      2          6           0       -0.254683   -0.000110    0.000011
      3          6           0       -0.977538   -1.193507    0.000054
      4          7           0       -2.312590   -1.193066    0.000091
      5          6           0       -2.914376    0.000026    0.000109
      6          7           0       -2.312442    1.193133    0.000085
      7          6           0       -0.977473    1.193413    0.000093
      8          1           0       -0.469836   -2.155230    0.000001
      9          1           0       -4.002156    0.000100    0.000090
     10          1           0       -0.469548    2.155030   -0.000019
 ---------------------------------------------------------------------
                    Distance matrix (angstroms):
                    1          2          3          4          5
     1  Br   0.000000
     2  C    1.898234   0.000000
     3  C    2.880000   1.395248   0.000000
     4  N    4.132105   2.378681   1.335052   0.000000
     5  C    4.557927   2.659693   2.275052   1.336269   0.000000
     6  N    4.132022   2.378697   2.734596   2.386198   1.336349
     7  C    2.879959   1.395321   2.386920   2.734560   2.275031
     8  H    3.018463   2.165833   1.087508   2.078823   3.258973
     9  H    5.645706   3.747472   3.251616   2.068399   1.087780
    10  H    3.018218   2.165824   3.386850   3.821851   3.259022
                    6          7          8          9         10
     6  N    0.000000
     7  C    1.334969   0.000000
     8  H    3.821875   3.386902   0.000000
     9  H    2.068444   3.251569   4.137962   0.000000
    10  H    2.078822   1.087517   4.310260   4.137999   0.000000
 Stoichiometry    C4H3BrN2
 Framework group  C1[X(C4H3BrN2)]
 Deg. of freedom    24
 Full point group                 C1      NOp   1
 RotChk:  IX=0 Diff= 2.41D-05
 Largest Abelian subgroup         C1      NOp   1
 Largest concise Abelian subgroup C1      NOp   1
                         Standard orientation:                         
 ---------------------------------------------------------------------
 Center     Atomic      Atomic             Coordinates (Angstroms)
 Number     Number       Type             X           Y           Z
 ---------------------------------------------------------------------
      1         35           0       -1.782194   -0.000000   -0.000084
      2          6           0        0.116040    0.000070    0.000012
      3          6           0        0.838876    1.193479    0.000055
      4          7           0        2.173928    1.193059    0.000092
      5          6           0        2.775732   -0.000023    0.000110
      6          7           0        2.173817   -1.193139    0.000085
      7          6           0        0.838848   -1.193441    0.000094
      8          1           0        0.331158    2.155194    0.000001
      9          1           0        3.863512   -0.000079    0.000091
     10          1           0        0.330940   -2.155066   -0.000018
 ---------------------------------------------------------------------
 Rotational constants (GHZ):           6.0587912           1.0004444           0.8586601
 Leave Link  202 at Tue Sep 17 09:46:14 2024, MaxMem=  1342177280 cpu:               0.0 elap:               0.0
 (Enter /groups/ReismanLab/Software/Gaussian16_RevC/Linux_Binary_AVX2-enabled-CPU/g16/l301.exe)
 Standard basis: 6-31G(d,p) (6D, 7F)
 Ernie: Thresh=  0.10000D-02 Tol=  0.10000D-05 Strict=F.
 There are   135 symmetry adapted cartesian basis functions of A   symmetry.
 There are   135 symmetry adapted basis functions of A   symmetry.
   135 basis functions,   272 primitive gaussians,   135 cartesian basis functions
    38 alpha electrons       38 beta electrons
       nuclear repulsion energy       437.7440165699 Hartrees.
 IExCor=  402 DFT=T Ex+Corr=B3LYP ExCW=0 ScaHFX=  0.200000
 ScaDFX=  0.800000  0.720000  1.000000  0.810000 ScalE2=  1.000000  1.000000
 IRadAn=      5 IRanWt=     -1 IRanGd=            0 ICorTp=0 IEmpDi=141
 NAtoms=   10 NActive=   10 NUniq=   10 SFac= 1.00D+00 NAtFMM=   60 NAOKFM=F Big=F
 Integral buffers will be    131072 words long.
 Raffenetti 2 integral format.
 Two-electron integral symmetry is turned on.
 R6Disp:  Grimme-D3(BJ) Dispersion energy=       -0.0198008162 Hartrees.
 Nuclear repulsion after empirical dispersion term =      437.7242157537 Hartrees.
 Leave Link  301 at Tue Sep 17 09:46:14 2024, MaxMem=  1342177280 cpu:               0.1 elap:               0.1
 (Enter /groups/ReismanLab/Software/Gaussian16_RevC/Linux_Binary_AVX2-enabled-CPU/g16/l302.exe)
 NPDir=0 NMtPBC=     1 NCelOv=     1 NCel=       1 NClECP=     1 NCelD=      1
         NCelK=      1 NCelE2=     1 NClLst=     1 CellRange=     0.0.
 One-electron integrals computed using PRISM.
 One-electron integral symmetry used in STVInt
 NBasis=   135 RedAO= T EigKep=  7.53D-04  NBF=   135
 NBsUse=   135 1.00D-06 EigRej= -1.00D+00 NBFU=   135
 Precomputing XC quadrature grid using
 IXCGrd= 4 IRadAn=           5 IRanWt=          -1 IRanGd=           0 AccXCQ= 0.00D+00.
 Generated NRdTot=       0 NPtTot=           0 NUsed=           0 NTot=          32
 NSgBfM=   135   135   135   135   135 MxSgAt=    10 MxSgA2=    10.
 Leave Link  302 at Tue Sep 17 09:46:14 2024, MaxMem=  1342177280 cpu:               0.8 elap:               0.2
 (Enter /groups/ReismanLab/Software/Gaussian16_RevC/Linux_Binary_AVX2-enabled-CPU/g16/l303.exe)
 DipDrv:  MaxL=1.
 Leave Link  303 at Tue Sep 17 09:46:14 2024, MaxMem=  1342177280 cpu:               0.1 elap:               0.0
 (Enter /groups/ReismanLab/Software/Gaussian16_RevC/Linux_Binary_AVX2-enabled-CPU/g16/l401.exe)
 Initial guess from the checkpoint file:  "smiles_00122_conf_0.chk"
 B after Tr=     0.000000   -0.000000    0.000000
         Rot=    1.000000    0.000002    0.000021   -0.000002 Ang=   0.00 deg.
 Guess basis will be translated and rotated to current coordinates.
 JPrj=2 DoOrth=T DoCkMO=T.
 Generating alternative initial guess.
 ExpMin= 1.43D-01 ExpMax= 5.74D+05 ExpMxC= 5.74D+03 IAcc=3 IRadAn=         5 AccDes= 0.00D+00
 Harris functional with IExCor=  402 and IRadAn=       5 diagonalized for initial guess.
 HarFok:  IExCor=  402 AccDes= 0.00D+00 IRadAn=         5 IDoV= 1 UseB2=F ITyADJ=14
 ICtDFT=  3500011 ScaDFX=  1.000000  1.000000  1.000000  1.000000
 FoFCou: FMM=F IPFlag=           0 FMFlag=      100000 FMFlg1=           0
         NFxFlg=           0 DoJE=T BraDBF=F KetDBF=T FulRan=T
         wScrn=  0.000000 ICntrl=       500 IOpCl=  0 I1Cent=   200000004 NGrid=           0
         NMat0=    1 NMatS0=      1 NMatT0=    0 NMatD0=    1 NMtDS0=    0 NMtDT0=    0
 Petite list used in FoFCou.
 Harris En= -2835.51242682867    
 Leave Link  401 at Tue Sep 17 09:46:15 2024, MaxMem=  1342177280 cpu:               2.6 elap:               1.2
 (Enter /groups/ReismanLab/Software/Gaussian16_RevC/Linux_Binary_AVX2-enabled-CPU/g16/l502.exe)
 Keep R1 ints in memory in canonical form, NReq=49821054.
 FoFCou: FMM=F IPFlag=           0 FMFlag=           0 FMFlg1=           0
         NFxFlg=           0 DoJE=F BraDBF=F KetDBF=F FulRan=T
         wScrn=  0.000000 ICntrl=       600 IOpCl=  0 I1Cent=           0 NGrid=           0
         NMat0=    1 NMatS0=   9180 NMatT0=    0 NMatD0=    1 NMtDS0=    0 NMtDT0=    0
 Symmetry not used in FoFCou.
 Two-electron integral symmetry not used.
 Closed shell SCF:
 Using DIIS extrapolation, IDIIS=  1040.
 NGot=  1342177280 LenX=  1299997284 LenY=  1299978618
 Requested convergence on RMS density matrix=1.00D-08 within  32 cycles.
 Requested convergence on MAX density matrix=1.00D-06.
 Requested convergence on             energy=1.00D-06.
 No special actions if energy rises.
 Integral accuracy reduced to 1.0D-05 until final iterations.

 Cycle   1  Pass 0  IDiag  1:
 E= -2835.44947430767    
 DIIS: error= 1.42D-03 at cycle   1 NSaved=   1.
 NSaved= 1 IEnMin= 1 EnMin= -2835.44947430767     IErMin= 1 ErrMin= 1.42D-03
 ErrMax= 1.42D-03  0.00D+00 EMaxC= 1.00D-01 BMatC= 5.74D-04 BMatP= 5.74D-04
 IDIUse=3 WtCom= 9.86D-01 WtEn= 1.42D-02
 Coeff-Com:  0.100D+01
 Coeff-En:   0.100D+01
 Coeff:      0.100D+01
 Gap=     1.518 Goal=   None    Shift=    0.000
 GapD=    1.518 DampG=2.000 DampE=1.000 DampFc=2.0000 IDamp=-1.
 RMSDP=3.19D-04 MaxDP=9.39D-03              OVMax= 5.90D-03

 Cycle   2  Pass 0  IDiag  1:
 E= -2835.44986292414     Delta-E=       -0.000388616466 Rises=F Damp=F
 DIIS: error= 7.35D-04 at cycle   2 NSaved=   2.
 NSaved= 2 IEnMin= 2 EnMin= -2835.44986292414     IErMin= 2 ErrMin= 7.35D-04
 ErrMax= 7.35D-04  0.00D+00 EMaxC= 1.00D-01 BMatC= 6.84D-05 BMatP= 5.74D-04
 IDIUse=3 WtCom= 9.93D-01 WtEn= 7.35D-03
 Coeff-Com:  0.167D+00 0.833D+00
 Coeff-En:   0.000D+00 0.100D+01
 Coeff:      0.166D+00 0.834D+00
 Gap=     0.208 Goal=   None    Shift=    0.000
 RMSDP=1.38D-04 MaxDP=2.75D-03 DE=-3.89D-04 OVMax= 4.90D-03

 Cycle   3  Pass 0  IDiag  1:
 E= -2835.44986279348     Delta-E=        0.000000130662 Rises=F Damp=F
 DIIS: error= 7.78D-04 at cycle   3 NSaved=   3.
 NSaved= 3 IEnMin= 2 EnMin= -2835.44986292414     IErMin= 2 ErrMin= 7.35D-04
 ErrMax= 7.78D-04  0.00D+00 EMaxC= 1.00D-01 BMatC= 6.37D-05 BMatP= 6.84D-05
 IDIUse=3 WtCom= 9.92D-01 WtEn= 7.78D-03
 Coeff-Com:  0.696D-02 0.490D+00 0.503D+00
 Coeff-En:   0.000D+00 0.500D+00 0.500D+00
 Coeff:      0.691D-02 0.491D+00 0.503D+00
 Gap=     0.207 Goal=   None    Shift=    0.000
 RMSDP=7.82D-05 MaxDP=1.49D-03 DE= 1.31D-07 OVMax= 4.01D-03

 Cycle   4  Pass 0  IDiag  1:
 E= -2835.44992281529     Delta-E=       -0.000060021807 Rises=F Damp=F
 DIIS: error= 2.78D-04 at cycle   4 NSaved=   4.
 NSaved= 4 IEnMin= 4 EnMin= -2835.44992281529     IErMin= 4 ErrMin= 2.78D-04
 ErrMax= 2.78D-04  0.00D+00 EMaxC= 1.00D-01 BMatC= 6.25D-06 BMatP= 6.37D-05
 IDIUse=3 WtCom= 9.97D-01 WtEn= 2.78D-03
 Coeff-Com: -0.517D-02 0.248D+00 0.322D+00 0.435D+00
 Coeff-En:   0.000D+00 0.000D+00 0.172D-01 0.983D+00
 Coeff:     -0.515D-02 0.247D+00 0.321D+00 0.437D+00
 Gap=     0.208 Goal=   None    Shift=    0.000
 RMSDP=2.09D-05 MaxDP=4.02D-04 DE=-6.00D-05 OVMax= 1.12D-03

 Cycle   5  Pass 0  IDiag  1:
 E= -2835.44992902911     Delta-E=       -0.000006213822 Rises=F Damp=F
 DIIS: error= 4.23D-05 at cycle   5 NSaved=   5.
 NSaved= 5 IEnMin= 5 EnMin= -2835.44992902911     IErMin= 5 ErrMin= 4.23D-05
 ErrMax= 4.23D-05  0.00D+00 EMaxC= 1.00D-01 BMatC= 2.58D-07 BMatP= 6.25D-06
 IDIUse=1 WtCom= 1.00D+00 WtEn= 0.00D+00
 Coeff-Com: -0.288D-02 0.669D-01 0.111D+00 0.219D+00 0.606D+00
 Coeff:     -0.288D-02 0.669D-01 0.111D+00 0.219D+00 0.606D+00
 Gap=     0.208 Goal=   None    Shift=    0.000
 RMSDP=5.89D-06 MaxDP=1.83D-04 DE=-6.21D-06 OVMax= 2.19D-04

 Initial convergence to 1.0D-05 achieved.  Increase integral accuracy.
 Cycle   6  Pass 1  IDiag  1:
 E= -2835.44995048583     Delta-E=       -0.000021456719 Rises=F Damp=F
 DIIS: error= 1.25D-05 at cycle   1 NSaved=   1.
 NSaved= 1 IEnMin= 1 EnMin= -2835.44995048583     IErMin= 1 ErrMin= 1.25D-05
 ErrMax= 1.25D-05  0.00D+00 EMaxC= 1.00D-01 BMatC= 3.42D-08 BMatP= 3.42D-08
 IDIUse=1 WtCom= 1.00D+00 WtEn= 0.00D+00
 Coeff-Com:  0.100D+01
 Coeff:      0.100D+01
 Gap=     0.208 Goal=   None    Shift=    0.000
 RMSDP=5.89D-06 MaxDP=1.83D-04 DE=-2.15D-05 OVMax= 1.24D-04

 Cycle   7  Pass 1  IDiag  1:
 E= -2835.44995045763     Delta-E=        0.000000028193 Rises=F Damp=F
 DIIS: error= 2.54D-05 at cycle   2 NSaved=   2.
 NSaved= 2 IEnMin= 1 EnMin= -2835.44995048583     IErMin= 1 ErrMin= 1.25D-05
 ErrMax= 2.54D-05  0.00D+00 EMaxC= 1.00D-01 BMatC= 6.21D-08 BMatP= 3.42D-08
 IDIUse=1 WtCom= 1.00D+00 WtEn= 0.00D+00
 Coeff-Com:  0.581D+00 0.419D+00
 Coeff:      0.581D+00 0.419D+00
 Gap=     0.208 Goal=   None    Shift=    0.000
 RMSDP=1.94D-06 MaxDP=6.30D-05 DE= 2.82D-08 OVMax= 9.56D-05

 Cycle   8  Pass 1  IDiag  1:
 E= -2835.44995051660     Delta-E=       -0.000000058970 Rises=F Damp=F
 DIIS: error= 6.11D-06 at cycle   3 NSaved=   3.
 NSaved= 3 IEnMin= 3 EnMin= -2835.44995051660     IErMin= 3 ErrMin= 6.11D-06
 ErrMax= 6.11D-06  0.00D+00 EMaxC= 1.00D-01 BMatC= 2.55D-09 BMatP= 3.42D-08
 IDIUse=1 WtCom= 1.00D+00 WtEn= 0.00D+00
 Coeff-Com:  0.145D+00 0.194D+00 0.662D+00
 Coeff:      0.145D+00 0.194D+00 0.662D+00
 Gap=     0.208 Goal=   None    Shift=    0.000
 RMSDP=6.05D-07 MaxDP=1.52D-05 DE=-5.90D-08 OVMax= 2.64D-05

 Cycle   9  Pass 1  IDiag  1:
 E= -2835.44995051844     Delta-E=       -0.000000001838 Rises=F Damp=F
 DIIS: error= 3.58D-06 at cycle   4 NSaved=   4.
 NSaved= 4 IEnMin= 4 EnMin= -2835.44995051844     IErMin= 4 ErrMin= 3.58D-06
 ErrMax= 3.58D-06  0.00D+00 EMaxC= 1.00D-01 BMatC= 9.40D-10 BMatP= 2.55D-09
 IDIUse=1 WtCom= 1.00D+00 WtEn= 0.00D+00
 Coeff-Com:  0.178D-01 0.722D-01 0.436D+00 0.474D+00
 Coeff:      0.178D-01 0.722D-01 0.436D+00 0.474D+00
 Gap=     0.208 Goal=   None    Shift=    0.000
 RMSDP=2.51D-07 MaxDP=5.52D-06 DE=-1.84D-09 OVMax= 1.67D-05

 Cycle  10  Pass 1  IDiag  1:
 E= -2835.44995051934     Delta-E=       -0.000000000903 Rises=F Damp=F
 DIIS: error= 7.37D-07 at cycle   5 NSaved=   5.
 NSaved= 5 IEnMin= 5 EnMin= -2835.44995051934     IErMin= 5 ErrMin= 7.37D-07
 ErrMax= 7.37D-07  0.00D+00 EMaxC= 1.00D-01 BMatC= 5.50D-11 BMatP= 9.40D-10
 IDIUse=1 WtCom= 1.00D+00 WtEn= 0.00D+00
 Coeff-Com: -0.581D-02 0.195D-01 0.174D+00 0.262D+00 0.551D+00
 Coeff:     -0.581D-02 0.195D-01 0.174D+00 0.262D+00 0.551D+00
 Gap=     0.208 Goal=   None    Shift=    0.000
 RMSDP=6.29D-08 MaxDP=1.48D-06 DE=-9.03D-10 OVMax= 2.61D-06

 Cycle  11  Pass 1  IDiag  1:
 E= -2835.44995051941     Delta-E=       -0.000000000062 Rises=F Damp=F
 DIIS: error= 3.64D-08 at cycle   6 NSaved=   6.
 NSaved= 6 IEnMin= 6 EnMin= -2835.44995051941     IErMin= 6 ErrMin= 3.64D-08
 ErrMax= 3.64D-08  0.00D+00 EMaxC= 1.00D-01 BMatC= 2.03D-13 BMatP= 5.50D-11
 IDIUse=1 WtCom= 1.00D+00 WtEn= 0.00D+00
 Coeff-Com: -0.178D-02 0.517D-02 0.457D-01 0.709D-01 0.157D+00 0.723D+00
 Coeff:     -0.178D-02 0.517D-02 0.457D-01 0.709D-01 0.157D+00 0.723D+00
 Gap=     0.208 Goal=   None    Shift=    0.000
 RMSDP=5.00D-09 MaxDP=1.65D-07 DE=-6.18D-11 OVMax= 1.91D-07

 SCF Done:  E(RB3LYP) =  -2835.44995052     A.U. after   11 cycles
            NFock= 11  Conv=0.50D-08     -V/T= 2.0065
 KE= 2.817261889935D+03 PE=-7.620887549023D+03 EE= 1.530451492816D+03
 Leave Link  502 at Tue Sep 17 09:46:19 2024, MaxMem=  1342177280 cpu:              17.5 elap:               3.3
 (Enter /groups/ReismanLab/Software/Gaussian16_RevC/Linux_Binary_AVX2-enabled-CPU/g16/l508.exe)
 QCSCF skips out because SCF is already converged.
 Leave Link  508 at Tue Sep 17 09:46:19 2024, MaxMem=  1342177280 cpu:               0.1 elap:               0.0
 (Enter /groups/ReismanLab/Software/Gaussian16_RevC/Linux_Binary_AVX2-enabled-CPU/g16/l701.exe)
 ... and contract with generalized density number  0.
 Compute integral first derivatives.
 R6Disp: Adding Grimme-D3(BJ) dispersion energy 1st derivatives to the gradient.
 Leave Link  701 at Tue Sep 17 09:46:19 2024, MaxMem=  1342177280 cpu:               0.6 elap:               0.1
 (Enter /groups/ReismanLab/Software/Gaussian16_RevC/Linux_Binary_AVX2-enabled-CPU/g16/l702.exe)
 L702 exits ... SP integral derivatives will be done elsewhere.
 Leave Link  702 at Tue Sep 17 09:46:19 2024, MaxMem=  1342177280 cpu:               0.1 elap:               0.0
 (Enter /groups/ReismanLab/Software/Gaussian16_RevC/Linux_Binary_AVX2-enabled-CPU/g16/l703.exe)
 Integral derivatives from FoFJK, PRISM(SPDF).
 Compute integral first derivatives, UseDBF=F ICtDFT=           0.
 Calling FoFJK, ICntrl=      2127 FMM=F ISym2X=0 I1Cent= 0 IOpClX= 0 NMat=1 NMatS=1 NMatT=0.
 FoFJK:  IHMeth= 1 ICntrl=    2127 DoSepK=F KAlg= 0 I1Cent=           0 FoldK=F
 IRaf=         0 NMat=       1 IRICut=       1 DoRegI=T DoRafI=F ISym2E= 0 IDoP0=0 IntGTp=1.
 FoFCou: FMM=F IPFlag=           0 FMFlag=      100000 FMFlg1=         800
         NFxFlg=           0 DoJE=F BraDBF=F KetDBF=F FulRan=T
         wScrn=  0.000000 ICntrl=      2127 IOpCl=  0 I1Cent=           0 NGrid=           0
         NMat0=    1 NMatS0=      1 NMatT0=    0 NMatD0=    1 NMtDS0=    0 NMtDT0=    0
 Symmetry not used in FoFCou.
 Leave Link  703 at Tue Sep 17 09:46:20 2024, MaxMem=  1342177280 cpu:               7.7 elap:               1.1
 (Enter /groups/ReismanLab/Software/Gaussian16_RevC/Linux_Binary_AVX2-enabled-CPU/g16/l716.exe)
 Dipole        =-3.26983662D-01 3.84862106D-05-2.02649043D-05
 ***** Axes restored to original set *****
 -------------------------------------------------------------------
 Center     Atomic                   Forces (Hartrees/Bohr)
 Number     Number              X              Y              Z
 -------------------------------------------------------------------
      1       35          -0.000237764   -0.000004297   -0.000000179
      2        6          -0.001791174    0.000026210    0.000009357
      3        6           0.001653266    0.001829999   -0.000005240
      4        7          -0.001789857   -0.002675841    0.000002558
      5        6           0.002298800    0.000031572   -0.000004312
      6        7          -0.001844942    0.002646283    0.000007331
      7        6           0.001715064   -0.001855465   -0.000018944
      8        1          -0.000359972    0.000297922    0.000001414
      9        1           0.000726702    0.000000198    0.000001691
     10        1          -0.000370122   -0.000296581    0.000006323
 -------------------------------------------------------------------
 Cartesian Forces:  Max     0.002675841 RMS     0.001193869
 Leave Link  716 at Tue Sep 17 09:46:20 2024, MaxMem=  1342177280 cpu:               0.1 elap:               0.1
 (Enter /groups/ReismanLab/Software/Gaussian16_RevC/Linux_Binary_AVX2-enabled-CPU/g16/l103.exe)

 GradGradGradGradGradGradGradGradGradGradGradGradGradGradGradGradGradGrad
 Berny optimization.
 Using GEDIIS/GDIIS optimizer.
 FormGI is forming the generalized inverse of G from B-inverse, IUseBI=4.
 Internal  Forces:  Max     0.002107964 RMS     0.000751149
 Search for a local minimum.
 Step number   2 out of a maximum of   50
 All quantities printed in internal units (Hartrees-Bohrs-Radians)
 RMS Force = .75115D-03 SwitMx=.10000D-02 MixMth= 2
 Mixed Optimization -- En-DIIS/RFO-DIIS
 Update second derivatives using D2CorX and points    1    2
 DE= -1.31D-03 DEPred=-1.30D-03 R= 1.01D+00
 TightC=F SS=  1.41D+00  RLast= 7.39D-02 DXNew= 5.0454D-01 2.2158D-01
 Trust test= 1.01D+00 RLast= 7.39D-02 DXMaxT set to 3.00D-01
 ITU=  1  0
 Use linear search instead of GDIIS.
     Eigenvalues ---    0.02216   0.02288   0.02369   0.02413   0.02624
     Eigenvalues ---    0.02738   0.02743   0.16000   0.16000   0.16115
     Eigenvalues ---    0.18584   0.21967   0.23190   0.23440   0.25000
     Eigenvalues ---    0.35760   0.35793   0.36332   0.44380   0.46361
     Eigenvalues ---    0.57617   0.58843   0.61759   0.62686
 RFO step:  Lambda=-8.59241792D-05 EMin= 2.21622595D-02
 Quartic linear search produced a step of  0.02783.
 Iteration  1 RMS(Cart)=  0.00322088 RMS(Int)=  0.00000874
 Iteration  2 RMS(Cart)=  0.00001058 RMS(Int)=  0.00000228
 Iteration  3 RMS(Cart)=  0.00000000 RMS(Int)=  0.00000228
 ITry= 1 IFail=0 DXMaxC= 9.73D-03 DCOld= 1.00D+10 DXMaxT= 3.00D-01 DXLimC= 3.00D+00 Rises=F
 Variable       Old X    -DE/DX   Delta X   Delta X   Delta X     New X
                                 (Linear)    (Quad)   (Total)
    R1        3.58714  -0.00024   0.00024  -0.00125  -0.00101   3.58613
    R2        2.63664  -0.00137   0.00026  -0.00309  -0.00283   2.63381
    R3        2.63677  -0.00140   0.00026  -0.00314  -0.00289   2.63389
    R4        2.52288   0.00028   0.00081   0.00065   0.00145   2.52434
    R5        2.05509  -0.00043   0.00029  -0.00117  -0.00088   2.05422
    R6        2.52518   0.00070   0.00081   0.00147   0.00229   2.52747
    R7        2.52533   0.00066   0.00081   0.00141   0.00222   2.52756
    R8        2.05561  -0.00073   0.00034  -0.00200  -0.00166   2.05394
    R9        2.52273   0.00032   0.00081   0.00072   0.00152   2.52425
   R10        2.05511  -0.00044   0.00029  -0.00118  -0.00089   2.05422
    A1        2.11543  -0.00048  -0.00009  -0.00155  -0.00164   2.11379
    A2        2.11530  -0.00046  -0.00009  -0.00149  -0.00157   2.11372
    A3        2.05246   0.00094   0.00018   0.00304   0.00321   2.05567
    A4        2.11508   0.00046   0.00010   0.00154   0.00163   2.11671
    A5        2.11126  -0.00005  -0.00052   0.00027  -0.00025   2.11101
    A6        2.05685  -0.00041   0.00042  -0.00181  -0.00138   2.05547
    A7        2.03828  -0.00198  -0.00026  -0.00817  -0.00843   2.02985
    A8        2.20719   0.00211   0.00015   0.01023   0.01039   2.21758
    A9        2.03802  -0.00105  -0.00007  -0.00512  -0.00519   2.03283
   A10        2.03798  -0.00105  -0.00008  -0.00512  -0.00520   2.03278
   A11        2.03826  -0.00199  -0.00026  -0.00817  -0.00842   2.02983
   A12        2.11511   0.00046   0.00009   0.00153   0.00162   2.11673
   A13        2.11112  -0.00003  -0.00052   0.00034  -0.00017   2.11094
   A14        2.05696  -0.00042   0.00042  -0.00187  -0.00144   2.05551
    D1       -3.14157  -0.00000  -0.00000  -0.00007  -0.00007   3.14155
    D2       -0.00004   0.00000  -0.00001   0.00003   0.00002  -0.00001
    D3        0.00007  -0.00000   0.00001  -0.00011  -0.00010  -0.00003
    D4       -3.14159  -0.00000   0.00000  -0.00001  -0.00000  -3.14159
    D5        3.14153   0.00000  -0.00000   0.00013   0.00013  -3.14153
    D6        0.00013  -0.00000   0.00002  -0.00017  -0.00016  -0.00003
    D7       -0.00011   0.00000  -0.00001   0.00017   0.00016   0.00005
    D8       -3.14150  -0.00000   0.00001  -0.00014  -0.00013   3.14155
    D9       -0.00002   0.00000   0.00000   0.00004   0.00004   0.00002
   D10       -3.14155  -0.00000   0.00001  -0.00006  -0.00005   3.14158
   D11        0.00001  -0.00000  -0.00001  -0.00003  -0.00003  -0.00002
   D12        3.14154   0.00000  -0.00001   0.00008   0.00007  -3.14157
   D13       -0.00005   0.00000   0.00000   0.00009   0.00009   0.00004
   D14       -3.14158  -0.00000   0.00001  -0.00002  -0.00002   3.14159
   D15        0.00010  -0.00000   0.00001  -0.00016  -0.00015  -0.00005
   D16        3.14150   0.00000  -0.00001   0.00014   0.00013  -3.14156
         Item               Value     Threshold  Converged?
 Maximum Force            0.002108     0.000450     NO 
 RMS     Force            0.000751     0.000300     NO 
 Maximum Displacement     0.009733     0.001800     NO 
 RMS     Displacement     0.003223     0.001200     NO 
 Predicted change in Energy=-4.374240D-05
 Lowest energy point so far.  Saving SCF results.
 GradGradGradGradGradGradGradGradGradGradGradGradGradGradGradGradGradGrad

 Leave Link  103 at Tue Sep 17 09:46:20 2024, MaxMem=  1342177280 cpu:               0.1 elap:               0.0
 (Enter /groups/ReismanLab/Software/Gaussian16_RevC/Linux_Binary_AVX2-enabled-CPU/g16/l202.exe)
                          Input orientation:                          
 ---------------------------------------------------------------------
 Center     Atomic      Atomic             Coordinates (Angstroms)
 Number     Number       Type             X           Y           Z
 ---------------------------------------------------------------------
      1         35           0        1.639695   -0.000119   -0.000023
      2          6           0       -0.258005   -0.000095   -0.000008
      3          6           0       -0.978170   -1.193369    0.000015
      4          7           0       -2.313985   -1.197252    0.000078
      5          6           0       -2.910105    0.000032    0.000094
      6          7           0       -2.313856    1.197304    0.000081
      7          6           0       -0.978086    1.193278   -0.000002
      8          1           0       -0.468904   -2.153740    0.000014
      9          1           0       -3.997005    0.000108    0.000164
     10          1           0       -0.468670    2.153573    0.000021
 ---------------------------------------------------------------------
                    Distance matrix (angstroms):
                    1          2          3          4          5
     1  Br   0.000000
     2  C    1.897700   0.000000
     3  C    2.876988   1.393750   0.000000
     4  N    4.130945   2.379126   1.335821   0.000000
     5  C    4.549800   2.652100   2.270810   1.337478   0.000000
     6  N    4.130906   2.379136   2.738499   2.394556   1.337526
     7  C    2.876973   1.393792   2.386647   2.738477   2.270800
     8  H    3.014012   2.163946   1.087044   2.078267   3.255487
     9  H    5.636700   3.739000   3.246190   2.065484   1.086900
    10  H    3.013900   2.163947   3.385500   3.825339   3.255511
                    6          7          8          9         10
     6  N    0.000000
     7  C    1.335776   0.000000
     8  H    3.825356   3.385527   0.000000
     9  H    2.065495   3.246155   4.133589   0.000000
    10  H    2.078259   1.087048   4.307313   4.133590   0.000000
 Stoichiometry    C4H3BrN2
 Framework group  C1[X(C4H3BrN2)]
 Deg. of freedom    24
 Full point group                 C1      NOp   1
 RotChk:  IX=0 Diff= 2.25D-05
 Largest Abelian subgroup         C1      NOp   1
 Largest concise Abelian subgroup C1      NOp   1
                         Standard orientation:                         
 ---------------------------------------------------------------------
 Center     Atomic      Atomic             Coordinates (Angstroms)
 Number     Number       Type             X           Y           Z
 ---------------------------------------------------------------------
      1         35           0       -1.780305   -0.000001   -0.000038
      2          6           0        0.117395    0.000036   -0.000023
      3          6           0        0.837522    1.193333    0.000001
      4          7           0        2.173337    1.197258    0.000063
      5          6           0        2.769495   -0.000006    0.000080
      6          7           0        2.173284   -1.197298    0.000067
      7          6           0        0.837515   -1.193314   -0.000016
      8          1           0        0.328225    2.153687    0.000000
      9          1           0        3.856395   -0.000047    0.000150
     10          1           0        0.328129   -2.153626    0.000006
 ---------------------------------------------------------------------
 Rotational constants (GHZ):           6.0400251           1.0026607           0.8599128
 Leave Link  202 at Tue Sep 17 09:46:20 2024, MaxMem=  1342177280 cpu:               0.1 elap:               0.1
 (Enter /groups/ReismanLab/Software/Gaussian16_RevC/Linux_Binary_AVX2-enabled-CPU/g16/l301.exe)
 Standard basis: 6-31G(d,p) (6D, 7F)
 Ernie: Thresh=  0.10000D-02 Tol=  0.10000D-05 Strict=F.
 There are   135 symmetry adapted cartesian basis functions of A   symmetry.
 There are   135 symmetry adapted basis functions of A   symmetry.
   135 basis functions,   272 primitive gaussians,   135 cartesian basis functions
    38 alpha electrons       38 beta electrons
       nuclear repulsion energy       437.9133469195 Hartrees.
 IExCor=  402 DFT=T Ex+Corr=B3LYP ExCW=0 ScaHFX=  0.200000
 ScaDFX=  0.800000  0.720000  1.000000  0.810000 ScalE2=  1.000000  1.000000
 IRadAn=      5 IRanWt=     -1 IRanGd=            0 ICorTp=0 IEmpDi=141
 NAtoms=   10 NActive=   10 NUniq=   10 SFac= 1.00D+00 NAtFMM=   60 NAOKFM=F Big=F
 Integral buffers will be    131072 words long.
 Raffenetti 2 integral format.
 Two-electron integral symmetry is turned on.
 R6Disp:  Grimme-D3(BJ) Dispersion energy=       -0.0197998065 Hartrees.
 Nuclear repulsion after empirical dispersion term =      437.8935471130 Hartrees.
 Leave Link  301 at Tue Sep 17 09:46:20 2024, MaxMem=  1342177280 cpu:               0.1 elap:               0.1
 (Enter /groups/ReismanLab/Software/Gaussian16_RevC/Linux_Binary_AVX2-enabled-CPU/g16/l302.exe)
 NPDir=0 NMtPBC=     1 NCelOv=     1 NCel=       1 NClECP=     1 NCelD=      1
         NCelK=      1 NCelE2=     1 NClLst=     1 CellRange=     0.0.
 One-electron integrals computed using PRISM.
 One-electron integral symmetry used in STVInt
 NBasis=   135 RedAO= T EigKep=  7.53D-04  NBF=   135
 NBsUse=   135 1.00D-06 EigRej= -1.00D+00 NBFU=   135
 Precomputing XC quadrature grid using
 IXCGrd= 4 IRadAn=           5 IRanWt=          -1 IRanGd=           0 AccXCQ= 0.00D+00.
 Generated NRdTot=       0 NPtTot=           0 NUsed=           0 NTot=          32
 NSgBfM=   135   135   135   135   135 MxSgAt=    10 MxSgA2=    10.
 Leave Link  302 at Tue Sep 17 09:46:21 2024, MaxMem=  1342177280 cpu:               0.7 elap:               0.3
 (Enter /groups/ReismanLab/Software/Gaussian16_RevC/Linux_Binary_AVX2-enabled-CPU/g16/l303.exe)
 DipDrv:  MaxL=1.
 Leave Link  303 at Tue Sep 17 09:46:21 2024, MaxMem=  1342177280 cpu:               0.1 elap:               0.1
 (Enter /groups/ReismanLab/Software/Gaussian16_RevC/Linux_Binary_AVX2-enabled-CPU/g16/l401.exe)
 Initial guess from the checkpoint file:  "smiles_00122_conf_0.chk"
 B after Tr=     0.000000    0.000000    0.000000
         Rot=    1.000000   -0.000003   -0.000009   -0.000003 Ang=  -0.00 deg.
 Guess basis will be translated and rotated to current coordinates.
 JPrj=2 DoOrth=T DoCkMO=T.
 Leave Link  401 at Tue Sep 17 09:46:21 2024, MaxMem=  1342177280 cpu:               0.3 elap:               0.2
 (Enter /groups/ReismanLab/Software/Gaussian16_RevC/Linux_Binary_AVX2-enabled-CPU/g16/l502.exe)
 Keep R1 ints in memory in canonical form, NReq=49821054.
 FoFCou: FMM=F IPFlag=           0 FMFlag=           0 FMFlg1=           0
         NFxFlg=           0 DoJE=F BraDBF=F KetDBF=F FulRan=T
         wScrn=  0.000000 ICntrl=       600 IOpCl=  0 I1Cent=           0 NGrid=           0
         NMat0=    1 NMatS0=   9180 NMatT0=    0 NMatD0=    1 NMtDS0=    0 NMtDT0=    0
 Symmetry not used in FoFCou.
 Two-electron integral symmetry not used.
 Closed shell SCF:
 Using DIIS extrapolation, IDIIS=  1040.
 NGot=  1342177280 LenX=  1299997284 LenY=  1299978618
 Requested convergence on RMS density matrix=1.00D-08 within  32 cycles.
 Requested convergence on MAX density matrix=1.00D-06.
 Requested convergence on             energy=1.00D-06.
 No special actions if energy rises.

 Cycle   1  Pass 1  IDiag  1:
 E= -2835.44996173754    
 DIIS: error= 4.20D-04 at cycle   1 NSaved=   1.
 NSaved= 1 IEnMin= 1 EnMin= -2835.44996173754     IErMin= 1 ErrMin= 4.20D-04
 ErrMax= 4.20D-04  0.00D+00 EMaxC= 1.00D-01 BMatC= 3.55D-05 BMatP= 3.55D-05
 IDIUse=3 WtCom= 9.96D-01 WtEn= 4.20D-03
 Coeff-Com:  0.100D+01
 Coeff-En:   0.100D+01
 Coeff:      0.100D+01
 Gap=     1.529 Goal=   None    Shift=    0.000
 RMSDP=7.55D-05 MaxDP=2.04D-03              OVMax= 1.66D-03

 Cycle   2  Pass 1  IDiag  1:
 E= -2835.44998826138     Delta-E=       -0.000026523833 Rises=F Damp=F
 DIIS: error= 1.38D-04 at cycle   2 NSaved=   2.
 NSaved= 2 IEnMin= 2 EnMin= -2835.44998826138     IErMin= 2 ErrMin= 1.38D-04
 ErrMax= 1.38D-04  0.00D+00 EMaxC= 1.00D-01 BMatC= 2.03D-06 BMatP= 3.55D-05
 IDIUse=3 WtCom= 9.99D-01 WtEn= 1.38D-03
 Coeff-Com:  0.562D-01 0.944D+00
 Coeff-En:   0.000D+00 0.100D+01
 Coeff:      0.561D-01 0.944D+00
 Gap=     0.209 Goal=   None    Shift=    0.000
 RMSDP=2.80D-05 MaxDP=6.24D-04 DE=-2.65D-05 OVMax= 1.49D-03

 Cycle   3  Pass 1  IDiag  1:
 E= -2835.44998371135     Delta-E=        0.000004550026 Rises=F Damp=F
 DIIS: error= 2.69D-04 at cycle   3 NSaved=   3.
 NSaved= 3 IEnMin= 2 EnMin= -2835.44998826138     IErMin= 2 ErrMin= 1.38D-04
 ErrMax= 2.69D-04  0.00D+00 EMaxC= 1.00D-01 BMatC= 6.47D-06 BMatP= 2.03D-06
 IDIUse=3 WtCom= 3.79D-01 WtEn= 6.21D-01
 Coeff-Com: -0.166D-01 0.653D+00 0.363D+00
 Coeff-En:   0.000D+00 0.722D+00 0.278D+00
 Coeff:     -0.630D-02 0.696D+00 0.310D+00
 Gap=     0.209 Goal=   None    Shift=    0.000
 RMSDP=1.63D-05 MaxDP=3.97D-04 DE= 4.55D-06 OVMax= 8.74D-04

 Cycle   4  Pass 1  IDiag  1:
 E= -2835.44999025185     Delta-E=       -0.000006540498 Rises=F Damp=F
 DIIS: error= 2.20D-05 at cycle   4 NSaved=   4.
 NSaved= 4 IEnMin= 4 EnMin= -2835.44999025185     IErMin= 4 ErrMin= 2.20D-05
 ErrMax= 2.20D-05  0.00D+00 EMaxC= 1.00D-01 BMatC= 7.30D-08 BMatP= 2.03D-06
 IDIUse=1 WtCom= 1.00D+00 WtEn= 0.00D+00
 Coeff-Com: -0.609D-02 0.142D+00-0.901D-02 0.873D+00
 Coeff:     -0.609D-02 0.142D+00-0.901D-02 0.873D+00
 Gap=     0.209 Goal=   None    Shift=    0.000
 RMSDP=1.78D-06 MaxDP=4.94D-05 DE=-6.54D-06 OVMax= 7.03D-05

 Cycle   5  Pass 1  IDiag  1:
 E= -2835.44999031873     Delta-E=       -0.000000066877 Rises=F Damp=F
 DIIS: error= 5.52D-06 at cycle   5 NSaved=   5.
 NSaved= 5 IEnMin= 5 EnMin= -2835.44999031873     IErMin= 5 ErrMin= 5.52D-06
 ErrMax= 5.52D-06  0.00D+00 EMaxC= 1.00D-01 BMatC= 2.65D-09 BMatP= 7.30D-08
 IDIUse=1 WtCom= 1.00D+00 WtEn= 0.00D+00
 Coeff-Com: -0.180D-02 0.281D-01-0.222D-01 0.367D+00 0.629D+00
 Coeff:     -0.180D-02 0.281D-01-0.222D-01 0.367D+00 0.629D+00
 Gap=     0.209 Goal=   None    Shift=    0.000
 RMSDP=5.06D-07 MaxDP=1.82D-05 DE=-6.69D-08 OVMax= 2.54D-05

 Cycle   6  Pass 1  IDiag  1:
 E= -2835.44999032087     Delta-E=       -0.000000002145 Rises=F Damp=F
 DIIS: error= 2.16D-06 at cycle   6 NSaved=   6.
 NSaved= 6 IEnMin= 6 EnMin= -2835.44999032087     IErMin= 6 ErrMin= 2.16D-06
 ErrMax= 2.16D-06  0.00D+00 EMaxC= 1.00D-01 BMatC= 6.75D-10 BMatP= 2.65D-09
 IDIUse=1 WtCom= 1.00D+00 WtEn= 0.00D+00
 Coeff-Com: -0.329D-04-0.989D-02-0.133D-01 0.731D-01 0.364D+00 0.587D+00
 Coeff:     -0.329D-04-0.989D-02-0.133D-01 0.731D-01 0.364D+00 0.587D+00
 Gap=     0.209 Goal=   None    Shift=    0.000
 RMSDP=1.64D-07 MaxDP=5.53D-06 DE=-2.14D-09 OVMax= 6.45D-06

 Cycle   7  Pass 1  IDiag  1:
 E= -2835.44999032144     Delta-E=       -0.000000000571 Rises=F Damp=F
 DIIS: error= 2.61D-07 at cycle   7 NSaved=   7.
 NSaved= 7 IEnMin= 7 EnMin= -2835.44999032144     IErMin= 7 ErrMin= 2.61D-07
 ErrMax= 2.61D-07  0.00D+00 EMaxC= 1.00D-01 BMatC= 1.54D-11 BMatP= 6.75D-10
 IDIUse=1 WtCom= 1.00D+00 WtEn= 0.00D+00
 Coeff-Com:  0.578D-04-0.471D-02-0.393D-02 0.117D-01 0.116D+00 0.229D+00
 Coeff-Com:  0.652D+00
 Coeff:      0.578D-04-0.471D-02-0.393D-02 0.117D-01 0.116D+00 0.229D+00
 Coeff:      0.652D+00
 Gap=     0.209 Goal=   None    Shift=    0.000
 RMSDP=4.07D-08 MaxDP=1.18D-06 DE=-5.71D-10 OVMax= 1.71D-06

 Cycle   8  Pass 1  IDiag  1:
 E= -2835.44999032146     Delta-E=       -0.000000000019 Rises=F Damp=F
 DIIS: error= 8.59D-08 at cycle   8 NSaved=   8.
 NSaved= 8 IEnMin= 8 EnMin= -2835.44999032146     IErMin= 8 ErrMin= 8.59D-08
 ErrMax= 8.59D-08  0.00D+00 EMaxC= 1.00D-01 BMatC= 1.30D-12 BMatP= 1.54D-11
 IDIUse=1 WtCom= 1.00D+00 WtEn= 0.00D+00
 Coeff-Com:  0.300D-04-0.151D-02-0.827D-03-0.296D-03 0.282D-01 0.561D-01
 Coeff-Com:  0.271D+00 0.647D+00
 Coeff:      0.300D-04-0.151D-02-0.827D-03-0.296D-03 0.282D-01 0.561D-01
 Coeff:      0.271D+00 0.647D+00
 Gap=     0.209 Goal=   None    Shift=    0.000
 RMSDP=8.85D-09 MaxDP=2.60D-07 DE=-1.91D-11 OVMax= 2.58D-07

 SCF Done:  E(RB3LYP) =  -2835.44999032     A.U. after    8 cycles
            NFock=  8  Conv=0.89D-08     -V/T= 2.0065
 KE= 2.817268660956D+03 PE=-7.621224849324D+03 EE= 1.530612650933D+03
 Leave Link  502 at Tue Sep 17 09:46:24 2024, MaxMem=  1342177280 cpu:              16.6 elap:               2.9
 (Enter /groups/ReismanLab/Software/Gaussian16_RevC/Linux_Binary_AVX2-enabled-CPU/g16/l508.exe)
 QCSCF skips out because SCF is already converged.
 Leave Link  508 at Tue Sep 17 09:46:24 2024, MaxMem=  1342177280 cpu:               0.1 elap:               0.0
 (Enter /groups/ReismanLab/Software/Gaussian16_RevC/Linux_Binary_AVX2-enabled-CPU/g16/l701.exe)
 ... and contract with generalized density number  0.
 Compute integral first derivatives.
 R6Disp: Adding Grimme-D3(BJ) dispersion energy 1st derivatives to the gradient.
 Leave Link  701 at Tue Sep 17 09:46:24 2024, MaxMem=  1342177280 cpu:               0.6 elap:               0.2
 (Enter /groups/ReismanLab/Software/Gaussian16_RevC/Linux_Binary_AVX2-enabled-CPU/g16/l702.exe)
 L702 exits ... SP integral derivatives will be done elsewhere.
 Leave Link  702 at Tue Sep 17 09:46:24 2024, MaxMem=  1342177280 cpu:               0.1 elap:               0.1
 (Enter /groups/ReismanLab/Software/Gaussian16_RevC/Linux_Binary_AVX2-enabled-CPU/g16/l703.exe)
 Integral derivatives from FoFJK, PRISM(SPDF).
 Compute integral first derivatives, UseDBF=F ICtDFT=           0.
 Calling FoFJK, ICntrl=      2127 FMM=F ISym2X=0 I1Cent= 0 IOpClX= 0 NMat=1 NMatS=1 NMatT=0.
 FoFJK:  IHMeth= 1 ICntrl=    2127 DoSepK=F KAlg= 0 I1Cent=           0 FoldK=F
 IRaf=         0 NMat=       1 IRICut=       1 DoRegI=T DoRafI=F ISym2E= 0 IDoP0=0 IntGTp=1.
 FoFCou: FMM=F IPFlag=           0 FMFlag=      100000 FMFlg1=         800
         NFxFlg=           0 DoJE=F BraDBF=F KetDBF=F FulRan=T
         wScrn=  0.000000 ICntrl=      2127 IOpCl=  0 I1Cent=           0 NGrid=           0
         NMat0=    1 NMatS0=      1 NMatT0=    0 NMatD0=    1 NMtDS0=    0 NMtDT0=    0
 Symmetry not used in FoFCou.
[...]
 Initial guess from the checkpoint file:  "smiles_00122_conf_0.chk"
 B after Tr=     0.000000   -0.000000    0.000000
         Rot=    1.000000    0.000000    0.000000    0.000000 Ang=   0.00 deg.
 Guess basis will be translated and rotated to current coordinates.
 JPrj=2 DoOrth=T DoCkMO=T.
 Leave Link  401 at Tue Sep 17 09:53:13 2024, MaxMem=  1342177280 cpu:               0.1 elap:               0.1
 (Enter /groups/ReismanLab/Software/Gaussian16_RevC/Linux_Binary_AVX2-enabled-CPU/g16/l502.exe)
 Keep R1 ints in memory in canonical form, NReq=520315261.
 FoFCou: FMM=F IPFlag=           0 FMFlag=           0 FMFlg1=           0
         NFxFlg=           0 DoJE=F BraDBF=F KetDBF=F FulRan=T
         wScrn=  0.000000 ICntrl=       600 IOpCl=  0 I1Cent=           0 NGrid=           0
         NMat0=    1 NMatS0=  31878 NMatT0=    0 NMatD0=    1 NMtDS0=    0 NMtDT0=    0
 Symmetry not used in FoFCou.
 Two-electron integral symmetry not used.
 Closed shell SCF:
 Using DIIS extrapolation, IDIIS=  1040.
 NGot=  1342177280 LenX=   833886357 LenY=   833802395
 Requested convergence on RMS density matrix=1.00D-08 within  32 cycles.
 Requested convergence on MAX density matrix=1.00D-06.
 Requested convergence on             energy=1.00D-06.
 No special actions if energy rises.

 Cycle   1  Pass 1  IDiag  1:
 Inv3:  Mode=1 IEnd=     3885132.
 Iteration    1 A*A^-1 deviation from unit magnitude is 2.66D-15 for    728.
 Iteration    1 A*A^-1 deviation from orthogonality  is 1.34D-15 for    327     40.
 Iteration    1 A^-1*A deviation from unit magnitude is 2.66D-15 for    728.
 Iteration    1 A^-1*A deviation from orthogonality  is 1.92D-15 for    648    149.
 E= -2837.91252448790    
 DIIS: error= 8.79D-09 at cycle   1 NSaved=   1.
 NSaved= 1 IEnMin= 1 EnMin= -2837.91252448790     IErMin= 1 ErrMin= 8.79D-09
 ErrMax= 8.79D-09  0.00D+00 EMaxC= 1.00D-01 BMatC= 2.59D-14 BMatP= 2.59D-14
 IDIUse=1 WtCom= 1.00D+00 WtEn= 0.00D+00
 Coeff-Com:  0.100D+01
 Coeff:      0.100D+01
 Gap=     0.299 Goal=   None    Shift=    0.000
 RMSDP=8.53D-10 MaxDP=2.19D-08              OVMax= 7.16D-08

 Error on total polarization charges =  0.01306
 SCF Done:  E(RM062X) =  -2837.91252449     A.U. after    1 cycles
            NFock=  1  Conv=0.85D-09     -V/T= 2.0017
 KE= 2.833198557829D+03 PE=-7.641286848095D+03 EE= 1.532308478518D+03
 SMD-CDS (non-electrostatic) energy       (kcal/mol) =      -2.55
 (included in total energy above)
 Leave Link  502 at Tue Sep 17 09:53:49 2024, MaxMem=  1342177280 cpu:              36.2 elap:              36.4
 (Enter /groups/ReismanLab/Software/Gaussian16_RevC/Linux_Binary_AVX2-enabled-CPU/g16/l508.exe)
 QCSCF skips out because SCF is already converged.
 Leave Link  508 at Tue Sep 17 09:53:49 2024, MaxMem=  1342177280 cpu:               0.0 elap:               0.0
 (Enter /groups/ReismanLab/Software/Gaussian16_RevC/Linux_Binary_AVX2-enabled-CPU/g16/l801.exe)
 DoSCS=F DFT=T ScalE2(SS,OS)=  1.000000  1.000000
 Range of M.O.s used for correlation:     1   252
 NBasis=   252 NAE=    38 NBE=    38 NFC=     0 NFV=     0
 NROrb=    252 NOA=    38 NOB=    38 NVA=   214 NVB=   214

 **** Warning!!: The largest alpha MO coefficient is  0.29933204D+02

 Leave Link  801 at Tue Sep 17 09:53:49 2024, MaxMem=  1342177280 cpu:               0.0 elap:               0.0
 (Enter /groups/ReismanLab/Software/Gaussian16_RevC/Linux_Binary_AVX2-enabled-CPU/g16/l1002.exe)
 Minotr:  Closed shell wavefunction.
 NEqPCM:  Using equilibrium solvation (IEInf=0, Eps=   2.2099, EpsInf=   2.0232)
          Direct CPHF calculation.
          Differentiating once with respect to magnetic field using GIAOs.
          Electric field/nuclear overlap derivatives assumed to be zero.
          Requested convergence is 1.0D-08 RMS, and 1.0D-07 maximum.
          Secondary convergence is 1.0D-12 RMS, and 1.0D-12 maximum.
          NewPWx=T KeepS1=F KeepF1=F KeepIn=T MapXYZ=F SortEE=F KeepMc=T.
         2953 words used for storage of precomputed grid.
 Keep R3 ints in memory in canonical form, NReq=520319745.
 FoFCou: FMM=F IPFlag=           0 FMFlag=           0 FMFlg1=           0
         NFxFlg=           0 DoJE=F BraDBF=F KetDBF=F FulRan=T
         wScrn=  0.000000 ICntrl=       600 IOpCl=  0 I1Cent=           0 NGrid=           0
         NMat0=    1 NMatS0=  31878 NMatT0=    0 NMatD0=    1 NMtDS0=    0 NMtDT0=    0
 Symmetry not used in FoFCou.
 Two-electron integral symmetry not used.
          MDV=    1342177280 using IRadAn=       1.
          Solving linear equations simultaneously, MaxMat=       0.
   1 Symmetry operations used in ECPInt.
 ECPInt:  NShTT=    4465 NPrTT=   15960 LenC2=    4466 LenP2D=   15960.
 LDataN:  DoStor=T MaxTD1= 7 Len=  274
 FoFJK:  IHMeth= 1 ICntrl=    6127 DoSepK=F KAlg= 0 I1Cent=           0 FoldK=F
 IRaf=         1 NMat=       1 IRICut=       1 DoRegI=T DoRafI=F ISym2E= 0 IDoP0=0 IntGTp=1.
          There are     3 degrees of freedom in the 1st order CPHF.  IDoFFX=0 NUNeed=     3.
      3 vectors produced by pass  0 Test12= 2.71D-13 3.33D-08 XBig12= 7.15D+00 9.10D-01.
 AX will form     3 AO Fock derivatives at one time.
      3 vectors produced by pass  1 Test12= 2.71D-13 3.33D-08 XBig12= 5.92D-02 1.24D-01.
      3 vectors produced by pass  2 Test12= 2.71D-13 3.33D-08 XBig12= 7.43D-04 1.57D-02.
      3 vectors produced by pass  3 Test12= 2.71D-13 3.33D-08 XBig12= 1.19D-05 1.35D-03.
      3 vectors produced by pass  4 Test12= 2.71D-13 3.33D-08 XBig12= 1.42D-07 1.86D-04.
      3 vectors produced by pass  5 Test12= 2.71D-13 3.33D-08 XBig12= 2.79D-09 2.52D-05.
      3 vectors produced by pass  6 Test12= 2.71D-13 3.33D-08 XBig12= 3.82D-11 2.18D-06.
      3 vectors produced by pass  7 Test12= 2.71D-13 3.33D-08 XBig12= 4.02D-13 2.49D-07.
      1 vectors produced by pass  8 Test12= 2.71D-13 3.33D-08 XBig12= 5.90D-15 3.76D-08.
 InvSVY:  IOpt=1 It=  1 EMax= 4.44D-16
 Solved reduced A of dimension    25 with     3 vectors.
 Calculating GIAO nuclear magnetic shielding tensors.
 SCF GIAO Magnetic shielding tensor (ppm):
      1  Br   Isotropic =  2162.5161   Anisotropy =  1136.3990
   XX=  2920.1155   YX=     0.0186   ZX=     0.0542
   XY=     0.0055   YY=  1780.5000   ZY=     0.0004
   XZ=     0.0452   YZ=    -0.0011   ZZ=  1786.9329
   Eigenvalues:  1780.5000  1786.9329  2920.1155
      2  C    Isotropic =    27.0569   Anisotropy =   147.4350
   XX=   -94.1613   YX=     0.0031   ZX=    -0.0098
   XY=     0.0047   YY=    49.9850   ZY=     0.0001
   XZ=    -0.0126   YZ=    -0.0002   ZZ=   125.3469
   Eigenvalues:   -94.1613    49.9850   125.3469
      3  C    Isotropic =     0.6499   Anisotropy =   201.3129
   XX=   -52.4994   YX=    68.5940   ZX=    -0.0068
   XY=    46.4111   YY=   -80.4094   ZY=     0.0029
   XZ=    -0.0077   YZ=     0.0048   ZZ=   134.8585
   Eigenvalues:  -125.6261    -7.2827   134.8585
      4  N    Isotropic =  -117.6440   Anisotropy =   579.8134
   XX=  -336.1423   YX=    92.3878   ZX=    -0.0186
   XY=    69.0145   YY=  -285.6880   ZY=     0.0055
   XZ=    -0.0150   YZ=     0.0084   ZZ=   268.8983
   Eigenvalues:  -395.4674  -226.3629   268.8983
      5  C    Isotropic =     3.2442   Anisotropy =   191.2969
   XX=  -111.4276   YX=    -0.0047   ZX=    -0.0064
   XY=    -0.0004   YY=    -9.6153   ZY=    -0.0001
   XZ=    -0.0049   YZ=    -0.0000   ZZ=   130.7755
   Eigenvalues:  -111.4276    -9.6153   130.7755
      6  N    Isotropic =  -117.6514   Anisotropy =   579.8163
   XX=  -336.1501   YX=   -92.3973   ZX=    -0.0171
   XY=   -69.0151   YY=  -285.6970   ZY=    -0.0065
   XZ=    -0.0138   YZ=    -0.0096   ZZ=   268.8928
   Eigenvalues:  -395.4805  -226.3666   268.8928
      7  C    Isotropic =     0.6465   Anisotropy =   201.3129
   XX=   -52.4983   YX=   -68.5946   ZX=    -0.0067
   XY=   -46.4078   YY=   -80.4173   ZY=    -0.0030
   XZ=    -0.0076   YZ=    -0.0049   ZZ=   134.8551
   Eigenvalues:  -125.6292    -7.2864   134.8551
      8  H    Isotropic =    22.2326   Anisotropy =    11.7978
   XX=    25.1196   YX=     5.9617   ZX=     0.0002
   XY=     5.6209   YY=    23.3607   ZY=     0.0002
   XZ=     0.0003   YZ=     0.0001   ZZ=    18.2176
   Eigenvalues:    18.2176    18.3825    30.0978
      9  H    Isotropic =    21.9051   Anisotropy =     6.1103
   XX=    21.4828   YX=     0.0001   ZX=     0.0002
   XY=     0.0000   YY=    25.9787   ZY=    -0.0000
   XZ=    -0.0000   YZ=     0.0000   ZZ=    18.2539
   Eigenvalues:    18.2539    21.4828    25.9787
     10  H    Isotropic =    22.2325   Anisotropy =    11.7982
   XX=    25.1191   YX=    -5.9620   ZX=     0.0002
   XY=    -5.6212   YY=    23.3610   ZY=    -0.0003
   XZ=     0.0003   YZ=    -0.0001   ZZ=    18.2175
   Eigenvalues:    18.2175    18.3821    30.0980
 End of Minotr F.D. properties file   721 does not exist.
 End of Minotr F.D. properties file   722 does not exist.
 End of Minotr F.D. properties file   788 does not exist.
 Leave Link 1002 at Tue Sep 17 09:55:53 2024, MaxMem=  1342177280 cpu:             123.4 elap:             124.0
 (Enter /groups/ReismanLab/Software/Gaussian16_RevC/Linux_Binary_AVX2-enabled-CPU/g16/l601.exe)
 Copying SCF densities to generalized density rwf, IOpCl= 0 IROHF=0.

 **********************************************************************

            Population analysis using the SCF Density.

 **********************************************************************

 Orbital symmetries:
       Occupied  (A) (A) (A) (A) (A) (A) (A) (A) (A) (A) (A) (A)
                 (A) (A) (A) (A) (A) (A) (A) (A) (A) (A) (A) (A)
                 (A) (A) (A) (A) (A) (A) (A) (A) (A) (A) (A) (A)
                 (A) (A)
       Virtual   (A) (A) (A) (A) (A) (A) (A) (A) (A) (A) (A) (A)
                 (A) (A) (A) (A) (A) (A) (A) (A) (A) (A) (A) (A)
                 (A) (A) (A) (A) (A) (A) (A) (A) (A) (A) (A) (A)
                 (A) (A) (A) (A) (A) (A) (A) (A) (A) (A) (A) (A)
                 (A) (A) (A) (A) (A) (A) (A) (A) (A) (A) (A) (A)
                 (A) (A) (A) (A) (A) (A) (A) (A) (A) (A) (A) (A)
                 (A) (A) (A) (A) (A) (A) (A) (A) (A) (A) (A) (A)
                 (A) (A) (A) (A) (A) (A) (A) (A) (A) (A) (A) (A)
                 (A) (A) (A) (A) (A) (A) (A) (A) (A) (A) (A) (A)
                 (A) (A) (A) (A) (A) (A) (A) (A) (A) (A) (A) (A)
                 (A) (A) (A) (A) (A) (A) (A) (A) (A) (A) (A) (A)
                 (A) (A) (A) (A) (A) (A) (A) (A) (A) (A) (A) (A)
                 (A) (A) (A) (A) (A) (A) (A) (A) (A) (A) (A) (A)
                 (A) (A) (A) (A) (A) (A) (A) (A) (A) (A) (A) (A)
                 (A) (A) (A) (A) (A) (A) (A) (A) (A) (A) (A) (A)
                 (A) (A) (A) (A) (A) (A) (A) (A) (A) (A) (A) (A)
                 (A) (A) (A) (A) (A) (A) (A) (A) (A) (A) (A) (A)
                 (A) (A) (A) (A) (A) (A) (A) (A) (A) (A)
 The electronic state is 1-A.
 Alpha  occ. eigenvalues -- -485.39387 -63.37863 -57.19815 -57.19567 -57.19562
 Alpha  occ. eigenvalues --  -14.77598 -14.77597 -10.62303 -10.62197 -10.61316
 Alpha  occ. eigenvalues --  -10.61312  -9.04511  -6.86944  -6.86024  -6.86008
 Alpha  occ. eigenvalues --   -2.90321  -2.89986  -2.89966  -2.89109  -2.89109
 Alpha  occ. eigenvalues --   -1.11636  -1.01293  -0.94784  -0.85479  -0.76559
 Alpha  occ. eigenvalues --   -0.74048  -0.62787  -0.60966  -0.52359  -0.51277
 Alpha  occ. eigenvalues --   -0.50744  -0.49306  -0.41403  -0.39540  -0.38985
 Alpha  occ. eigenvalues --   -0.37591  -0.33665  -0.32602
 Alpha virt. eigenvalues --   -0.02659  -0.01362   0.02513   0.09685   0.12019
 Alpha virt. eigenvalues --    0.12352   0.12704   0.14327   0.15872   0.17666
 Alpha virt. eigenvalues --    0.22109   0.22504   0.22876   0.23597   0.25220
 Alpha virt. eigenvalues --    0.26082   0.26820   0.26873   0.29990   0.32400
 Alpha virt. eigenvalues --    0.33563   0.34688   0.36040   0.36649   0.37239
 Alpha virt. eigenvalues --    0.39011   0.40406   0.41200   0.41655   0.44429
 Alpha virt. eigenvalues --    0.44681   0.47317   0.47909   0.47947   0.49664
 Alpha virt. eigenvalues --    0.51664   0.56431   0.56461   0.60110   0.60204
 Alpha virt. eigenvalues --    0.60807   0.62985   0.64399   0.65650   0.66865
 Alpha virt. eigenvalues --    0.69038   0.70282   0.70396   0.74147   0.76558
 Alpha virt. eigenvalues --    0.81956   0.84513   0.85912   0.92951   0.96159
 Alpha virt. eigenvalues --    0.96708   0.97849   0.99304   1.07689   1.09501
 Alpha virt. eigenvalues --    1.09944   1.10913   1.14667   1.20385   1.20465
 Alpha virt. eigenvalues --    1.24256   1.25775   1.29740   1.34964   1.36509
 Alpha virt. eigenvalues --    1.37942   1.38149   1.38603   1.42393   1.44632
 Alpha virt. eigenvalues --    1.46187   1.47057   1.48585   1.51103   1.52854
 Alpha virt. eigenvalues --    1.54828   1.55921   1.57512   1.57944   1.58409
 Alpha virt. eigenvalues --    1.58472   1.61839   1.63733   1.64739   1.66259
 Alpha virt. eigenvalues --    1.66947   1.69587   1.71116   1.73115   1.73957
 Alpha virt. eigenvalues --    1.74593   1.82279   1.83783   1.83849   1.86633
 Alpha virt. eigenvalues --    1.89490   1.97146   1.97387   1.98312   2.01134
 Alpha virt. eigenvalues --    2.05589   2.07021   2.07289   2.17941   2.18921
 Alpha virt. eigenvalues --    2.25443   2.25490   2.29461   2.36044   2.37280
 Alpha virt. eigenvalues --    2.41136   2.41709   2.46251   2.50346   2.52482
 Alpha virt. eigenvalues --    2.59144   2.61340   2.68164   2.68965   2.71229
 Alpha virt. eigenvalues --    2.74415   2.80628   2.82261   2.82410   2.87239
 Alpha virt. eigenvalues --    2.87773   2.89679   2.91842   2.92313   2.93768
 Alpha virt. eigenvalues --    2.93991   3.01268   3.02175   3.03215   3.04549
 Alpha virt. eigenvalues --    3.11759   3.13493   3.14484   3.19335   3.19712
 Alpha virt. eigenvalues --    3.21925   3.22344   3.31132   3.31703   3.33262
 Alpha virt. eigenvalues --    3.34889   3.37560   3.37669   3.41429   3.42221
 Alpha virt. eigenvalues --    3.43396   3.50173   3.52547   3.59407   3.69593
 Alpha virt. eigenvalues --    3.73482   3.74965   3.80708   3.81456   3.85362
 Alpha virt. eigenvalues --    3.85716   3.93074   4.03711   4.04585   4.11054
 Alpha virt. eigenvalues --    4.11540   4.12541   4.12637   4.17677   4.20012
 Alpha virt. eigenvalues --    4.27716   4.35391   4.38186   4.39679   4.41092
 Alpha virt. eigenvalues --    4.48000   4.53717   4.58211   4.62452   4.69877
 Alpha virt. eigenvalues --    4.69991   4.74965   4.83176   4.85475   4.91347
 Alpha virt. eigenvalues --    4.99359   4.99551   5.04012   5.04982   5.10801
 Alpha virt. eigenvalues --    5.15630   5.27685   5.27798   5.34243   5.35089
 Alpha virt. eigenvalues --    5.36933   5.50377   5.53450   5.60396   5.65712
 Alpha virt. eigenvalues --    5.83975   6.10045   7.83644  22.59003  22.75050
 Alpha virt. eigenvalues --   22.88576  22.99459  32.33809  32.48405
          Condensed to atoms (all electrons):
               1          2          3          4          5          6
     1  Br  34.859710   0.349500  -0.075092   0.007436   0.000462   0.007437
     2  C    0.349500   4.988215   0.450945  -0.036617  -0.043089  -0.036620
     3  C   -0.075092   0.450945   4.874679   0.471405  -0.088952  -0.028170
     4  N    0.007436  -0.036617   0.471405   6.516224   0.474497  -0.075539
     5  C    0.000462  -0.043089  -0.088952   0.474497   4.759721   0.474469
     6  N    0.007437  -0.036620  -0.028170  -0.075539   0.474469   6.516230
     7  C   -0.075090   0.450923  -0.025826  -0.028167  -0.088951   0.471436
     8  H   -0.001698  -0.068107   0.439450  -0.030082   0.005952  -0.001701
     9  H    0.000080   0.000950   0.003707  -0.046865   0.431301  -0.046868
    10  H   -0.001697  -0.068112   0.005781  -0.001701   0.005953  -0.030080
               7          8          9         10
     1  Br  -0.075090  -0.001698   0.000080  -0.001697
     2  C    0.450923  -0.068107   0.000950  -0.068112
     3  C   -0.025826   0.439450   0.003707   0.005781
     4  N   -0.028167  -0.030082  -0.046865  -0.001701
     5  C   -0.088951   0.005952   0.431301   0.005953
     6  N    0.471436  -0.001701  -0.046868  -0.030080
     7  C    4.874674   0.005781   0.003707   0.439451
     8  H    0.005781   0.462159  -0.000078   0.000005
     9  H    0.003707  -0.000078   0.483334  -0.000078
    10  H    0.439451   0.000005  -0.000078   0.462161
 Mulliken charges:
               1
     1  Br  -0.071048
     2  C    0.012014
     3  C   -0.027928
     4  N   -0.250592
     5  C    0.068636
     6  N   -0.250593
     7  C   -0.027937
     8  H    0.188319
     9  H    0.170811
    10  H    0.188318
 Sum of Mulliken charges =  -0.00000
 Mulliken charges with hydrogens summed into heavy atoms:
               1
     1  Br  -0.071048
     2  C    0.012014
     3  C    0.160391
     4  N   -0.250592
     5  C    0.239447
     6  N   -0.250593
     7  C    0.160381
 Electronic spatial extent (au):  <R**2>=           1167.1915
 Charge=             -0.0000 electrons
 Dipole moment (field-independent basis, Debye):
    X=             -0.9681    Y=              0.0000    Z=             -0.0000  Tot=              0.9681
 Quadrupole moment (field-independent basis, Debye-Ang):
   XX=            -54.3503   YY=            -53.6439   ZZ=            -53.6201
   XY=              0.0000   XZ=             -0.0000   YZ=             -0.0000
 Traceless Quadrupole moment (field-independent basis, Debye-Ang):
   XX=             -0.4789   YY=              0.2276   ZZ=              0.2513
   XY=              0.0000   XZ=             -0.0000   YZ=             -0.0000
 Octapole moment (field-independent basis, Debye-Ang**2):
  XXX=            -53.3853  YYY=              0.0009  ZZZ=             -0.0022  XYY=            -34.9711
  XXY=             -0.0006  XXZ=             -0.0009  XZZ=            -18.3756  YZZ=             -0.0001
  YYZ=             -0.0013  XYZ=             -0.0000
 Hexadecapole moment (field-independent basis, Debye-Ang**3):
 XXXX=           -961.8441 YYYY=           -272.3767 ZZZZ=            -58.8585 XXXY=             -0.0021
 XXXZ=             -0.0152 YYYX=              0.0014 YYYZ=              0.0000 ZZZX=             -0.0195
 ZZZY=              0.0000 XXYY=           -278.4612 XXZZ=           -192.2468 YYZZ=            -58.7109
 XXYZ=             -0.0000 YYXZ=             -0.0081 ZZXY=             -0.0000
 N-N= 4.378672872612D+02 E-N=-7.641286847991D+03  KE= 2.833198557829D+03
 Calculating spin-rotation constants.
 Leave Link  601 at Tue Sep 17 09:55:54 2024, MaxMem=  1342177280 cpu:               1.2 elap:               1.2
 (Enter /groups/ReismanLab/Software/Gaussian16_RevC/Linux_Binary_AVX2-enabled-CPU/g16/l9999.exe)
 Unable to Open any file for archive entry.
 1\1\GINC-HPC-20-32\SP\RM062X\def2TZVP\C4H3Br1N2\MANTIND\17-Sep-2024\0\
 \#p M062X/def2tzvp geom=check guess=read scf(xqc,tight) integral(grid=
 ultrafine) scrf(SMD, solvent=1,4-Dioxane) nmr=giao\\spe\\0,1\Br,0,1.64
 05762909,-0.0001396139,-0.0000691867\C,0,-0.2576735388,-0.0000874003,0
 .0000149907\C,0,-0.9777021541,-1.192884053,0.0000399374\N,0,-2.3139901
 616,-1.1967396292,0.0000792378\C,0,-2.9109274157,0.0000371317,0.000104
 2724\N,0,-2.3138678621,1.1967872465,0.0000770469\C,0,-0.9776079552,1.1
 927953846,0.0000440289\H,0,-0.4691448821,-2.153431996,0.0000110395\H,0
 ,-3.9978270394,0.0001031018,0.0001220952\H,0,-0.4689265163,2.153279972
 2,0.0000088158\\Version=ES64L-G16RevC.02\State=1-A\HF=-2837.9125245\RM
 SD=8.532e-10\Dipole=0.3808779,-0.0000253,-0.000012\Quadrupole=-0.35602
 34,0.1691795,0.1868439,0.0000458,0.0000101,0.0000023\PG=C01 [X(C4H3Br1
 N2)]\\@
 The archive entry for this job was punched.


 The chemist is a guest at the physicist's table and
 frequently dines well.
                   -- Richard Bersohn
 Job cpu time:       0 days  0 hours  2 minutes 41.8 seconds.
 Elapsed time:       0 days  0 hours  2 minutes 43.2 seconds.
 File lengths (MBytes):  RWF=    176 Int=      0 D2E=      0 Chk=     16 Scr=     16
 Normal termination of Gaussian 16 at Tue Sep 17 09:55:54 2024.
