 Entering Gaussian System, Link 0=g16
 Input=smiles_00118_conf_4.gjf
 Output=smiles_00118_conf_4.log
 Initial command:
 /groups/ReismanLab/Software/Gaussian16_RevC/Linux_Binary_AVX2-enabled-CPU/g16/l1.exe "/central/groups/ReismanLab/DM/dft_final/smiles_00118/Gau-445920.inp" -scrdir="/central/groups/ReismanLab/DM/dft_final/smiles_00118/"
 Entering Link 1 = /groups/ReismanLab/Software/Gaussian16_RevC/Linux_Binary_AVX2-enabled-CPU/g16/l1.exe PID=    445924.
  
 Copyright (c) 1988-2021, Gaussian, Inc.  All Rights Reserved.
  
 This is part of the Gaussian(R) 16 program.  It is based on
 the Gaussian(R) 09 system (copyright 2009, Gaussian, Inc.),
 the Gaussian(R) 03 system (copyright 2003, Gaussian, Inc.),
 the Gaussian(R) 98 system (copyright 1998, Gaussian, Inc.),
 the Gaussian(R) 94 system (copyright 1995, Gaussian, Inc.),
 the Gaussian 92(TM) system (copyright 1992, Gaussian, Inc.),
 the Gaussian 90(TM) system (copyright 1990, Gaussian, Inc.),
 the Gaussian 88(TM) system (copyright 1988, Gaussian, Inc.),
 the Gaussian 86(TM) system (copyright 1986, Carnegie Mellon
 University), and the Gaussian 82(TM) system (copyright 1983,
 Carnegie Mellon University). Gaussian is a federally registered
 trademark of Gaussian, Inc.
  
 This software contains proprietary and confidential information,
 including trade secrets, belonging to Gaussian, Inc.
  
 This software is provided under written license and may be
 used, copied, transmitted, or stored only in accord with that
 written license.
  
 The following legend is applicable only to US Government
 contracts under FAR:
  
                    RESTRICTED RIGHTS LEGEND
  
 Use, reproduction and disclosure by the US Government is
 subject to restrictions as set forth in subparagraphs (a)
 and (c) of the Commercial Computer Software - Restricted
 Rights clause in FAR 52.227-19.
  
 Gaussian, Inc.
 340 Quinnipiac St., Bldg. 40, Wallingford CT 06492
  
  
 ---------------------------------------------------------------
 Warning -- This program may not be used in any manner that
 competes with the business of Gaussian, Inc. or will provide
 assistance to any competitor of Gaussian, Inc.  The licensee
 of this program is prohibited from giving any competitor of
 Gaussian, Inc. access to this program.  By using this program,
 the user acknowledges that Gaussian, Inc. is engaged in the
 business of creating and licensing software in the field of
 computational chemistry and represents and warrants to the
 licensee that it is not a competitor of Gaussian, Inc. and that
 it will not use this program in any manner prohibited above.
 ---------------------------------------------------------------
  

 Cite this work as:
 Gaussian 16, Revision C.02,
 M. J. Frisch, G. W. Trucks, H. B. Schlegel, G. E. Scuseria, 
 M. A. Robb, J. R. Cheeseman, G. Scalmani, V. Barone, 
 G. A. Petersson, H. Nakatsuji, X. Li, M. Caricato, A. V. Marenich, 
 J. Bloino, B. G. Janesko, R. Gomperts, B. Mennucci, H. P. Hratchian, 
 J. V. Ortiz, A. F. Izmaylov, J. L. Sonnenberg, D. Williams-Young, 
 F. Ding, F. Lipparini, F. Egidi, J. Goings, B. Peng, A. Petrone, 
 T. Henderson, D. Ranasinghe, V. G. Zakrzewski, J. Gao, N. Rega, 
 G. Zheng, W. Liang, M. Hada, M. Ehara, K. Toyota, R. Fukuda, 
 J. Hasegawa, M. Ishida, T. Nakajima, Y. Honda, O. Kitao, H. Nakai, 
 T. Vreven, K. Throssell, J. A. Montgomery, Jr., J. E. Peralta, 
 F. Ogliaro, M. J. Bearpark, J. J. Heyd, E. N. Brothers, K. N. Kudin, 
 V. N. Staroverov, T. A. Keith, R. Kobayashi, J. Normand, 
 K. Raghavachari, A. P. Rendell, J. C. Burant, S. S. Iyengar, 
 J. Tomasi, M. Cossi, J. M. Millam, M. Klene, C. Adamo, R. Cammi, 
 J. W. Ochterski, R. L. Martin, K. Morokuma, O. Farkas, 
 J. B. Foresman, and D. J. Fox, Gaussian, Inc., Wallingford CT, 2019.
 
 ******************************************
 Gaussian 16:  ES64L-G16RevC.02  7-Dec-2021
                17-Sep-2024 
 ******************************************
 %nprocshared=8
 Will use up to    8 processors via shared memory.
 %Mem=10GB
 %Chk=smiles_00118_conf_4.chk
 ----------------------------------------------------------------------
 #p B3LYP/6-31G(d,p) EmpiricalDispersion=GD3BJ opt freq scf(xqc,tight) 
 integral(grid=ultrafine)
 ----------------------------------------------------------------------
 1/18=20,19=15,26=4,38=1/1,3;
 2/9=110,12=2,17=6,18=5,40=1/2;
 3/5=1,6=6,7=101,11=2,25=1,30=1,71=1,74=-5,75=-5,124=41/1,2,3;
 4//1;
 5/5=2,8=3,13=1,32=2,38=5/2,8;
 6/7=2,8=2,9=2,10=2,28=1/1;
 7//1,2,3,16;
 1/18=20,19=15,26=4/3(2);
 2/9=110/2;
 99//99;
 2/9=110/2;
 3/5=1,6=6,7=101,11=2,25=1,30=1,71=1,74=-5,75=-5,124=41/1,2,3;
 4/5=5,16=3,69=1/1;
 5/5=2,8=3,13=1,32=2,38=5/2,8;
 7//1,2,3,16;
 1/18=20,19=15,26=4/3(-5);
 2/9=110/2;
 6/7=2,8=2,9=2,10=2,19=2,28=1/1;
 99/9=1/99;
 Leave Link    1 at Tue Sep 17 09:44:11 2024, MaxMem=  1342177280 cpu:               0.1 elap:               0.6
 (Enter /groups/ReismanLab/Software/Gaussian16_RevC/Linux_Binary_AVX2-enabled-CPU/g16/l101.exe)
 ----------------------------------
 opt-freq conformers_unique/conf_ae
 ----------------------------------
 Symbolic Z-matrix:
 Charge =  0 Multiplicity = 1
 C                    -2.52101   1.95278   0.00013 
 O                    -1.15945   2.3301   -0.00044 
 C                    -0.13018   1.4653   -0.00019 
 C                     1.11558   2.12282  -0.00037 
 C                     2.30836   1.44738  -0.00025 
 C                     2.31466   0.05076  -0.00002 
 C                     3.5648   -0.71188  -0.00007 
 O                     3.64849  -1.91353  -0.00005 
 C                     1.09482  -0.61748   0.0002 
 C                    -0.10871   0.06444   0.00014 
 Br                   -1.66239  -1.06605   0.00016 
 H                    -2.7884    1.38685   0.89442 
 H                    -2.78894   1.38617  -0.89362 
 H                    -3.0661    2.89643  -0.00006 
 H                     1.08342   3.20112  -0.00058 
 H                     3.23998   1.99269  -0.00038 
 H                     4.47078  -0.07376   0.00018 
 H                     1.10393  -1.69782   0.0003 
 
 ITRead=  0  0  0  0  0  0  0  0  0  0  0  0  0  0  0  0  0  0
 MicOpt= -1 -1 -1 -1 -1 -1 -1 -1 -1 -1 -1 -1 -1 -1 -1 -1 -1 -1
 NAtoms=     18 NQM=       18 NQMF=       0 NMMI=      0 NMMIF=      0
                NMic=       0 NMicF=      0.
                    Isotopes and Nuclear Properties:
 (Nuclear quadrupole moments (NQMom) in fm**2, nuclear magnetic moments (NMagM)
  in nuclear magnetons)

  Atom         1           2           3           4           5           6           7           8           9          10
 IAtWgt=          12          16          12          12          12          12          12          16          12          12
 AtmWgt=  12.0000000  15.9949146  12.0000000  12.0000000  12.0000000  12.0000000  12.0000000  15.9949146  12.0000000  12.0000000
 NucSpn=           0           0           0           0           0           0           0           0           0           0
 AtZEff=  -0.0000000  -0.0000000  -0.0000000  -0.0000000  -0.0000000  -0.0000000  -0.0000000  -0.0000000  -0.0000000  -0.0000000
 NQMom=    0.0000000   0.0000000   0.0000000   0.0000000   0.0000000   0.0000000   0.0000000   0.0000000   0.0000000   0.0000000
 NMagM=    0.0000000   0.0000000   0.0000000   0.0000000   0.0000000   0.0000000   0.0000000   0.0000000   0.0000000   0.0000000
 AtZNuc=   6.0000000   8.0000000   6.0000000   6.0000000   6.0000000   6.0000000   6.0000000   8.0000000   6.0000000   6.0000000

  Atom        11          12          13          14          15          16          17          18
 IAtWgt=          79           1           1           1           1           1           1           1
 AtmWgt=  78.9183361   1.0078250   1.0078250   1.0078250   1.0078250   1.0078250   1.0078250   1.0078250
 NucSpn=           3           1           1           1           1           1           1           1
 AtZEff=  -0.0000000  -0.0000000  -0.0000000  -0.0000000  -0.0000000  -0.0000000  -0.0000000  -0.0000000
 NQMom=   31.3000000   0.0000000   0.0000000   0.0000000   0.0000000   0.0000000   0.0000000   0.0000000
 NMagM=    2.1063990   2.7928460   2.7928460   2.7928460   2.7928460   2.7928460   2.7928460   2.7928460
 AtZNuc=  35.0000000   1.0000000   1.0000000   1.0000000   1.0000000   1.0000000   1.0000000   1.0000000
 Leave Link  101 at Tue Sep 17 09:44:11 2024, MaxMem=  1342177280 cpu:               0.2 elap:               0.3
 (Enter /groups/ReismanLab/Software/Gaussian16_RevC/Linux_Binary_AVX2-enabled-CPU/g16/l103.exe)

 GradGradGradGradGradGradGradGradGradGradGradGradGradGradGradGradGradGrad
 Berny optimization.
 Initialization pass.
                           ----------------------------
                           !    Initial Parameters    !
                           ! (Angstroms and Degrees)  !
 --------------------------                            --------------------------
 ! Name  Definition              Value          Derivative Info.                !
 --------------------------------------------------------------------------------
 ! R1    R(1,2)                  1.4129         estimate D2E/DX2                !
 ! R2    R(1,12)                 1.0916         estimate D2E/DX2                !
 ! R3    R(1,13)                 1.0916         estimate D2E/DX2                !
 ! R4    R(1,14)                 1.0898         estimate D2E/DX2                !
 ! R5    R(2,3)                  1.3443         estimate D2E/DX2                !
 ! R6    R(3,4)                  1.4086         estimate D2E/DX2                !
 ! R7    R(3,10)                 1.401          estimate D2E/DX2                !
 ! R8    R(4,5)                  1.3707         estimate D2E/DX2                !
 ! R9    R(4,15)                 1.0788         estimate D2E/DX2                !
 ! R10   R(5,6)                  1.3966         estimate D2E/DX2                !
 ! R11   R(5,16)                 1.0795         estimate D2E/DX2                !
 ! R12   R(6,7)                  1.4644         estimate D2E/DX2                !
 ! R13   R(6,9)                  1.3909         estimate D2E/DX2                !
 ! R14   R(7,8)                  1.2046         estimate D2E/DX2                !
 ! R15   R(7,17)                 1.1081         estimate D2E/DX2                !
 ! R16   R(9,10)                 1.3833         estimate D2E/DX2                !
 ! R17   R(9,18)                 1.0804         estimate D2E/DX2                !
 ! R18   R(10,11)                1.9214         estimate D2E/DX2                !
 ! A1    A(2,1,12)             112.0145         estimate D2E/DX2                !
 ! A2    A(2,1,13)             112.0127         estimate D2E/DX2                !
 ! A3    A(2,1,14)             104.5231         estimate D2E/DX2                !
 ! A4    A(12,1,13)            109.9709         estimate D2E/DX2                !
 ! A5    A(12,1,14)            109.0601         estimate D2E/DX2                !
 ! A6    A(13,1,14)            109.0599         estimate D2E/DX2                !
 ! A7    A(1,2,3)              124.4735         estimate D2E/DX2                !
 ! A8    A(2,3,4)              112.1375         estimate D2E/DX2                !
 ! A9    A(2,3,10)             130.9151         estimate D2E/DX2                !
 ! A10   A(4,3,10)             116.9474         estimate D2E/DX2                !
 ! A11   A(3,4,5)              122.653          estimate D2E/DX2                !
 ! A12   A(3,4,15)             116.1166         estimate D2E/DX2                !
 ! A13   A(5,4,15)             121.2305         estimate D2E/DX2                !
 ! A14   A(4,5,6)              119.7804         estimate D2E/DX2                !
 ! A15   A(4,5,16)             120.1364         estimate D2E/DX2                !
 ! A16   A(6,5,16)             120.0832         estimate D2E/DX2                !
 ! A17   A(5,6,7)              121.6435         estimate D2E/DX2                !
 ! A18   A(5,6,9)              118.4558         estimate D2E/DX2                !
 ! A19   A(7,6,9)              119.9007         estimate D2E/DX2                !
 ! A20   A(6,7,8)              125.3687         estimate D2E/DX2                !
 ! A21   A(6,7,17)             113.4562         estimate D2E/DX2                !
 ! A22   A(8,7,17)             121.1751         estimate D2E/DX2                !
 ! A23   A(6,9,10)             121.7496         estimate D2E/DX2                !
 ! A24   A(6,9,18)             118.2315         estimate D2E/DX2                !
 ! A25   A(10,9,18)            120.0189         estimate D2E/DX2                !
 ! A26   A(3,10,9)             120.4138         estimate D2E/DX2                !
 ! A27   A(3,10,11)            125.1626         estimate D2E/DX2                !
 ! A28   A(9,10,11)            114.4236         estimate D2E/DX2                !
 ! D1    D(12,1,2,3)            62.0435         estimate D2E/DX2                !
 ! D2    D(13,1,2,3)           -62.0698         estimate D2E/DX2                !
 ! D3    D(14,1,2,3)           179.9875         estimate D2E/DX2                !
 ! D4    D(1,2,3,4)           -179.9772         estimate D2E/DX2                !
 ! D5    D(1,2,3,10)             0.027          estimate D2E/DX2                !
 ! D6    D(2,3,4,5)           -179.9964         estimate D2E/DX2                !
 ! D7    D(2,3,4,15)             0.0064         estimate D2E/DX2                !
 ! D8    D(10,3,4,5)             0.0            estimate D2E/DX2                !
 ! D9    D(10,3,4,15)         -179.9971         estimate D2E/DX2                !
 ! D10   D(2,3,10,9)           179.9924         estimate D2E/DX2                !
 ! D11   D(2,3,10,11)            0.0057         estimate D2E/DX2                !
 ! D12   D(4,3,10,9)            -0.0033         estimate D2E/DX2                !
 ! D13   D(4,3,10,11)         -179.9899         estimate D2E/DX2                !
 ! D14   D(3,4,5,6)              0.0047         estimate D2E/DX2                !
 ! D15   D(3,4,5,16)          -179.9992         estimate D2E/DX2                !
 ! D16   D(15,4,5,6)          -179.9982         estimate D2E/DX2                !
 ! D17   D(15,4,5,16)           -0.0022         estimate D2E/DX2                !
 ! D18   D(4,5,6,7)            179.9916         estimate D2E/DX2                !
 ! D19   D(4,5,6,9)             -0.0061         estimate D2E/DX2                !
 ! D20   D(16,5,6,7)            -0.0045         estimate D2E/DX2                !
 ! D21   D(16,5,6,9)           179.9978         estimate D2E/DX2                !
 ! D22   D(5,6,7,8)           -179.9903         estimate D2E/DX2                !
 ! D23   D(5,6,7,17)             0.0263         estimate D2E/DX2                !
 ! D24   D(9,6,7,8)              0.0074         estimate D2E/DX2                !
 ! D25   D(9,6,7,17)          -179.9761         estimate D2E/DX2                !
 ! D26   D(5,6,9,10)             0.003          estimate D2E/DX2                !
 ! D27   D(5,6,9,18)           179.996          estimate D2E/DX2                !
 ! D28   D(7,6,9,10)          -179.9947         estimate D2E/DX2                !
 ! D29   D(7,6,9,18)            -0.0017         estimate D2E/DX2                !
 ! D30   D(6,9,10,3)             0.0018         estimate D2E/DX2                !
 ! D31   D(6,9,10,11)          179.9898         estimate D2E/DX2                !
 ! D32   D(18,9,10,3)         -179.9912         estimate D2E/DX2                !
 ! D33   D(18,9,10,11)          -0.0031         estimate D2E/DX2                !
 --------------------------------------------------------------------------------
 Trust Radius=3.00D-01 FncErr=1.00D-07 GrdErr=1.00D-06 EigMax=2.50D+02 EigMin=1.00D-04
 Number of steps in this run=     89 maximum allowed number of steps=    108.
 GradGradGradGradGradGradGradGradGradGradGradGradGradGradGradGradGradGrad

 Leave Link  103 at Tue Sep 17 09:44:11 2024, MaxMem=  1342177280 cpu:               0.1 elap:               0.0
 (Enter /groups/ReismanLab/Software/Gaussian16_RevC/Linux_Binary_AVX2-enabled-CPU/g16/l202.exe)
                          Input orientation:                          
 ---------------------------------------------------------------------
 Center     Atomic      Atomic             Coordinates (Angstroms)
 Number     Number       Type             X           Y           Z
 ---------------------------------------------------------------------
      1          6           0       -2.521015    1.952784    0.000126
      2          8           0       -1.159446    2.330103   -0.000441
      3          6           0       -0.130178    1.465301   -0.000189
      4          6           0        1.115582    2.122817   -0.000374
      5          6           0        2.308358    1.447377   -0.000248
      6          6           0        2.314662    0.050760   -0.000024
      7          6           0        3.564804   -0.711878   -0.000066
      8          8           0        3.648491   -1.913528   -0.000050
      9          6           0        1.094818   -0.617484    0.000196
     10          6           0       -0.108714    0.064440    0.000136
     11         35           0       -1.662391   -1.066047    0.000162
     12          1           0       -2.788398    1.386853    0.894422
     13          1           0       -2.788936    1.386174   -0.893619
     14          1           0       -3.066100    2.896433   -0.000064
     15          1           0        1.083416    3.201115   -0.000575
     16          1           0        3.239984    1.992686   -0.000385
     17          1           0        4.470780   -0.073755    0.000177
     18          1           0        1.103925   -1.697823    0.000303
 ---------------------------------------------------------------------
                    Distance matrix (angstroms):
                    1          2          3          4          5
     1  C    0.000000
     2  O    1.412883   0.000000
     3  C    2.440029   1.344349   0.000000
     4  C    3.640570   2.284452   1.408632   0.000000
     5  C    4.855747   3.578390   2.438602   1.370742   0.000000
     6  C    5.196293   4.155097   2.824565   2.393995   1.396631
     7  C    6.643614   5.618913   4.288706   3.746222   2.498207
     8  O    7.280876   6.412851   5.069006   4.765260   3.618237
     9  C    4.436273   3.710792   2.416321   2.740379   2.395064
    10  C    3.063500   2.497452   1.401025   2.394956   2.784736
    11  Br   3.138562   3.433189   2.958952   4.229182   4.699377
    12  H    1.091575   2.084223   2.805819   4.072268   5.175039
    13  H    1.091608   2.084228   2.805971   4.072566   5.175352
    14  H    1.089767   1.988985   3.266156   4.252640   5.566378
    15  H    3.814479   2.406053   2.117985   1.078778   2.139178
    16  H    5.761137   4.412350   3.411176   2.128383   1.079485
    17  H    7.279564   6.121926   4.851547   4.010272   2.643844
    18  H    5.144620   4.620285   3.395345   3.820657   3.367928
                    6          7          8          9         10
     6  C    0.000000
     7  C    1.464401   0.000000
     8  O    2.374347   1.204561   0.000000
     9  C    1.390888   2.471789   2.863734   0.000000
    10  C    2.423415   3.754651   4.246051   1.383297   0.000000
    11  Br   4.130885   5.239179   5.378074   2.793458   1.921435
    12  H    5.350365   6.750405   7.288768   4.460536   3.119172
    13  H    5.350566   6.750576   7.288824   4.460616   3.119194
    14  H    6.086909   7.549092   8.259628   5.446178   4.094669
    15  H    3.382411   4.633443   5.721816   3.818616   3.355578
    16  H    2.151115   2.724000   3.927517   3.378568   3.864183
    17  H    2.159710   1.108148   2.015173   3.419467   4.581578
    18  H    2.126835   2.651040   2.553692   1.080377   2.139174
                   11         12         13         14         15
    11  Br   0.000000
    12  H    2.843293   0.000000
    13  H    2.842769   1.788041   0.000000
    14  H    4.203766   1.776529   1.776553   0.000000
    15  H    5.074261   4.368468   4.368827   4.160687   0.000000
    16  H    5.778332   6.124468   6.124835   6.370514   2.472061
    17  H    6.212924   7.458466   7.458803   8.101023   4.711582
    18  H    2.837542   5.046272   5.046236   6.204538   4.898981
                   16         17         18
    16  H    0.000000
    17  H    2.405211   0.000000
    18  H    4.264107   3.738088   0.000000
 Stoichiometry    C8H7BrO2
 Framework group  C1[X(C8H7BrO2)]
 Deg. of freedom    48
 Full point group                 C1      NOp   1
 Largest Abelian subgroup         C1      NOp   1
 Largest concise Abelian subgroup C1      NOp   1
                         Standard orientation:                         
 ---------------------------------------------------------------------
 Center     Atomic      Atomic             Coordinates (Angstroms)
 Number     Number       Type             X           Y           Z
 ---------------------------------------------------------------------
      1          6           0       -2.867204    1.422361    0.000132
      2          8           0       -1.583081    2.011656   -0.000435
      3          6           0       -0.429250    1.321767   -0.000183
      4          6           0        0.695929    2.169245   -0.000367
      5          6           0        1.981032    1.692336   -0.000241
      6          6           0        2.209625    0.314539   -0.000017
      7          6           0        3.565247   -0.239322   -0.000060
      8          8           0        3.839192   -1.412318   -0.000044
      9          6           0        1.111741   -0.539404    0.000203
     10          6           0       -0.185015   -0.057806    0.000142
     11         35           0       -1.538875   -1.421248    0.000168
     12          1           0       -3.041069    0.821077    0.894428
     13          1           0       -3.041492    0.820321   -0.893613
     14          1           0       -3.555584    2.267184   -0.000058
     15          1           0        0.492486    3.228666   -0.000569
     16          1           0        2.813949    2.379022   -0.000378
     17          1           0        4.358063    0.534909    0.000183
     18          1           0        1.292743   -1.604511    0.000309
 ---------------------------------------------------------------------
 Rotational constants (GHZ):           1.1986495           0.5583179           0.3818265
 Leave Link  202 at Tue Sep 17 09:44:11 2024, MaxMem=  1342177280 cpu:               0.0 elap:               0.0
 (Enter /groups/ReismanLab/Software/Gaussian16_RevC/Linux_Binary_AVX2-enabled-CPU/g16/l301.exe)
 Standard basis: 6-31G(d,p) (6D, 7F)
 Ernie: Thresh=  0.10000D-02 Tol=  0.10000D-05 Strict=F.
 There are   215 symmetry adapted cartesian basis functions of A   symmetry.
 There are   215 symmetry adapted basis functions of A   symmetry.
   215 basis functions,   412 primitive gaussians,   215 cartesian basis functions
    53 alpha electrons       53 beta electrons
       nuclear repulsion energy       840.2930177096 Hartrees.
 IExCor=  402 DFT=T Ex+Corr=B3LYP ExCW=0 ScaHFX=  0.200000
 ScaDFX=  0.800000  0.720000  1.000000  0.810000 ScalE2=  1.000000  1.000000
 IRadAn=      5 IRanWt=     -1 IRanGd=            0 ICorTp=0 IEmpDi=141
 NAtoms=   18 NActive=   18 NUniq=   18 SFac= 1.00D+00 NAtFMM=   60 NAOKFM=F Big=F
 Integral buffers will be    131072 words long.
 Raffenetti 2 integral format.
 Two-electron integral symmetry is turned on.
 R6Disp:  Grimme-D3(BJ) Dispersion energy=       -0.0372567040 Hartrees.
 Nuclear repulsion after empirical dispersion term =      840.2557610055 Hartrees.
 Leave Link  301 at Tue Sep 17 09:44:11 2024, MaxMem=  1342177280 cpu:               0.1 elap:               0.1
 (Enter /groups/ReismanLab/Software/Gaussian16_RevC/Linux_Binary_AVX2-enabled-CPU/g16/l302.exe)
 NPDir=0 NMtPBC=     1 NCelOv=     1 NCel=       1 NClECP=     1 NCelD=      1
         NCelK=      1 NCelE2=     1 NClLst=     1 CellRange=     0.0.
 One-electron integrals computed using PRISM.
 One-electron integral symmetry used in STVInt
 NBasis=   215 RedAO= T EigKep=  3.80D-04  NBF=   215
 NBsUse=   215 1.00D-06 EigRej= -1.00D+00 NBFU=   215
 Precomputing XC quadrature grid using
 IXCGrd= 4 IRadAn=           5 IRanWt=          -1 IRanGd=           0 AccXCQ= 0.00D+00.
 Generated NRdTot=       0 NPtTot=           0 NUsed=           0 NTot=          32
 NSgBfM=   214   214   214   214   214 MxSgAt=    18 MxSgA2=    18.
 Leave Link  302 at Tue Sep 17 09:44:11 2024, MaxMem=  1342177280 cpu:               1.1 elap:               0.2
 (Enter /groups/ReismanLab/Software/Gaussian16_RevC/Linux_Binary_AVX2-enabled-CPU/g16/l303.exe)
 DipDrv:  MaxL=1.
 Leave Link  303 at Tue Sep 17 09:44:11 2024, MaxMem=  1342177280 cpu:               0.1 elap:               0.1
 (Enter /groups/ReismanLab/Software/Gaussian16_RevC/Linux_Binary_AVX2-enabled-CPU/g16/l401.exe)
 ExpMin= 1.43D-01 ExpMax= 5.74D+05 ExpMxC= 5.74D+03 IAcc=3 IRadAn=         5 AccDes= 0.00D+00
 Harris functional with IExCor=  402 and IRadAn=       5 diagonalized for initial guess.
 HarFok:  IExCor=  402 AccDes= 0.00D+00 IRadAn=         5 IDoV= 1 UseB2=F ITyADJ=14
 ICtDFT=  3500011 ScaDFX=  1.000000  1.000000  1.000000  1.000000
 FoFCou: FMM=F IPFlag=           0 FMFlag=      100000 FMFlg1=           0
         NFxFlg=           0 DoJE=T BraDBF=F KetDBF=T FulRan=T
         wScrn=  0.000000 ICntrl=       500 IOpCl=  0 I1Cent=   200000004 NGrid=           0
         NMat0=    1 NMatS0=      1 NMatT0=    0 NMatD0=    1 NMtDS0=    0 NMtDT0=    0
 Petite list used in FoFCou.
 Harris En= -3031.34791124152    
 JPrj=0 DoOrth=F DoCkMO=F.
 Leave Link  401 at Tue Sep 17 09:44:12 2024, MaxMem=  1342177280 cpu:               4.2 elap:               0.6
 (Enter /groups/ReismanLab/Software/Gaussian16_RevC/Linux_Binary_AVX2-enabled-CPU/g16/l502.exe)
 Integral symmetry usage will be decided dynamically.
 Closed shell SCF:
 Using DIIS extrapolation, IDIIS=  1040.
 NGot=  1342177280 LenX=  1342080394 LenY=  1342033728
 Requested convergence on RMS density matrix=1.00D-08 within  32 cycles.
 Requested convergence on MAX density matrix=1.00D-06.
 Requested convergence on             energy=1.00D-06.
 No special actions if energy rises.
 Fock matrices will be formed incrementally for  20 cycles.
 Integral accuracy reduced to 1.0D-05 until final iterations.

 Cycle   1  Pass 0  IDiag  1:
 FoFJK:  IHMeth= 1 ICntrl=       0 DoSepK=F KAlg= 0 I1Cent=           0 FoldK=F
 IRaf= 870000000 NMat=       1 IRICut=       1 DoRegI=T DoRafI=F ISym2E= 0 IDoP0=0 IntGTp=1.
 FoFCou: FMM=F IPFlag=           0 FMFlag=      100000 FMFlg1=           0
         NFxFlg=           0 DoJE=F BraDBF=F KetDBF=F FulRan=T
         wScrn=  0.000000 ICntrl=         0 IOpCl=  0 I1Cent=           0 NGrid=           0
         NMat0=    1 NMatS0=      1 NMatT0=    0 NMatD0=    1 NMtDS0=    0 NMtDT0=    0
 Symmetry not used in FoFCou.
 E= -3031.02215120863    
 DIIS: error= 1.83D-01 at cycle   1 NSaved=   1.
 NSaved= 1 IEnMin= 1 EnMin= -3031.02215120863     IErMin= 1 ErrMin= 1.83D-01
 ErrMax= 1.83D-01  0.00D+00 EMaxC= 1.00D-01 BMatC= 5.78D-01 BMatP= 5.78D-01
 IDIUse=3 WtCom= 0.00D+00 WtEn= 1.00D+00
 Coeff-Com:  0.100D+01
 Coeff-En:   0.100D+01
 Coeff:      0.100D+01
 Gap=     0.213 Goal=   None    Shift=    0.000
 GapD=    0.213 DampG=1.000 DampE=0.250 DampFc=0.2500 IDamp=-1.
 Damping current iteration by 2.50D-01
 RMSDP=5.98D-03 MaxDP=1.85D-01              OVMax= 2.64D-01

 Cycle   2  Pass 0  IDiag  1:
 RMSU=  1.46D-03    CP:  9.93D-01
 E= -3031.09754044334     Delta-E=       -0.075389234708 Rises=F Damp=T
 DIIS: error= 1.35D-01 at cycle   2 NSaved=   2.
 NSaved= 2 IEnMin= 2 EnMin= -3031.09754044334     IErMin= 2 ErrMin= 1.35D-01
 ErrMax= 1.35D-01  0.00D+00 EMaxC= 1.00D-01 BMatC= 2.46D-01 BMatP= 5.78D-01
 IDIUse=3 WtCom= 0.00D+00 WtEn= 1.00D+00
 Coeff-Com: -0.123D+01 0.223D+01
 Coeff-En:   0.000D+00 0.100D+01
 Coeff:      0.000D+00 0.100D+01
 Gap=     0.214 Goal=   None    Shift=    0.000
 RMSDP=2.73D-03 MaxDP=1.11D-01 DE=-7.54D-02 OVMax= 1.25D-01

 Cycle   3  Pass 0  IDiag  1:
 RMSU=  1.32D-03    CP:  9.70D-01  2.50D+00
 E= -3031.19589728886     Delta-E=       -0.098356845519 Rises=F Damp=F
 DIIS: error= 1.05D-02 at cycle   3 NSaved=   3.
 NSaved= 3 IEnMin= 3 EnMin= -3031.19589728886     IErMin= 3 ErrMin= 1.05D-02
 ErrMax= 1.05D-02  0.00D+00 EMaxC= 1.00D-01 BMatC= 4.37D-02 BMatP= 2.46D-01
 IDIUse=3 WtCom= 8.95D-01 WtEn= 1.05D-01
 Coeff-Com:  0.804D+00-0.931D+00 0.113D+01
 Coeff-En:   0.956D-01 0.000D+00 0.904D+00
 Coeff:      0.729D+00-0.833D+00 0.110D+01
 Gap=     0.188 Goal=   None    Shift=    0.000
 RMSDP=1.57D-03 MaxDP=3.47D-02 DE=-9.84D-02 OVMax= 6.01D-02

 Cycle   4  Pass 0  IDiag  1:
 RMSU=  1.21D-03    CP:  9.71D-01  1.82D+00  8.87D-01
 E= -3031.21886450495     Delta-E=       -0.022967216094 Rises=F Damp=F
 DIIS: error= 1.31D-02 at cycle   4 NSaved=   4.
 NSaved= 4 IEnMin= 4 EnMin= -3031.21886450495     IErMin= 3 ErrMin= 1.05D-02
 ErrMax= 1.31D-02  0.00D+00 EMaxC= 1.00D-01 BMatC= 1.90D-02 BMatP= 4.37D-02
 IDIUse=3 WtCom= 8.69D-01 WtEn= 1.31D-01
 Coeff-Com:  0.619D+00-0.802D+00 0.721D+00 0.461D+00
 Coeff-En:   0.000D+00 0.000D+00 0.267D+00 0.733D+00
 Coeff:      0.538D+00-0.697D+00 0.662D+00 0.497D+00
 Gap=     0.201 Goal=   None    Shift=    0.000
 RMSDP=8.97D-04 MaxDP=3.76D-02 DE=-2.30D-02 OVMax= 4.20D-02

 Cycle   5  Pass 0  IDiag  1:
 RMSU=  2.20D-04    CP:  9.71D-01  1.82D+00  1.10D+00  3.20D-01
 E= -3031.23668873918     Delta-E=       -0.017824234222 Rises=F Damp=F
 DIIS: error= 3.50D-03 at cycle   5 NSaved=   5.
 NSaved= 5 IEnMin= 5 EnMin= -3031.23668873918     IErMin= 5 ErrMin= 3.50D-03
 ErrMax= 3.50D-03  0.00D+00 EMaxC= 1.00D-01 BMatC= 1.23D-03 BMatP= 1.90D-02
 IDIUse=3 WtCom= 9.65D-01 WtEn= 3.50D-02
 Coeff-Com:  0.217D+00-0.282D+00 0.283D+00 0.274D+00 0.508D+00
 Coeff-En:   0.000D+00 0.000D+00 0.000D+00 0.000D+00 0.100D+01
 Coeff:      0.209D+00-0.272D+00 0.273D+00 0.264D+00 0.526D+00
 Gap=     0.177 Goal=   None    Shift=    0.000
 RMSDP=2.18D-04 MaxDP=1.04D-02 DE=-1.78D-02 OVMax= 1.05D-02

 Cycle   6  Pass 0  IDiag  1:
 RMSU=  9.16D-05    CP:  9.71D-01  1.86D+00  1.07D+00  4.35D-01  4.61D-01
 E= -3031.23765104594     Delta-E=       -0.000962306765 Rises=F Damp=F
 DIIS: error= 7.12D-04 at cycle   6 NSaved=   6.
 NSaved= 6 IEnMin= 6 EnMin= -3031.23765104594     IErMin= 6 ErrMin= 7.12D-04
 ErrMax= 7.12D-04  0.00D+00 EMaxC= 1.00D-01 BMatC= 1.19D-04 BMatP= 1.23D-03
 IDIUse=3 WtCom= 9.93D-01 WtEn= 7.12D-03
 Coeff-Com:  0.705D-01-0.919D-01 0.971D-01 0.116D+00 0.339D+00 0.470D+00
 Coeff-En:   0.000D+00 0.000D+00 0.000D+00 0.000D+00 0.683D-01 0.932D+00
 Coeff:      0.700D-01-0.913D-01 0.964D-01 0.115D+00 0.337D+00 0.473D+00
 Gap=     0.177 Goal=   None    Shift=    0.000
 RMSDP=6.63D-05 MaxDP=1.98D-03 DE=-9.62D-04 OVMax= 5.18D-03

 Cycle   7  Pass 0  IDiag  1:
 RMSU=  2.97D-05    CP:  9.71D-01  1.86D+00  1.07D+00  4.29D-01  5.73D-01
                    CP:  4.27D-01
 E= -3031.23776266885     Delta-E=       -0.000111622905 Rises=F Damp=F
 DIIS: error= 2.17D-04 at cycle   7 NSaved=   7.
 NSaved= 7 IEnMin= 7 EnMin= -3031.23776266885     IErMin= 7 ErrMin= 2.17D-04
 ErrMax= 2.17D-04  0.00D+00 EMaxC= 1.00D-01 BMatC= 8.61D-06 BMatP= 1.19D-04
 IDIUse=3 WtCom= 9.98D-01 WtEn= 2.17D-03
 Coeff-Com:  0.160D-01-0.210D-01 0.236D-01 0.349D-01 0.137D+00 0.282D+00
 Coeff-Com:  0.528D+00
 Coeff-En:   0.000D+00 0.000D+00 0.000D+00 0.000D+00 0.000D+00 0.180D-01
 Coeff-En:   0.982D+00
 Coeff:      0.159D-01-0.210D-01 0.236D-01 0.349D-01 0.137D+00 0.281D+00
 Coeff:      0.529D+00
 Gap=     0.177 Goal=   None    Shift=    0.000
 RMSDP=1.61D-05 MaxDP=3.50D-04 DE=-1.12D-04 OVMax= 1.29D-03

 Cycle   8  Pass 0  IDiag  1:
 RMSU=  8.19D-06    CP:  9.71D-01  1.85D+00  1.07D+00  4.28D-01  5.71D-01
                    CP:  5.11D-01  6.45D-01
 E= -3031.23777110146     Delta-E=       -0.000008432613 Rises=F Damp=F
 DIIS: error= 2.66D-05 at cycle   8 NSaved=   8.
 NSaved= 8 IEnMin= 8 EnMin= -3031.23777110146     IErMin= 8 ErrMin= 2.66D-05
 ErrMax= 2.66D-05  0.00D+00 EMaxC= 1.00D-01 BMatC= 3.55D-07 BMatP= 8.61D-06
 IDIUse=1 WtCom= 1.00D+00 WtEn= 0.00D+00
 Coeff-Com:  0.228D-02-0.306D-02 0.400D-02 0.764D-02 0.366D-01 0.941D-01
 Coeff-Com:  0.240D+00 0.618D+00
 Coeff:      0.228D-02-0.306D-02 0.400D-02 0.764D-02 0.366D-01 0.941D-01
 Coeff:      0.240D+00 0.618D+00
 Gap=     0.177 Goal=   None    Shift=    0.000
 RMSDP=3.99D-06 MaxDP=1.61D-04 DE=-8.43D-06 OVMax= 2.09D-04

 Initial convergence to 1.0D-05 achieved.  Increase integral accuracy.
 Cycle   9  Pass 1  IDiag  1:
 E= -3031.23779482299     Delta-E=       -0.000023721535 Rises=F Damp=F
 DIIS: error= 5.15D-05 at cycle   1 NSaved=   1.
 NSaved= 1 IEnMin= 1 EnMin= -3031.23779482299     IErMin= 1 ErrMin= 5.15D-05
 ErrMax= 5.15D-05  0.00D+00 EMaxC= 1.00D-01 BMatC= 1.87D-07 BMatP= 1.87D-07
 IDIUse=1 WtCom= 1.00D+00 WtEn= 0.00D+00
 Coeff-Com:  0.100D+01
 Coeff:      0.100D+01
 Gap=     0.177 Goal=   None    Shift=    0.000
 RMSDP=3.99D-06 MaxDP=1.61D-04 DE=-2.37D-05 OVMax= 1.45D-04

 Cycle  10  Pass 1  IDiag  1:
 RMSU=  1.26D-05    CP:  1.00D+00
 E= -3031.23779480463     Delta-E=        0.000000018368 Rises=F Damp=F
 DIIS: error= 2.86D-05 at cycle   2 NSaved=   2.
 NSaved= 2 IEnMin= 1 EnMin= -3031.23779482299     IErMin= 2 ErrMin= 2.86D-05
 ErrMax= 2.86D-05  0.00D+00 EMaxC= 1.00D-01 BMatC= 1.63D-07 BMatP= 1.87D-07
 IDIUse=1 WtCom= 1.00D+00 WtEn= 0.00D+00
 Coeff-Com:  0.477D+00 0.523D+00
 Coeff:      0.477D+00 0.523D+00
 Gap=     0.177 Goal=   None    Shift=    0.000
 RMSDP=2.78D-06 MaxDP=1.24D-04 DE= 1.84D-08 OVMax= 1.53D-04

 Cycle  11  Pass 1  IDiag  1:
 RMSU=  2.72D-06    CP:  1.00D+00  9.58D-01
 E= -3031.23779490739     Delta-E=       -0.000000102765 Rises=F Damp=F
 DIIS: error= 1.41D-05 at cycle   3 NSaved=   3.
 NSaved= 3 IEnMin= 3 EnMin= -3031.23779490739     IErMin= 3 ErrMin= 1.41D-05
 ErrMax= 1.41D-05  0.00D+00 EMaxC= 1.00D-01 BMatC= 4.97D-08 BMatP= 1.63D-07
 IDIUse=1 WtCom= 1.00D+00 WtEn= 0.00D+00
 Coeff-Com:  0.234D-01 0.353D+00 0.623D+00
 Coeff:      0.234D-01 0.353D+00 0.623D+00
 Gap=     0.177 Goal=   None    Shift=    0.000
 RMSDP=1.12D-06 MaxDP=4.38D-05 DE=-1.03D-07 OVMax= 5.99D-05

 Cycle  12  Pass 1  IDiag  1:
 RMSU=  4.67D-07    CP:  1.00D+00  9.85D-01  6.48D-01
 E= -3031.23779495093     Delta-E=       -0.000000043540 Rises=F Damp=F
 DIIS: error= 3.95D-06 at cycle   4 NSaved=   4.
 NSaved= 4 IEnMin= 4 EnMin= -3031.23779495093     IErMin= 4 ErrMin= 3.95D-06
 ErrMax= 3.95D-06  0.00D+00 EMaxC= 1.00D-01 BMatC= 2.98D-09 BMatP= 4.97D-08
 IDIUse=1 WtCom= 1.00D+00 WtEn= 0.00D+00
 Coeff-Com: -0.724D-03 0.201D+00 0.384D+00 0.416D+00
 Coeff:     -0.724D-03 0.201D+00 0.384D+00 0.416D+00
 Gap=     0.177 Goal=   None    Shift=    0.000
 RMSDP=2.90D-07 MaxDP=1.08D-05 DE=-4.35D-08 OVMax= 1.70D-05

 Cycle  13  Pass 1  IDiag  1:
 RMSU=  1.25D-07    CP:  1.00D+00  9.84D-01  6.66D-01  4.52D-01
 E= -3031.23779495379     Delta-E=       -0.000000002862 Rises=F Damp=F
 DIIS: error= 8.41D-07 at cycle   5 NSaved=   5.
 NSaved= 5 IEnMin= 5 EnMin= -3031.23779495379     IErMin= 5 ErrMin= 8.41D-07
 ErrMax= 8.41D-07  0.00D+00 EMaxC= 1.00D-01 BMatC= 1.49D-10 BMatP= 2.98D-09
 IDIUse=1 WtCom= 1.00D+00 WtEn= 0.00D+00
 Coeff-Com: -0.174D-02 0.103D+00 0.199D+00 0.255D+00 0.444D+00
 Coeff:     -0.174D-02 0.103D+00 0.199D+00 0.255D+00 0.444D+00
 Gap=     0.177 Goal=   None    Shift=    0.000
 RMSDP=6.91D-08 MaxDP=3.02D-06 DE=-2.86D-09 OVMax= 3.22D-06

 Cycle  14  Pass 1  IDiag  1:
 RMSU=  3.36D-08    CP:  1.00D+00  9.84D-01  6.64D-01  4.76D-01  5.32D-01
 E= -3031.23779495392     Delta-E=       -0.000000000124 Rises=F Damp=F
 DIIS: error= 2.32D-07 at cycle   6 NSaved=   6.
 NSaved= 6 IEnMin= 6 EnMin= -3031.23779495392     IErMin= 6 ErrMin= 2.32D-07
 ErrMax= 2.32D-07  0.00D+00 EMaxC= 1.00D-01 BMatC= 7.10D-12 BMatP= 1.49D-10
 IDIUse=1 WtCom= 1.00D+00 WtEn= 0.00D+00
 Coeff-Com: -0.957D-03 0.469D-01 0.912D-01 0.122D+00 0.252D+00 0.489D+00
 Coeff:     -0.957D-03 0.469D-01 0.912D-01 0.122D+00 0.252D+00 0.489D+00
 Gap=     0.177 Goal=   None    Shift=    0.000
 RMSDP=1.59D-08 MaxDP=7.01D-07 DE=-1.24D-10 OVMax= 7.36D-07

 Cycle  15  Pass 1  IDiag  1:
 RMSU=  1.28D-08    CP:  1.00D+00  9.84D-01  6.63D-01  4.78D-01  5.53D-01
                    CP:  7.33D-01
 E= -3031.23779495391     Delta-E=        0.000000000008 Rises=F Damp=F
 DIIS: error= 7.84D-08 at cycle   7 NSaved=   7.
 NSaved= 7 IEnMin= 6 EnMin= -3031.23779495392     IErMin= 7 ErrMin= 7.84D-08
 ErrMax= 7.84D-08  0.00D+00 EMaxC= 1.00D-01 BMatC= 6.83D-13 BMatP= 7.10D-12
 IDIUse=1 WtCom= 1.00D+00 WtEn= 0.00D+00
 Coeff-Com: -0.229D-03 0.916D-02 0.180D-01 0.259D-01 0.640D-01 0.266D+00
 Coeff-Com:  0.617D+00
 Coeff:     -0.229D-03 0.916D-02 0.180D-01 0.259D-01 0.640D-01 0.266D+00
 Coeff:      0.617D+00
 Gap=     0.177 Goal=   None    Shift=    0.000
 RMSDP=5.43D-09 MaxDP=1.74D-07 DE= 7.73D-12 OVMax= 3.93D-07

 SCF Done:  E(RB3LYP) =  -3031.23779495     A.U. after   15 cycles
            NFock= 15  Conv=0.54D-08     -V/T= 2.0066
 KE= 3.011473927014D+03 PE=-8.883980733213D+03 EE= 2.001013250239D+03
 Leave Link  502 at Tue Sep 17 09:44:23 2024, MaxMem=  1342177280 cpu:              79.1 elap:              11.2
 (Enter /groups/ReismanLab/Software/Gaussian16_RevC/Linux_Binary_AVX2-enabled-CPU/g16/l508.exe)
 QCSCF skips out because SCF is already converged.
 Leave Link  508 at Tue Sep 17 09:44:23 2024, MaxMem=  1342177280 cpu:               0.1 elap:               0.0
 (Enter /groups/ReismanLab/Software/Gaussian16_RevC/Linux_Binary_AVX2-enabled-CPU/g16/l601.exe)
 Copying SCF densities to generalized density rwf, IOpCl= 0 IROHF=0.

 **********************************************************************

            Population analysis using the SCF Density.

 **********************************************************************

 Orbital symmetries:
       Occupied  (A) (A) (A) (A) (A) (A) (A) (A) (A) (A) (A) (A)
                 (A) (A) (A) (A) (A) (A) (A) (A) (A) (A) (A) (A)
                 (A) (A) (A) (A) (A) (A) (A) (A) (A) (A) (A) (A)
                 (A) (A) (A) (A) (A) (A) (A) (A) (A) (A) (A) (A)
                 (A) (A) (A) (A) (A)
       Virtual   (A) (A) (A) (A) (A) (A) (A) (A) (A) (A) (A) (A)
                 (A) (A) (A) (A) (A) (A) (A) (A) (A) (A) (A) (A)
                 (A) (A) (A) (A) (A) (A) (A) (A) (A) (A) (A) (A)
                 (A) (A) (A) (A) (A) (A) (A) (A) (A) (A) (A) (A)
                 (A) (A) (A) (A) (A) (A) (A) (A) (A) (A) (A) (A)
                 (A) (A) (A) (A) (A) (A) (A) (A) (A) (A) (A) (A)
                 (A) (A) (A) (A) (A) (A) (A) (A) (A) (A) (A) (A)
                 (A) (A) (A) (A) (A) (A) (A) (A) (A) (A) (A) (A)
                 (A) (A) (A) (A) (A) (A) (A) (A) (A) (A) (A) (A)
                 (A) (A) (A) (A) (A) (A) (A) (A) (A) (A) (A) (A)
                 (A) (A) (A) (A) (A) (A) (A) (A) (A) (A) (A) (A)
                 (A) (A) (A) (A) (A) (A) (A) (A) (A) (A) (A) (A)
                 (A) (A) (A) (A) (A) (A) (A) (A) (A) (A) (A) (A)
                 (A) (A) (A) (A) (A) (A)
 The electronic state is 1-A.
 Alpha  occ. eigenvalues -- -482.92271 -61.88401 -56.40494 -56.40084 -56.40062
 Alpha  occ. eigenvalues --  -19.20293 -19.14358 -10.28483 -10.27233 -10.25911
 Alpha  occ. eigenvalues --  -10.25016 -10.21360 -10.21315 -10.20561 -10.20339
 Alpha  occ. eigenvalues --   -8.59458  -6.54861  -6.53542  -6.53522  -2.66423
 Alpha  occ. eigenvalues --   -2.66048  -2.66035  -2.64982  -2.64982  -1.09362
 Alpha  occ. eigenvalues --   -1.04590  -0.88842  -0.81808  -0.79153  -0.74404
 Alpha  occ. eigenvalues --   -0.71913  -0.65291  -0.62283  -0.57958  -0.54858
 Alpha  occ. eigenvalues --   -0.51972  -0.48726  -0.48672  -0.45555  -0.44492
 Alpha  occ. eigenvalues --   -0.43830  -0.42777  -0.41768  -0.40259  -0.39039
 Alpha  occ. eigenvalues --   -0.37283  -0.34903  -0.34561  -0.32065  -0.29164
 Alpha  occ. eigenvalues --   -0.26138  -0.25505  -0.23763
 Alpha virt. eigenvalues --   -0.06081  -0.02162  -0.00844   0.04156   0.09606
 Alpha virt. eigenvalues --    0.10538   0.12400   0.13977   0.14667   0.14970
 Alpha virt. eigenvalues --    0.15807   0.16970   0.17701   0.22514   0.24043
 Alpha virt. eigenvalues --    0.25464   0.28585   0.30823   0.33047   0.35125
 Alpha virt. eigenvalues --    0.36927   0.41975   0.43706   0.45047   0.45707
 Alpha virt. eigenvalues --    0.45882   0.46627   0.48136   0.51099   0.51173
 Alpha virt. eigenvalues --    0.52774   0.53383   0.54017   0.55089   0.56211
 Alpha virt. eigenvalues --    0.56519   0.58453   0.59376   0.61269   0.63032
 Alpha virt. eigenvalues --    0.64118   0.66599   0.70485   0.71739   0.74348
 Alpha virt. eigenvalues --    0.74942   0.78013   0.79142   0.80511   0.80647
 Alpha virt. eigenvalues --    0.81780   0.83634   0.84343   0.85318   0.85538
 Alpha virt. eigenvalues --    0.88318   0.91050   0.92513   0.94349   0.95537
 Alpha virt. eigenvalues --    0.99271   1.00647   1.02950   1.04296   1.07410
 Alpha virt. eigenvalues --    1.09550   1.09851   1.15830   1.21364   1.21396
 Alpha virt. eigenvalues --    1.23894   1.27101   1.31031   1.31773   1.34768
 Alpha virt. eigenvalues --    1.36741   1.38211   1.38415   1.42387   1.43862
 Alpha virt. eigenvalues --    1.46313   1.47593   1.51223   1.58126   1.59628
 Alpha virt. eigenvalues --    1.64695   1.71364   1.73916   1.74172   1.76726
 Alpha virt. eigenvalues --    1.80247   1.82412   1.85340   1.87390   1.88633
 Alpha virt. eigenvalues --    1.89470   1.91907   1.92696   1.93626   1.97846
 Alpha virt. eigenvalues --    1.99221   1.99513   2.00921   2.01575   2.03834
 Alpha virt. eigenvalues --    2.05360   2.07222   2.12598   2.12808   2.14056
 Alpha virt. eigenvalues --    2.19423   2.23984   2.27160   2.28574   2.34970
 Alpha virt. eigenvalues --    2.37226   2.41131   2.41895   2.45042   2.47367
 Alpha virt. eigenvalues --    2.47834   2.49857   2.52650   2.57458   2.57817
 Alpha virt. eigenvalues --    2.61407   2.64034   2.65057   2.67243   2.67322
 Alpha virt. eigenvalues --    2.73477   2.73514   2.75253   2.79801   2.82467
 Alpha virt. eigenvalues --    2.83805   2.92513   2.98848   3.01213   3.07865
 Alpha virt. eigenvalues --    3.15474   3.16644   3.21317   3.28637   3.30755
 Alpha virt. eigenvalues --    3.40709   3.41960   3.44278   3.50490   3.77301
 Alpha virt. eigenvalues --    3.95578   4.07047   4.11321   4.12599   4.26014
 Alpha virt. eigenvalues --    4.35867   4.41519   4.47407   4.53873   4.82307
 Alpha virt. eigenvalues --    8.63732  73.55416
          Condensed to atoms (all electrons):
               1          2          3          4          5          6
     1  C    4.743391   0.233615  -0.028866   0.004977  -0.000149   0.000001
     2  O    0.233615   8.198591   0.297839  -0.064618   0.003830   0.000059
     3  C   -0.028866   0.297839   4.620093   0.512871  -0.025145  -0.035320
     4  C    0.004977  -0.064618   0.512871   4.947428   0.515965  -0.015371
     5  C   -0.000149   0.003830  -0.025145   0.515965   4.920033   0.483662
     6  C    0.000001   0.000059  -0.035320  -0.015371   0.483662   5.118199
     7  C    0.000000   0.000000   0.000338   0.004119  -0.032272   0.267146
     8  O    0.000000  -0.000000   0.000002  -0.000102   0.003366  -0.085045
     9  C    0.000023   0.003553  -0.010368  -0.044089  -0.062965   0.457245
    10  C   -0.008309  -0.061114   0.401707  -0.060404  -0.034052  -0.029924
    11  Br  -0.011316  -0.003294  -0.053860   0.004199   0.000259   0.005662
    12  H    0.383381  -0.032177  -0.002887  -0.000001   0.000009  -0.000001
    13  H    0.383386  -0.032179  -0.002889  -0.000001   0.000009  -0.000001
    14  H    0.385244  -0.035603   0.002230  -0.000206   0.000003  -0.000001
    15  H   -0.000192   0.000356  -0.035459   0.358013  -0.034465   0.003468
    16  H    0.000003  -0.000060   0.004386  -0.038414   0.365555  -0.045349
    17  H    0.000000  -0.000000  -0.000027  -0.000088  -0.001555  -0.130860
    18  H   -0.000001  -0.000036   0.003989   0.000151   0.006888  -0.042544
               7          8          9         10         11         12
     1  C    0.000000   0.000000   0.000023  -0.008309  -0.011316   0.383381
     2  O    0.000000  -0.000000   0.003553  -0.061114  -0.003294  -0.032177
     3  C    0.000338   0.000002  -0.010368   0.401707  -0.053860  -0.002887
     4  C    0.004119  -0.000102  -0.044089  -0.060404   0.004199  -0.000001
     5  C   -0.032272   0.003366  -0.062965  -0.034052   0.000259   0.000009
     6  C    0.267146  -0.085045   0.457245  -0.029924   0.005662  -0.000001
     7  C    4.614029   0.566399  -0.032140   0.007818  -0.000155  -0.000000
     8  O    0.566399   7.966441   0.003777   0.001089   0.000001   0.000000
     9  C   -0.032140   0.003777   5.041789   0.436329  -0.067951  -0.000086
    10  C    0.007818   0.001089   0.436329   5.101194   0.256345   0.002384
    11  Br  -0.000155   0.000001  -0.067951   0.256345  34.989918  -0.000456
    12  H   -0.000000   0.000000  -0.000086   0.002384  -0.000456   0.593796
    13  H   -0.000000   0.000000  -0.000086   0.002383  -0.000455  -0.043073
    14  H   -0.000000   0.000000   0.000012   0.000163   0.001448  -0.033009
    15  H   -0.000124   0.000000   0.000541   0.006899  -0.000128   0.000035
    16  H   -0.006619   0.000062   0.006612   0.000286   0.000009  -0.000000
    17  H    0.362703  -0.057426   0.010124   0.000016   0.000003  -0.000000
    18  H   -0.009814   0.016288   0.364860  -0.039522  -0.003085   0.000002
              13         14         15         16         17         18
     1  C    0.383386   0.385244  -0.000192   0.000003   0.000000  -0.000001
     2  O   -0.032179  -0.035603   0.000356  -0.000060  -0.000000  -0.000036
     3  C   -0.002889   0.002230  -0.035459   0.004386  -0.000027   0.003989
     4  C   -0.000001  -0.000206   0.358013  -0.038414  -0.000088   0.000151
     5  C    0.000009   0.000003  -0.034465   0.365555  -0.001555   0.006888
     6  C   -0.000001  -0.000001   0.003468  -0.045349  -0.130860  -0.042544
     7  C   -0.000000  -0.000000  -0.000124  -0.006619   0.362703  -0.009814
     8  O    0.000000   0.000000   0.000000   0.000062  -0.057426   0.016288
     9  C   -0.000086   0.000012   0.000541   0.006612   0.010124   0.364860
    10  C    0.002383   0.000163   0.006899   0.000286   0.000016  -0.039522
    11  Br  -0.000455   0.001448  -0.000128   0.000009   0.000003  -0.003085
    12  H   -0.043073  -0.033009   0.000035  -0.000000  -0.000000   0.000002
    13  H    0.593783  -0.033008   0.000035  -0.000000  -0.000000   0.000002
    14  H   -0.033008   0.590012  -0.000078  -0.000000   0.000000  -0.000000
    15  H    0.000035  -0.000078   0.597110  -0.006265   0.000011   0.000016
    16  H   -0.000000  -0.000000  -0.006265   0.610966   0.009083  -0.000150
    17  H   -0.000000   0.000000   0.000011   0.009083   0.751137   0.000848
    18  H    0.000002  -0.000000   0.000016  -0.000150   0.000848   0.564327
 Mulliken charges:
               1
     1  C   -0.085187
     2  O   -0.508763
     3  C    0.351368
     4  C   -0.124430
     5  C   -0.108975
     6  C    0.048974
     7  C    0.258572
     8  O   -0.414851
     9  C   -0.107180
    10  C    0.016714
    11  Br  -0.117144
    12  H    0.132084
    13  H    0.132093
    14  H    0.122793
    15  H    0.110226
    16  H    0.099895
    17  H    0.056031
    18  H    0.137780
 Sum of Mulliken charges =  -0.00000
 Mulliken charges with hydrogens summed into heavy atoms:
               1
     1  C    0.301782
     2  O   -0.508763
     3  C    0.351368
     4  C   -0.014204
     5  C   -0.009080
     6  C    0.048974
     7  C    0.314603
     8  O   -0.414851
     9  C    0.030600
    10  C    0.016714
    11  Br  -0.117144
 Electronic spatial extent (au):  <R**2>=           2624.0051
 Charge=             -0.0000 electrons
 Dipole moment (field-independent basis, Debye):
    X=             -2.5275    Y=              2.9835    Z=              0.0005  Tot=              3.9102
 Quadrupole moment (field-independent basis, Debye-Ang):
   XX=            -74.5437   YY=            -75.5223   ZZ=            -76.2353
   XY=              8.2305   XZ=             -0.0012   YZ=              0.0003
 Traceless Quadrupole moment (field-independent basis, Debye-Ang):
   XX=              0.8901   YY=             -0.0885   ZZ=             -0.8016
   XY=              8.2305   XZ=             -0.0012   YZ=              0.0003
 Octapole moment (field-independent basis, Debye-Ang**2):
  XXX=           -102.3413  YYY=            -33.9275  ZZZ=              0.0047  XYY=            -24.1707
  XXY=             32.4899  XXZ=              0.0032  XZZ=            -16.3699  YZZ=            -16.1258
  YYZ=              0.0014  XYZ=             -0.0051
 Hexadecapole moment (field-independent basis, Debye-Ang**3):
 XXXX=          -2152.9473 YYYY=           -917.5764 ZZZZ=            -82.6149 XXXY=            161.2689
 XXXZ=              0.0256 YYYX=             80.8861 YYYZ=              0.0432 ZZZX=              0.0252
 ZZZY=              0.0544 XXYY=           -525.2857 XXZZ=           -362.0323 YYZZ=           -179.2263
 XXYZ=              0.0177 YYXZ=              0.0016 ZZXY=              6.1712
 N-N= 8.402557610055D+02 E-N=-8.883980739802D+03  KE= 3.011473927014D+03
 No NMR shielding tensors so no spin-rotation constants.
 Leave Link  601 at Tue Sep 17 09:44:23 2024, MaxMem=  1342177280 cpu:               0.7 elap:               0.2
 (Enter /groups/ReismanLab/Software/Gaussian16_RevC/Linux_Binary_AVX2-enabled-CPU/g16/l701.exe)
 ... and contract with generalized density number  0.
 Compute integral first derivatives.
 R6Disp: Adding Grimme-D3(BJ) dispersion energy 1st derivatives to the gradient.
 Leave Link  701 at Tue Sep 17 09:44:24 2024, MaxMem=  1342177280 cpu:               0.7 elap:               0.2
 (Enter /groups/ReismanLab/Software/Gaussian16_RevC/Linux_Binary_AVX2-enabled-CPU/g16/l702.exe)
 L702 exits ... SP integral derivatives will be done elsewhere.
 Leave Link  702 at Tue Sep 17 09:44:24 2024, MaxMem=  1342177280 cpu:               0.1 elap:               0.0
 (Enter /groups/ReismanLab/Software/Gaussian16_RevC/Linux_Binary_AVX2-enabled-CPU/g16/l703.exe)
 Integral derivatives from FoFJK, PRISM(SPDF).
 Compute integral first derivatives, UseDBF=F ICtDFT=           0.
 Calling FoFJK, ICntrl=      2127 FMM=F ISym2X=0 I1Cent= 0 IOpClX= 0 NMat=1 NMatS=1 NMatT=0.
 FoFJK:  IHMeth= 1 ICntrl=    2127 DoSepK=F KAlg= 0 I1Cent=           0 FoldK=F
 IRaf=         0 NMat=       1 IRICut=       1 DoRegI=T DoRafI=F ISym2E= 0 IDoP0=0 IntGTp=1.
 FoFCou: FMM=F IPFlag=           0 FMFlag=      100000 FMFlg1=         800
         NFxFlg=           0 DoJE=F BraDBF=F KetDBF=F FulRan=T
         wScrn=  0.000000 ICntrl=      2127 IOpCl=  0 I1Cent=           0 NGrid=           0
         NMat0=    1 NMatS0=      1 NMatT0=    0 NMatD0=    1 NMtDS0=    0 NMtDT0=    0
 Symmetry not used in FoFCou.
 Leave Link  703 at Tue Sep 17 09:44:27 2024, MaxMem=  1342177280 cpu:              23.4 elap:               3.0
 (Enter /groups/ReismanLab/Software/Gaussian16_RevC/Linux_Binary_AVX2-enabled-CPU/g16/l716.exe)
 Dipole        =-9.94402646D-01 1.17380873D+00 1.84134049D-04
 ***** Axes restored to original set *****
 -------------------------------------------------------------------
 Center     Atomic                   Forces (Hartrees/Bohr)
 Number     Number              X              Y              Z
 -------------------------------------------------------------------
      1        6          -0.009862562    0.000774445   -0.000021017
      2        8           0.003300486    0.002554062   -0.000000525
      3        6           0.005936972    0.004073392   -0.000002821
      4        6          -0.004240722    0.005579091    0.000007170
      5        6           0.003968137   -0.002676079   -0.000004320
      6        6          -0.003827974   -0.000645842   -0.000003562
      7        6           0.002734782    0.018002124    0.000035267
      8        8           0.000858247   -0.021190062   -0.000009971
      9        6           0.003199144   -0.004206297   -0.000006574
     10        6          -0.007303021   -0.006623362   -0.000006478
     11       35          -0.001980519    0.000317445    0.000003884
     12        1           0.000177460   -0.001368421   -0.000320511
     13        1           0.000178976   -0.001352859    0.000342288
     14        1          -0.000854788    0.001126720    0.000000764
     15        1          -0.000168809    0.004177665   -0.000001810
     16        1           0.004299889    0.002532772   -0.000001178
     17        1           0.003965302    0.001463821   -0.000013514
     18        1          -0.000380999   -0.002538616    0.000002909
 -------------------------------------------------------------------
 Cartesian Forces:  Max     0.021190062 RMS     0.004787153
 Leave Link  716 at Tue Sep 17 09:44:27 2024, MaxMem=  1342177280 cpu:               0.1 elap:               0.0
 (Enter /groups/ReismanLab/Software/Gaussian16_RevC/Linux_Binary_AVX2-enabled-CPU/g16/l103.exe)

 GradGradGradGradGradGradGradGradGradGradGradGradGradGradGradGradGradGrad
 Berny optimization.
 FormGI is forming the generalized inverse of G from B-inverse, IUseBI=4.
 GSVD:  received Info=                   1 from GESDD.
 Internal  Forces:  Max     0.021198718 RMS     0.003778625
 Search for a local minimum.
 Step number   1 out of a maximum of   89
 All quantities printed in internal units (Hartrees-Bohrs-Radians)
 RMS Force = .37786D-02 SwitMx=.10000D-02 MixMth= 1
 Mixed Optimization -- RFO/linear search
 Second derivative matrix not updated -- first step.
 ITU=  0
     Eigenvalues ---    0.01237   0.01237   0.01521   0.01877   0.02054
     Eigenvalues ---    0.02132   0.02170   0.02199   0.02247   0.02258
     Eigenvalues ---    0.02278   0.02339   0.02428   0.09942   0.10805
     Eigenvalues ---    0.16000   0.16000   0.16000   0.16000   0.16000
     Eigenvalues ---    0.16000   0.16000   0.17243   0.22000   0.22363
     Eigenvalues ---    0.23478   0.24606   0.25000   0.25000   0.25000
     Eigenvalues ---    0.25000   0.32797   0.34627   0.34631   0.34840
     Eigenvalues ---    0.35949   0.36057   0.36142   0.36419   0.41690
     Eigenvalues ---    0.42812   0.43550   0.45821   0.45924   0.47613
     Eigenvalues ---    0.50111   0.56241   1.02564
 RFO step:  Lambda=-2.15226318D-03 EMin= 1.23684929D-02
 Linear search not attempted -- first point.
 Iteration  1 RMS(Cart)=  0.01672068 RMS(Int)=  0.00005500
 Iteration  2 RMS(Cart)=  0.00006695 RMS(Int)=  0.00001177
 Iteration  3 RMS(Cart)=  0.00000000 RMS(Int)=  0.00001177
 ITry= 1 IFail=0 DXMaxC= 5.25D-02 DCOld= 1.00D+10 DXMaxT= 3.00D-01 DXLimC= 3.00D+00 Rises=F
 Variable       Old X    -DE/DX   Delta X   Delta X   Delta X     New X
                                 (Linear)    (Quad)   (Total)
    R1        2.66996   0.01020   0.00000   0.02331   0.02331   2.69328
    R2        2.06278   0.00040   0.00000   0.00116   0.00116   2.06394
    R3        2.06284   0.00038   0.00000   0.00108   0.00108   2.06393
    R4        2.05936   0.00140   0.00000   0.00400   0.00400   2.06336
    R5        2.54045   0.00652   0.00000   0.01155   0.01155   2.55200
    R6        2.66193   0.00420   0.00000   0.00952   0.00952   2.67145
    R7        2.64755   0.00929   0.00000   0.02044   0.02044   2.66800
    R8        2.59033   0.00943   0.00000   0.01846   0.01846   2.60879
    R9        2.03860   0.00418   0.00000   0.01150   0.01150   2.05009
   R10        2.63925   0.00610   0.00000   0.01305   0.01305   2.65230
   R11        2.03993   0.00499   0.00000   0.01376   0.01376   2.05369
   R12        2.76732   0.00735   0.00000   0.02006   0.02006   2.78738
   R13        2.62840   0.00591   0.00000   0.01241   0.01240   2.64080
   R14        2.27629   0.02120   0.00000   0.02063   0.02063   2.29692
   R15        2.09410   0.00408   0.00000   0.01237   0.01237   2.10647
   R16        2.61405   0.00802   0.00000   0.01648   0.01649   2.63054
   R17        2.04162   0.00254   0.00000   0.00701   0.00701   2.04863
   R18        3.63099   0.00141   0.00000   0.00810   0.00810   3.63909
    A1        1.95502  -0.00038   0.00000  -0.00378  -0.00382   1.95120
    A2        1.95499  -0.00037   0.00000  -0.00372  -0.00377   1.95123
    A3        1.82427   0.00097   0.00000   0.00872   0.00870   1.83298
    A4        1.91935  -0.00127   0.00000  -0.01236  -0.01243   1.90693
    A5        1.90346   0.00061   0.00000   0.00649   0.00648   1.90994
    A6        1.90345   0.00061   0.00000   0.00649   0.00647   1.90993
    A7        2.17247   0.00316   0.00000   0.01253   0.01253   2.18500
    A8        1.95717   0.00130   0.00000   0.00487   0.00487   1.96204
    A9        2.28490  -0.00371   0.00000  -0.01497  -0.01497   2.26993
   A10        2.04112   0.00241   0.00000   0.01009   0.01010   2.05122
   A11        2.14070  -0.00240   0.00000  -0.01044  -0.01044   2.13026
   A12        2.02662   0.00116   0.00000   0.00494   0.00494   2.03156
   A13        2.11587   0.00125   0.00000   0.00550   0.00550   2.12137
   A14        2.09056   0.00073   0.00000   0.00332   0.00331   2.09388
   A15        2.09678  -0.00038   0.00000  -0.00175  -0.00174   2.09503
   A16        2.09585  -0.00035   0.00000  -0.00158  -0.00157   2.09427
   A17        2.12308  -0.00228   0.00000  -0.00901  -0.00901   2.11407
   A18        2.06744   0.00142   0.00000   0.00557   0.00556   2.07301
   A19        2.09266   0.00086   0.00000   0.00344   0.00344   2.09610
   A20        2.18810  -0.00169   0.00000  -0.00762  -0.00762   2.18047
   A21        1.98018   0.00198   0.00000   0.01083   0.01083   1.99101
   A22        2.11490  -0.00029   0.00000  -0.00321  -0.00321   2.11170
   A23        2.12493  -0.00113   0.00000  -0.00493  -0.00493   2.12000
   A24        2.06353   0.00098   0.00000   0.00500   0.00500   2.06853
   A25        2.09473   0.00016   0.00000  -0.00007  -0.00007   2.09466
   A26        2.10162  -0.00102   0.00000  -0.00361  -0.00360   2.09801
   A27        2.18450  -0.00207   0.00000  -0.00843  -0.00844   2.17606
   A28        1.99707   0.00309   0.00000   0.01204   0.01204   2.00911
    D1        1.08286  -0.00112   0.00000  -0.01116  -0.01113   1.07174
    D2       -1.08332   0.00112   0.00000   0.01089   0.01085  -1.07247
    D3        3.14137  -0.00000   0.00000  -0.00015  -0.00015   3.14123
    D4       -3.14119   0.00000   0.00000   0.00002   0.00002  -3.14117
    D5        0.00047  -0.00000   0.00000  -0.00009  -0.00009   0.00038
    D6       -3.14153  -0.00000   0.00000  -0.00009  -0.00009   3.14156
    D7        0.00011  -0.00000   0.00000  -0.00012  -0.00012  -0.00001
    D8        0.00000   0.00000   0.00000  -0.00000  -0.00000   0.00000
    D9       -3.14154  -0.00000   0.00000  -0.00003  -0.00003  -3.14157
   D10        3.14146   0.00000   0.00000   0.00019   0.00019  -3.14154
   D11        0.00010  -0.00000   0.00000  -0.00008  -0.00007   0.00003
   D12       -0.00006   0.00000   0.00000   0.00007   0.00007   0.00002
   D13       -3.14142  -0.00000   0.00000  -0.00019  -0.00019   3.14158
   D14        0.00008  -0.00000   0.00000  -0.00011  -0.00011  -0.00003
   D15       -3.14158   0.00000   0.00000   0.00000   0.00000  -3.14158
   D16       -3.14156  -0.00000   0.00000  -0.00008  -0.00008   3.14154
   D17       -0.00004   0.00000   0.00000   0.00003   0.00003  -0.00001
   D18        3.14145   0.00000   0.00000   0.00016   0.00016  -3.14158
   D19       -0.00011   0.00000   0.00000   0.00015   0.00015   0.00004
   D20       -0.00008   0.00000   0.00000   0.00005   0.00005  -0.00003
   D21        3.14155   0.00000   0.00000   0.00003   0.00003   3.14159
   D22       -3.14142   0.00001   0.00000   0.00065   0.00065  -3.14077
   D23        0.00046  -0.00001   0.00000  -0.00096  -0.00096  -0.00050
   D24        0.00013   0.00001   0.00000   0.00067   0.00067   0.00080
   D25       -3.14117  -0.00001   0.00000  -0.00094  -0.00094   3.14107
   D26        0.00005  -0.00000   0.00000  -0.00008  -0.00008  -0.00002
   D27        3.14152   0.00000   0.00000   0.00005   0.00005   3.14158
   D28       -3.14150  -0.00000   0.00000  -0.00009  -0.00009  -3.14159
   D29       -0.00003   0.00000   0.00000   0.00004   0.00004   0.00001
   D30        0.00003  -0.00000   0.00000  -0.00004  -0.00004  -0.00001
   D31        3.14141   0.00000   0.00000   0.00020   0.00020  -3.14157
   D32       -3.14144  -0.00000   0.00000  -0.00017  -0.00017   3.14158
   D33       -0.00005   0.00000   0.00000   0.00007   0.00007   0.00001
         Item               Value     Threshold  Converged?
 Maximum Force            0.021199     0.000450     NO 
 RMS     Force            0.003779     0.000300     NO 
 Maximum Displacement     0.052541     0.001800     NO 
 RMS     Displacement     0.016708     0.001200     NO 
 Predicted change in Energy=-1.081851D-03
 Lowest energy point so far.  Saving SCF results.
 GradGradGradGradGradGradGradGradGradGradGradGradGradGradGradGradGradGrad

 Leave Link  103 at Tue Sep 17 09:44:27 2024, MaxMem=  1342177280 cpu:               0.1 elap:               0.0
 (Enter /groups/ReismanLab/Software/Gaussian16_RevC/Linux_Binary_AVX2-enabled-CPU/g16/l202.exe)
                          Input orientation:                          
 ---------------------------------------------------------------------
 Center     Atomic      Atomic             Coordinates (Angstroms)
 Number     Number       Type             X           Y           Z
 ---------------------------------------------------------------------
      1          6           0       -2.542155    1.956576    0.000081
      2          8           0       -1.167260    2.331965   -0.000460
      3          6           0       -0.125770    1.472287   -0.000283
      4          6           0        1.121892    2.136970   -0.000392
      5          6           0        2.318662    1.448821   -0.000210
      6          6           0        2.320405    0.045287    0.000129
      7          6           0        3.583996   -0.715647    0.000350
      8          8           0        3.666149   -1.928343   -0.000175
      9          6           0        1.096347   -0.628919    0.000226
     10          6           0       -0.112958    0.060503    0.000023
     11         35           0       -1.686570   -1.049522    0.000238
     12          1           0       -2.805298    1.382006    0.890866
     13          1           0       -2.805944    1.381725   -0.890325
     14          1           0       -3.092928    2.899371    0.000125
     15          1           0        1.090725    3.221386   -0.000607
     16          1           0        3.259218    1.993259   -0.000286
     17          1           0        4.498583   -0.078407   -0.000285
     18          1           0        1.102549   -1.712989    0.000472
 ---------------------------------------------------------------------
                    Distance matrix (angstroms):
                    1          2          3          4          5
     1  C    0.000000
     2  O    1.425220   0.000000
     3  C    2.464437   1.350462   0.000000
     4  C    3.668485   2.297442   1.413671   0.000000
     5  C    4.887264   3.596052   2.444544   1.380510   0.000000
     6  C    5.224703   4.170457   2.831979   2.410721   1.403535
     7  C    6.683599   5.644676   4.306904   3.768207   2.507188
     8  O    7.323635   6.442985   5.093420   4.795833   3.636063
     9  C    4.463573   3.727030   2.430769   2.766007   2.410613
    10  C    3.081573   2.504215   1.411843   2.415900   2.800036
    11  Br   3.125484   3.421131   2.965741   4.247493   4.720551
    12  H    1.092188   2.092857   2.825273   4.097210   5.201292
    13  H    1.092182   2.092870   2.825546   4.097594   5.201768
    14  H    1.091886   2.007522   3.292506   4.283218   5.602624
    15  H    3.846759   2.426842   2.130541   1.084863   2.156343
    16  H    5.801489   4.439418   3.424844   2.142152   1.086766
    17  H    7.328925   6.157245   4.877427   4.038557   2.661669
    18  H    5.171999   4.638285   3.413906   3.850008   3.387620
                    6          7          8          9         10
     6  C    0.000000
     7  C    1.475019   0.000000
     8  O    2.388773   1.215475   0.000000
     9  C    1.397452   2.489160   2.879649   0.000000
    10  C    2.433411   3.777549   4.270498   1.392021   0.000000
    11  Br   4.153849   5.281131   5.424383   2.814523   1.925723
    12  H    5.371505   6.783527   7.323386   4.478827   3.128684
    13  H    5.372005   6.784070   7.323722   4.479247   3.128981
    14  H    6.119638   7.592738   8.306139   5.477122   4.115749
    15  H    3.405836   4.660110   5.757822   3.850309   3.382312
    16  H    2.162398   2.728306   3.942658   3.399092   3.886788
    17  H    2.181687   1.114695   2.028598   3.446487   4.613633
    18  H    2.138857   2.674373   2.572629   1.084087   2.150053
                   11         12         13         14         15
    11  Br   0.000000
    12  H    2.820833   0.000000
    13  H    2.820826   1.781191   0.000000
    14  H    4.191849   1.782849   1.782838   0.000000
    15  H    5.094509   4.399663   4.399998   4.196027   0.000000
    16  H    5.806836   6.160044   6.160547   6.416447   2.492119
    17  H    6.260926   7.501575   7.502018   8.154643   4.743641
    18  H    2.866945   5.063898   5.064296   6.235053   4.934389
                   16         17         18
    16  H    0.000000
    17  H    2.414089   0.000000
    18  H    4.288064   3.768940   0.000000
 Stoichiometry    C8H7BrO2
 Framework group  C1[X(C8H7BrO2)]
 Deg. of freedom    48
 Full point group                 C1      NOp   1
 RotChk:  IX=0 Diff= 8.20D-04
 Largest Abelian subgroup         C1      NOp   1
 Largest concise Abelian subgroup C1      NOp   1
                         Standard orientation:                         
 ---------------------------------------------------------------------
 Center     Atomic      Atomic             Coordinates (Angstroms)
 Number     Number       Type             X           Y           Z
 ---------------------------------------------------------------------
      1          6           0       -2.882794    1.417563    0.000055
      2          8           0       -1.585550    2.007826   -0.000486
      3          6           0       -0.420073    1.325617   -0.000309
      4          6           0        0.705346    2.181127   -0.000418
      5          6           0        1.996699    1.693055   -0.000236
      6          6           0        2.222695    0.307834    0.000103
      7          6           0        3.591641   -0.241409    0.000324
      8          8           0        3.866518   -1.425395   -0.000201
      9          6           0        1.122099   -0.553304    0.000200
     10          6           0       -0.181833   -0.065979   -0.000003
     11         35           0       -1.557851   -1.413193    0.000212
     12          1           0       -3.050744    0.808327    0.890840
     13          1           0       -3.051337    0.807946   -0.890351
     14          1           0       -3.577142    2.260234    0.000099
     15          1           0        0.501298    3.246628   -0.000632
     16          1           0        2.838173    2.380792   -0.000312
     17          1           0        4.392650    0.533788   -0.000311
     18          1           0        1.301447   -1.622453    0.000446
 ---------------------------------------------------------------------
 Rotational constants (GHZ):           1.2001898           0.5498587           0.3779970
 Leave Link  202 at Tue Sep 17 09:44:27 2024, MaxMem=  1342177280 cpu:               0.1 elap:               0.0
 (Enter /groups/ReismanLab/Software/Gaussian16_RevC/Linux_Binary_AVX2-enabled-CPU/g16/l301.exe)
 Standard basis: 6-31G(d,p) (6D, 7F)
 Ernie: Thresh=  0.10000D-02 Tol=  0.10000D-05 Strict=F.
 There are   215 symmetry adapted cartesian basis functions of A   symmetry.
 There are   215 symmetry adapted basis functions of A   symmetry.
   215 basis functions,   412 primitive gaussians,   215 cartesian basis functions
    53 alpha electrons       53 beta electrons
       nuclear repulsion energy       836.5736446660 Hartrees.
 IExCor=  402 DFT=T Ex+Corr=B3LYP ExCW=0 ScaHFX=  0.200000
 ScaDFX=  0.800000  0.720000  1.000000  0.810000 ScalE2=  1.000000  1.000000
 IRadAn=      5 IRanWt=     -1 IRanGd=            0 ICorTp=0 IEmpDi=141
 NAtoms=   18 NActive=   18 NUniq=   18 SFac= 1.00D+00 NAtFMM=   60 NAOKFM=F Big=F
 Integral buffers will be    131072 words long.
 Raffenetti 2 integral format.
 Two-electron integral symmetry is turned on.
 R6Disp:  Grimme-D3(BJ) Dispersion energy=       -0.0371314088 Hartrees.
 Nuclear repulsion after empirical dispersion term =      836.5365132572 Hartrees.
 Leave Link  301 at Tue Sep 17 09:44:27 2024, MaxMem=  1342177280 cpu:               0.1 elap:               0.1
 (Enter /groups/ReismanLab/Software/Gaussian16_RevC/Linux_Binary_AVX2-enabled-CPU/g16/l302.exe)
 NPDir=0 NMtPBC=     1 NCelOv=     1 NCel=       1 NClECP=     1 NCelD=      1
         NCelK=      1 NCelE2=     1 NClLst=     1 CellRange=     0.0.
 One-electron integrals computed using PRISM.
 One-electron integral symmetry used in STVInt
 NBasis=   215 RedAO= T EigKep=  4.04D-04  NBF=   215
 NBsUse=   215 1.00D-06 EigRej= -1.00D+00 NBFU=   215
 Precomputing XC quadrature grid using
 IXCGrd= 4 IRadAn=           5 IRanWt=          -1 IRanGd=           0 AccXCQ= 0.00D+00.
 Generated NRdTot=       0 NPtTot=           0 NUsed=           0 NTot=          32
 NSgBfM=   214   214   214   214   214 MxSgAt=    18 MxSgA2=    18.
 Leave Link  302 at Tue Sep 17 09:44:27 2024, MaxMem=  1342177280 cpu:               1.1 elap:               0.2
 (Enter /groups/ReismanLab/Software/Gaussian16_RevC/Linux_Binary_AVX2-enabled-CPU/g16/l303.exe)
 DipDrv:  MaxL=1.
 Leave Link  303 at Tue Sep 17 09:44:27 2024, MaxMem=  1342177280 cpu:               0.1 elap:               0.1
 (Enter /groups/ReismanLab/Software/Gaussian16_RevC/Linux_Binary_AVX2-enabled-CPU/g16/l401.exe)
 Initial guess from the checkpoint file:  "smiles_00118_conf_4.chk"
 B after Tr=    -0.000000   -0.000000   -0.000000
         Rot=    0.999999    0.000009    0.000004    0.001147 Ang=   0.13 deg.
 Guess basis will be translated and rotated to current coordinates.
 JPrj=2 DoOrth=T DoCkMO=T.
 Generating alternative initial guess.
 ExpMin= 1.43D-01 ExpMax= 5.74D+05 ExpMxC= 5.74D+03 IAcc=3 IRadAn=         5 AccDes= 0.00D+00
 Harris functional with IExCor=  402 and IRadAn=       5 diagonalized for initial guess.
 HarFok:  IExCor=  402 AccDes= 0.00D+00 IRadAn=         5 IDoV= 1 UseB2=F ITyADJ=14
 ICtDFT=  3500011 ScaDFX=  1.000000  1.000000  1.000000  1.000000
 FoFCou: FMM=F IPFlag=           0 FMFlag=      100000 FMFlg1=           0
         NFxFlg=           0 DoJE=T BraDBF=F KetDBF=T FulRan=T
         wScrn=  0.000000 ICntrl=       500 IOpCl=  0 I1Cent=   200000004 NGrid=           0
         NMat0=    1 NMatS0=      1 NMatT0=    0 NMatD0=    1 NMtDS0=    0 NMtDT0=    0
 Petite list used in FoFCou.
 Harris En= -3031.34403924973    
 Leave Link  401 at Tue Sep 17 09:44:28 2024, MaxMem=  1342177280 cpu:               4.1 elap:               0.6
 (Enter /groups/ReismanLab/Software/Gaussian16_RevC/Linux_Binary_AVX2-enabled-CPU/g16/l502.exe)
 Integral symmetry usage will be decided dynamically.
 Closed shell SCF:
 Using DIIS extrapolation, IDIIS=  1040.
 NGot=  1342177280 LenX=  1342080394 LenY=  1342033728
 Requested convergence on RMS density matrix=1.00D-08 within  32 cycles.
 Requested convergence on MAX density matrix=1.00D-06.
 Requested convergence on             energy=1.00D-06.
 No special actions if energy rises.
 Fock matrices will be formed incrementally for  20 cycles.
 Integral accuracy reduced to 1.0D-05 until final iterations.

 Cycle   1  Pass 0  IDiag  1:
 FoFJK:  IHMeth= 1 ICntrl=       0 DoSepK=F KAlg= 0 I1Cent=           0 FoldK=F
 IRaf= 870000000 NMat=       1 IRICut=       1 DoRegI=T DoRafI=F ISym2E= 0 IDoP0=0 IntGTp=1.
 FoFCou: FMM=F IPFlag=           0 FMFlag=      100000 FMFlg1=           0
         NFxFlg=           0 DoJE=F BraDBF=F KetDBF=F FulRan=T
         wScrn=  0.000000 ICntrl=         0 IOpCl=  0 I1Cent=           0 NGrid=           0
         NMat0=    1 NMatS0=      1 NMatT0=    0 NMatD0=    1 NMtDS0=    0 NMtDT0=    0
 Symmetry not used in FoFCou.
 E= -3031.23839386288    
 DIIS: error= 1.69D-03 at cycle   1 NSaved=   1.
 NSaved= 1 IEnMin= 1 EnMin= -3031.23839386288     IErMin= 1 ErrMin= 1.69D-03
 ErrMax= 1.69D-03  0.00D+00 EMaxC= 1.00D-01 BMatC= 9.93D-04 BMatP= 9.93D-04
 IDIUse=3 WtCom= 9.83D-01 WtEn= 1.69D-02
 Coeff-Com:  0.100D+01
 Coeff-En:   0.100D+01
 Coeff:      0.100D+01
 Gap=     1.833 Goal=   None    Shift=    0.000
 GapD=    1.833 DampG=2.000 DampE=1.000 DampFc=2.0000 IDamp=-1.
 RMSDP=1.99D-04 MaxDP=3.56D-03              OVMax= 5.31D-03

 Cycle   2  Pass 0  IDiag  1:
 RMSU=  1.99D-04    CP:  1.00D+00
 E= -3031.23876613753     Delta-E=       -0.000372274648 Rises=F Damp=F
 DIIS: error= 3.61D-04 at cycle   2 NSaved=   2.
 NSaved= 2 IEnMin= 2 EnMin= -3031.23876613753     IErMin= 2 ErrMin= 3.61D-04
 ErrMax= 3.61D-04  0.00D+00 EMaxC= 1.00D-01 BMatC= 4.21D-05 BMatP= 9.93D-04
 IDIUse=3 WtCom= 9.96D-01 WtEn= 3.61D-03
 Coeff-Com:  0.708D-01 0.929D+00
 Coeff-En:   0.000D+00 0.100D+01
 Coeff:      0.706D-01 0.929D+00
 Gap=     0.175 Goal=   None    Shift=    0.000
 RMSDP=7.03D-05 MaxDP=1.90D-03 DE=-3.72D-04 OVMax= 2.33D-03

 Cycle   3  Pass 0  IDiag  1:
 RMSU=  7.02D-05    CP:  1.00D+00  9.78D-01
 E= -3031.23875860402     Delta-E=        0.000007533509 Rises=F Damp=F
 DIIS: error= 3.32D-04 at cycle   3 NSaved=   3.
 NSaved= 3 IEnMin= 2 EnMin= -3031.23876613753     IErMin= 3 ErrMin= 3.32D-04
 ErrMax= 3.32D-04  0.00D+00 EMaxC= 1.00D-01 BMatC= 4.91D-05 BMatP= 4.21D-05
 IDIUse=3 WtCom= 3.54D-01 WtEn= 6.46D-01
 Coeff-Com:  0.149D-02 0.520D+00 0.479D+00
 Coeff-En:   0.000D+00 0.538D+00 0.462D+00
 Coeff:      0.528D-03 0.531D+00 0.468D+00
 Gap=     0.175 Goal=   None    Shift=    0.000
 RMSDP=4.09D-05 MaxDP=1.40D-03 DE= 7.53D-06 OVMax= 1.61D-03

 Cycle   4  Pass 0  IDiag  1:
 RMSU=  1.72D-05    CP:  1.00D+00  1.02D+00  4.87D-01
 E= -3031.23880637393     Delta-E=       -0.000047769912 Rises=F Damp=F
 DIIS: error= 1.03D-04 at cycle   4 NSaved=   4.
 NSaved= 4 IEnMin= 4 EnMin= -3031.23880637393     IErMin= 4 ErrMin= 1.03D-04
 ErrMax= 1.03D-04  0.00D+00 EMaxC= 1.00D-01 BMatC= 3.01D-06 BMatP= 4.21D-05
 IDIUse=3 WtCom= 9.99D-01 WtEn= 1.03D-03
 Coeff-Com: -0.289D-02 0.263D+00 0.280D+00 0.460D+00
 Coeff-En:   0.000D+00 0.000D+00 0.000D+00 0.100D+01
 Coeff:     -0.289D-02 0.263D+00 0.280D+00 0.460D+00
 Gap=     0.175 Goal=   None    Shift=    0.000
 RMSDP=9.96D-06 MaxDP=3.82D-04 DE=-4.78D-05 OVMax= 6.61D-04

 Initial convergence to 1.0D-05 achieved.  Increase integral accuracy.
 Cycle   5  Pass 1  IDiag  1:
 E= -3031.23884138467     Delta-E=       -0.000035010740 Rises=F Damp=F
 DIIS: error= 4.28D-05 at cycle   1 NSaved=   1.
 NSaved= 1 IEnMin= 1 EnMin= -3031.23884138467     IErMin= 1 ErrMin= 4.28D-05
 ErrMax= 4.28D-05  0.00D+00 EMaxC= 1.00D-01 BMatC= 4.04D-07 BMatP= 4.04D-07
 IDIUse=1 WtCom= 1.00D+00 WtEn= 0.00D+00
 Coeff-Com:  0.100D+01
 Coeff:      0.100D+01
 Gap=     0.175 Goal=   None    Shift=    0.000
 RMSDP=9.96D-06 MaxDP=3.82D-04 DE=-3.50D-05 OVMax= 5.59D-04

 Cycle   6  Pass 1  IDiag  1:
 RMSU=  1.68D-05    CP:  1.00D+00
 E= -3031.23884081355     Delta-E=        0.000000571122 Rises=F Damp=F
 DIIS: error= 6.26D-05 at cycle   2 NSaved=   2.
 NSaved= 2 IEnMin= 1 EnMin= -3031.23884138467     IErMin= 1 ErrMin= 4.28D-05
 ErrMax= 6.26D-05  0.00D+00 EMaxC= 1.00D-01 BMatC= 8.58D-07 BMatP= 4.04D-07
 IDIUse=1 WtCom= 1.00D+00 WtEn= 0.00D+00
 Coeff-Com:  0.608D+00 0.392D+00
 Coeff:      0.608D+00 0.392D+00
 Gap=     0.175 Goal=   None    Shift=    0.000
 RMSDP=5.72D-06 MaxDP=1.71D-04 DE= 5.71D-07 OVMax= 4.17D-04

 Cycle   7  Pass 1  IDiag  1:
 RMSU=  5.14D-06    CP:  1.00D+00  8.51D-01
 E= -3031.23884170407     Delta-E=       -0.000000890514 Rises=F Damp=F
 DIIS: error= 1.68D-05 at cycle   3 NSaved=   3.
 NSaved= 3 IEnMin= 3 EnMin= -3031.23884170407     IErMin= 3 ErrMin= 1.68D-05
 ErrMax= 1.68D-05  0.00D+00 EMaxC= 1.00D-01 BMatC= 5.64D-08 BMatP= 4.04D-07
 IDIUse=1 WtCom= 1.00D+00 WtEn= 0.00D+00
 Coeff-Com:  0.110D+00 0.210D+00 0.680D+00
 Coeff:      0.110D+00 0.210D+00 0.680D+00
 Gap=     0.175 Goal=   None    Shift=    0.000
 RMSDP=1.59D-06 MaxDP=5.13D-05 DE=-8.91D-07 OVMax= 7.34D-05

 Cycle   8  Pass 1  IDiag  1:
 RMSU=  1.29D-06    CP:  1.00D+00  8.78D-01  8.46D-01
 E= -3031.23884174809     Delta-E=       -0.000000044025 Rises=F Damp=F
 DIIS: error= 9.02D-06 at cycle   4 NSaved=   4.
 NSaved= 4 IEnMin= 4 EnMin= -3031.23884174809     IErMin= 4 ErrMin= 9.02D-06
 ErrMax= 9.02D-06  0.00D+00 EMaxC= 1.00D-01 BMatC= 1.50D-08 BMatP= 5.64D-08
 IDIUse=1 WtCom= 1.00D+00 WtEn= 0.00D+00
 Coeff-Com:  0.296D-02 0.931D-01 0.438D+00 0.466D+00
 Coeff:      0.296D-02 0.931D-01 0.438D+00 0.466D+00
 Gap=     0.175 Goal=   None    Shift=    0.000
 RMSDP=6.16D-07 MaxDP=2.59D-05 DE=-4.40D-08 OVMax= 2.91D-05

 Cycle   9  Pass 1  IDiag  1:
 RMSU=  2.12D-07    CP:  1.00D+00  8.82D-01  8.47D-01  5.57D-01
 E= -3031.23884176082     Delta-E=       -0.000000012728 Rises=F Damp=F
 DIIS: error= 2.44D-06 at cycle   5 NSaved=   5.
 NSaved= 5 IEnMin= 5 EnMin= -3031.23884176082     IErMin= 5 ErrMin= 2.44D-06
 ErrMax= 2.44D-06  0.00D+00 EMaxC= 1.00D-01 BMatC= 5.73D-10 BMatP= 1.50D-08
 IDIUse=1 WtCom= 1.00D+00 WtEn= 0.00D+00
 Coeff-Com: -0.121D-02 0.518D-01 0.253D+00 0.289D+00 0.408D+00
 Coeff:     -0.121D-02 0.518D-01 0.253D+00 0.289D+00 0.408D+00
 Gap=     0.175 Goal=   None    Shift=    0.000
 RMSDP=1.35D-07 MaxDP=4.96D-06 DE=-1.27D-08 OVMax= 5.59D-06

 Cycle  10  Pass 1  IDiag  1:
 RMSU=  6.70D-08    CP:  1.00D+00  8.83D-01  8.47D-01  5.35D-01  4.66D-01
 E= -3031.23884176130     Delta-E=       -0.000000000478 Rises=F Damp=F
 DIIS: error= 4.64D-07 at cycle   6 NSaved=   6.
 NSaved= 6 IEnMin= 6 EnMin= -3031.23884176130     IErMin= 6 ErrMin= 4.64D-07
 ErrMax= 4.64D-07  0.00D+00 EMaxC= 1.00D-01 BMatC= 2.78D-11 BMatP= 5.73D-10
 IDIUse=1 WtCom= 1.00D+00 WtEn= 0.00D+00
 Coeff-Com: -0.932D-03 0.208D-01 0.103D+00 0.118D+00 0.229D+00 0.530D+00
 Coeff:     -0.932D-03 0.208D-01 0.103D+00 0.118D+00 0.229D+00 0.530D+00
 Gap=     0.175 Goal=   None    Shift=    0.000
 RMSDP=3.27D-08 MaxDP=1.33D-06 DE=-4.78D-10 OVMax= 2.29D-06

 Cycle  11  Pass 1  IDiag  1:
 RMSU=  2.18D-08    CP:  1.00D+00  8.83D-01  8.47D-01  5.31D-01  5.25D-01
                    CP:  6.99D-01
 E= -3031.23884176133     Delta-E=       -0.000000000035 Rises=F Damp=F
 DIIS: error= 8.17D-08 at cycle   7 NSaved=   7.
 NSaved= 7 IEnMin= 7 EnMin= -3031.23884176133     IErMin= 7 ErrMin= 8.17D-08
 ErrMax= 8.17D-08  0.00D+00 EMaxC= 1.00D-01 BMatC= 2.15D-12 BMatP= 2.78D-11
 IDIUse=1 WtCom= 1.00D+00 WtEn= 0.00D+00
 Coeff-Com: -0.351D-03 0.521D-02 0.265D-01 0.295D-01 0.738D-01 0.275D+00
 Coeff-Com:  0.591D+00
 Coeff:     -0.351D-03 0.521D-02 0.265D-01 0.295D-01 0.738D-01 0.275D+00
 Coeff:      0.591D+00
 Gap=     0.175 Goal=   None    Shift=    0.000
 RMSDP=8.86D-09 MaxDP=2.05D-07 DE=-3.46D-11 OVMax= 5.41D-07

 SCF Done:  E(RB3LYP) =  -3031.23884176     A.U. after   11 cycles
            NFock= 11  Conv=0.89D-08     -V/T= 2.0067
 KE= 3.011201725181D+03 PE=-8.876344716242D+03 EE= 1.997367636043D+03
 Leave Link  502 at Tue Sep 17 09:44:36 2024, MaxMem=  1342177280 cpu:              63.1 elap:               8.5
 (Enter /groups/ReismanLab/Software/Gaussian16_RevC/Linux_Binary_AVX2-enabled-CPU/g16/l508.exe)
 QCSCF skips out because SCF is already converged.
 Leave Link  508 at Tue Sep 17 09:44:36 2024, MaxMem=  1342177280 cpu:               0.1 elap:               0.0
 (Enter /groups/ReismanLab/Software/Gaussian16_RevC/Linux_Binary_AVX2-enabled-CPU/g16/l701.exe)
 ... and contract with generalized density number  0.
 Compute integral first derivatives.
 R6Disp: Adding Grimme-D3(BJ) dispersion energy 1st derivatives to the gradient.
[...]
   XX=  2236.4442   YX=   554.1739   ZX=     0.0277
   XY=   583.5043   YY=  2358.1797   ZY=     0.0359
   XZ=    -0.1049   YZ=    -0.1452   ZZ=  1746.3179
   Eigenvalues:  1725.2256  1746.3179  2869.3983
     12  H    Isotropic =    27.1378   Anisotropy =     5.7864
   XX=    29.1542   YX=     0.7122   ZX=    -4.3418
   XY=    -1.2461   YY=    28.7384   ZY=    -0.7678
   XZ=    -3.0355   YZ=    -1.1692   ZZ=    23.5209
   Eigenvalues:    21.5608    28.8573    30.9954
     13  H    Isotropic =    27.1367   Anisotropy =     5.7844
   XX=    29.1580   YX=     0.7131   ZX=     4.3377
   XY=    -1.2455   YY=    28.7395   ZY=     0.7683
   XZ=     3.0298   YZ=     1.1686   ZZ=    23.5126
   Eigenvalues:    21.5589    28.8583    30.9930
     14  H    Isotropic =    27.8217   Anisotropy =     7.9255
   XX=    32.0210   YX=    -3.2238   ZX=    -0.0021
   XY=    -1.4466   YY=    28.0765   ZY=    -0.0002
   XZ=    -0.0035   YZ=     0.0014   ZZ=    23.3676
   Eigenvalues:    23.3676    26.9922    33.1054
     15  H    Isotropic =    24.0784   Anisotropy =     7.6119
   XX=    28.6579   YX=     1.8206   ZX=    -0.0002
   XY=     1.7572   YY=    22.6894   ZY=    -0.0003
   XZ=     0.0003   YZ=    -0.0002   ZZ=    20.8879
   Eigenvalues:    20.8879    22.1943    29.1530
     16  H    Isotropic =    23.4250   Anisotropy =     4.8511
   XX=    24.6243   YX=    -2.7737   ZX=     0.0006
   XY=    -1.7123   YY=    24.1867   ZY=    -0.0006
   XZ=     0.0002   YZ=    -0.0006   ZZ=    21.4641
   Eigenvalues:    21.4641    22.1519    26.6591
     17  H    Isotropic =    21.1959   Anisotropy =     4.0660
   XX=    22.9444   YX=    -3.2944   ZX=     0.0007
   XY=     0.2475   YY=    21.4944   ZY=    -0.0004
   XZ=     0.0003   YZ=    -0.0005   ZZ=    19.1489
   Eigenvalues:    19.1489    20.5322    23.9066
     18  H    Isotropic =    22.9366   Anisotropy =    11.8255
   XX=    30.8195   YX=    -0.1383   ZX=     0.0009
   XY=     0.3156   YY=    19.6661   ZY=    -0.0003
   XZ=     0.0009   YZ=    -0.0007   ZZ=    18.3241
   Eigenvalues:    18.3241    19.6654    30.8202
 End of Minotr F.D. properties file   721 does not exist.
 End of Minotr F.D. properties file   722 does not exist.
 End of Minotr F.D. properties file   788 does not exist.
 Leave Link 1002 at Tue Sep 17 10:43:36 2024, MaxMem=  1342177280 cpu:             783.4 elap:             787.5
 (Enter /groups/ReismanLab/Software/Gaussian16_RevC/Linux_Binary_AVX2-enabled-CPU/g16/l601.exe)
 Copying SCF densities to generalized density rwf, IOpCl= 0 IROHF=0.

 **********************************************************************

            Population analysis using the SCF Density.

 **********************************************************************

 Orbital symmetries:
       Occupied  (A) (A) (A) (A) (A) (A) (A) (A) (A) (A) (A) (A)
                 (A) (A) (A) (A) (A) (A) (A) (A) (A) (A) (A) (A)
                 (A) (A) (A) (A) (A) (A) (A) (A) (A) (A) (A) (A)
                 (A) (A) (A) (A) (A) (A) (A) (A) (A) (A) (A) (A)
                 (A) (A) (A) (A) (A)
       Virtual   (A) (A) (A) (A) (A) (A) (A) (A) (A) (A) (A) (A)
                 (A) (A) (A) (A) (A) (A) (A) (A) (A) (A) (A) (A)
                 (A) (A) (A) (A) (A) (A) (A) (A) (A) (A) (A) (A)
                 (A) (A) (A) (A) (A) (A) (A) (A) (A) (A) (A) (A)
                 (A) (A) (A) (A) (A) (A) (A) (A) (A) (A) (A) (A)
                 (A) (A) (A) (A) (A) (A) (A) (A) (A) (A) (A) (A)
                 (A) (A) (A) (A) (A) (A) (A) (A) (A) (A) (A) (A)
                 (A) (A) (A) (A) (A) (A) (A) (A) (A) (A) (A) (A)
                 (A) (A) (A) (A) (A) (A) (A) (A) (A) (A) (A) (A)
                 (A) (A) (A) (A) (A) (A) (A) (A) (A) (A) (A) (A)
                 (A) (A) (A) (A) (A) (A) (A) (A) (A) (A) (A) (A)
                 (A) (A) (A) (A) (A) (A) (A) (A) (A) (A) (A) (A)
                 (A) (A) (A) (A) (A) (A) (A) (A) (A) (A) (A) (A)
                 (A) (A) (A) (A) (A) (A) (A) (A) (A) (A) (A) (A)
                 (A) (A) (A) (A) (A) (A) (A) (A) (A) (A) (A) (A)
                 (A) (A) (A) (A) (A) (A) (A) (A) (A) (A) (A) (A)
                 (A) (A) (A) (A) (A) (A) (A) (A) (A) (A) (A) (A)
                 (A) (A) (A) (A) (A) (A) (A) (A) (A) (A) (A) (A)
                 (A) (A) (A) (A) (A) (A) (A) (A) (A) (A) (A) (A)
                 (A) (A) (A) (A) (A) (A) (A) (A) (A) (A) (A) (A)
                 (A) (A) (A) (A) (A) (A) (A) (A) (A) (A) (A) (A)
                 (A) (A) (A) (A) (A) (A) (A) (A) (A) (A) (A) (A)
                 (A) (A) (A) (A) (A) (A) (A) (A) (A) (A) (A) (A)
                 (A) (A) (A) (A) (A) (A) (A) (A) (A) (A) (A) (A)
                 (A) (A) (A) (A) (A) (A) (A) (A) (A) (A) (A) (A)
                 (A) (A) (A) (A) (A) (A) (A) (A) (A) (A) (A) (A)
                 (A) (A) (A) (A) (A) (A) (A) (A) (A) (A) (A) (A)
                 (A) (A) (A) (A) (A) (A) (A) (A) (A) (A) (A) (A)
                 (A) (A) (A) (A) (A) (A) (A) (A) (A) (A) (A)
 The electronic state is 1-A.
 Alpha  occ. eigenvalues -- -485.38388 -63.36861 -57.18817 -57.18567 -57.18557
 Alpha  occ. eigenvalues --  -19.67488 -19.62642 -10.64088 -10.63166 -10.61579
 Alpha  occ. eigenvalues --  -10.59353 -10.56921 -10.56655 -10.55873 -10.55757
 Alpha  occ. eigenvalues --   -9.03500  -6.85938  -6.85018  -6.84991  -2.89312
 Alpha  occ. eigenvalues --   -2.88985  -2.88953  -2.88095  -2.88095  -1.20733
 Alpha  occ. eigenvalues --   -1.16842  -0.98897  -0.91336  -0.88473  -0.83487
 Alpha  occ. eigenvalues --   -0.80523  -0.73728  -0.70311  -0.66075  -0.61855
 Alpha  occ. eigenvalues --   -0.59260  -0.56287  -0.56085  -0.52719  -0.52176
 Alpha  occ. eigenvalues --   -0.50505  -0.49057  -0.48975  -0.46732  -0.46094
 Alpha  occ. eigenvalues --   -0.43725  -0.41453  -0.41030  -0.38518  -0.35430
 Alpha  occ. eigenvalues --   -0.33657  -0.31683  -0.29088
 Alpha virt. eigenvalues --   -0.03529   0.00124   0.02465   0.06914   0.08079
 Alpha virt. eigenvalues --    0.09254   0.10895   0.11934   0.12474   0.13515
 Alpha virt. eigenvalues --    0.14325   0.14992   0.16229   0.17235   0.18368
 Alpha virt. eigenvalues --    0.20340   0.21402   0.22034   0.22228   0.23916
 Alpha virt. eigenvalues --    0.24788   0.25507   0.25869   0.26312   0.27767
 Alpha virt. eigenvalues --    0.28783   0.29424   0.30666   0.31209   0.32045
 Alpha virt. eigenvalues --    0.32491   0.32913   0.34330   0.34924   0.35281
 Alpha virt. eigenvalues --    0.35803   0.36084   0.37675   0.39726   0.39971
 Alpha virt. eigenvalues --    0.40442   0.40679   0.43415   0.44315   0.44463
 Alpha virt. eigenvalues --    0.45662   0.46983   0.46989   0.48395   0.49500
 Alpha virt. eigenvalues --    0.50137   0.51175   0.51393   0.52007   0.52761
 Alpha virt. eigenvalues --    0.55874   0.56154   0.57643   0.57670   0.58837
 Alpha virt. eigenvalues --    0.59225   0.61503   0.63029   0.63813   0.65963
 Alpha virt. eigenvalues --    0.66420   0.67670   0.70014   0.70729   0.72240
 Alpha virt. eigenvalues --    0.72635   0.73894   0.76359   0.77140   0.77347
 Alpha virt. eigenvalues --    0.78529   0.78959   0.80284   0.82371   0.84162
 Alpha virt. eigenvalues --    0.84186   0.86319   0.86931   0.89290   0.89790
 Alpha virt. eigenvalues --    0.92443   0.92940   0.94401   0.97494   0.98905
 Alpha virt. eigenvalues --    0.99724   1.00278   1.03785   1.04336   1.06964
 Alpha virt. eigenvalues --    1.07273   1.08529   1.09006   1.12406   1.14533
 Alpha virt. eigenvalues --    1.16456   1.17410   1.21248   1.21709   1.22705
 Alpha virt. eigenvalues --    1.24654   1.25211   1.28061   1.28767   1.33321
 Alpha virt. eigenvalues --    1.34330   1.38141   1.38262   1.39590   1.40136
 Alpha virt. eigenvalues --    1.41500   1.45102   1.46009   1.46558   1.47890
 Alpha virt. eigenvalues --    1.49294   1.50408   1.50887   1.53010   1.54030
 Alpha virt. eigenvalues --    1.54768   1.55193   1.56354   1.57973   1.58423
 Alpha virt. eigenvalues --    1.59868   1.60552   1.61500   1.62006   1.63800
 Alpha virt. eigenvalues --    1.66852   1.67217   1.67491   1.67545   1.68475
 Alpha virt. eigenvalues --    1.70650   1.71305   1.73293   1.74915   1.74925
 Alpha virt. eigenvalues --    1.77953   1.79591   1.80304   1.83196   1.83599
 Alpha virt. eigenvalues --    1.85554   1.87546   1.89296   1.91514   1.91906
 Alpha virt. eigenvalues --    1.93463   1.94789   1.96930   1.97344   1.98050
 Alpha virt. eigenvalues --    1.99895   2.01803   2.06632   2.07657   2.08438
 Alpha virt. eigenvalues --    2.12120   2.13840   2.14117   2.16079   2.17637
 Alpha virt. eigenvalues --    2.20579   2.22637   2.26166   2.27127   2.29959
 Alpha virt. eigenvalues --    2.30273   2.32565   2.35344   2.36436   2.37653
 Alpha virt. eigenvalues --    2.39831   2.43007   2.43211   2.45397   2.48213
 Alpha virt. eigenvalues --    2.52359   2.53193   2.54671   2.56225   2.57485
 Alpha virt. eigenvalues --    2.57901   2.58618   2.63879   2.65453   2.67336
 Alpha virt. eigenvalues --    2.68178   2.68380   2.70224   2.71095   2.72604
 Alpha virt. eigenvalues --    2.75465   2.75741   2.77314   2.77833   2.79678
 Alpha virt. eigenvalues --    2.79708   2.80904   2.80942   2.86589   2.88593
 Alpha virt. eigenvalues --    2.89221   2.90501   2.92268   2.95061   2.95887
 Alpha virt. eigenvalues --    2.96105   2.97148   2.97781   3.00504   3.03551
 Alpha virt. eigenvalues --    3.05707   3.06323   3.07533   3.11246   3.12065
 Alpha virt. eigenvalues --    3.14424   3.15287   3.16608   3.16621   3.17239
 Alpha virt. eigenvalues --    3.18953   3.20235   3.21913   3.23276   3.23761
 Alpha virt. eigenvalues --    3.25895   3.27561   3.28538   3.29315   3.31050
 Alpha virt. eigenvalues --    3.33444   3.34720   3.34820   3.38142   3.38540
 Alpha virt. eigenvalues --    3.38829   3.38930   3.41601   3.42687   3.45324
 Alpha virt. eigenvalues --    3.45607   3.46201   3.47950   3.48547   3.50975
 Alpha virt. eigenvalues --    3.54571   3.55834   3.58137   3.58985   3.60427
 Alpha virt. eigenvalues --    3.61373   3.63103   3.64658   3.74394   3.76270
 Alpha virt. eigenvalues --    3.78207   3.81505   3.83968   3.84986   3.85098
 Alpha virt. eigenvalues --    3.88496   3.97751   4.03159   4.04408   4.06908
 Alpha virt. eigenvalues --    4.08145   4.10900   4.13001   4.13166   4.13505
 Alpha virt. eigenvalues --    4.16781   4.17151   4.19418   4.20473   4.20722
 Alpha virt. eigenvalues --    4.21248   4.24615   4.24735   4.29253   4.35278
 Alpha virt. eigenvalues --    4.37233   4.43141   4.43680   4.44872   4.50235
 Alpha virt. eigenvalues --    4.52336   4.54543   4.56641   4.62093   4.65148
 Alpha virt. eigenvalues --    4.72055   4.76227   4.85133   4.86666   4.91899
 Alpha virt. eigenvalues --    5.03596   5.05273   5.09121   5.20836   5.23644
 Alpha virt. eigenvalues --    5.28078   5.29539   5.34378   5.36251   5.41342
 Alpha virt. eigenvalues --    5.51635   5.56052   5.68494   5.69918   5.94591
 Alpha virt. eigenvalues --    5.95530   6.05440   6.29239   6.33987   6.35358
 Alpha virt. eigenvalues --    6.43051   6.47907   6.53401   6.57917   6.72676
 Alpha virt. eigenvalues --    6.78557   6.84958   6.97582   7.04661   7.11999
 Alpha virt. eigenvalues --    7.37483   7.87359  22.18958  22.47076  22.77765
 Alpha virt. eigenvalues --   22.79470  22.86573  22.98468  23.06573  23.40114
 Alpha virt. eigenvalues --   43.97552  44.40253
          Condensed to atoms (all electrons):
               1          2          3          4          5          6
     1  C    4.930110   0.210793  -0.067219   0.009043  -0.001675   0.000927
     2  O    0.210793   7.928373   0.365736  -0.076342   0.003713  -0.000510
     3  C   -0.067219   0.365736   5.035989   0.377870   0.010881  -0.127336
     4  C    0.009043  -0.076342   0.377870   5.139898   0.442338   0.012624
     5  C   -0.001675   0.003713   0.010881   0.442338   5.026291   0.425590
     6  C    0.000927  -0.000510  -0.127336   0.012624   0.425590   5.949775
     7  C   -0.000008   0.000023   0.006391  -0.006626  -0.025329   0.088810
     8  O   -0.000000  -0.000000   0.001173  -0.001804   0.008203  -0.187013
     9  C   -0.002718   0.008027   0.109344  -0.138652  -0.008695   0.001316
    10  C    0.008308  -0.076061   0.143417   0.048311  -0.072444   0.050750
    11  Br  -0.016702   0.003532  -0.097198   0.015864  -0.003618   0.015836
    12  H    0.419073  -0.037081  -0.008837   0.000741  -0.000095   0.000137
    13  H    0.419079  -0.037062  -0.008854   0.000733  -0.000094   0.000136
    14  H    0.397565  -0.031744   0.004551  -0.000996   0.000169  -0.000084
    15  H    0.000106   0.010072  -0.046949   0.409514  -0.026475   0.006586
    16  H    0.000013  -0.000126   0.005396  -0.023836   0.397304  -0.040194
    17  H   -0.000000   0.000001   0.000839  -0.003026  -0.000376  -0.202039
    18  H   -0.000050  -0.000056   0.010788  -0.002858   0.008481  -0.054822
               7          8          9         10         11         12
     1  C   -0.000008  -0.000000  -0.002718   0.008308  -0.016702   0.419073
     2  O    0.000023  -0.000000   0.008027  -0.076061   0.003532  -0.037081
     3  C    0.006391   0.001173   0.109344   0.143417  -0.097198  -0.008837
     4  C   -0.006626  -0.001804  -0.138652   0.048311   0.015864   0.000741
     5  C   -0.025329   0.008203  -0.008695  -0.072444  -0.003618  -0.000095
     6  C    0.088810  -0.187013   0.001316   0.050750   0.015836   0.000137
     7  C    4.708550   0.633812   0.010506   0.002110  -0.000090  -0.000000
     8  O    0.633812   7.860671   0.038071   0.004083   0.000018  -0.000000
     9  C    0.010506   0.038071   5.577096   0.241413  -0.092830  -0.000955
    10  C    0.002110   0.004083   0.241413   5.324823   0.350141   0.007745
    11  Br  -0.000090   0.000018  -0.092830   0.350141  34.947832  -0.012394
    12  H   -0.000000  -0.000000  -0.000955   0.007745  -0.012394   0.532157
    13  H   -0.000000  -0.000000  -0.000953   0.007745  -0.012393  -0.048344
    14  H   -0.000000  -0.000000   0.000397  -0.003062   0.004091  -0.020638
    15  H   -0.000122  -0.000001  -0.004079   0.011531  -0.000354   0.000131
    16  H   -0.001996  -0.000001   0.015842  -0.003751   0.000030  -0.000001
    17  H    0.488241  -0.055473   0.041550  -0.000951   0.000028  -0.000000
    18  H   -0.000331   0.021957   0.407828  -0.032582  -0.007692  -0.000004
              13         14         15         16         17         18
     1  C    0.419079   0.397565   0.000106   0.000013  -0.000000  -0.000050
     2  O   -0.037062  -0.031744   0.010072  -0.000126   0.000001  -0.000056
     3  C   -0.008854   0.004551  -0.046949   0.005396   0.000839   0.010788
     4  C    0.000733  -0.000996   0.409514  -0.023836  -0.003026  -0.002858
     5  C   -0.000094   0.000169  -0.026475   0.397304  -0.000376   0.008481
     6  C    0.000136  -0.000084   0.006586  -0.040194  -0.202039  -0.054822
     7  C   -0.000000  -0.000000  -0.000122  -0.001996   0.488241  -0.000331
     8  O   -0.000000  -0.000000  -0.000001  -0.000001  -0.055473   0.021957
     9  C   -0.000953   0.000397  -0.004079   0.015842   0.041550   0.407828
    10  C    0.007745  -0.003062   0.011531  -0.003751  -0.000951  -0.032582
    11  Br  -0.012393   0.004091  -0.000354   0.000030   0.000028  -0.007692
    12  H   -0.048344  -0.020638   0.000131  -0.000001  -0.000000  -0.000004
    13  H    0.532172  -0.020647   0.000131  -0.000001  -0.000000  -0.000004
    14  H   -0.020647   0.506198  -0.000360   0.000000  -0.000000   0.000001
    15  H    0.000131  -0.000360   0.469816  -0.004355  -0.000045   0.000040
    16  H   -0.000001   0.000000  -0.004355   0.475204   0.005683  -0.000038
    17  H   -0.000000  -0.000000  -0.000045   0.005683   0.615562   0.002097
    18  H   -0.000004   0.000001   0.000040  -0.000038   0.002097   0.448939
 Mulliken charges:
               1
     1  C   -0.306645
     2  O   -0.271288
     3  C    0.284018
     4  C   -0.202797
     5  C   -0.184170
     6  C    0.059512
     7  C    0.096061
     8  O   -0.323694
     9  C   -0.202509
    10  C   -0.011525
    11  Br  -0.094100
    12  H    0.168366
    13  H    0.168355
    14  H    0.164558
    15  H    0.174815
    16  H    0.174829
    17  H    0.107910
    18  H    0.198306
 Sum of Mulliken charges =  -0.00000
 Mulliken charges with hydrogens summed into heavy atoms:
               1
     1  C    0.194633
     2  O   -0.271288
     3  C    0.284018
     4  C   -0.027983
     5  C   -0.009341
     6  C    0.059512
     7  C    0.203970
     8  O   -0.323694
     9  C   -0.004203
    10  C   -0.011525
    11  Br  -0.094100
 Electronic spatial extent (au):  <R**2>=           2648.0911
 Charge=             -0.0000 electrons
 Dipole moment (field-independent basis, Debye):
    X=             -2.5931    Y=              3.6556    Z=              0.0001  Tot=              4.4819
 Quadrupole moment (field-independent basis, Debye-Ang):
   XX=            -74.7611   YY=            -76.6029   ZZ=            -78.4179
   XY=             10.3104   XZ=             -0.0047   YZ=              0.0018
 Traceless Quadrupole moment (field-independent basis, Debye-Ang):
   XX=              1.8329   YY=             -0.0089   ZZ=             -1.8240
   XY=             10.3104   XZ=             -0.0047   YZ=              0.0018
 Octapole moment (field-independent basis, Debye-Ang**2):
  XXX=           -105.8807  YYY=            -28.0216  ZZZ=              0.0033  XYY=            -25.3566
  XXY=             44.4183  XXZ=             -0.0072  XZZ=            -18.4342  YZZ=            -16.5318
  YYZ=             -0.0016  XYZ=             -0.0005
 Hexadecapole moment (field-independent basis, Debye-Ang**3):
 XXXX=          -2201.5189 YYYY=           -929.8367 ZZZZ=            -92.9474 XXXY=            201.0136
 XXXZ=             -0.0780 YYYX=             90.1101 YYYZ=              0.0457 ZZZX=             -0.0228
 ZZZY=              0.0536 XXYY=           -542.4482 XXZZ=           -379.2532 YYZZ=           -187.3331
 XXYZ=              0.0453 YYXZ=             -0.0287 ZZXY=              7.2804
 N-N= 8.370371075154D+02 E-N=-8.898145076628D+03  KE= 3.027977722478D+03
 Calculating spin-rotation constants.
 Leave Link  601 at Tue Sep 17 10:43:40 2024, MaxMem=  1342177280 cpu:               4.5 elap:               4.5
 (Enter /groups/ReismanLab/Software/Gaussian16_RevC/Linux_Binary_AVX2-enabled-CPU/g16/l9999.exe)
 Unable to Open any file for archive entry.
 1\1\GINC-HPC-82-20\SP\RM062X\def2TZVP\C8H7Br1O2\MANTIND\17-Sep-2024\0\
 \#p M062X/def2tzvp geom=check guess=read scf(xqc,tight) integral(grid=
 ultrafine) scrf(SMD, solvent=1,4-Dioxane) nmr=giao\\spe\\0,1\C,0,-2.54
 6533614,1.9586550713,0.0002063398\O,0,-1.1659623911,2.3274932864,-0.00
 04885785\C,0,-0.1240464371,1.467562661,-0.0003303652\C,0,1.1190139653,
 2.1352020288,-0.0004500779\C,0,2.3162671131,1.446795548,-0.0003150158\
 C,0,2.3188153406,0.0455947339,-0.0000353351\C,0,3.5837083259,-0.710066
 1165,0.0001293147\O,0,3.6665504204,-1.924455272,0.0004118622\C,0,1.098
 0257627,-0.6325369849,0.0000712626\C,0,-0.1107106313,0.0546085416,-0.0
 000879603\Br,0,-1.6805496782,-1.0521413772,-0.0000428121\H,0,-2.810127
 6741,1.3858708527,0.8913131922\H,0,-2.8109527354,1.3855651795,-0.89045
 41273\H,0,-3.0807525662,2.9097357953,0.0002911825\H,0,1.0867963369,3.2
 188554356,-0.0006418003\H,0,3.2567474897,1.990798396,-0.0004069615\H,0
 ,4.4972567742,-0.0749171561,0.000055597\H,0,1.1060979705,-1.7162908956
 ,0.0002610548\\Version=ES64L-G16RevC.02\State=1-A\HF=-3033.6738232\RMS
 D=1.545e-09\Dipole=-0.7765421,1.5831047,0.0000232\Quadrupole=3.7525158
 ,-2.3964529,-1.3560629,7.0552553,-0.0032711,0.0018593\PG=C01 [X(C8H7Br
 1O2)]\\@
 The archive entry for this job was punched.


 LOGIC IS A SYSTEMATIC METHOD OF COMING TO THE
 WRONG CONCLUSION WITH CONFIDENCE.
 Job cpu time:       0 days  0 hours 14 minutes 26.3 seconds.
 Elapsed time:       0 days  0 hours 14 minutes 33.1 seconds.
 File lengths (MBytes):  RWF=    256 Int=      0 D2E=      0 Chk=     24 Scr=     16
 Normal termination of Gaussian 16 at Tue Sep 17 10:43:40 2024.
