 Entering Gaussian System, Link 0=g16
 Input=smiles_00087_conf_0.gjf
 Output=smiles_00087_conf_0.log
 Initial command:
 /groups/ReismanLab/Software/Gaussian16_RevC/Linux_Binary_AVX2-enabled-CPU/g16/l1.exe "/central/groups/ReismanLab/DM/dft_final/smiles_00087/Gau-3229306.inp" -scrdir="/central/groups/ReismanLab/DM/dft_final/smiles_00087/"
 Entering Link 1 = /groups/ReismanLab/Software/Gaussian16_RevC/Linux_Binary_AVX2-enabled-CPU/g16/l1.exe PID=   3229317.
  
 Copyright (c) 1988-2021, Gaussian, Inc.  All Rights Reserved.
  
 This is part of the Gaussian(R) 16 program.  It is based on
 the Gaussian(R) 09 system (copyright 2009, Gaussian, Inc.),
 the Gaussian(R) 03 system (copyright 2003, Gaussian, Inc.),
 the Gaussian(R) 98 system (copyright 1998, Gaussian, Inc.),
 the Gaussian(R) 94 system (copyright 1995, Gaussian, Inc.),
 the Gaussian 92(TM) system (copyright 1992, Gaussian, Inc.),
 the Gaussian 90(TM) system (copyright 1990, Gaussian, Inc.),
 the Gaussian 88(TM) system (copyright 1988, Gaussian, Inc.),
 the Gaussian 86(TM) system (copyright 1986, Carnegie Mellon
 University), and the Gaussian 82(TM) system (copyright 1983,
 Carnegie Mellon University). Gaussian is a federally registered
 trademark of Gaussian, Inc.
  
 This software contains proprietary and confidential information,
 including trade secrets, belonging to Gaussian, Inc.
  
 This software is provided under written license and may be
 used, copied, transmitted, or stored only in accord with that
 written license.
  
 The following legend is applicable only to US Government
 contracts under FAR:
  
                    RESTRICTED RIGHTS LEGEND
  
 Use, reproduction and disclosure by the US Government is
 subject to restrictions as set forth in subparagraphs (a)
 and (c) of the Commercial Computer Software - Restricted
 Rights clause in FAR 52.227-19.
  
 Gaussian, Inc.
 340 Quinnipiac St., Bldg. 40, Wallingford CT 06492
  
  
 ---------------------------------------------------------------
 Warning -- This program may not be used in any manner that
 competes with the business of Gaussian, Inc. or will provide
 assistance to any competitor of Gaussian, Inc.  The licensee
 of this program is prohibited from giving any competitor of
 Gaussian, Inc. access to this program.  By using this program,
 the user acknowledges that Gaussian, Inc. is engaged in the
 business of creating and licensing software in the field of
 computational chemistry and represents and warrants to the
 licensee that it is not a competitor of Gaussian, Inc. and that
 it will not use this program in any manner prohibited above.
 ---------------------------------------------------------------
  

 Cite this work as:
 Gaussian 16, Revision C.02,
 M. J. Frisch, G. W. Trucks, H. B. Schlegel, G. E. Scuseria, 
 M. A. Robb, J. R. Cheeseman, G. Scalmani, V. Barone, 
 G. A. Petersson, H. Nakatsuji, X. Li, M. Caricato, A. V. Marenich, 
 J. Bloino, B. G. Janesko, R. Gomperts, B. Mennucci, H. P. Hratchian, 
 J. V. Ortiz, A. F. Izmaylov, J. L. Sonnenberg, D. Williams-Young, 
 F. Ding, F. Lipparini, F. Egidi, J. Goings, B. Peng, A. Petrone, 
 T. Henderson, D. Ranasinghe, V. G. Zakrzewski, J. Gao, N. Rega, 
 G. Zheng, W. Liang, M. Hada, M. Ehara, K. Toyota, R. Fukuda, 
 J. Hasegawa, M. Ishida, T. Nakajima, Y. Honda, O. Kitao, H. Nakai, 
 T. Vreven, K. Throssell, J. A. Montgomery, Jr., J. E. Peralta, 
 F. Ogliaro, M. J. Bearpark, J. J. Heyd, E. N. Brothers, K. N. Kudin, 
 V. N. Staroverov, T. A. Keith, R. Kobayashi, J. Normand, 
 K. Raghavachari, A. P. Rendell, J. C. Burant, S. S. Iyengar, 
 J. Tomasi, M. Cossi, J. M. Millam, M. Klene, C. Adamo, R. Cammi, 
 J. W. Ochterski, R. L. Martin, K. Morokuma, O. Farkas, 
 J. B. Foresman, and D. J. Fox, Gaussian, Inc., Wallingford CT, 2019.
 
 ******************************************
 Gaussian 16:  ES64L-G16RevC.02  7-Dec-2021
                17-Sep-2024 
 ******************************************
 %nprocshared=8
 Will use up to    8 processors via shared memory.
 %Mem=10GB
 %Chk=smiles_00087_conf_0.chk
 ----------------------------------------------------------------------
 #p B3LYP/6-31G(d,p) EmpiricalDispersion=GD3BJ opt freq scf(xqc,tight) 
 integral(grid=ultrafine)
 ----------------------------------------------------------------------
 1/18=20,19=15,26=4,38=1/1,3;
 2/9=110,12=2,17=6,18=5,40=1/2;
 3/5=1,6=6,7=101,11=2,25=1,30=1,71=1,74=-5,75=-5,124=41/1,2,3;
 4//1;
 5/5=2,8=3,13=1,32=2,38=5/2,8;
 6/7=2,8=2,9=2,10=2,28=1/1;
 7//1,2,3,16;
 1/18=20,19=15,26=4/3(2);
 2/9=110/2;
 99//99;
 2/9=110/2;
 3/5=1,6=6,7=101,11=2,25=1,30=1,71=1,74=-5,75=-5,124=41/1,2,3;
 4/5=5,16=3,69=1/1;
 5/5=2,8=3,13=1,32=2,38=5/2,8;
 7//1,2,3,16;
 1/18=20,19=15,26=4/3(-5);
 2/9=110/2;
 6/7=2,8=2,9=2,10=2,19=2,28=1/1;
 99/9=1/99;
 Leave Link    1 at Tue Sep 17 09:43:34 2024, MaxMem=  1342177280 cpu:               0.0 elap:               0.6
 (Enter /groups/ReismanLab/Software/Gaussian16_RevC/Linux_Binary_AVX2-enabled-CPU/g16/l101.exe)
 ----------------------------------
 opt-freq conformers_unique/conf_aa
 ----------------------------------
 Symbolic Z-matrix:
 Charge =  0 Multiplicity = 1
 O                    -2.56343  -2.23022   0.27971 
 C                    -2.21855  -1.06486   0.19421 
 C                    -0.77265  -0.67635   0.12814 
 C                    -0.20717   0.18549   1.06113 
 C                     1.14415   0.47628   1.01666 
 C                     1.92523  -0.09809   0.02812 
 Br                    3.7838    0.31648  -0.04855 
 C                     1.38472  -0.97056  -0.90103 
 C                     0.03513  -1.26448  -0.83873 
 N                    -3.10852  -0.05416   0.16851 
 C                    -4.53519  -0.34875   0.17863 
 C                    -5.20703   1.00498  -0.03455 
 C                    -4.15326   1.79243  -0.81156 
 C                    -2.85439   1.33668  -0.14892 
 H                    -0.81823   0.61706   1.83934 
 H                     1.58778   1.14032   1.74262 
 H                     2.01146  -1.41843  -1.65675 
 H                    -0.40208  -1.95693  -1.54179 
 H                    -4.76296  -1.05378  -0.62791 
 H                    -4.81142  -0.82372   1.12286 
 H                    -6.14775   0.91537  -0.57268 
 H                    -5.39889   1.48716   0.92457 
 H                    -4.16063   1.4957   -1.86086 
 H                    -4.29485   2.86907  -0.74945 
 H                    -1.98237   1.43964  -0.79733 
 H                    -2.67783   1.91171   0.76873 
 
 ITRead=  0  0  0  0  0  0  0  0  0  0  0  0  0  0  0  0  0  0  0  0
 ITRead=  0  0  0  0  0  0
 MicOpt= -1 -1 -1 -1 -1 -1 -1 -1 -1 -1 -1 -1 -1 -1 -1 -1 -1 -1 -1 -1
 MicOpt= -1 -1 -1 -1 -1 -1
 NAtoms=     26 NQM=       26 NQMF=       0 NMMI=      0 NMMIF=      0
                NMic=       0 NMicF=      0.
                    Isotopes and Nuclear Properties:
 (Nuclear quadrupole moments (NQMom) in fm**2, nuclear magnetic moments (NMagM)
  in nuclear magnetons)

  Atom         1           2           3           4           5           6           7           8           9          10
 IAtWgt=          16          12          12          12          12          12          79          12          12          14
 AtmWgt=  15.9949146  12.0000000  12.0000000  12.0000000  12.0000000  12.0000000  78.9183361  12.0000000  12.0000000  14.0030740
 NucSpn=           0           0           0           0           0           0           3           0           0           2
 AtZEff=  -0.0000000  -0.0000000  -0.0000000  -0.0000000  -0.0000000  -0.0000000  -0.0000000  -0.0000000  -0.0000000  -0.0000000
 NQMom=    0.0000000   0.0000000   0.0000000   0.0000000   0.0000000   0.0000000  31.3000000   0.0000000   0.0000000   2.0440000
 NMagM=    0.0000000   0.0000000   0.0000000   0.0000000   0.0000000   0.0000000   2.1063990   0.0000000   0.0000000   0.4037610
 AtZNuc=   8.0000000   6.0000000   6.0000000   6.0000000   6.0000000   6.0000000  35.0000000   6.0000000   6.0000000   7.0000000

  Atom        11          12          13          14          15          16          17          18          19          20
 IAtWgt=          12          12          12          12           1           1           1           1           1           1
 AtmWgt=  12.0000000  12.0000000  12.0000000  12.0000000   1.0078250   1.0078250   1.0078250   1.0078250   1.0078250   1.0078250
 NucSpn=           0           0           0           0           1           1           1           1           1           1
 AtZEff=  -0.0000000  -0.0000000  -0.0000000  -0.0000000  -0.0000000  -0.0000000  -0.0000000  -0.0000000  -0.0000000  -0.0000000
 NQMom=    0.0000000   0.0000000   0.0000000   0.0000000   0.0000000   0.0000000   0.0000000   0.0000000   0.0000000   0.0000000
 NMagM=    0.0000000   0.0000000   0.0000000   0.0000000   2.7928460   2.7928460   2.7928460   2.7928460   2.7928460   2.7928460
 AtZNuc=   6.0000000   6.0000000   6.0000000   6.0000000   1.0000000   1.0000000   1.0000000   1.0000000   1.0000000   1.0000000

  Atom        21          22          23          24          25          26
 IAtWgt=           1           1           1           1           1           1
 AtmWgt=   1.0078250   1.0078250   1.0078250   1.0078250   1.0078250   1.0078250
 NucSpn=           1           1           1           1           1           1
 AtZEff=  -0.0000000  -0.0000000  -0.0000000  -0.0000000  -0.0000000  -0.0000000
 NQMom=    0.0000000   0.0000000   0.0000000   0.0000000   0.0000000   0.0000000
 NMagM=    2.7928460   2.7928460   2.7928460   2.7928460   2.7928460   2.7928460
 AtZNuc=   1.0000000   1.0000000   1.0000000   1.0000000   1.0000000   1.0000000
 Leave Link  101 at Tue Sep 17 09:43:34 2024, MaxMem=  1342177280 cpu:               0.2 elap:               0.2
 (Enter /groups/ReismanLab/Software/Gaussian16_RevC/Linux_Binary_AVX2-enabled-CPU/g16/l103.exe)

 GradGradGradGradGradGradGradGradGradGradGradGradGradGradGradGradGradGrad
 Berny optimization.
 Initialization pass.
                           ----------------------------
                           !    Initial Parameters    !
                           ! (Angstroms and Degrees)  !
 --------------------------                            --------------------------
 ! Name  Definition              Value          Derivative Info.                !
 --------------------------------------------------------------------------------
 ! R1    R(1,2)                  1.2183         estimate D2E/DX2                !
 ! R2    R(2,3)                  1.4986         estimate D2E/DX2                !
 ! R3    R(2,10)                 1.3469         estimate D2E/DX2                !
 ! R4    R(3,4)                  1.3903         estimate D2E/DX2                !
 ! R5    R(3,9)                  1.3904         estimate D2E/DX2                !
 ! R6    R(4,5)                  1.383          estimate D2E/DX2                !
 ! R7    R(4,15)                 1.0795         estimate D2E/DX2                !
 ! R8    R(5,6)                  1.3846         estimate D2E/DX2                !
 ! R9    R(5,16)                 1.0792         estimate D2E/DX2                !
 ! R10   R(6,7)                  1.9058         estimate D2E/DX2                !
 ! R11   R(6,8)                  1.3844         estimate D2E/DX2                !
 ! R12   R(8,9)                  1.3826         estimate D2E/DX2                !
 ! R13   R(8,17)                 1.0791         estimate D2E/DX2                !
 ! R14   R(9,18)                 1.0793         estimate D2E/DX2                !
 ! R15   R(10,11)                1.4568         estimate D2E/DX2                !
 ! R16   R(10,14)                1.4491         estimate D2E/DX2                !
 ! R17   R(11,12)                1.5262         estimate D2E/DX2                !
 ! R18   R(11,19)                1.0952         estimate D2E/DX2                !
 ! R19   R(11,20)                1.0925         estimate D2E/DX2                !
 ! R20   R(12,13)                1.5278         estimate D2E/DX2                !
 ! R21   R(12,21)                1.0875         estimate D2E/DX2                !
 ! R22   R(12,22)                1.0905         estimate D2E/DX2                !
 ! R23   R(13,14)                1.5277         estimate D2E/DX2                !
 ! R24   R(13,23)                1.0905         estimate D2E/DX2                !
 ! R25   R(13,24)                1.0877         estimate D2E/DX2                !
 ! R26   R(14,25)                1.0915         estimate D2E/DX2                !
 ! R27   R(14,26)                1.0972         estimate D2E/DX2                !
 ! A1    A(1,2,3)              121.6133         estimate D2E/DX2                !
 ! A2    A(1,2,10)             122.144          estimate D2E/DX2                !
 ! A3    A(3,2,10)             116.2388         estimate D2E/DX2                !
 ! A4    A(2,3,4)              121.5687         estimate D2E/DX2                !
 ! A5    A(2,3,9)              118.7846         estimate D2E/DX2                !
 ! A6    A(4,3,9)              119.509          estimate D2E/DX2                !
 ! A7    A(3,4,5)              120.4095         estimate D2E/DX2                !
 ! A8    A(3,4,15)             120.0912         estimate D2E/DX2                !
 ! A9    A(5,4,15)             119.4873         estimate D2E/DX2                !
 ! A10   A(4,5,6)              119.1389         estimate D2E/DX2                !
 ! A11   A(4,5,16)             120.6235         estimate D2E/DX2                !
 ! A12   A(6,5,16)             120.2375         estimate D2E/DX2                !
 ! A13   A(5,6,7)              119.2498         estimate D2E/DX2                !
 ! A14   A(5,6,8)              121.3546         estimate D2E/DX2                !
 ! A15   A(7,6,8)              119.3951         estimate D2E/DX2                !
 ! A16   A(6,8,9)              118.9999         estimate D2E/DX2                !
 ! A17   A(6,8,17)             120.3186         estimate D2E/DX2                !
 ! A18   A(9,8,17)             120.6799         estimate D2E/DX2                !
 ! A19   A(3,9,8)              120.5639         estimate D2E/DX2                !
 ! A20   A(3,9,18)             119.2753         estimate D2E/DX2                !
 ! A21   A(8,9,18)             120.1607         estimate D2E/DX2                !
 ! A22   A(2,10,11)            119.683          estimate D2E/DX2                !
 ! A23   A(2,10,14)            127.4833         estimate D2E/DX2                !
 ! A24   A(11,10,14)           111.5528         estimate D2E/DX2                !
 ! A25   A(10,11,12)           104.5222         estimate D2E/DX2                !
 ! A26   A(10,11,19)           109.1917         estimate D2E/DX2                !
 ! A27   A(10,11,20)           109.971          estimate D2E/DX2                !
 ! A28   A(12,11,19)           112.1215         estimate D2E/DX2                !
 ! A29   A(12,11,20)           113.2695         estimate D2E/DX2                !
 ! A30   A(19,11,20)           107.7007         estimate D2E/DX2                !
 ! A31   A(11,12,13)           102.9781         estimate D2E/DX2                !
 ! A32   A(11,12,21)           112.1367         estimate D2E/DX2                !
 ! A33   A(11,12,22)           110.2902         estimate D2E/DX2                !
 ! A34   A(13,12,21)           112.7968         estimate D2E/DX2                !
 ! A35   A(13,12,22)           109.9226         estimate D2E/DX2                !
 ! A36   A(21,12,22)           108.6306         estimate D2E/DX2                !
 ! A37   A(12,13,14)           102.2431         estimate D2E/DX2                !
 ! A38   A(12,13,23)           110.1488         estimate D2E/DX2                !
 ! A39   A(12,13,24)           113.0385         estimate D2E/DX2                !
 ! A40   A(14,13,23)           109.9952         estimate D2E/DX2                !
 ! A41   A(14,13,24)           112.4084         estimate D2E/DX2                !
 ! A42   A(23,13,24)           108.8692         estimate D2E/DX2                !
 ! A43   A(10,14,13)           103.4296         estimate D2E/DX2                !
 ! A44   A(10,14,25)           111.1468         estimate D2E/DX2                !
 ! A45   A(10,14,26)           110.3668         estimate D2E/DX2                !
 ! A46   A(13,14,25)           113.1681         estimate D2E/DX2                !
 ! A47   A(13,14,26)           110.0739         estimate D2E/DX2                !
 ! A48   A(25,14,26)           108.5919         estimate D2E/DX2                !
 ! D1    D(1,2,3,4)           -122.1919         estimate D2E/DX2                !
 ! D2    D(1,2,3,9)             53.5203         estimate D2E/DX2                !
 ! D3    D(10,2,3,4)            57.104          estimate D2E/DX2                !
 ! D4    D(10,2,3,9)          -127.1838         estimate D2E/DX2                !
 ! D5    D(1,2,10,11)           -2.9843         estimate D2E/DX2                !
 ! D6    D(1,2,10,14)         -168.9085         estimate D2E/DX2                !
 ! D7    D(3,2,10,11)          177.7239         estimate D2E/DX2                !
 ! D8    D(3,2,10,14)           11.7997         estimate D2E/DX2                !
 ! D9    D(2,3,4,5)            176.8054         estimate D2E/DX2                !
 ! D10   D(2,3,4,15)            -1.929          estimate D2E/DX2                !
 ! D11   D(9,3,4,5)              1.1236         estimate D2E/DX2                !
 ! D12   D(9,3,4,15)          -177.6108         estimate D2E/DX2                !
 ! D13   D(2,3,9,8)           -177.5838         estimate D2E/DX2                !
 ! D14   D(2,3,9,18)             2.2889         estimate D2E/DX2                !
 ! D15   D(4,3,9,8)             -1.7814         estimate D2E/DX2                !
 ! D16   D(4,3,9,18)           178.0913         estimate D2E/DX2                !
 ! D17   D(3,4,5,6)              0.2372         estimate D2E/DX2                !
 ! D18   D(3,4,5,16)          -179.6444         estimate D2E/DX2                !
 ! D19   D(15,4,5,6)           178.9791         estimate D2E/DX2                !
 ! D20   D(15,4,5,16)           -0.9025         estimate D2E/DX2                !
 ! D21   D(4,5,6,7)            179.2874         estimate D2E/DX2                !
 ! D22   D(4,5,6,8)             -0.9795         estimate D2E/DX2                !
 ! D23   D(16,5,6,7)            -0.8305         estimate D2E/DX2                !
 ! D24   D(16,5,6,8)           178.9026         estimate D2E/DX2                !
 ! D25   D(5,6,8,9)              0.3355         estimate D2E/DX2                !
 ! D26   D(5,6,8,17)          -179.2182         estimate D2E/DX2                !
 ! D27   D(7,6,8,9)           -179.9318         estimate D2E/DX2                !
 ! D28   D(7,6,8,17)             0.5145         estimate D2E/DX2                !
 ! D29   D(6,8,9,3)              1.0565         estimate D2E/DX2                !
 ! D30   D(6,8,9,18)          -178.8151         estimate D2E/DX2                !
 ! D31   D(17,8,9,3)          -179.3915         estimate D2E/DX2                !
 ! D32   D(17,8,9,18)            0.7369         estimate D2E/DX2                !
 ! D33   D(2,10,11,12)        -173.0848         estimate D2E/DX2                !
 ! D34   D(2,10,11,19)         -52.9489         estimate D2E/DX2                !
 ! D35   D(2,10,11,20)          65.0221         estimate D2E/DX2                !
 ! D36   D(14,10,11,12)         -5.0606         estimate D2E/DX2                !
 ! D37   D(14,10,11,19)        115.0753         estimate D2E/DX2                !
 ! D38   D(14,10,11,20)       -126.9537         estimate D2E/DX2                !
 ! D39   D(2,10,14,13)         147.7232         estimate D2E/DX2                !
 ! D40   D(2,10,14,25)          25.9838         estimate D2E/DX2                !
 ! D41   D(2,10,14,26)         -94.5628         estimate D2E/DX2                !
 ! D42   D(11,10,14,13)        -19.146          estimate D2E/DX2                !
 ! D43   D(11,10,14,25)       -140.8854         estimate D2E/DX2                !
 ! D44   D(11,10,14,26)         98.568          estimate D2E/DX2                !
 ! D45   D(10,11,12,13)         27.1308         estimate D2E/DX2                !
 ! D46   D(10,11,12,21)        148.6657         estimate D2E/DX2                !
 ! D47   D(10,11,12,22)        -90.1289         estimate D2E/DX2                !
 ! D48   D(19,11,12,13)        -91.0241         estimate D2E/DX2                !
 ! D49   D(19,11,12,21)         30.5108         estimate D2E/DX2                !
 ! D50   D(19,11,12,22)        151.7162         estimate D2E/DX2                !
 ! D51   D(20,11,12,13)        146.8302         estimate D2E/DX2                !
 ! D52   D(20,11,12,21)        -91.6349         estimate D2E/DX2                !
 ! D53   D(20,11,12,22)         29.5705         estimate D2E/DX2                !
 ! D54   D(11,12,13,14)        -38.3257         estimate D2E/DX2                !
 ! D55   D(11,12,13,23)         78.5674         estimate D2E/DX2                !
 ! D56   D(11,12,13,24)       -159.4012         estimate D2E/DX2                !
 ! D57   D(21,12,13,14)       -159.4118         estimate D2E/DX2                !
 ! D58   D(21,12,13,23)        -42.5187         estimate D2E/DX2                !
 ! D59   D(21,12,13,24)         79.5127         estimate D2E/DX2                !
 ! D60   D(22,12,13,14)         79.1937         estimate D2E/DX2                !
 ! D61   D(22,12,13,23)       -163.9132         estimate D2E/DX2                !
 ! D62   D(22,12,13,24)        -41.8817         estimate D2E/DX2                !
 ! D63   D(12,13,14,10)         35.243          estimate D2E/DX2                !
 ! D64   D(12,13,14,25)        155.6155         estimate D2E/DX2                !
 ! D65   D(12,13,14,26)        -82.6754         estimate D2E/DX2                !
 ! D66   D(23,13,14,10)        -81.7605         estimate D2E/DX2                !
 ! D67   D(23,13,14,25)         38.6121         estimate D2E/DX2                !
 ! D68   D(23,13,14,26)        160.3211         estimate D2E/DX2                !
 ! D69   D(24,13,14,10)        156.7526         estimate D2E/DX2                !
 ! D70   D(24,13,14,25)        -82.8749         estimate D2E/DX2                !
 ! D71   D(24,13,14,26)         38.8342         estimate D2E/DX2                !
 --------------------------------------------------------------------------------
 Trust Radius=3.00D-01 FncErr=1.00D-07 GrdErr=1.00D-06 EigMax=2.50D+02 EigMin=1.00D-04
 Number of steps in this run=    156 maximum allowed number of steps=    156.
 GradGradGradGradGradGradGradGradGradGradGradGradGradGradGradGradGradGrad

 Leave Link  103 at Tue Sep 17 09:43:34 2024, MaxMem=  1342177280 cpu:               0.0 elap:               0.0
 (Enter /groups/ReismanLab/Software/Gaussian16_RevC/Linux_Binary_AVX2-enabled-CPU/g16/l202.exe)
                          Input orientation:                          
 ---------------------------------------------------------------------
 Center     Atomic      Atomic             Coordinates (Angstroms)
 Number     Number       Type             X           Y           Z
 ---------------------------------------------------------------------
      1          8           0       -2.563432   -2.230225    0.279708
      2          6           0       -2.218549   -1.064863    0.194210
      3          6           0       -0.772646   -0.676347    0.128135
      4          6           0       -0.207173    0.185494    1.061126
      5          6           0        1.144151    0.476284    1.016662
      6          6           0        1.925230   -0.098085    0.028119
      7         35           0        3.783803    0.316478   -0.048551
      8          6           0        1.384720   -0.970560   -0.901034
      9          6           0        0.035128   -1.264478   -0.838726
     10          7           0       -3.108517   -0.054163    0.168511
     11          6           0       -4.535191   -0.348753    0.178634
     12          6           0       -5.207028    1.004983   -0.034552
     13          6           0       -4.153256    1.792431   -0.811556
     14          6           0       -2.854392    1.336684   -0.148920
     15          1           0       -0.818229    0.617060    1.839342
     16          1           0        1.587781    1.140323    1.742621
     17          1           0        2.011463   -1.418433   -1.656753
     18          1           0       -0.402085   -1.956926   -1.541794
     19          1           0       -4.762961   -1.053778   -0.627905
     20          1           0       -4.811419   -0.823722    1.122863
     21          1           0       -6.147748    0.915365   -0.572676
     22          1           0       -5.398889    1.487159    0.924568
     23          1           0       -4.160626    1.495701   -1.860864
     24          1           0       -4.294846    2.869072   -0.749453
     25          1           0       -1.982367    1.439635   -0.797334
     26          1           0       -2.677827    1.911709    0.768727
 ---------------------------------------------------------------------
                    Distance matrix (angstroms):
                    1          2          3          4          5
     1  O    0.000000
     2  C    1.218328   0.000000
     3  C    2.375800   1.498648   0.000000
     4  C    3.463851   2.522016   1.390324   0.000000
     5  C    4.649136   3.789369   2.406689   1.382973   0.000000
     6  C    4.975681   4.258303   2.760964   2.386349   1.384630
     7  Br   6.846958   6.164030   4.666706   4.144446   2.850961
     8  C    4.309155   3.767228   2.408314   2.778606   2.414288
     9  C    2.989327   2.487140   1.390401   2.402200   2.775365
    10  N    2.246047   1.346929   2.417651   3.044995   4.368744
    11  C    2.727266   2.424847   3.777117   4.449264   5.799819
    12  C    4.189740   3.642471   4.745217   5.183688   6.459261
    13  C    4.460959   3.594271   4.290270   4.654112   5.756488
    14  C    3.604333   2.507880   2.909076   3.130051   4.252907
    15  H    3.685814   2.737923   2.145509   1.079472   2.132500
    16  H    5.543761   4.663536   3.387989   2.144294   1.079246
    17  H    5.033741   4.630775   3.389363   3.857693   3.389592
    18  H    2.839715   2.666276   2.136787   3.376854   3.854485
    19  H    2.654377   2.673954   4.078807   5.014362   6.319784
    20  H    2.782554   2.764692   4.162078   4.713959   6.096730
    21  H    4.844441   4.466321   5.649461   6.204229   7.476001
    22  H    4.719598   4.142559   5.168867   5.354147   6.621308
    23  H    4.584277   3.814639   4.489133   5.087677   6.120460
    24  H    5.482681   4.547235   5.074057   5.214293   6.198975
    25  H    3.868530   2.703970   2.607164   2.859731   3.740822
    26  H    4.172271   3.066103   3.276906   3.028110   4.090164
                    6          7          8          9         10
     6  C    0.000000
     7  Br   1.905790   0.000000
     8  C    1.384445   2.852856   0.000000
     9  C    2.384193   4.144437   1.382632   0.000000
    10  N    5.035895   6.905691   4.708810   3.515948   0.000000
    11  C    6.467033   8.348640   6.049601   4.770889   1.456806
    12  C    7.217325   9.017166   6.935756   5.768652   2.359401
    13  C    6.420833   8.109101   6.189613   5.185363   2.337076
    14  C    4.993464   6.716883   4.884580   3.948569   1.449068
    15  H    3.364301   4.983291   3.857873   3.382373   2.913355
    16  H    2.141739   2.951192   3.389096   3.854498   5.095080
    17  H    2.142324   2.955913   1.079124   2.144475   5.604196
    18  H    3.366943   4.991973   2.139197   1.079326   3.724302
    19  H    6.787902   8.675277   6.154309   4.807338   2.090621
    20  H    6.863487   8.749292   6.519959   5.247010   2.098305
    21  H    8.158493   9.963387   7.771912   6.561285   3.275098
    22  H    7.547140   9.308022   7.442483   6.341076   2.862359
    23  H    6.568565   8.233407   6.144475   5.125202   2.761770
    24  H    6.935270   8.501268   6.857348   5.986892   3.285626
    25  H    4.279634   5.922067   4.142110   3.374052   2.105351
    26  H    5.076998   6.705622   5.253558   4.475734   2.100097
                   11         12         13         14         15
    11  C    0.000000
    12  C    1.526242   0.000000
    13  C    2.389775   1.527824   0.000000
    14  C    2.402723   2.378656   1.527692   0.000000
    15  H    4.184083   4.787852   4.419408   2.935474   0.000000
    16  H    6.492625   7.024677   6.317324   4.832120   2.464151
    17  H    6.882698   7.785313   7.001984   5.791440   4.936909
    18  H    4.756959   5.842273   5.353710   4.336101   4.269737
    19  H    1.095192   2.188095   2.916570   3.096187   4.943675
    20  H    1.092459   2.200063   3.319551   3.180369   4.305202
    21  H    2.182385   1.087457   2.191873   3.347130   5.857525
    22  H    2.161704   1.090512   2.158453   2.765770   4.751456
    23  H    2.775223   2.161290   1.090481   2.159232   5.063117
    24  H    3.357605   2.194992   1.087685   2.187181   4.884699
    25  H    3.266153   3.342035   2.199415   1.091543   2.997317
    26  H    2.984577   2.804330   2.165275   1.097226   2.506081
                   16         17         18         19         20
    16  H    0.000000
    17  H    4.275803   0.000000
    18  H    4.933548   2.475561   0.000000
    19  H    7.124985   6.861802   4.546219   0.000000
    20  H    6.722450   7.391324   5.275109   1.766484   0.000000
    21  H    8.077724   8.555382   6.496298   2.407947   2.772193
    22  H    7.042944   8.367736   6.550779   3.044822   2.392617
    23  H    6.793790   6.828508   5.113616   2.895313   3.834825
    24  H    6.618482   7.679546   6.250732   3.952551   4.172427
    25  H    4.391688   4.985764   3.819442   3.738652   4.100424
    26  H    4.442850   6.241975   5.048153   3.884905   3.487150
                   21         22         23         24         25
    21  H    0.000000
    22  H    1.769033   0.000000
    23  H    2.438211   3.048278   0.000000
    24  H    2.698419   2.435352   1.771835   0.000000
    25  H    4.204251   3.826202   2.424675   2.719033   0.000000
    26  H    3.851288   2.758388   3.047376   2.415815   1.777376
                   26
    26  H    0.000000
 Stoichiometry    C11H12BrNO
 Framework group  C1[X(C11H12BrNO)]
 Deg. of freedom    72
 Full point group                 C1      NOp   1
 Largest Abelian subgroup         C1      NOp   1
 Largest concise Abelian subgroup C1      NOp   1
                         Standard orientation:                         
 ---------------------------------------------------------------------
 Center     Atomic      Atomic             Coordinates (Angstroms)
 Number     Number       Type             X           Y           Z
 ---------------------------------------------------------------------
      1          8           0        2.252034    2.276728    0.350570
      2          6           0        1.928809    1.107981    0.232753
      3          6           0        0.490454    0.695042    0.151751
      4          6           0       -0.061577   -0.201756    1.059505
      5          6           0       -1.407219   -0.515876    1.003024
      6          6           0       -2.196089    0.070503    0.027810
      7         35           0       -4.046537   -0.375723   -0.065775
      8          6           0       -1.669222    0.977369   -0.875901
      9          6           0       -0.325416    1.294104   -0.801504
     10          7           0        2.837229    0.114760    0.182728
     11          6           0        4.258228    0.434978    0.205219
     12          6           0        4.955341   -0.900041   -0.042112
     13          6           0        3.918242   -1.685428   -0.843262
     14          6           0        2.609493   -1.271459   -0.172704
     15          1           0        0.555236   -0.642858    1.827769
     16          1           0       -1.840509   -1.207185    1.709511
     17          1           0       -2.302077    1.433879   -1.621288
     18          1           0        0.100877    2.013074   -1.484366
     19          1           0        4.475157    1.165475   -0.581395
     20          1           0        4.523206    0.889354    1.162713
     21          1           0        5.895675   -0.778823   -0.574690
     22          1           0        5.153481   -1.404247    0.904320
     23          1           0        3.922937   -1.360508   -1.884200
     24          1           0        4.079389   -2.760584   -0.809628
     25          1           0        1.741218   -1.372848   -0.826373
     26          1           0        2.441084   -1.874077    0.728626
 ---------------------------------------------------------------------
 Rotational constants (GHZ):           1.5910525           0.1914002           0.1799668
 Leave Link  202 at Tue Sep 17 09:43:34 2024, MaxMem=  1342177280 cpu:               0.0 elap:               0.0
 (Enter /groups/ReismanLab/Software/Gaussian16_RevC/Linux_Binary_AVX2-enabled-CPU/g16/l301.exe)
 Standard basis: 6-31G(d,p) (6D, 7F)
 Ernie: Thresh=  0.10000D-02 Tol=  0.10000D-05 Strict=F.
 There are   285 symmetry adapted cartesian basis functions of A   symmetry.
 There are   285 symmetry adapted basis functions of A   symmetry.
   285 basis functions,   531 primitive gaussians,   285 cartesian basis functions
    64 alpha electrons       64 beta electrons
       nuclear repulsion energy      1124.7528606368 Hartrees.
 IExCor=  402 DFT=T Ex+Corr=B3LYP ExCW=0 ScaHFX=  0.200000
 ScaDFX=  0.800000  0.720000  1.000000  0.810000 ScalE2=  1.000000  1.000000
 IRadAn=      5 IRanWt=     -1 IRanGd=            0 ICorTp=0 IEmpDi=141
 NAtoms=   26 NActive=   26 NUniq=   26 SFac= 1.00D+00 NAtFMM=   60 NAOKFM=F Big=F
 Integral buffers will be    131072 words long.
 Raffenetti 2 integral format.
 Two-electron integral symmetry is turned on.
 R6Disp:  Grimme-D3(BJ) Dispersion energy=       -0.0550048864 Hartrees.
 Nuclear repulsion after empirical dispersion term =     1124.6978557504 Hartrees.
 Leave Link  301 at Tue Sep 17 09:43:34 2024, MaxMem=  1342177280 cpu:               0.1 elap:               0.0
 (Enter /groups/ReismanLab/Software/Gaussian16_RevC/Linux_Binary_AVX2-enabled-CPU/g16/l302.exe)
 NPDir=0 NMtPBC=     1 NCelOv=     1 NCel=       1 NClECP=     1 NCelD=      1
         NCelK=      1 NCelE2=     1 NClLst=     1 CellRange=     0.0.
 One-electron integrals computed using PRISM.
 One-electron integral symmetry used in STVInt
 NBasis=   285 RedAO= T EigKep=  4.09D-04  NBF=   285
 NBsUse=   285 1.00D-06 EigRej= -1.00D+00 NBFU=   285
 Precomputing XC quadrature grid using
 IXCGrd= 4 IRadAn=           5 IRanWt=          -1 IRanGd=           0 AccXCQ= 0.00D+00.
 Generated NRdTot=       0 NPtTot=           0 NUsed=           0 NTot=          32
 NSgBfM=   282   282   282   282   282 MxSgAt=    26 MxSgA2=    26.
 Leave Link  302 at Tue Sep 17 09:43:35 2024, MaxMem=  1342177280 cpu:               1.1 elap:               0.2
 (Enter /groups/ReismanLab/Software/Gaussian16_RevC/Linux_Binary_AVX2-enabled-CPU/g16/l303.exe)
 DipDrv:  MaxL=1.
 Leave Link  303 at Tue Sep 17 09:43:35 2024, MaxMem=  1342177280 cpu:               0.1 elap:               0.0
 (Enter /groups/ReismanLab/Software/Gaussian16_RevC/Linux_Binary_AVX2-enabled-CPU/g16/l401.exe)
 ExpMin= 1.43D-01 ExpMax= 5.74D+05 ExpMxC= 5.74D+03 IAcc=3 IRadAn=         5 AccDes= 0.00D+00
 Harris functional with IExCor=  402 and IRadAn=       5 diagonalized for initial guess.
 HarFok:  IExCor=  402 AccDes= 0.00D+00 IRadAn=         5 IDoV= 1 UseB2=F ITyADJ=14
 ICtDFT=  3500011 ScaDFX=  1.000000  1.000000  1.000000  1.000000
 FoFCou: FMM=F IPFlag=           0 FMFlag=      100000 FMFlg1=           0
         NFxFlg=           0 DoJE=T BraDBF=F KetDBF=T FulRan=T
         wScrn=  0.000000 ICntrl=       500 IOpCl=  0 I1Cent=   200000004 NGrid=           0
         NMat0=    1 NMatS0=      1 NMatT0=    0 NMatD0=    1 NMtDS0=    0 NMtDT0=    0
 Petite list used in FoFCou.
 Harris En= -3128.28418022737    
 JPrj=0 DoOrth=F DoCkMO=F.
 Leave Link  401 at Tue Sep 17 09:43:36 2024, MaxMem=  1342177280 cpu:               8.1 elap:               1.2
 (Enter /groups/ReismanLab/Software/Gaussian16_RevC/Linux_Binary_AVX2-enabled-CPU/g16/l502.exe)
 Integral symmetry usage will be decided dynamically.
 Closed shell SCF:
 Using DIIS extrapolation, IDIIS=  1040.
 NGot=  1342177280 LenX=  1342008885 LenY=  1341927219
 Requested convergence on RMS density matrix=1.00D-08 within  32 cycles.
 Requested convergence on MAX density matrix=1.00D-06.
 Requested convergence on             energy=1.00D-06.
 No special actions if energy rises.
 Fock matrices will be formed incrementally for  20 cycles.
 Integral accuracy reduced to 1.0D-05 until final iterations.

 Cycle   1  Pass 0  IDiag  1:
 FoFJK:  IHMeth= 1 ICntrl=       0 DoSepK=F KAlg= 0 I1Cent=           0 FoldK=F
 IRaf= 820000000 NMat=       1 IRICut=       1 DoRegI=T DoRafI=F ISym2E= 0 IDoP0=0 IntGTp=1.
 FoFCou: FMM=F IPFlag=           0 FMFlag=      100000 FMFlg1=           0
         NFxFlg=           0 DoJE=F BraDBF=F KetDBF=F FulRan=T
         wScrn=  0.000000 ICntrl=         0 IOpCl=  0 I1Cent=           0 NGrid=           0
         NMat0=    1 NMatS0=      1 NMatT0=    0 NMatD0=    1 NMtDS0=    0 NMtDT0=    0
 Symmetry not used in FoFCou.
 E= -3127.83251950918    
 DIIS: error= 1.56D-01 at cycle   1 NSaved=   1.
 NSaved= 1 IEnMin= 1 EnMin= -3127.83251950918     IErMin= 1 ErrMin= 1.56D-01
 ErrMax= 1.56D-01  0.00D+00 EMaxC= 1.00D-01 BMatC= 6.86D-01 BMatP= 6.86D-01
 IDIUse=3 WtCom= 0.00D+00 WtEn= 1.00D+00
 Coeff-Com:  0.100D+01
 Coeff-En:   0.100D+01
 Coeff:      0.100D+01
 Gap=     0.239 Goal=   None    Shift=    0.000
 GapD=    0.239 DampG=1.000 DampE=0.250 DampFc=0.2500 IDamp=-1.
 Damping current iteration by 2.50D-01
 RMSDP=5.23D-03 MaxDP=2.30D-01              OVMax= 3.23D-01

 Cycle   2  Pass 0  IDiag  1:
 RMSU=  1.28D-03    CP:  9.92D-01
 E= -3127.94791305591     Delta-E=       -0.115393546727 Rises=F Damp=T
 DIIS: error= 1.15D-01 at cycle   2 NSaved=   2.
 NSaved= 2 IEnMin= 2 EnMin= -3127.94791305591     IErMin= 2 ErrMin= 1.15D-01
 ErrMax= 1.15D-01  0.00D+00 EMaxC= 1.00D-01 BMatC= 2.69D-01 BMatP= 6.86D-01
 IDIUse=3 WtCom= 0.00D+00 WtEn= 1.00D+00
 Coeff-Com: -0.103D+01 0.203D+01
 Coeff-En:   0.000D+00 0.100D+01
 Coeff:      0.000D+00 0.100D+01
 Gap=     0.210 Goal=   None    Shift=    0.000
 RMSDP=2.31D-03 MaxDP=1.11D-01 DE=-1.15D-01 OVMax= 1.57D-01

 Cycle   3  Pass 0  IDiag  1:
 RMSU=  1.19D-03    CP:  9.70D-01  2.43D+00
 E= -3128.09685092233     Delta-E=       -0.148937866415 Rises=F Damp=F
 DIIS: error= 1.26D-02 at cycle   3 NSaved=   3.
 NSaved= 3 IEnMin= 3 EnMin= -3128.09685092233     IErMin= 3 ErrMin= 1.26D-02
 ErrMax= 1.26D-02  0.00D+00 EMaxC= 1.00D-01 BMatC= 6.64D-02 BMatP= 2.69D-01
 IDIUse=3 WtCom= 8.74D-01 WtEn= 1.26D-01
 Coeff-Com:  0.592D+00-0.592D+00 0.999D+00
 Coeff-En:   0.103D+00 0.000D+00 0.897D+00
 Coeff:      0.531D+00-0.517D+00 0.986D+00
 Gap=     0.192 Goal=   None    Shift=    0.000
 RMSDP=1.50D-03 MaxDP=4.07D-02 DE=-1.49D-01 OVMax= 5.80D-02

 Cycle   4  Pass 0  IDiag  1:
 RMSU=  1.12D-03    CP:  9.72D-01  1.74D+00  6.34D-01
 E= -3128.13001612142     Delta-E=       -0.033165199091 Rises=F Damp=F
 DIIS: error= 9.42D-03 at cycle   4 NSaved=   4.
 NSaved= 4 IEnMin= 4 EnMin= -3128.13001612142     IErMin= 4 ErrMin= 9.42D-03
 ErrMax= 9.42D-03  0.00D+00 EMaxC= 1.00D-01 BMatC= 3.30D-02 BMatP= 6.64D-02
 IDIUse=3 WtCom= 9.06D-01 WtEn= 9.42D-02
 Coeff-Com:  0.530D+00-0.676D+00 0.674D+00 0.473D+00
 Coeff-En:   0.000D+00 0.000D+00 0.304D+00 0.696D+00
 Coeff:      0.480D+00-0.613D+00 0.639D+00 0.494D+00
 Gap=     0.216 Goal=   None    Shift=    0.000
 RMSDP=7.97D-04 MaxDP=3.02D-02 DE=-3.32D-02 OVMax= 6.03D-02

 Cycle   5  Pass 0  IDiag  1:
 RMSU=  1.76D-04    CP:  9.71D-01  1.77D+00  9.42D-01  3.90D-01
 E= -3128.16164498319     Delta-E=       -0.031628861771 Rises=F Damp=F
 DIIS: error= 1.48D-03 at cycle   5 NSaved=   5.
 NSaved= 5 IEnMin= 5 EnMin= -3128.16164498319     IErMin= 5 ErrMin= 1.48D-03
 ErrMax= 1.48D-03  0.00D+00 EMaxC= 1.00D-01 BMatC= 9.20D-04 BMatP= 3.30D-02
 IDIUse=3 WtCom= 9.85D-01 WtEn= 1.48D-02
 Coeff-Com:  0.172D+00-0.222D+00 0.237D+00 0.232D+00 0.582D+00
 Coeff-En:   0.000D+00 0.000D+00 0.000D+00 0.000D+00 0.100D+01
 Coeff:      0.169D+00-0.219D+00 0.233D+00 0.228D+00 0.588D+00
 Gap=     0.212 Goal=   None    Shift=    0.000
 RMSDP=1.30D-04 MaxDP=6.60D-03 DE=-3.16D-02 OVMax= 1.34D-02

 Cycle   6  Pass 0  IDiag  1:
 RMSU=  5.52D-05    CP:  9.71D-01  1.80D+00  9.12D-01  4.55D-01  5.83D-01
 E= -3128.16236117166     Delta-E=       -0.000716188472 Rises=F Damp=F
 DIIS: error= 4.73D-04 at cycle   6 NSaved=   6.
 NSaved= 6 IEnMin= 6 EnMin= -3128.16236117166     IErMin= 6 ErrMin= 4.73D-04
 ErrMax= 4.73D-04  0.00D+00 EMaxC= 1.00D-01 BMatC= 8.66D-05 BMatP= 9.20D-04
 IDIUse=3 WtCom= 9.95D-01 WtEn= 4.73D-03
 Coeff-Com:  0.590D-01-0.769D-01 0.800D-01 0.863D-01 0.327D+00 0.525D+00
 Coeff-En:   0.000D+00 0.000D+00 0.000D+00 0.000D+00 0.382D-01 0.962D+00
 Coeff:      0.587D-01-0.766D-01 0.796D-01 0.859D-01 0.325D+00 0.527D+00
 Gap=     0.209 Goal=   None    Shift=    0.000
 RMSDP=3.90D-05 MaxDP=2.23D-03 DE=-7.16D-04 OVMax= 3.29D-03

 Cycle   7  Pass 0  IDiag  1:
 RMSU=  2.10D-05    CP:  9.71D-01  1.79D+00  9.21D-01  4.55D-01  6.23D-01
                    CP:  4.85D-01
 E= -3128.16243462345     Delta-E=       -0.000073451784 Rises=F Damp=F
 DIIS: error= 1.86D-04 at cycle   7 NSaved=   7.
 NSaved= 7 IEnMin= 7 EnMin= -3128.16243462345     IErMin= 7 ErrMin= 1.86D-04
 ErrMax= 1.86D-04  0.00D+00 EMaxC= 1.00D-01 BMatC= 7.27D-06 BMatP= 8.66D-05
 IDIUse=3 WtCom= 9.98D-01 WtEn= 1.86D-03
 Coeff-Com:  0.179D-01-0.237D-01 0.226D-01 0.252D-01 0.122D+00 0.290D+00
 Coeff-Com:  0.546D+00
 Coeff-En:   0.000D+00 0.000D+00 0.000D+00 0.000D+00 0.000D+00 0.000D+00
 Coeff-En:   0.100D+01
 Coeff:      0.179D-01-0.236D-01 0.225D-01 0.251D-01 0.122D+00 0.290D+00
 Coeff:      0.546D+00
 Gap=     0.209 Goal=   None    Shift=    0.000
 RMSDP=1.29D-05 MaxDP=4.56D-04 DE=-7.35D-05 OVMax= 1.21D-03

 Cycle   8  Pass 0  IDiag  1:
 RMSU=  6.69D-06    CP:  9.71D-01  1.79D+00  9.21D-01  4.53D-01  6.29D-01
                    CP:  5.83D-01  5.61D-01
 E= -3128.16244116532     Delta-E=       -0.000006541875 Rises=F Damp=F
 DIIS: error= 7.11D-05 at cycle   8 NSaved=   8.
 NSaved= 8 IEnMin= 8 EnMin= -3128.16244116532     IErMin= 8 ErrMin= 7.11D-05
 ErrMax= 7.11D-05  0.00D+00 EMaxC= 1.00D-01 BMatC= 1.01D-06 BMatP= 7.27D-06
 IDIUse=1 WtCom= 1.00D+00 WtEn= 0.00D+00
 Coeff-Com:  0.362D-02-0.489D-02 0.374D-02 0.443D-02 0.337D-01 0.110D+00
 Coeff-Com:  0.325D+00 0.525D+00
 Coeff:      0.362D-02-0.489D-02 0.374D-02 0.443D-02 0.337D-01 0.110D+00
 Coeff:      0.325D+00 0.525D+00
 Gap=     0.209 Goal=   None    Shift=    0.000
 RMSDP=4.12D-06 MaxDP=1.18D-04 DE=-6.54D-06 OVMax= 4.75D-04

 Initial convergence to 1.0D-05 achieved.  Increase integral accuracy.
 Cycle   9  Pass 1  IDiag  1:
 E= -3128.16243218685     Delta-E=        0.000008978473 Rises=F Damp=F
 DIIS: error= 5.70D-05 at cycle   1 NSaved=   1.
 NSaved= 1 IEnMin= 1 EnMin= -3128.16243218685     IErMin= 1 ErrMin= 5.70D-05
 ErrMax= 5.70D-05  0.00D+00 EMaxC= 1.00D-01 BMatC= 4.45D-07 BMatP= 4.45D-07
 IDIUse=1 WtCom= 1.00D+00 WtEn= 0.00D+00
 Coeff-Com:  0.100D+01
 Coeff:      0.100D+01
 Gap=     0.209 Goal=   None    Shift=    0.000
 RMSDP=4.12D-06 MaxDP=1.18D-04 DE= 8.98D-06 OVMax= 2.89D-04

 Cycle  10  Pass 1  IDiag  1:
 RMSU=  3.07D-05    CP:  1.00D+00
 E= -3128.16243225004     Delta-E=       -0.000000063195 Rises=F Damp=F
 DIIS: error= 3.72D-05 at cycle   2 NSaved=   2.
 NSaved= 2 IEnMin= 2 EnMin= -3128.16243225004     IErMin= 2 ErrMin= 3.72D-05
 ErrMax= 3.72D-05  0.00D+00 EMaxC= 1.00D-01 BMatC= 2.87D-07 BMatP= 4.45D-07
 IDIUse=1 WtCom= 1.00D+00 WtEn= 0.00D+00
 Coeff-Com:  0.423D+00 0.577D+00
 Coeff:      0.423D+00 0.577D+00
 Gap=     0.209 Goal=   None    Shift=    0.000
 RMSDP=3.51D-06 MaxDP=1.24D-04 DE=-6.32D-08 OVMax= 3.31D-04

 Cycle  11  Pass 1  IDiag  1:
 RMSU=  3.51D-06    CP:  1.00D+00  1.00D+00
 E= -3128.16243238377     Delta-E=       -0.000000133721 Rises=F Damp=F
 DIIS: error= 3.13D-05 at cycle   3 NSaved=   3.
 NSaved= 3 IEnMin= 3 EnMin= -3128.16243238377     IErMin= 3 ErrMin= 3.13D-05
 ErrMax= 3.13D-05  0.00D+00 EMaxC= 1.00D-01 BMatC= 1.59D-07 BMatP= 2.87D-07
 IDIUse=1 WtCom= 1.00D+00 WtEn= 0.00D+00
 Coeff-Com:  0.181D-01 0.423D+00 0.559D+00
 Coeff:      0.181D-01 0.423D+00 0.559D+00
 Gap=     0.209 Goal=   None    Shift=    0.000
 RMSDP=1.57D-06 MaxDP=6.49D-05 DE=-1.34D-07 OVMax= 1.55D-04

 Cycle  12  Pass 1  IDiag  1:
 RMSU=  5.44D-07    CP:  1.00D+00  1.01D+00  5.85D-01
 E= -3128.16243255179     Delta-E=       -0.000000168021 Rises=F Damp=F
 DIIS: error= 4.38D-06 at cycle   4 NSaved=   4.
 NSaved= 4 IEnMin= 4 EnMin= -3128.16243255179     IErMin= 4 ErrMin= 4.38D-06
 ErrMax= 4.38D-06  0.00D+00 EMaxC= 1.00D-01 BMatC= 7.89D-09 BMatP= 1.59D-07
 IDIUse=1 WtCom= 1.00D+00 WtEn= 0.00D+00
 Coeff-Com: -0.231D-02 0.249D+00 0.352D+00 0.401D+00
 Coeff:     -0.231D-02 0.249D+00 0.352D+00 0.401D+00
 Gap=     0.209 Goal=   None    Shift=    0.000
 RMSDP=3.28D-07 MaxDP=1.43D-05 DE=-1.68D-07 OVMax= 2.27D-05

 Cycle  13  Pass 1  IDiag  1:
 RMSU=  1.10D-07    CP:  1.00D+00  1.01D+00  5.94D-01  4.36D-01
 E= -3128.16243255874     Delta-E=       -0.000000006955 Rises=F Damp=F
 DIIS: error= 8.02D-07 at cycle   5 NSaved=   5.
 NSaved= 5 IEnMin= 5 EnMin= -3128.16243255874     IErMin= 5 ErrMin= 8.02D-07
 ErrMax= 8.02D-07  0.00D+00 EMaxC= 1.00D-01 BMatC= 1.60D-10 BMatP= 7.89D-09
 IDIUse=1 WtCom= 1.00D+00 WtEn= 0.00D+00
 Coeff-Com: -0.186D-02 0.132D+00 0.188D+00 0.232D+00 0.449D+00
 Coeff:     -0.186D-02 0.132D+00 0.188D+00 0.232D+00 0.449D+00
 Gap=     0.209 Goal=   None    Shift=    0.000
 RMSDP=5.14D-08 MaxDP=2.75D-06 DE=-6.95D-09 OVMax= 2.69D-06

 Cycle  14  Pass 1  IDiag  1:
 RMSU=  3.50D-08    CP:  1.00D+00  1.01D+00  5.93D-01  4.38D-01  6.65D-01
 E= -3128.16243255884     Delta-E=       -0.000000000102 Rises=F Damp=F
 DIIS: error= 2.15D-07 at cycle   6 NSaved=   6.
 NSaved= 6 IEnMin= 6 EnMin= -3128.16243255884     IErMin= 6 ErrMin= 2.15D-07
 ErrMax= 2.15D-07  0.00D+00 EMaxC= 1.00D-01 BMatC= 1.58D-11 BMatP= 1.60D-10
 IDIUse=1 WtCom= 1.00D+00 WtEn= 0.00D+00
 Coeff-Com: -0.992D-03 0.646D-01 0.918D-01 0.116D+00 0.287D+00 0.442D+00
 Coeff:     -0.992D-03 0.646D-01 0.918D-01 0.116D+00 0.287D+00 0.442D+00
 Gap=     0.209 Goal=   None    Shift=    0.000
 RMSDP=1.57D-08 MaxDP=9.53D-07 DE=-1.02D-10 OVMax= 1.67D-06

 Cycle  15  Pass 1  IDiag  1:
 RMSU=  1.20D-08    CP:  1.00D+00  1.01D+00  5.92D-01  4.37D-01  6.89D-01
                    CP:  7.24D-01
 E= -3128.16243255890     Delta-E=       -0.000000000062 Rises=F Damp=F
 DIIS: error= 5.33D-08 at cycle   7 NSaved=   7.
 NSaved= 7 IEnMin= 7 EnMin= -3128.16243255890     IErMin= 7 ErrMin= 5.33D-08
 ErrMax= 5.33D-08  0.00D+00 EMaxC= 1.00D-01 BMatC= 9.95D-13 BMatP= 1.58D-11
 IDIUse=1 WtCom= 1.00D+00 WtEn= 0.00D+00
 Coeff-Com: -0.269D-03 0.156D-01 0.222D-01 0.289D-01 0.922D-01 0.239D+00
 Coeff-Com:  0.602D+00
 Coeff:     -0.269D-03 0.156D-01 0.222D-01 0.289D-01 0.922D-01 0.239D+00
 Coeff:      0.602D+00
 Gap=     0.209 Goal=   None    Shift=    0.000
 RMSDP=4.36D-09 MaxDP=2.38D-07 DE=-6.18D-11 OVMax= 4.53D-07

 SCF Done:  E(RB3LYP) =  -3128.16243256     A.U. after   15 cycles
            NFock= 15  Conv=0.44D-08     -V/T= 2.0066
 KE= 3.107579060338D+03 PE=-9.675105382887D+03 EE= 2.314666034240D+03
 Leave Link  502 at Tue Sep 17 09:43:55 2024, MaxMem=  1342177280 cpu:             145.5 elap:              19.2
 (Enter /groups/ReismanLab/Software/Gaussian16_RevC/Linux_Binary_AVX2-enabled-CPU/g16/l508.exe)
 QCSCF skips out because SCF is already converged.
 Leave Link  508 at Tue Sep 17 09:43:55 2024, MaxMem=  1342177280 cpu:               0.0 elap:               0.0
 (Enter /groups/ReismanLab/Software/Gaussian16_RevC/Linux_Binary_AVX2-enabled-CPU/g16/l601.exe)
 Copying SCF densities to generalized density rwf, IOpCl= 0 IROHF=0.

 **********************************************************************

            Population analysis using the SCF Density.

 **********************************************************************

 Orbital symmetries:
       Occupied  (A) (A) (A) (A) (A) (A) (A) (A) (A) (A) (A) (A)
                 (A) (A) (A) (A) (A) (A) (A) (A) (A) (A) (A) (A)
                 (A) (A) (A) (A) (A) (A) (A) (A) (A) (A) (A) (A)
                 (A) (A) (A) (A) (A) (A) (A) (A) (A) (A) (A) (A)
                 (A) (A) (A) (A) (A) (A) (A) (A) (A) (A) (A) (A)
                 (A) (A) (A) (A)
       Virtual   (A) (A) (A) (A) (A) (A) (A) (A) (A) (A) (A) (A)
                 (A) (A) (A) (A) (A) (A) (A) (A) (A) (A) (A) (A)
                 (A) (A) (A) (A) (A) (A) (A) (A) (A) (A) (A) (A)
                 (A) (A) (A) (A) (A) (A) (A) (A) (A) (A) (A) (A)
                 (A) (A) (A) (A) (A) (A) (A) (A) (A) (A) (A) (A)
                 (A) (A) (A) (A) (A) (A) (A) (A) (A) (A) (A) (A)
                 (A) (A) (A) (A) (A) (A) (A) (A) (A) (A) (A) (A)
                 (A) (A) (A) (A) (A) (A) (A) (A) (A) (A) (A) (A)
                 (A) (A) (A) (A) (A) (A) (A) (A) (A) (A) (A) (A)
                 (A) (A) (A) (A) (A) (A) (A) (A) (A) (A) (A) (A)
                 (A) (A) (A) (A) (A) (A) (A) (A) (A) (A) (A) (A)
                 (A) (A) (A) (A) (A) (A) (A) (A) (A) (A) (A) (A)
                 (A) (A) (A) (A) (A) (A) (A) (A) (A) (A) (A) (A)
                 (A) (A) (A) (A) (A) (A) (A) (A) (A) (A) (A) (A)
                 (A) (A) (A) (A) (A) (A) (A) (A) (A) (A) (A) (A)
                 (A) (A) (A) (A) (A) (A) (A) (A) (A) (A) (A) (A)
                 (A) (A) (A) (A) (A) (A) (A) (A) (A) (A) (A) (A)
                 (A) (A) (A) (A) (A) (A) (A) (A) (A) (A) (A) (A)
                 (A) (A) (A) (A) (A)
 The electronic state is 1-A.
 Alpha  occ. eigenvalues -- -482.91213 -61.87389 -56.39521 -56.39112 -56.39103
 Alpha  occ. eigenvalues --  -19.10530 -14.36015 -10.27862 -10.24993 -10.22888
 Alpha  occ. eigenvalues --  -10.21840 -10.20656 -10.20595 -10.20522 -10.20480
 Alpha  occ. eigenvalues --  -10.20296 -10.19832 -10.19617  -8.58535  -6.53927
 Alpha  occ. eigenvalues --   -6.52662  -6.52631  -2.65501  -2.65141  -2.65117
 Alpha  occ. eigenvalues --   -2.64107  -2.64107  -1.03520  -0.95038  -0.88418
 Alpha  occ. eigenvalues --   -0.81541  -0.79865  -0.76687  -0.75058  -0.73309
 Alpha  occ. eigenvalues --   -0.65937  -0.62795  -0.61437  -0.59801  -0.56070
 Alpha  occ. eigenvalues --   -0.53654  -0.51315  -0.47996  -0.47445  -0.45341
 Alpha  occ. eigenvalues --   -0.44903  -0.44147  -0.43613  -0.42475  -0.41147
 Alpha  occ. eigenvalues --   -0.39624  -0.39169  -0.37203  -0.36545  -0.36066
 Alpha  occ. eigenvalues --   -0.35725  -0.35236  -0.34409  -0.31350  -0.28819
 Alpha  occ. eigenvalues --   -0.26997  -0.25448  -0.23902  -0.23593
 Alpha virt. eigenvalues --   -0.02719  -0.01609   0.00660   0.04242   0.07398
 Alpha virt. eigenvalues --    0.10253   0.11600   0.12875   0.13816   0.14110
 Alpha virt. eigenvalues --    0.14984   0.15205   0.15523   0.16204   0.17203
 Alpha virt. eigenvalues --    0.17430   0.19010   0.20373   0.21296   0.21947
 Alpha virt. eigenvalues --    0.23220   0.25129   0.27168   0.27844   0.28194
 Alpha virt. eigenvalues --    0.30984   0.31893   0.33613   0.36593   0.40580
 Alpha virt. eigenvalues --    0.43495   0.44465   0.46198   0.46301   0.47875
 Alpha virt. eigenvalues --    0.48174   0.48570   0.49273   0.49485   0.51967
 Alpha virt. eigenvalues --    0.52386   0.53585   0.53868   0.54515   0.54669
 Alpha virt. eigenvalues --    0.56021   0.57489   0.57841   0.59792   0.60063
 Alpha virt. eigenvalues --    0.61964   0.63456   0.64020   0.64508   0.66187
 Alpha virt. eigenvalues --    0.67947   0.68578   0.68829   0.71619   0.72950
 Alpha virt. eigenvalues --    0.73964   0.75360   0.78325   0.78565   0.80419
 Alpha virt. eigenvalues --    0.80748   0.81254   0.81966   0.82550   0.83215
 Alpha virt. eigenvalues --    0.83743   0.84981   0.85270   0.85871   0.86941
 Alpha virt. eigenvalues --    0.88330   0.89571   0.91096   0.91600   0.92364
 Alpha virt. eigenvalues --    0.93417   0.95725   0.98822   1.00308   1.01358
 Alpha virt. eigenvalues --    1.03517   1.07291   1.09837   1.11810   1.13806
 Alpha virt. eigenvalues --    1.15001   1.17759   1.19553   1.23047   1.25308
 Alpha virt. eigenvalues --    1.25676   1.28905   1.32342   1.33627   1.37496
 Alpha virt. eigenvalues --    1.38324   1.38858   1.40767   1.41808   1.44441
 Alpha virt. eigenvalues --    1.50145   1.53806   1.55057   1.56071   1.57838
 Alpha virt. eigenvalues --    1.60771   1.62757   1.67817   1.69253   1.70435
 Alpha virt. eigenvalues --    1.73987   1.76598   1.77702   1.78875   1.79781
 Alpha virt. eigenvalues --    1.82889   1.83239   1.83854   1.87519   1.87808
 Alpha virt. eigenvalues --    1.88999   1.90685   1.91875   1.93303   1.93861
 Alpha virt. eigenvalues --    1.96646   1.97758   1.98941   1.99162   2.01090
 Alpha virt. eigenvalues --    2.04288   2.04428   2.05640   2.06815   2.07689
 Alpha virt. eigenvalues --    2.08335   2.09413   2.11599   2.16365   2.16765
 Alpha virt. eigenvalues --    2.19611   2.21633   2.27526   2.28499   2.29267
 Alpha virt. eigenvalues --    2.29803   2.30568   2.34060   2.36948   2.40297
 Alpha virt. eigenvalues --    2.40478   2.41379   2.42886   2.43816   2.44845
 Alpha virt. eigenvalues --    2.45697   2.47830   2.48124   2.48442   2.50484
 Alpha virt. eigenvalues --    2.51631   2.52795   2.56990   2.59835   2.61554
 Alpha virt. eigenvalues --    2.63730   2.64296   2.66772   2.67815   2.69778
 Alpha virt. eigenvalues --    2.70880   2.73124   2.75347   2.76175   2.77535
 Alpha virt. eigenvalues --    2.79587   2.81444   2.82537   2.85792   2.87612
 Alpha virt. eigenvalues --    2.89263   2.96524   2.97194   3.00148   3.06966
 Alpha virt. eigenvalues --    3.11052   3.20649   3.20827   3.22780   3.24801
 Alpha virt. eigenvalues --    3.26058   3.29216   3.32290   3.32411   3.35611
 Alpha virt. eigenvalues --    3.42902   3.48662   3.49778   3.52276   3.52385
 Alpha virt. eigenvalues --    3.81315   4.07531   4.10698   4.13296   4.15575
 Alpha virt. eigenvalues --    4.20739   4.34885   4.35552   4.40938   4.45413
 Alpha virt. eigenvalues --    4.55515   4.67612   4.72776   4.82415   8.60575
 Alpha virt. eigenvalues --   72.81544
          Condensed to atoms (all electrons):
               1          2          3          4          5          6
     1  O    8.089175   0.591113  -0.088844  -0.000354  -0.000077  -0.000001
     2  C    0.591113   4.471697   0.313847  -0.041121   0.004271   0.000510
     3  C   -0.088844   0.313847   4.974668   0.532414  -0.029967  -0.031156
     4  C   -0.000354  -0.041121   0.532414   4.882714   0.491520  -0.031900
     5  C   -0.000077   0.004271  -0.029967   0.491520   4.899518   0.531770
     6  C   -0.000001   0.000510  -0.031156  -0.031900   0.531770   4.794402
     7  Br  -0.000000   0.000003   0.000249   0.005810  -0.060909   0.259787
     8  C    0.000296   0.005678  -0.031472  -0.048917  -0.034228   0.526504
     9  C    0.004735  -0.030692   0.523092  -0.033472  -0.046527  -0.031106
    10  N   -0.110562   0.255317  -0.120082  -0.002727   0.000157  -0.000002
    11  C    0.008780  -0.024154   0.007212  -0.000021   0.000006   0.000000
    12  C    0.000948   0.007570  -0.000110  -0.000036   0.000000   0.000000
    13  C   -0.000173   0.002880  -0.000124   0.000427   0.000004  -0.000001
    14  C    0.003040  -0.025520  -0.002486  -0.002082  -0.000275   0.000012
    15  H    0.000024  -0.006878  -0.045106   0.368657  -0.037746   0.004295
    16  H    0.000001  -0.000149   0.004172  -0.036602   0.369895  -0.042999
    17  H    0.000001  -0.000148   0.004170   0.000590   0.005197  -0.043796
    18  H    0.005095  -0.006087  -0.045078   0.005614   0.000608   0.004376
    19  H    0.006376  -0.005816  -0.000174   0.000008   0.000001  -0.000000
    20  H    0.002974  -0.002368   0.000009  -0.000024  -0.000001   0.000000
    21  H    0.000002  -0.000052   0.000006   0.000000   0.000000  -0.000000
    22  H   -0.000010  -0.000300   0.000002   0.000000   0.000000  -0.000000
    23  H   -0.000013  -0.000077  -0.000022   0.000001  -0.000000  -0.000000
    24  H    0.000001  -0.000042   0.000015  -0.000005  -0.000000   0.000000
    25  H    0.000116  -0.007451   0.006581   0.000705   0.000073  -0.000052
    26  H   -0.000053  -0.001306   0.000138   0.000054  -0.000245   0.000005
               7          8          9         10         11         12
     1  O   -0.000000   0.000296   0.004735  -0.110562   0.008780   0.000948
     2  C    0.000003   0.005678  -0.030692   0.255317  -0.024154   0.007570
     3  C    0.000249  -0.031472   0.523092  -0.120082   0.007212  -0.000110
     4  C    0.005810  -0.048917  -0.033472  -0.002727  -0.000021  -0.000036
     5  C   -0.060909  -0.034228  -0.046527   0.000157   0.000006   0.000000
     6  C    0.259787   0.526504  -0.031106  -0.000002   0.000000   0.000000
     7  Br  34.986845  -0.060833   0.005605  -0.000000   0.000000   0.000000
     8  C   -0.060833   4.913660   0.485319  -0.000143   0.000003  -0.000000
     9  C    0.005605   0.485319   4.867735   0.002920  -0.000154   0.000004
    10  N   -0.000000  -0.000143   0.002920   7.147758   0.278699  -0.052958
    11  C    0.000000   0.000003  -0.000154   0.278699   4.784641   0.352518
    12  C    0.000000  -0.000000   0.000004  -0.052958   0.352518   4.992336
    13  C    0.000000  -0.000001   0.000024  -0.055858  -0.062160   0.363375
    14  C   -0.000000  -0.000056  -0.000448   0.288754  -0.081505  -0.060336
    15  H   -0.000156   0.000609   0.005580   0.003862  -0.000177   0.000005
    16  H   -0.003543   0.005204   0.000617   0.000003  -0.000000  -0.000000
    17  H   -0.003572   0.370936  -0.035726   0.000001  -0.000000   0.000000
    18  H   -0.000147  -0.039113   0.371786   0.000551  -0.000028  -0.000000
    19  H    0.000000   0.000000   0.000075  -0.049414   0.392349  -0.034585
    20  H   -0.000000  -0.000000  -0.000019  -0.043996   0.393249  -0.034533
    21  H    0.000000   0.000000  -0.000000   0.003625  -0.030826   0.385587
    22  H    0.000000  -0.000000   0.000000  -0.002048  -0.031224   0.383653
    23  H    0.000000  -0.000000   0.000001  -0.000879   0.001876  -0.042328
    24  H   -0.000000  -0.000000  -0.000001   0.004329   0.004874  -0.029021
    25  H    0.000001   0.000099   0.001689  -0.038395   0.005259   0.005245
    26  H   -0.000000  -0.000002  -0.000145  -0.054582   0.003636  -0.006318
              13         14         15         16         17         18
     1  O   -0.000173   0.003040   0.000024   0.000001   0.000001   0.005095
     2  C    0.002880  -0.025520  -0.006878  -0.000149  -0.000148  -0.006087
     3  C   -0.000124  -0.002486  -0.045106   0.004172   0.004170  -0.045078
     4  C    0.000427  -0.002082   0.368657  -0.036602   0.000590   0.005614
     5  C    0.000004  -0.000275  -0.037746   0.369895   0.005197   0.000608
     6  C   -0.000001   0.000012   0.004295  -0.042999  -0.043796   0.004376
     7  Br   0.000000  -0.000000  -0.000156  -0.003543  -0.003572  -0.000147
     8  C   -0.000001  -0.000056   0.000609   0.005204   0.370936  -0.039113
     9  C    0.000024  -0.000448   0.005580   0.000617  -0.035726   0.371786
    10  N   -0.055858   0.288754   0.003862   0.000003   0.000001   0.000551
    11  C   -0.062160  -0.081505  -0.000177  -0.000000  -0.000000  -0.000028
    12  C    0.363375  -0.060336   0.000005  -0.000000   0.000000  -0.000000
    13  C    4.963438   0.366642   0.000047   0.000000   0.000000   0.000003
    14  C    0.366642   4.818095  -0.000072   0.000005   0.000000  -0.000026
    15  H    0.000047  -0.000072   0.612765  -0.005972   0.000019  -0.000184
    16  H    0.000000   0.000005  -0.005972   0.600128  -0.000168   0.000019
    17  H    0.000000   0.000000   0.000019  -0.000168   0.596723  -0.005886
    18  H    0.000003  -0.000026  -0.000184   0.000019  -0.005886   0.596916
    19  H   -0.002138   0.004321   0.000004  -0.000000  -0.000000   0.000010
    20  H    0.005130   0.004600  -0.000012   0.000000   0.000000  -0.000001
    21  H   -0.027740   0.005118  -0.000000  -0.000000  -0.000000  -0.000000
    22  H   -0.041070   0.001115   0.000001   0.000000  -0.000000   0.000000
    23  H    0.387101  -0.034566   0.000000   0.000000  -0.000000  -0.000000
    24  H    0.379974  -0.029941  -0.000004   0.000000  -0.000000  -0.000000
    25  H   -0.023522   0.385181  -0.000131  -0.000009  -0.000000   0.000045
    26  H   -0.042025   0.384784   0.000836   0.000004   0.000000  -0.000003
              19         20         21         22         23         24
     1  O    0.006376   0.002974   0.000002  -0.000010  -0.000013   0.000001
     2  C   -0.005816  -0.002368  -0.000052  -0.000300  -0.000077  -0.000042
     3  C   -0.000174   0.000009   0.000006   0.000002  -0.000022   0.000015
     4  C    0.000008  -0.000024   0.000000   0.000000   0.000001  -0.000005
     5  C    0.000001  -0.000001   0.000000   0.000000  -0.000000  -0.000000
     6  C   -0.000000   0.000000  -0.000000  -0.000000  -0.000000   0.000000
     7  Br   0.000000  -0.000000   0.000000   0.000000   0.000000  -0.000000
     8  C    0.000000  -0.000000   0.000000  -0.000000  -0.000000  -0.000000
     9  C    0.000075  -0.000019  -0.000000   0.000000   0.000001  -0.000001
    10  N   -0.049414  -0.043996   0.003625  -0.002048  -0.000879   0.004329
    11  C    0.392349   0.393249  -0.030826  -0.031224   0.001876   0.004874
    12  C   -0.034585  -0.034533   0.385587   0.383653  -0.042328  -0.029021
    13  C   -0.002138   0.005130  -0.027740  -0.041070   0.387101   0.379974
    14  C    0.004321   0.004600   0.005118   0.001115  -0.034566  -0.029941
    15  H    0.000004  -0.000012  -0.000000   0.000001   0.000000  -0.000004
    16  H   -0.000000   0.000000  -0.000000   0.000000   0.000000   0.000000
    17  H   -0.000000   0.000000  -0.000000  -0.000000  -0.000000  -0.000000
    18  H    0.000010  -0.000001  -0.000000   0.000000  -0.000000  -0.000000
    19  H    0.609400  -0.043274  -0.006054   0.004865   0.001420  -0.000200
    20  H   -0.043274   0.601822   0.002035  -0.007973   0.000006  -0.000137
    21  H   -0.006054   0.002035   0.597757  -0.033829  -0.006913   0.000450
    22  H    0.004865  -0.007973  -0.033829   0.614385   0.005617  -0.006803
    23  H    0.001420   0.000006  -0.006913   0.005617   0.608244  -0.032445
    24  H   -0.000200  -0.000137   0.000450  -0.006803  -0.032445   0.605309
    25  H    0.000120  -0.000281  -0.000163  -0.000040  -0.007412   0.000940
    26  H   -0.000451   0.000738  -0.000130   0.002643   0.005703  -0.004133
              25         26
     1  O    0.000116  -0.000053
     2  C   -0.007451  -0.001306
     3  C    0.006581   0.000138
     4  C    0.000705   0.000054
     5  C    0.000073  -0.000245
     6  C   -0.000052   0.000005
     7  Br   0.000001  -0.000000
     8  C    0.000099  -0.000002
     9  C    0.001689  -0.000145
    10  N   -0.038395  -0.054582
    11  C    0.005259   0.003636
    12  C    0.005245  -0.006318
    13  C   -0.023522  -0.042025
    14  C    0.385181   0.384784
    15  H   -0.000131   0.000836
    16  H   -0.000009   0.000004
    17  H   -0.000000   0.000000
    18  H    0.000045  -0.000003
    19  H    0.000120  -0.000451
    20  H   -0.000281   0.000738
    21  H   -0.000163  -0.000130
    22  H   -0.000040   0.002643
    23  H   -0.007412   0.005703
    24  H    0.000940  -0.004133
    25  H    0.592210  -0.045047
    26  H   -0.045047   0.650770
 Mulliken charges:
               1
     1  O   -0.512587
     2  C    0.499276
     3  C    0.028046
     4  C   -0.091255
     5  C   -0.093046
     6  C    0.059352
     7  Br  -0.129140
     8  C   -0.093541
     9  C   -0.090891
    10  N   -0.454330
    11  C   -0.002852
    12  C   -0.231015
    13  C   -0.214232
    14  C   -0.024356
    15  H    0.099734
    16  H    0.109394
    17  H    0.111659
    18  H    0.111533
    19  H    0.123158
    20  H    0.122056
    21  H    0.111126
    22  H    0.111016
    23  H    0.114685
    24  H    0.106839
    25  H    0.124238
    26  H    0.105131
 Sum of Mulliken charges =  -0.00000
 Mulliken charges with hydrogens summed into heavy atoms:
               1
     1  O   -0.512587
     2  C    0.499276
     3  C    0.028046
     4  C    0.008479
     5  C    0.016348
     6  C    0.059352
     7  Br  -0.129140
     8  C    0.018117
     9  C    0.020642
    10  N   -0.454330
    11  C    0.242363
    12  C   -0.008873
    13  C    0.007292
    14  C    0.205014
 Electronic spatial extent (au):  <R**2>=           5474.4276
 Charge=             -0.0000 electrons
 Dipole moment (field-independent basis, Debye):
    X=              2.1043    Y=             -3.4488    Z=             -0.7230  Tot=              4.1042
 Quadrupole moment (field-independent basis, Debye-Ang):
   XX=            -88.9745   YY=           -100.4293   ZZ=            -90.2367
   XY=             -9.9828   XZ=             -1.1296   YZ=             -5.0253
 Traceless Quadrupole moment (field-independent basis, Debye-Ang):
   XX=              4.2390   YY=             -7.2158   ZZ=              2.9768
   XY=             -9.9828   XZ=             -1.1296   YZ=             -5.0253
 Octapole moment (field-independent basis, Debye-Ang**2):
  XXX=            -48.5849  YYY=            -31.2140  ZZZ=             -0.2896  XYY=            -52.7543
  XXY=            -24.9749  XXZ=             -7.2369  XZZ=            -33.9558  YZZ=             -1.4191
  YYZ=             -7.2443  XYZ=              1.2195
 Hexadecapole moment (field-independent basis, Debye-Ang**3):
 XXXX=          -5045.3083 YYYY=           -759.9106 ZZZZ=           -308.8130 XXXY=             24.7095
 XXXZ=              0.8863 YYYX=             -3.3254 YYYZ=            -16.5122 ZZZX=             13.8275
 ZZZY=             -8.9023 XXYY=          -1037.3058 XXZZ=           -925.1213 YYZZ=           -161.4779
 XXYZ=            -14.1385 YYXZ=             -2.8288 ZZXY=             19.7793
 N-N= 1.124697855750D+03 E-N=-9.675105380633D+03  KE= 3.107579060338D+03
 No NMR shielding tensors so no spin-rotation constants.
 Leave Link  601 at Tue Sep 17 09:43:55 2024, MaxMem=  1342177280 cpu:               0.4 elap:               0.1
 (Enter /groups/ReismanLab/Software/Gaussian16_RevC/Linux_Binary_AVX2-enabled-CPU/g16/l701.exe)
 ... and contract with generalized density number  0.
 Compute integral first derivatives.
 R6Disp: Adding Grimme-D3(BJ) dispersion energy 1st derivatives to the gradient.
 Leave Link  701 at Tue Sep 17 09:43:55 2024, MaxMem=  1342177280 cpu:               0.5 elap:               0.1
 (Enter /groups/ReismanLab/Software/Gaussian16_RevC/Linux_Binary_AVX2-enabled-CPU/g16/l702.exe)
 L702 exits ... SP integral derivatives will be done elsewhere.
 Leave Link  702 at Tue Sep 17 09:43:55 2024, MaxMem=  1342177280 cpu:               0.0 elap:               0.0
 (Enter /groups/ReismanLab/Software/Gaussian16_RevC/Linux_Binary_AVX2-enabled-CPU/g16/l703.exe)
 Integral derivatives from FoFJK, PRISM(SPDF).
 Compute integral first derivatives, UseDBF=F ICtDFT=           0.
 Calling FoFJK, ICntrl=      2127 FMM=F ISym2X=0 I1Cent= 0 IOpClX= 0 NMat=1 NMatS=1 NMatT=0.
 FoFJK:  IHMeth= 1 ICntrl=    2127 DoSepK=F KAlg= 0 I1Cent=           0 FoldK=F
 IRaf=         0 NMat=       1 IRICut=       1 DoRegI=T DoRafI=F ISym2E= 0 IDoP0=0 IntGTp=1.
 FoFCou: FMM=F IPFlag=           0 FMFlag=      100000 FMFlg1=         800
         NFxFlg=           0 DoJE=F BraDBF=F KetDBF=F FulRan=T
         wScrn=  0.000000 ICntrl=      2127 IOpCl=  0 I1Cent=           0 NGrid=           0
         NMat0=    1 NMatS0=      1 NMatT0=    0 NMatD0=    1 NMtDS0=    0 NMtDT0=    0
 Symmetry not used in FoFCou.
 Leave Link  703 at Tue Sep 17 09:44:02 2024, MaxMem=  1342177280 cpu:              49.6 elap:               6.3
 (Enter /groups/ReismanLab/Software/Gaussian16_RevC/Linux_Binary_AVX2-enabled-CPU/g16/l716.exe)
 Dipole        = 8.27877116D-01-1.35684790D+00-2.84432922D-01
 ***** Axes restored to original set *****
 -------------------------------------------------------------------
 Center     Atomic                   Forces (Hartrees/Bohr)
 Number     Number              X              Y              Z
 -------------------------------------------------------------------
      1        8          -0.004690584   -0.019195878   -0.001117872
      2        6           0.010444511    0.007542940    0.001004285
      3        6          -0.004190755   -0.003315710    0.000462050
      4        6          -0.003042253    0.001008344    0.001627980
      5        6           0.004132481    0.004323988    0.004325453
      6        6           0.006542091    0.001866074    0.000279499
      7       35           0.002147381    0.000404753   -0.000096053
      8        6           0.003991692   -0.002490426   -0.004633534
      9        6          -0.003001519   -0.002797850   -0.001863112
     10        7          -0.006231250    0.004727438    0.000998593
     11        6          -0.006112535   -0.008111168    0.002481959
     12        6           0.000112932   -0.000115725   -0.001255946
     13        6           0.000311110    0.001454770    0.001699849
     14        6           0.005075630    0.009675336   -0.003004591
     15        1          -0.002705756    0.002102771    0.002514907
     16        1           0.001735967    0.001828479    0.002080838
     17        1           0.002181052   -0.001026792   -0.002257474
     18        1          -0.001656534   -0.002839837   -0.002224746
     19        1          -0.000790436   -0.001460163    0.000383835
     20        1          -0.001783663   -0.001799799   -0.000213959
     21        1          -0.003710243   -0.000086775   -0.000039706
     22        1          -0.001598258    0.001543242    0.002528360
     23        1           0.000361718   -0.000113189   -0.003310321
     24        1           0.000058778    0.003516422   -0.001315608
     25        1           0.000598116    0.000967542    0.001132721
     26        1           0.001820328    0.002391212   -0.000187407
 -------------------------------------------------------------------
 Cartesian Forces:  Max     0.019195878 RMS     0.003927703
 Leave Link  716 at Tue Sep 17 09:44:02 2024, MaxMem=  1342177280 cpu:               0.0 elap:               0.0
 (Enter /groups/ReismanLab/Software/Gaussian16_RevC/Linux_Binary_AVX2-enabled-CPU/g16/l103.exe)

 GradGradGradGradGradGradGradGradGradGradGradGradGradGradGradGradGradGrad
 Berny optimization.
 FormGI is forming the generalized inverse of G from B-inverse, IUseBI=4.
 GSVD:  received Info=                   1 from GESDD.
 Internal  Forces:  Max     0.019610698 RMS     0.003539435
 Search for a local minimum.
 Step number   1 out of a maximum of  156
 All quantities printed in internal units (Hartrees-Bohrs-Radians)
 RMS Force = .35394D-02 SwitMx=.10000D-02 MixMth= 1
 Mixed Optimization -- RFO/linear search
 Second derivative matrix not updated -- first step.
 ITU=  0
     Eigenvalues ---    0.00595   0.00784   0.00800   0.01345   0.01594
     Eigenvalues ---    0.01789   0.02228   0.02261   0.02270   0.02290
     Eigenvalues ---    0.02293   0.02300   0.02304   0.02308   0.02394
     Eigenvalues ---    0.02620   0.03196   0.04707   0.04971   0.05280
     Eigenvalues ---    0.05656   0.05948   0.06188   0.06360   0.06687
     Eigenvalues ---    0.06804   0.08365   0.08614   0.09042   0.09886
     Eigenvalues ---    0.11304   0.15996   0.16000   0.16000   0.16000
     Eigenvalues ---    0.17971   0.20798   0.21545   0.21999   0.22976
     Eigenvalues ---    0.23907   0.23986   0.24929   0.24999   0.25000
     Eigenvalues ---    0.25000   0.27903   0.28314   0.29020   0.32520
     Eigenvalues ---    0.33991   0.34219   0.34530   0.34635   0.34754
     Eigenvalues ---    0.34757   0.35082   0.35108   0.35724   0.36058
     Eigenvalues ---    0.36076   0.36086   0.36100   0.37105   0.43430
     Eigenvalues ---    0.43585   0.47515   0.47814   0.48348   0.48594
     Eigenvalues ---    0.55680   0.96128
 RFO step:  Lambda=-4.62636779D-03 EMin= 5.95224048D-03
 Linear search not attempted -- first point.
 Iteration  1 RMS(Cart)=  0.05914878 RMS(Int)=  0.00076465
 Iteration  2 RMS(Cart)=  0.00140164 RMS(Int)=  0.00002927
 Iteration  3 RMS(Cart)=  0.00000093 RMS(Int)=  0.00002927
 ITry= 1 IFail=0 DXMaxC= 1.99D-01 DCOld= 1.00D+10 DXMaxT= 3.00D-01 DXLimC= 3.00D+00 Rises=F
 Variable       Old X    -DE/DX   Delta X   Delta X   Delta X     New X
                                 (Linear)    (Quad)   (Total)
    R1        2.30231   0.01961   0.00000   0.02030   0.02030   2.32261
    R2        2.83203   0.00567   0.00000   0.01718   0.01718   2.84921
    R3        2.54533   0.01730   0.00000   0.03082   0.03082   2.57615
    R4        2.62733   0.00876   0.00000   0.01828   0.01829   2.64562
    R5        2.62748   0.00809   0.00000   0.01686   0.01686   2.64434
    R6        2.61344   0.01092   0.00000   0.02231   0.02231   2.63575
    R7        2.03991   0.00419   0.00000   0.01146   0.01146   2.05137
    R8        2.61657   0.00826   0.00000   0.01705   0.01705   2.63362
    R9        2.03948   0.00324   0.00000   0.00886   0.00886   2.04834
   R10        3.60142   0.00219   0.00000   0.01186   0.01186   3.61328
   R11        2.61622   0.00916   0.00000   0.01887   0.01887   2.63509
   R12        2.61279   0.01038   0.00000   0.02112   0.02112   2.63391
   R13        2.03925   0.00327   0.00000   0.00895   0.00895   2.04820
   R14        2.03963   0.00394   0.00000   0.01079   0.01079   2.05042
   R15        2.75296   0.00973   0.00000   0.02739   0.02739   2.78035
   R16        2.73834   0.01313   0.00000   0.03633   0.03632   2.77466
   R17        2.88418   0.00633   0.00000   0.01868   0.01867   2.90285
   R18        2.06961   0.00082   0.00000   0.00237   0.00237   2.07198
   R19        2.06445   0.00105   0.00000   0.00300   0.00300   2.06744
   R20        2.88717   0.00715   0.00000   0.02192   0.02194   2.90911
   R21        2.05500   0.00324   0.00000   0.00910   0.00910   2.06409
   R22        2.06077   0.00319   0.00000   0.00905   0.00905   2.06982
   R23        2.88692   0.00381   0.00000   0.01168   0.01167   2.89859
   R24        2.06071   0.00321   0.00000   0.00912   0.00912   2.06983
   R25        2.05543   0.00340   0.00000   0.00956   0.00956   2.06499
   R26        2.06272  -0.00010   0.00000  -0.00030  -0.00030   2.06242
   R27        2.07346   0.00139   0.00000   0.00403   0.00403   2.07749
    A1        2.12255  -0.00342   0.00000  -0.01333  -0.01347   2.10908
    A2        2.13182  -0.00115   0.00000  -0.00441  -0.00455   2.12726
    A3        2.02875   0.00458   0.00000   0.01808   0.01794   2.04669
    A4        2.12177   0.00131   0.00000   0.00540   0.00540   2.12717
    A5        2.07318  -0.00019   0.00000  -0.00051  -0.00051   2.07267
    A6        2.08583  -0.00112   0.00000  -0.00484  -0.00484   2.08098
    A7        2.10154   0.00112   0.00000   0.00478   0.00478   2.10632
    A8        2.09599  -0.00081   0.00000  -0.00385  -0.00386   2.09212
    A9        2.08545  -0.00031   0.00000  -0.00079  -0.00080   2.08465
   A10        2.07937  -0.00050   0.00000  -0.00207  -0.00207   2.07730
   A11        2.10528   0.00068   0.00000   0.00366   0.00366   2.10894
   A12        2.09854  -0.00018   0.00000  -0.00159  -0.00159   2.09695
   A13        2.08130   0.00024   0.00000   0.00085   0.00085   2.08215
   A14        2.11804  -0.00030   0.00000  -0.00098  -0.00098   2.11706
   A15        2.08384   0.00006   0.00000   0.00013   0.00013   2.08397
   A16        2.07694   0.00018   0.00000   0.00077   0.00077   2.07771
   A17        2.09996  -0.00050   0.00000  -0.00285  -0.00285   2.09710
   A18        2.10626   0.00031   0.00000   0.00206   0.00206   2.10833
   A19        2.10424   0.00062   0.00000   0.00235   0.00235   2.10659
   A20        2.08175  -0.00048   0.00000  -0.00219  -0.00219   2.07956
   A21        2.09720  -0.00015   0.00000  -0.00018  -0.00018   2.09702
   A22        2.08886  -0.00252   0.00000  -0.01235  -0.01235   2.07651
   A23        2.22500   0.00137   0.00000   0.00344   0.00344   2.22845
   A24        1.94696   0.00116   0.00000   0.00881   0.00880   1.95576
   A25        1.82426  -0.00262   0.00000  -0.01125  -0.01124   1.81301
   A26        1.90575   0.00070   0.00000   0.00515   0.00517   1.91092
   A27        1.91936   0.00195   0.00000   0.01543   0.01542   1.93478
   A28        1.95689   0.00091   0.00000   0.00374   0.00375   1.96064
   A29        1.97692   0.00061   0.00000   0.00250   0.00254   1.97946
   A30        1.87973  -0.00144   0.00000  -0.01433  -0.01435   1.86538
   A31        1.79731   0.00218   0.00000   0.00916   0.00915   1.80646
   A32        1.95715  -0.00143   0.00000  -0.00104  -0.00111   1.95604
   A33        1.92493   0.00029   0.00000   0.00005   0.00001   1.92494
   A34        1.96868   0.00027   0.00000   0.00789   0.00784   1.97652
   A35        1.91851  -0.00083   0.00000  -0.00124  -0.00124   1.91727
   A36        1.89596  -0.00038   0.00000  -0.01364  -0.01363   1.88233
   A37        1.78448   0.00170   0.00000   0.00597   0.00595   1.79043
   A38        1.92246  -0.00084   0.00000  -0.00031  -0.00027   1.92219
   A39        1.97289   0.00073   0.00000   0.01050   0.01045   1.98335
   A40        1.91978  -0.00003   0.00000  -0.00556  -0.00559   1.91419
   A41        1.96190  -0.00119   0.00000   0.00087   0.00080   1.96269
   A42        1.90013  -0.00031   0.00000  -0.01072  -0.01073   1.88940
   A43        1.80519  -0.00211   0.00000  -0.00676  -0.00677   1.79842
   A44        1.93988   0.00113   0.00000   0.00455   0.00454   1.94442
   A45        1.92626   0.00133   0.00000   0.01688   0.01690   1.94317
   A46        1.97516   0.00095   0.00000   0.00410   0.00412   1.97927
   A47        1.92115   0.00027   0.00000  -0.00075  -0.00074   1.92041
   A48        1.89529  -0.00149   0.00000  -0.01648  -0.01651   1.87878
    D1       -2.13265  -0.00142   0.00000  -0.10533  -0.10529  -2.23794
    D2        0.93411  -0.00145   0.00000  -0.10483  -0.10479   0.82932
    D3        0.99665  -0.00078   0.00000  -0.07433  -0.07437   0.92228
    D4       -2.21978  -0.00081   0.00000  -0.07383  -0.07388  -2.29365
    D5       -0.05209   0.00112   0.00000   0.03985   0.03989  -0.01220
    D6       -2.94801   0.00089   0.00000   0.03946   0.03950  -2.90850
    D7        3.10187   0.00049   0.00000   0.00873   0.00869   3.11056
    D8        0.20594   0.00026   0.00000   0.00835   0.00831   0.21426
    D9        3.08584  -0.00012   0.00000  -0.00390  -0.00391   3.08193
   D10       -0.03367  -0.00033   0.00000  -0.01160  -0.01160  -0.04526
   D11        0.01961  -0.00013   0.00000  -0.00459  -0.00459   0.01502
   D12       -3.09989  -0.00034   0.00000  -0.01229  -0.01228  -3.11217
   D13       -3.09942  -0.00005   0.00000  -0.00037  -0.00037  -3.09980
   D14        0.03995  -0.00020   0.00000  -0.00615  -0.00615   0.03380
   D15       -0.03109   0.00003   0.00000   0.00056   0.00055  -0.03054
   D16        3.10828  -0.00012   0.00000  -0.00522  -0.00522   3.10306
   D17        0.00414   0.00011   0.00000   0.00410   0.00410   0.00824
   D18       -3.13539   0.00007   0.00000   0.00246   0.00246  -3.13292
   D19        3.12378   0.00031   0.00000   0.01171   0.01172   3.13550
   D20       -0.01575   0.00027   0.00000   0.01008   0.01008  -0.00567
   D21        3.12916   0.00000   0.00000  -0.00024  -0.00023   3.12892
   D22       -0.01709   0.00002   0.00000   0.00039   0.00039  -0.01670
   D23       -0.01450   0.00004   0.00000   0.00140   0.00140  -0.01309
   D24        3.12244   0.00005   0.00000   0.00202   0.00203   3.12447
   D25        0.00586  -0.00011   0.00000  -0.00432  -0.00431   0.00154
   D26       -3.12795  -0.00005   0.00000  -0.00176  -0.00176  -3.12971
[...]
 Alpha virt. eigenvalues --    0.69506   0.70275   0.70960   0.72311   0.72841
 Alpha virt. eigenvalues --    0.73272   0.74815   0.75629   0.76000   0.77220
 Alpha virt. eigenvalues --    0.78313   0.80065   0.80433   0.83108   0.83974
 Alpha virt. eigenvalues --    0.85217   0.86748   0.88291   0.89160   0.90850
 Alpha virt. eigenvalues --    0.91179   0.92311   0.93019   0.93273   0.94547
 Alpha virt. eigenvalues --    0.95446   0.96561   0.97958   0.99550   1.00388
 Alpha virt. eigenvalues --    1.02266   1.02680   1.03322   1.04437   1.05235
 Alpha virt. eigenvalues --    1.05887   1.07729   1.09867   1.10273   1.11546
 Alpha virt. eigenvalues --    1.13201   1.13943   1.14726   1.16325   1.16747
 Alpha virt. eigenvalues --    1.18923   1.19567   1.20183   1.22092   1.23244
 Alpha virt. eigenvalues --    1.23543   1.24827   1.25801   1.27641   1.27783
 Alpha virt. eigenvalues --    1.28968   1.29172   1.29671   1.32326   1.33203
 Alpha virt. eigenvalues --    1.34695   1.36953   1.38503   1.38799   1.40447
 Alpha virt. eigenvalues --    1.41208   1.41816   1.45114   1.46798   1.47993
 Alpha virt. eigenvalues --    1.48704   1.49837   1.50460   1.50836   1.51823
 Alpha virt. eigenvalues --    1.53801   1.54320   1.55816   1.57303   1.57611
 Alpha virt. eigenvalues --    1.58088   1.58122   1.59331   1.60369   1.60755
 Alpha virt. eigenvalues --    1.62395   1.63093   1.63803   1.65044   1.65475
 Alpha virt. eigenvalues --    1.66122   1.67458   1.67745   1.68011   1.69391
 Alpha virt. eigenvalues --    1.69979   1.70611   1.72777   1.73470   1.74283
 Alpha virt. eigenvalues --    1.75886   1.76128   1.78623   1.78675   1.79571
 Alpha virt. eigenvalues --    1.81131   1.81740   1.83442   1.84963   1.85061
 Alpha virt. eigenvalues --    1.85784   1.88266   1.88989   1.89498   1.91105
 Alpha virt. eigenvalues --    1.92132   1.93294   1.93903   1.94896   1.95816
 Alpha virt. eigenvalues --    1.97974   1.99540   2.02158   2.03305   2.03670
 Alpha virt. eigenvalues --    2.05091   2.06747   2.07300   2.09124   2.11592
 Alpha virt. eigenvalues --    2.12931   2.13593   2.17544   2.18014   2.19559
 Alpha virt. eigenvalues --    2.20265   2.22983   2.24682   2.25471   2.26457
 Alpha virt. eigenvalues --    2.26922   2.28864   2.30888   2.34332   2.34945
 Alpha virt. eigenvalues --    2.36123   2.36868   2.39956   2.41793   2.42285
 Alpha virt. eigenvalues --    2.42967   2.44464   2.45793   2.46620   2.48547
 Alpha virt. eigenvalues --    2.49638   2.50354   2.50959   2.54928   2.56213
 Alpha virt. eigenvalues --    2.56838   2.58480   2.58866   2.60406   2.61796
 Alpha virt. eigenvalues --    2.62277   2.62412   2.62937   2.64127   2.66074
 Alpha virt. eigenvalues --    2.66456   2.67112   2.68060   2.70133   2.70772
 Alpha virt. eigenvalues --    2.71146   2.72788   2.73137   2.73736   2.75222
 Alpha virt. eigenvalues --    2.75657   2.76799   2.78104   2.78817   2.80495
 Alpha virt. eigenvalues --    2.82237   2.83508   2.84453   2.84515   2.85015
 Alpha virt. eigenvalues --    2.86101   2.87199   2.88499   2.89332   2.91630
 Alpha virt. eigenvalues --    2.92842   2.94196   2.96064   2.97948   2.99599
 Alpha virt. eigenvalues --    2.99788   3.01699   3.02796   3.04247   3.05849
 Alpha virt. eigenvalues --    3.06670   3.08561   3.10162   3.10787   3.11739
 Alpha virt. eigenvalues --    3.12897   3.14104   3.14580   3.15492   3.15822
 Alpha virt. eigenvalues --    3.16115   3.17183   3.17615   3.19646   3.20345
 Alpha virt. eigenvalues --    3.21914   3.23243   3.24600   3.25197   3.26180
 Alpha virt. eigenvalues --    3.27741   3.28121   3.29012   3.30473   3.32052
 Alpha virt. eigenvalues --    3.32544   3.34526   3.34774   3.36019   3.36864
 Alpha virt. eigenvalues --    3.37071   3.39090   3.39125   3.40583   3.41600
 Alpha virt. eigenvalues --    3.41833   3.42218   3.43162   3.44537   3.44822
 Alpha virt. eigenvalues --    3.45710   3.46764   3.48176   3.48895   3.50945
 Alpha virt. eigenvalues --    3.51708   3.53427   3.54159   3.55930   3.56220
 Alpha virt. eigenvalues --    3.59644   3.61374   3.62019   3.62711   3.64115
 Alpha virt. eigenvalues --    3.65034   3.65875   3.71995   3.74046   3.74521
 Alpha virt. eigenvalues --    3.76309   3.77022   3.78082   3.79611   3.82877
 Alpha virt. eigenvalues --    3.84601   3.89206   3.89366   3.90189   3.92682
 Alpha virt. eigenvalues --    3.95877   3.97837   3.99651   4.00076   4.01115
 Alpha virt. eigenvalues --    4.03094   4.04154   4.06547   4.07946   4.08142
 Alpha virt. eigenvalues --    4.09724   4.11793   4.14093   4.15006   4.15262
 Alpha virt. eigenvalues --    4.15693   4.16667   4.17586   4.19103   4.21131
 Alpha virt. eigenvalues --    4.22325   4.24250   4.24715   4.27586   4.29496
 Alpha virt. eigenvalues --    4.30795   4.34542   4.35907   4.36885   4.38592
 Alpha virt. eigenvalues --    4.42796   4.44033   4.45918   4.46820   4.49075
 Alpha virt. eigenvalues --    4.51569   4.53856   4.56104   4.59715   4.60281
 Alpha virt. eigenvalues --    4.63329   4.64498   4.75628   4.76734   4.79326
 Alpha virt. eigenvalues --    4.81346   4.83475   4.85059   4.89064   4.92053
 Alpha virt. eigenvalues --    4.93923   4.95648   5.01270   5.05932   5.12746
 Alpha virt. eigenvalues --    5.17759   5.18151   5.20906   5.24772   5.27920
 Alpha virt. eigenvalues --    5.31682   5.32739   5.34992   5.38879   5.43067
 Alpha virt. eigenvalues --    5.49502   5.53422   5.61563   5.69576   5.76676
 Alpha virt. eigenvalues --    5.79612   5.97375   6.14176   6.33447   6.44030
 Alpha virt. eigenvalues --    6.60642   6.72330   6.84807   7.07975   7.12220
 Alpha virt. eigenvalues --    7.85346  22.11404  22.47144  22.56888  22.62278
 Alpha virt. eigenvalues --   22.68614  22.72538  22.73436  22.82069  22.88871
 Alpha virt. eigenvalues --   23.27883  23.56130  33.07992  44.11904
          Condensed to atoms (all electrons):
               1          2          3          4          5          6
     1  O    7.959345   0.669779  -0.144959   0.001418  -0.000593   0.000348
     2  C    0.669779   4.616579   0.258143  -0.060756   0.011986  -0.005472
     3  C   -0.144959   0.258143   5.597748   0.308985  -0.024571  -0.101128
     4  C    0.001418  -0.060756   0.308985   5.161311   0.389467   0.043402
     5  C   -0.000593   0.011986  -0.024571   0.389467   5.133300   0.401485
     6  C    0.000348  -0.005472  -0.101128   0.043402   0.401485   4.900284
     7  Br  -0.000000  -0.000167  -0.006841   0.024138  -0.102250   0.370020
     8  C   -0.000331   0.007694   0.034689  -0.108647   0.026718   0.386889
     9  C    0.028567  -0.055549   0.220554   0.066558  -0.092562   0.043205
    10  N   -0.123109   0.413114  -0.144552   0.025449   0.001488   0.000099
    11  C   -0.001171  -0.066670   0.005898  -0.000459  -0.000087   0.000004
    12  C    0.006140   0.007663   0.004296  -0.000463   0.000014   0.000004
    13  C   -0.000794   0.002811  -0.001437   0.003126   0.000032  -0.000008
    14  C    0.002328  -0.051042   0.019763  -0.012515  -0.001853   0.000153
    15  H   -0.000305  -0.000548  -0.043630   0.396891  -0.010838   0.001127
    16  H    0.000006   0.000253   0.008917  -0.034831   0.418112  -0.045402
    17  H   -0.000088   0.000295   0.009783  -0.004112   0.012202  -0.048839
    18  H    0.015921  -0.002070  -0.057046   0.011841  -0.001460   0.005441
    19  H    0.010662  -0.013972  -0.002588   0.000671   0.000002   0.000007
    20  H    0.001135  -0.002608   0.001815  -0.000702   0.000001  -0.000005
    21  H    0.000031  -0.000169   0.000005   0.000010  -0.000000   0.000000
    22  H   -0.000125  -0.000355  -0.000183   0.000014  -0.000001   0.000000
    23  H   -0.000177   0.000285   0.000483  -0.000231   0.000008  -0.000004
    24  H    0.000015   0.000270   0.000004  -0.000088  -0.000001  -0.000000
    25  H    0.000903  -0.013316  -0.010996  -0.000806  -0.003265   0.001117
    26  H   -0.000240   0.002977   0.006064  -0.006626   0.001016  -0.000272
               7          8          9         10         11         12
     1  O   -0.000000  -0.000331   0.028567  -0.123109  -0.001171   0.006140
     2  C   -0.000167   0.007694  -0.055549   0.413114  -0.066670   0.007663
     3  C   -0.006841   0.034689   0.220554  -0.144552   0.005898   0.004296
     4  C    0.024138  -0.108647   0.066558   0.025449  -0.000459  -0.000463
     5  C   -0.102250   0.026718  -0.092562   0.001488  -0.000087   0.000014
     6  C    0.370020   0.386889   0.043205   0.000099   0.000004   0.000004
     7  Br  34.917939  -0.102829   0.023375  -0.000002  -0.000000   0.000000
     8  C   -0.102829   5.146888   0.369572  -0.000773   0.000022  -0.000008
     9  C    0.023375   0.369572   5.176783   0.013113  -0.000145  -0.000074
    10  N   -0.000002  -0.000773   0.013113   6.758021   0.245074  -0.052093
    11  C   -0.000000   0.000022  -0.000145   0.245074   5.065427   0.252127
    12  C    0.000000  -0.000008  -0.000074  -0.052093   0.252127   5.186307
    13  C    0.000000  -0.000016   0.000058  -0.051678  -0.046007   0.237495
    14  C    0.000000  -0.000347   0.000754   0.224094  -0.050007  -0.051707
    15  H   -0.000262  -0.000493   0.007892   0.009982   0.000114   0.000177
    16  H   -0.007117   0.011676  -0.003662  -0.000023   0.000000  -0.000001
    17  H   -0.007914   0.421943  -0.035111   0.000004   0.000000   0.000000
    18  H   -0.000198  -0.031691   0.417919   0.000875  -0.000050  -0.000005
    19  H    0.000000  -0.000013   0.000768  -0.050525   0.436695  -0.036407
    20  H   -0.000000   0.000008  -0.000339  -0.038403   0.428908  -0.041659
    21  H    0.000000   0.000000  -0.000002   0.004743  -0.041238   0.430616
    22  H    0.000000  -0.000000   0.000010   0.002090  -0.046985   0.431956
    23  H    0.000000   0.000005  -0.000097   0.005328   0.001195  -0.047913
    24  H   -0.000000   0.000001  -0.000028   0.005683   0.006695  -0.036140
    25  H    0.000006  -0.000927   0.009003  -0.039884   0.003244   0.010515
    26  H   -0.000000   0.000181  -0.002047  -0.057721   0.000579  -0.007280
              13         14         15         16         17         18
     1  O   -0.000794   0.002328  -0.000305   0.000006  -0.000088   0.015921
     2  C    0.002811  -0.051042  -0.000548   0.000253   0.000295  -0.002070
     3  C   -0.001437   0.019763  -0.043630   0.008917   0.009783  -0.057046
     4  C    0.003126  -0.012515   0.396891  -0.034831  -0.004112   0.011841
     5  C    0.000032  -0.001853  -0.010838   0.418112   0.012202  -0.001460
     6  C   -0.000008   0.000153   0.001127  -0.045402  -0.048839   0.005441
     7  Br   0.000000   0.000000  -0.000262  -0.007117  -0.007914  -0.000198
     8  C   -0.000016  -0.000347  -0.000493   0.011676   0.421943  -0.031691
     9  C    0.000058   0.000754   0.007892  -0.003662  -0.035111   0.417919
    10  N   -0.051678   0.224094   0.009982  -0.000023   0.000004   0.000875
    11  C   -0.046007  -0.050007   0.000114   0.000000   0.000000  -0.000050
    12  C    0.237495  -0.051707   0.000177  -0.000001   0.000000  -0.000005
    13  C    5.143246   0.257793   0.000857  -0.000001   0.000000   0.000014
    14  C    0.257793   5.146503  -0.005503   0.000114   0.000007  -0.000260
    15  H    0.000857  -0.005503   0.459945  -0.002563   0.000039   0.000010
    16  H   -0.000001   0.000114  -0.002563   0.472046   0.000044   0.000027
    17  H    0.000000   0.000007   0.000039   0.000044   0.471284  -0.003594
    18  H    0.000014  -0.000260   0.000010   0.000027  -0.003594   0.461157
    19  H   -0.006633   0.006034   0.000117  -0.000000  -0.000000   0.000192
    20  H    0.012113   0.002017  -0.000189   0.000001   0.000000  -0.000045
    21  H   -0.036968   0.009598  -0.000003  -0.000000  -0.000000  -0.000000
    22  H   -0.048104   0.002046   0.000038  -0.000000  -0.000000   0.000000
    23  H    0.439342  -0.052804  -0.000072   0.000000   0.000000  -0.000011
    24  H    0.430369  -0.041316  -0.000068   0.000000   0.000000  -0.000001
    25  H   -0.025227   0.423083   0.001785  -0.000143  -0.000010   0.000331
    26  H   -0.028997   0.425826  -0.008797   0.000147   0.000001  -0.000051
              19         20         21         22         23         24
     1  O    0.010662   0.001135   0.000031  -0.000125  -0.000177   0.000015
     2  C   -0.013972  -0.002608  -0.000169  -0.000355   0.000285   0.000270
     3  C   -0.002588   0.001815   0.000005  -0.000183   0.000483   0.000004
     4  C    0.000671  -0.000702   0.000010   0.000014  -0.000231  -0.000088
     5  C    0.000002   0.000001  -0.000000  -0.000001   0.000008  -0.000001
     6  C    0.000007  -0.000005   0.000000   0.000000  -0.000004  -0.000000
     7  Br   0.000000  -0.000000   0.000000   0.000000   0.000000  -0.000000
     8  C   -0.000013   0.000008   0.000000  -0.000000   0.000005   0.000001
     9  C    0.000768  -0.000339  -0.000002   0.000010  -0.000097  -0.000028
    10  N   -0.050525  -0.038403   0.004743   0.002090   0.005328   0.005683
    11  C    0.436695   0.428908  -0.041238  -0.046985   0.001195   0.006695
    12  C   -0.036407  -0.041659   0.430616   0.431956  -0.047913  -0.036140
    13  C   -0.006633   0.012113  -0.036968  -0.048104   0.439342   0.430369
    14  C    0.006034   0.002017   0.009598   0.002046  -0.052804  -0.041316
    15  H    0.000117  -0.000189  -0.000003   0.000038  -0.000072  -0.000068
    16  H   -0.000000   0.000001  -0.000000  -0.000000   0.000000   0.000000
    17  H   -0.000000   0.000000  -0.000000  -0.000000   0.000000   0.000000
    18  H    0.000192  -0.000045  -0.000000   0.000000  -0.000011  -0.000001
    19  H    0.529065  -0.036335  -0.004586   0.005390  -0.000633  -0.000471
    20  H   -0.036335   0.523937   0.000752  -0.007659   0.000082  -0.000046
    21  H   -0.004586   0.000752   0.507313  -0.019515  -0.004692  -0.000880
    22  H    0.005390  -0.007659  -0.019515   0.527245   0.005431  -0.005214
    23  H   -0.000633   0.000082  -0.004692   0.005431   0.516904  -0.017287
    24  H   -0.000471  -0.000046  -0.000880  -0.005214  -0.017287   0.506820
    25  H    0.001497  -0.000675  -0.000157   0.000029  -0.008562  -0.000985
    26  H   -0.001580   0.001682  -0.000091  -0.000383   0.006453  -0.002692
              25         26
     1  O    0.000903  -0.000240
     2  C   -0.013316   0.002977
     3  C   -0.010996   0.006064
     4  C   -0.000806  -0.006626
     5  C   -0.003265   0.001016
     6  C    0.001117  -0.000272
     7  Br   0.000006  -0.000000
     8  C   -0.000927   0.000181
     9  C    0.009003  -0.002047
    10  N   -0.039884  -0.057721
    11  C    0.003244   0.000579
    12  C    0.010515  -0.007280
    13  C   -0.025227  -0.028997
    14  C    0.423083   0.425826
    15  H    0.001785  -0.008797
    16  H   -0.000143   0.000147
    17  H   -0.000010   0.000001
    18  H    0.000331  -0.000051
    19  H    0.001497  -0.001580
    20  H   -0.000675   0.001682
    21  H   -0.000157  -0.000091
    22  H    0.000029  -0.000383
    23  H   -0.008562   0.006453
    24  H   -0.000985  -0.002692
    25  H    0.511226  -0.045028
    26  H   -0.045028   0.563519
 Mulliken charges:
               1
     1  O   -0.424706
     2  C    0.280847
     3  C    0.060784
     4  C   -0.203044
     5  C   -0.158349
     6  C    0.047545
     7  Br  -0.107897
     8  C   -0.160213
     9  C   -0.188515
    10  N   -0.150393
    11  C   -0.193167
    12  C   -0.293561
    13  C   -0.281385
    14  C   -0.252761
    15  H    0.194297
    16  H    0.182401
    17  H    0.184067
    18  H    0.182751
    19  H    0.162644
    20  H    0.156216
    21  H    0.155233
    22  H    0.154275
    23  H    0.156968
    24  H    0.155360
    25  H    0.187245
    26  H    0.153361
 Sum of Mulliken charges =  -0.00000
 Mulliken charges with hydrogens summed into heavy atoms:
               1
     1  O   -0.424706
     2  C    0.280847
     3  C    0.060784
     4  C   -0.008747
     5  C    0.024051
     6  C    0.047545
     7  Br  -0.107897
     8  C    0.023854
     9  C   -0.005763
    10  N   -0.150393
    11  C    0.125693
    12  C    0.015947
    13  C    0.030943
    14  C    0.087844
 Electronic spatial extent (au):  <R**2>=           5635.5279
 Charge=              0.0000 electrons
 Dipole moment (field-independent basis, Debye):
    X=              2.4698    Y=             -4.0569    Z=             -0.7072  Tot=              4.8019
 Quadrupole moment (field-independent basis, Debye-Ang):
   XX=            -88.9618   YY=            -99.8809   ZZ=            -94.3421
   XY=            -12.1820   XZ=             -1.1984   YZ=             -5.3351
 Traceless Quadrupole moment (field-independent basis, Debye-Ang):
   XX=              5.4331   YY=             -5.4860   ZZ=              0.0528
   XY=            -12.1820   XZ=             -1.1984   YZ=             -5.3351
 Octapole moment (field-independent basis, Debye-Ang**2):
  XXX=            -29.9774  YYY=            -33.9175  ZZZ=             -1.4321  XYY=            -56.1625
  XXY=            -27.3076  XXZ=             -8.0208  XZZ=            -31.8958  YZZ=             -3.5681
  YYZ=             -6.5894  XYZ=              3.1853
 Hexadecapole moment (field-independent basis, Debye-Ang**3):
 XXXX=          -5299.1955 YYYY=           -812.0054 ZZZZ=           -262.9515 XXXY=             -1.1900
 XXXZ=             -0.3576 YYYX=            -23.3250 YYYZ=            -26.7899 ZZZX=             11.8469
 ZZZY=             -3.8859 XXYY=          -1087.8227 XXZZ=           -971.8145 YYZZ=           -162.5529
 XXYZ=            -13.4744 YYXZ=             -0.5268 ZZXY=             17.3980
 N-N= 1.115834762877D+03 E-N=-9.678019247195D+03  KE= 3.124223258367D+03
 Calculating spin-rotation constants.
 Leave Link  601 at Tue Sep 17 11:40:01 2024, MaxMem=  1342177280 cpu:               8.9 elap:               9.2
 (Enter /groups/ReismanLab/Software/Gaussian16_RevC/Linux_Binary_AVX2-enabled-CPU/g16/l9999.exe)
 Unable to Open any file for archive entry.
 1\1\GINC-HPC-21-32\SP\RM062X\def2TZVP\C11H12Br1N1O1\MANTIND\17-Sep-202
 4\0\\#p M062X/def2tzvp geom=check guess=read scf(xqc,tight) integral(g
 rid=ultrafine) scrf(SMD, solvent=1,4-Dioxane) nmr=giao\\spe\\0,1\O,0,-
 2.544353139,-2.1832836344,-0.1113361036\C,0,-2.1950798079,-1.010915902
 9,0.0283131597\C,0,-0.7377496407,-0.6503069558,0.0439588498\C,0,-0.195
 031213,0.3371474586,0.8739919441\C,0,1.1773750821,0.5793077617,0.88904
 58595\C,0,2.0044299907,-0.1712623027,0.0574749782\Br,0,3.8834955992,0.
 1672202978,0.0572654178\C,0,1.4898991623,-1.1706162529,-0.7675634435\C
 ,0,0.1203649386,-1.4130065456,-0.7578718805\N,0,-3.1159868849,-0.01209
 17429,0.1851893366\C,0,-4.5416576207,-0.3817605975,0.1261129457\C,0,-5
 .26754027,0.9656567123,0.0374692591\C,0,-4.252045452,1.8615402709,-0.6
 863857892\C,0,-2.9192403435,1.4256067093,-0.0659092464\H,0,-0.83788167
 36,0.9066968133,1.5355178344\H,0,1.600717686,1.3352772604,1.5396548735
 \H,0,2.1534194301,-1.750685179,-1.3978811366\H,0,-0.3054711384,-2.2043
 579193,-1.3644189725\H,0,-4.7171818163,-1.0084836997,-0.7555918079\H,0
 ,-4.8206390819,-0.9732210636,1.0022016483\H,0,-6.2241473796,0.88626182
 23,-0.4842209765\H,0,-5.4646945991,1.3592644637,1.0409633486\H,0,-4.25
 1462338,1.6406465875,-1.7594991495\H,0,-4.4415062239,2.9303324999,-0.5
 590683985\H,0,-2.0600589167,1.5954221702,-0.7172534072\H,0,-2.74287898
 19,1.9676556634,0.8729511464\\Version=ES64L-G16RevC.02\State=1-A\HF=-3
 130.5661818\RMSD=4.040e-09\Dipole=-0.8985483,1.661303,-0.0432129\Quadr
 upole=3.2305549,-4.369085,1.1385301,-9.5078299,-0.3432023,3.0176664\PG
 =C01 [X(C11H12Br1N1O1)]\\@
 The archive entry for this job was punched.


 I SUPPOSE A BABY LLAMA HAS A MMAMA AND A PPOPA.
     -- RICHARD AMOUR
 Job cpu time:       0 days  0 hours 28 minutes 41.9 seconds.
 Elapsed time:       0 days  0 hours 28 minutes 48.9 seconds.
 File lengths (MBytes):  RWF=    352 Int=      0 D2E=      0 Chk=     40 Scr=     16
 Normal termination of Gaussian 16 at Tue Sep 17 11:40:02 2024.
