 Entering Gaussian System, Link 0=g16
 Input=smiles_00099_conf_0.gjf
 Output=smiles_00099_conf_0.log
 Initial command:
 /groups/ReismanLab/Software/Gaussian16_RevC/Linux_Binary_AVX2-enabled-CPU/g16/l1.exe "/central/groups/ReismanLab/DM/dft_final/smiles_00099/Gau-968452.inp" -scrdir="/central/groups/ReismanLab/DM/dft_final/smiles_00099/"
 Entering Link 1 = /groups/ReismanLab/Software/Gaussian16_RevC/Linux_Binary_AVX2-enabled-CPU/g16/l1.exe PID=    968458.
  
 Copyright (c) 1988-2021, Gaussian, Inc.  All Rights Reserved.
  
 This is part of the Gaussian(R) 16 program.  It is based on
 the Gaussian(R) 09 system (copyright 2009, Gaussian, Inc.),
 the Gaussian(R) 03 system (copyright 2003, Gaussian, Inc.),
 the Gaussian(R) 98 system (copyright 1998, Gaussian, Inc.),
 the Gaussian(R) 94 system (copyright 1995, Gaussian, Inc.),
 the Gaussian 92(TM) system (copyright 1992, Gaussian, Inc.),
 the Gaussian 90(TM) system (copyright 1990, Gaussian, Inc.),
 the Gaussian 88(TM) system (copyright 1988, Gaussian, Inc.),
 the Gaussian 86(TM) system (copyright 1986, Carnegie Mellon
 University), and the Gaussian 82(TM) system (copyright 1983,
 Carnegie Mellon University). Gaussian is a federally registered
 trademark of Gaussian, Inc.
  
 This software contains proprietary and confidential information,
 including trade secrets, belonging to Gaussian, Inc.
  
 This software is provided under written license and may be
 used, copied, transmitted, or stored only in accord with that
 written license.
  
 The following legend is applicable only to US Government
 contracts under FAR:
  
                    RESTRICTED RIGHTS LEGEND
  
 Use, reproduction and disclosure by the US Government is
 subject to restrictions as set forth in subparagraphs (a)
 and (c) of the Commercial Computer Software - Restricted
 Rights clause in FAR 52.227-19.
  
 Gaussian, Inc.
 340 Quinnipiac St., Bldg. 40, Wallingford CT 06492
  
  
 ---------------------------------------------------------------
 Warning -- This program may not be used in any manner that
 competes with the business of Gaussian, Inc. or will provide
 assistance to any competitor of Gaussian, Inc.  The licensee
 of this program is prohibited from giving any competitor of
 Gaussian, Inc. access to this program.  By using this program,
 the user acknowledges that Gaussian, Inc. is engaged in the
 business of creating and licensing software in the field of
 computational chemistry and represents and warrants to the
 licensee that it is not a competitor of Gaussian, Inc. and that
 it will not use this program in any manner prohibited above.
 ---------------------------------------------------------------
  

 Cite this work as:
 Gaussian 16, Revision C.02,
 M. J. Frisch, G. W. Trucks, H. B. Schlegel, G. E. Scuseria, 
 M. A. Robb, J. R. Cheeseman, G. Scalmani, V. Barone, 
 G. A. Petersson, H. Nakatsuji, X. Li, M. Caricato, A. V. Marenich, 
 J. Bloino, B. G. Janesko, R. Gomperts, B. Mennucci, H. P. Hratchian, 
 J. V. Ortiz, A. F. Izmaylov, J. L. Sonnenberg, D. Williams-Young, 
 F. Ding, F. Lipparini, F. Egidi, J. Goings, B. Peng, A. Petrone, 
 T. Henderson, D. Ranasinghe, V. G. Zakrzewski, J. Gao, N. Rega, 
 G. Zheng, W. Liang, M. Hada, M. Ehara, K. Toyota, R. Fukuda, 
 J. Hasegawa, M. Ishida, T. Nakajima, Y. Honda, O. Kitao, H. Nakai, 
 T. Vreven, K. Throssell, J. A. Montgomery, Jr., J. E. Peralta, 
 F. Ogliaro, M. J. Bearpark, J. J. Heyd, E. N. Brothers, K. N. Kudin, 
 V. N. Staroverov, T. A. Keith, R. Kobayashi, J. Normand, 
 K. Raghavachari, A. P. Rendell, J. C. Burant, S. S. Iyengar, 
 J. Tomasi, M. Cossi, J. M. Millam, M. Klene, C. Adamo, R. Cammi, 
 J. W. Ochterski, R. L. Martin, K. Morokuma, O. Farkas, 
 J. B. Foresman, and D. J. Fox, Gaussian, Inc., Wallingford CT, 2019.
 
 ******************************************
 Gaussian 16:  ES64L-G16RevC.02  7-Dec-2021
                17-Sep-2024 
 ******************************************
 %nprocshared=8
 Will use up to    8 processors via shared memory.
 %Mem=10GB
 %Chk=smiles_00099_conf_0.chk
 ----------------------------------------------------------------------
 #p B3LYP/6-31G(d,p) EmpiricalDispersion=GD3BJ opt freq scf(xqc,tight) 
 integral(grid=ultrafine)
 ----------------------------------------------------------------------
 1/18=20,19=15,26=4,38=1/1,3;
 2/9=110,12=2,17=6,18=5,40=1/2;
 3/5=1,6=6,7=101,11=2,25=1,30=1,71=1,74=-5,75=-5,124=41/1,2,3;
 4//1;
 5/5=2,8=3,13=1,32=2,38=5/2,8;
 6/7=2,8=2,9=2,10=2,28=1/1;
 7//1,2,3,16;
 1/18=20,19=15,26=4/3(2);
 2/9=110/2;
 99//99;
 2/9=110/2;
 3/5=1,6=6,7=101,11=2,25=1,30=1,71=1,74=-5,75=-5,124=41/1,2,3;
 4/5=5,16=3,69=1/1;
 5/5=2,8=3,13=1,32=2,38=5/2,8;
 7//1,2,3,16;
 1/18=20,19=15,26=4/3(-5);
 2/9=110/2;
 6/7=2,8=2,9=2,10=2,19=2,28=1/1;
 99/9=1/99;
 Leave Link    1 at Tue Sep 17 09:46:38 2024, MaxMem=  1342177280 cpu:               0.1 elap:               1.2
 (Enter /groups/ReismanLab/Software/Gaussian16_RevC/Linux_Binary_AVX2-enabled-CPU/g16/l101.exe)
 ----------------------------------
 opt-freq conformers_unique/conf_aa
 ----------------------------------
 Symbolic Z-matrix:
 Charge =  0 Multiplicity = 1
 C                    -4.22534  -0.78657  -0.00016 
 O                    -2.87458  -1.1926    0.00009 
 C                    -1.91531  -0.24124   0.00009 
 C                    -2.12976   1.13887   0.00001 
 N                    -1.1437    2.01747   0.00001 
 C                     0.10499   1.60458   0.00003 
 C                     0.41974   0.25048  0. 
 Br                    2.23575  -0.30772  -0.00002 
 C                    -0.59048  -0.68906   0.00009 
 H                    -4.46725  -0.20406  -0.89393 
 H                    -4.80603  -1.70721   0.00004 
 H                    -4.46739  -0.20355   0.8932 
 H                    -3.12086   1.56831   0.00001 
 H                     0.8707    2.36641  -0.00023 
 H                    -0.38846  -1.74862   0.00018 
 
 ITRead=  0  0  0  0  0  0  0  0  0  0  0  0  0  0  0
 MicOpt= -1 -1 -1 -1 -1 -1 -1 -1 -1 -1 -1 -1 -1 -1 -1
 NAtoms=     15 NQM=       15 NQMF=       0 NMMI=      0 NMMIF=      0
                NMic=       0 NMicF=      0.
                    Isotopes and Nuclear Properties:
 (Nuclear quadrupole moments (NQMom) in fm**2, nuclear magnetic moments (NMagM)
  in nuclear magnetons)

  Atom         1           2           3           4           5           6           7           8           9          10
 IAtWgt=          12          16          12          12          14          12          12          79          12           1
 AtmWgt=  12.0000000  15.9949146  12.0000000  12.0000000  14.0030740  12.0000000  12.0000000  78.9183361  12.0000000   1.0078250
 NucSpn=           0           0           0           0           2           0           0           3           0           1
 AtZEff=  -0.0000000  -0.0000000  -0.0000000  -0.0000000  -0.0000000  -0.0000000  -0.0000000  -0.0000000  -0.0000000  -0.0000000
 NQMom=    0.0000000   0.0000000   0.0000000   0.0000000   2.0440000   0.0000000   0.0000000  31.3000000   0.0000000   0.0000000
 NMagM=    0.0000000   0.0000000   0.0000000   0.0000000   0.4037610   0.0000000   0.0000000   2.1063990   0.0000000   2.7928460
 AtZNuc=   6.0000000   8.0000000   6.0000000   6.0000000   7.0000000   6.0000000   6.0000000  35.0000000   6.0000000   1.0000000

  Atom        11          12          13          14          15
 IAtWgt=           1           1           1           1           1
 AtmWgt=   1.0078250   1.0078250   1.0078250   1.0078250   1.0078250
 NucSpn=           1           1           1           1           1
 AtZEff=  -0.0000000  -0.0000000  -0.0000000  -0.0000000  -0.0000000
 NQMom=    0.0000000   0.0000000   0.0000000   0.0000000   0.0000000
 NMagM=    2.7928460   2.7928460   2.7928460   2.7928460   2.7928460
 AtZNuc=   1.0000000   1.0000000   1.0000000   1.0000000   1.0000000
 Leave Link  101 at Tue Sep 17 09:46:38 2024, MaxMem=  1342177280 cpu:               0.4 elap:               0.4
 (Enter /groups/ReismanLab/Software/Gaussian16_RevC/Linux_Binary_AVX2-enabled-CPU/g16/l103.exe)

 GradGradGradGradGradGradGradGradGradGradGradGradGradGradGradGradGradGrad
 Berny optimization.
 Initialization pass.
                           ----------------------------
                           !    Initial Parameters    !
                           ! (Angstroms and Degrees)  !
 --------------------------                            --------------------------
 ! Name  Definition              Value          Derivative Info.                !
 --------------------------------------------------------------------------------
 ! R1    R(1,2)                  1.4105         estimate D2E/DX2                !
 ! R2    R(1,10)                 1.0939         estimate D2E/DX2                !
 ! R3    R(1,11)                 1.0885         estimate D2E/DX2                !
 ! R4    R(1,12)                 1.0939         estimate D2E/DX2                !
 ! R5    R(2,3)                  1.351          estimate D2E/DX2                !
 ! R6    R(3,4)                  1.3967         estimate D2E/DX2                !
 ! R7    R(3,9)                  1.3985         estimate D2E/DX2                !
 ! R8    R(4,5)                  1.3207         estimate D2E/DX2                !
 ! R9    R(4,13)                 1.0801         estimate D2E/DX2                !
 ! R10   R(5,6)                  1.3152         estimate D2E/DX2                !
 ! R11   R(6,7)                  1.3902         estimate D2E/DX2                !
 ! R12   R(6,14)                 1.0801         estimate D2E/DX2                !
 ! R13   R(7,8)                  1.8999         estimate D2E/DX2                !
 ! R14   R(7,9)                  1.3796         estimate D2E/DX2                !
 ! R15   R(9,15)                 1.0786         estimate D2E/DX2                !
 ! A1    A(2,1,10)             111.4207         estimate D2E/DX2                !
 ! A2    A(2,1,11)             105.5105         estimate D2E/DX2                !
 ! A3    A(2,1,12)             111.4195         estimate D2E/DX2                !
 ! A4    A(10,1,11)            109.4247         estimate D2E/DX2                !
 ! A5    A(10,1,12)            109.5434         estimate D2E/DX2                !
 ! A6    A(11,1,12)            109.4264         estimate D2E/DX2                !
 ! A7    A(1,2,3)              118.5062         estimate D2E/DX2                !
 ! A8    A(2,3,4)              125.9309         estimate D2E/DX2                !
 ! A9    A(2,3,9)              116.5604         estimate D2E/DX2                !
 ! A10   A(4,3,9)              117.5088         estimate D2E/DX2                !
 ! A11   A(3,4,5)              122.8692         estimate D2E/DX2                !
 ! A12   A(3,4,13)             122.2587         estimate D2E/DX2                !
 ! A13   A(5,4,13)             114.8721         estimate D2E/DX2                !
 ! A14   A(4,5,6)              120.0015         estimate D2E/DX2                !
 ! A15   A(5,6,7)              121.3827         estimate D2E/DX2                !
 ! A16   A(5,6,14)             116.849          estimate D2E/DX2                !
 ! A17   A(7,6,14)             121.7683         estimate D2E/DX2                !
 ! A18   A(6,7,8)              120.1718         estimate D2E/DX2                !
 ! A19   A(6,7,9)              119.838          estimate D2E/DX2                !
 ! A20   A(8,7,9)              119.9902         estimate D2E/DX2                !
 ! A21   A(3,9,7)              118.3998         estimate D2E/DX2                !
 ! A22   A(3,9,15)             119.4712         estimate D2E/DX2                !
 ! A23   A(7,9,15)             122.1291         estimate D2E/DX2                !
 ! D1    D(10,1,2,3)            61.3476         estimate D2E/DX2                !
 ! D2    D(11,1,2,3)          -179.9916         estimate D2E/DX2                !
 ! D3    D(12,1,2,3)           -61.3295         estimate D2E/DX2                !
 ! D4    D(1,2,3,4)              0.0079         estimate D2E/DX2                !
 ! D5    D(1,2,3,9)           -179.9882         estimate D2E/DX2                !
 ! D6    D(2,3,4,5)           -179.9996         estimate D2E/DX2                !
 ! D7    D(2,3,4,13)             0.0039         estimate D2E/DX2                !
 ! D8    D(9,3,4,5)             -0.0035         estimate D2E/DX2                !
 ! D9    D(9,3,4,13)          -180.0            estimate D2E/DX2                !
 ! D10   D(2,3,9,7)            179.9956         estimate D2E/DX2                !
 ! D11   D(2,3,9,15)            -0.0053         estimate D2E/DX2                !
 ! D12   D(4,3,9,7)             -0.0008         estimate D2E/DX2                !
 ! D13   D(4,3,9,15)           179.9982         estimate D2E/DX2                !
 ! D14   D(3,4,5,6)              0.0025         estimate D2E/DX2                !
 ! D15   D(13,4,5,6)           179.9992         estimate D2E/DX2                !
 ! D16   D(4,5,6,7)              0.003          estimate D2E/DX2                !
 ! D17   D(4,5,6,14)           179.9847         estimate D2E/DX2                !
 ! D18   D(5,6,7,8)            179.9983         estimate D2E/DX2                !
 ! D19   D(5,6,7,9)             -0.0073         estimate D2E/DX2                !
 ! D20   D(14,6,7,8)             0.0175         estimate D2E/DX2                !
 ! D21   D(14,6,7,9)          -179.9881         estimate D2E/DX2                !
 ! D22   D(6,7,9,3)              0.006          estimate D2E/DX2                !
 ! D23   D(6,7,9,15)          -179.993          estimate D2E/DX2                !
 ! D24   D(8,7,9,3)           -179.9997         estimate D2E/DX2                !
 ! D25   D(8,7,9,15)             0.0013         estimate D2E/DX2                !
 --------------------------------------------------------------------------------
 Trust Radius=3.00D-01 FncErr=1.00D-07 GrdErr=1.00D-06 EigMax=2.50D+02 EigMin=1.00D-04
 Number of steps in this run=     73 maximum allowed number of steps=    100.
 GradGradGradGradGradGradGradGradGradGradGradGradGradGradGradGradGradGrad

 Leave Link  103 at Tue Sep 17 09:46:38 2024, MaxMem=  1342177280 cpu:               0.1 elap:               0.0
 (Enter /groups/ReismanLab/Software/Gaussian16_RevC/Linux_Binary_AVX2-enabled-CPU/g16/l202.exe)
                          Input orientation:                          
 ---------------------------------------------------------------------
 Center     Atomic      Atomic             Coordinates (Angstroms)
 Number     Number       Type             X           Y           Z
 ---------------------------------------------------------------------
      1          6           0       -4.225340   -0.786566   -0.000163
      2          8           0       -2.874578   -1.192601    0.000092
      3          6           0       -1.915314   -0.241236    0.000091
      4          6           0       -2.129762    1.138874    0.000014
      5          7           0       -1.143697    2.017471    0.000010
      6          6           0        0.104986    1.604581    0.000031
      7          6           0        0.419740    0.250477   -0.000005
      8         35           0        2.235750   -0.307718   -0.000020
      9          6           0       -0.590483   -0.689061    0.000090
     10          1           0       -4.467245   -0.204064   -0.893933
     11          1           0       -4.806027   -1.707215    0.000042
     12          1           0       -4.467395   -0.203546    0.893200
     13          1           0       -3.120860    1.568305    0.000009
     14          1           0        0.870705    2.366408   -0.000230
     15          1           0       -0.388465   -1.748617    0.000177
 ---------------------------------------------------------------------
                    Distance matrix (angstroms):
                    1          2          3          4          5
     1  C    0.000000
     2  O    1.410469   0.000000
     3  C    2.373522   1.351031   0.000000
     4  C    2.845834   2.447556   1.396672   0.000000
     5  N    4.166431   3.646987   2.386871   1.320703   0.000000
     6  C    4.946646   4.086812   2.736540   2.282757   1.315175
     7  C    4.759435   3.596527   2.386264   2.699854   2.359365
     8  Br   6.478811   5.186374   4.151596   4.598949   4.102093
     9  C    3.636164   2.338940   1.398472   2.389713   2.762492
    10  H    1.093916   2.076795   2.704259   2.840150   4.096380
    11  H    1.088481   1.998830   3.241190   3.906740   5.223595
    12  H    1.093892   2.076761   2.704105   2.839789   4.096055
    13  H    2.601018   2.771869   2.174347   1.080133   2.027542
    14  H    5.992572   5.166594   3.815981   3.241857   2.044400
    15  H    3.955649   2.547531   2.145569   3.371902   3.841067
                    6          7          8          9         10
     6  C    0.000000
     7  C    1.390205   0.000000
     8  Br   2.863049   1.899862   0.000000
     9  C    2.396763   1.379595   2.851845   0.000000
    10  H    4.997566   4.988822   6.763134   4.007965   0.000000
    11  H    5.923346   5.580429   7.179499   4.336755   1.781411
    12  H    4.997373   4.988791   6.763198   4.007969   1.787133
    13  H    3.226050   3.777899   5.675627   3.390945   2.398578
    14  H    1.080142   2.163455   3.002383   3.386881   5.991640
    15  H    3.389311   2.156286   2.993776   1.078643   4.452138
                   11         12         13         14         15
    11  H    0.000000
    12  H    1.781410   0.000000
    13  H    3.683587   2.397999   0.000000
    14  H    6.987108   5.991509   4.070573   0.000000
    15  H    4.417756   4.452236   4.297437   4.303364   0.000000
 Stoichiometry    C6H6BrNO
 Framework group  C1[X(C6H6BrNO)]
 Deg. of freedom    39
 Full point group                 C1      NOp   1
 Largest Abelian subgroup         C1      NOp   1
 Largest concise Abelian subgroup C1      NOp   1
                         Standard orientation:                         
 ---------------------------------------------------------------------
 Center     Atomic      Atomic             Coordinates (Angstroms)
 Number     Number       Type             X           Y           Z
 ---------------------------------------------------------------------
      1          6           0        4.032095   -0.724987    0.000160
      2          8           0        2.689495   -1.157247   -0.000095
      3          6           0        1.711888   -0.224740   -0.000094
      4          6           0        1.899424    1.159284   -0.000017
      5          7           0        0.896438    2.018515   -0.000013
      6          6           0       -0.343968    1.581390   -0.000034
      7          6           0       -0.632297    0.221413    0.000002
      8         35           0       -2.437094   -0.372036    0.000017
      9          6           0        0.396029   -0.698276   -0.000093
     10          1           0        4.262613   -0.137886    0.893930
     11          1           0        4.630598   -1.634155   -0.000045
     12          1           0        4.262752   -0.137365   -0.893202
     13          1           0        2.881973    1.607932   -0.000012
     14          1           0       -1.124376    2.328163    0.000227
     15          1           0        0.214679   -1.761565   -0.000180
 ---------------------------------------------------------------------
 Rotational constants (GHZ):           3.0799856           0.5376869           0.4591103
 Leave Link  202 at Tue Sep 17 09:46:38 2024, MaxMem=  1342177280 cpu:               0.0 elap:               0.0
 (Enter /groups/ReismanLab/Software/Gaussian16_RevC/Linux_Binary_AVX2-enabled-CPU/g16/l301.exe)
 Standard basis: 6-31G(d,p) (6D, 7F)
 Ernie: Thresh=  0.10000D-02 Tol=  0.10000D-05 Strict=F.
 There are   180 symmetry adapted cartesian basis functions of A   symmetry.
 There are   180 symmetry adapted basis functions of A   symmetry.
   180 basis functions,   349 primitive gaussians,   180 cartesian basis functions
    46 alpha electrons       46 beta electrons
       nuclear repulsion energy       627.8433326233 Hartrees.
 IExCor=  402 DFT=T Ex+Corr=B3LYP ExCW=0 ScaHFX=  0.200000
 ScaDFX=  0.800000  0.720000  1.000000  0.810000 ScalE2=  1.000000  1.000000
 IRadAn=      5 IRanWt=     -1 IRanGd=            0 ICorTp=0 IEmpDi=141
 NAtoms=   15 NActive=   15 NUniq=   15 SFac= 1.00D+00 NAtFMM=   60 NAOKFM=F Big=F
 Integral buffers will be    131072 words long.
 Raffenetti 2 integral format.
 Two-electron integral symmetry is turned on.
 R6Disp:  Grimme-D3(BJ) Dispersion energy=       -0.0284134523 Hartrees.
 Nuclear repulsion after empirical dispersion term =      627.8149191710 Hartrees.
 Leave Link  301 at Tue Sep 17 09:46:39 2024, MaxMem=  1342177280 cpu:               0.1 elap:               0.1
 (Enter /groups/ReismanLab/Software/Gaussian16_RevC/Linux_Binary_AVX2-enabled-CPU/g16/l302.exe)
 NPDir=0 NMtPBC=     1 NCelOv=     1 NCel=       1 NClECP=     1 NCelD=      1
         NCelK=      1 NCelE2=     1 NClLst=     1 CellRange=     0.0.
 One-electron integrals computed using PRISM.
 One-electron integral symmetry used in STVInt
 NBasis=   180 RedAO= T EigKep=  6.81D-04  NBF=   180
 NBsUse=   180 1.00D-06 EigRej= -1.00D+00 NBFU=   180
 Precomputing XC quadrature grid using
 IXCGrd= 4 IRadAn=           5 IRanWt=          -1 IRanGd=           0 AccXCQ= 0.00D+00.
 Generated NRdTot=       0 NPtTot=           0 NUsed=           0 NTot=          32
 NSgBfM=   180   180   180   180   180 MxSgAt=    15 MxSgA2=    15.
 Leave Link  302 at Tue Sep 17 09:46:39 2024, MaxMem=  1342177280 cpu:               0.9 elap:               0.2
 (Enter /groups/ReismanLab/Software/Gaussian16_RevC/Linux_Binary_AVX2-enabled-CPU/g16/l303.exe)
 DipDrv:  MaxL=1.
 Leave Link  303 at Tue Sep 17 09:46:39 2024, MaxMem=  1342177280 cpu:               0.1 elap:               0.0
 (Enter /groups/ReismanLab/Software/Gaussian16_RevC/Linux_Binary_AVX2-enabled-CPU/g16/l401.exe)
 ExpMin= 1.43D-01 ExpMax= 5.74D+05 ExpMxC= 5.74D+03 IAcc=3 IRadAn=         5 AccDes= 0.00D+00
 Harris functional with IExCor=  402 and IRadAn=       5 diagonalized for initial guess.
 HarFok:  IExCor=  402 AccDes= 0.00D+00 IRadAn=         5 IDoV= 1 UseB2=F ITyADJ=14
 ICtDFT=  3500011 ScaDFX=  1.000000  1.000000  1.000000  1.000000
 FoFCou: FMM=F IPFlag=           0 FMFlag=      100000 FMFlg1=           0
         NFxFlg=           0 DoJE=T BraDBF=F KetDBF=T FulRan=T
         wScrn=  0.000000 ICntrl=       500 IOpCl=  0 I1Cent=   200000004 NGrid=           0
         NMat0=    1 NMatS0=      1 NMatT0=    0 NMatD0=    1 NMtDS0=    0 NMtDT0=    0
 Petite list used in FoFCou.
 Harris En= -2934.03402906832    
 JPrj=0 DoOrth=F DoCkMO=F.
 Leave Link  401 at Tue Sep 17 09:46:39 2024, MaxMem=  1342177280 cpu:               3.5 elap:               0.5
 (Enter /groups/ReismanLab/Software/Gaussian16_RevC/Linux_Binary_AVX2-enabled-CPU/g16/l502.exe)
 Integral symmetry usage will be decided dynamically.
 Closed shell SCF:
 Using DIIS extrapolation, IDIIS=  1040.
 NGot=  1342177280 LenX=  1342108742 LenY=  1342075901
 Requested convergence on RMS density matrix=1.00D-08 within  32 cycles.
 Requested convergence on MAX density matrix=1.00D-06.
 Requested convergence on             energy=1.00D-06.
 No special actions if energy rises.
 Fock matrices will be formed incrementally for  20 cycles.
 Integral accuracy reduced to 1.0D-05 until final iterations.

 Cycle   1  Pass 0  IDiag  1:
 FoFJK:  IHMeth= 1 ICntrl=       0 DoSepK=F KAlg= 0 I1Cent=           0 FoldK=F
 IRaf= 890000000 NMat=       1 IRICut=       1 DoRegI=T DoRafI=F ISym2E= 0 IDoP0=0 IntGTp=1.
 FoFCou: FMM=F IPFlag=           0 FMFlag=      100000 FMFlg1=           0
         NFxFlg=           0 DoJE=F BraDBF=F KetDBF=F FulRan=T
         wScrn=  0.000000 ICntrl=         0 IOpCl=  0 I1Cent=           0 NGrid=           0
         NMat0=    1 NMatS0=      1 NMatT0=    0 NMatD0=    1 NMtDS0=    0 NMtDT0=    0
 Symmetry not used in FoFCou.
 E= -2933.80390118601    
 DIIS: error= 2.04D-01 at cycle   1 NSaved=   1.
 NSaved= 1 IEnMin= 1 EnMin= -2933.80390118601     IErMin= 1 ErrMin= 2.04D-01
 ErrMax= 2.04D-01  0.00D+00 EMaxC= 1.00D-01 BMatC= 4.92D-01 BMatP= 4.92D-01
 IDIUse=3 WtCom= 0.00D+00 WtEn= 1.00D+00
 Coeff-Com:  0.100D+01
 Coeff-En:   0.100D+01
 Coeff:      0.100D+01
 Gap=     0.235 Goal=   None    Shift=    0.000
 GapD=    0.235 DampG=1.000 DampE=0.250 DampFc=0.2500 IDamp=-1.
 Damping current iteration by 2.50D-01
 RMSDP=5.27D-03 MaxDP=1.42D-01              OVMax= 1.34D-01

 Cycle   2  Pass 0  IDiag  1:
 RMSU=  1.26D-03    CP:  9.93D-01
 E= -2933.85342618178     Delta-E=       -0.049524995770 Rises=F Damp=T
 DIIS: error= 1.50D-01 at cycle   2 NSaved=   2.
 NSaved= 2 IEnMin= 2 EnMin= -2933.85342618178     IErMin= 2 ErrMin= 1.50D-01
 ErrMax= 1.50D-01  0.00D+00 EMaxC= 1.00D-01 BMatC= 2.33D-01 BMatP= 4.92D-01
 IDIUse=3 WtCom= 0.00D+00 WtEn= 1.00D+00
 Coeff-Com: -0.175D+01 0.275D+01
 Coeff-En:   0.000D+00 0.100D+01
 Coeff:      0.000D+00 0.100D+01
 Gap=     0.241 Goal=   None    Shift=    0.000
 RMSDP=2.93D-03 MaxDP=1.10D-01 DE=-4.95D-02 OVMax= 4.82D-02

 Cycle   3  Pass 0  IDiag  1:
 RMSU=  9.05D-04    CP:  9.70D-01  3.00D+00
 E= -2933.91933427494     Delta-E=       -0.065908093155 Rises=F Damp=F
 DIIS: error= 1.21D-02 at cycle   3 NSaved=   3.
 NSaved= 3 IEnMin= 3 EnMin= -2933.91933427494     IErMin= 3 ErrMin= 1.21D-02
 ErrMax= 1.21D-02  0.00D+00 EMaxC= 1.00D-01 BMatC= 2.75D-02 BMatP= 2.33D-01
 IDIUse=3 WtCom= 8.79D-01 WtEn= 1.21D-01
 Coeff-Com:  0.179D+01-0.232D+01 0.153D+01
 Coeff-En:   0.517D-01 0.000D+00 0.948D+00
 Coeff:      0.158D+01-0.204D+01 0.146D+01
 Gap=     0.215 Goal=   None    Shift=    0.000
 RMSDP=1.29D-03 MaxDP=3.04D-02 DE=-6.59D-02 OVMax= 4.31D-02

 Cycle   4  Pass 0  IDiag  1:
 RMSU=  6.62D-04    CP:  9.71D-01  2.19D+00  1.38D+00
 E= -2933.94109266274     Delta-E=       -0.021758387803 Rises=F Damp=F
 DIIS: error= 4.54D-03 at cycle   4 NSaved=   4.
 NSaved= 4 IEnMin= 4 EnMin= -2933.94109266274     IErMin= 4 ErrMin= 4.54D-03
 ErrMax= 4.54D-03  0.00D+00 EMaxC= 1.00D-01 BMatC= 5.08D-03 BMatP= 2.75D-02
 IDIUse=3 WtCom= 9.55D-01 WtEn= 4.54D-02
 Coeff-Com:  0.104D+01-0.137D+01 0.885D+00 0.443D+00
 Coeff-En:   0.000D+00 0.000D+00 0.000D+00 0.100D+01
 Coeff:      0.993D+00-0.131D+01 0.845D+00 0.468D+00
 Gap=     0.211 Goal=   None    Shift=    0.000
 RMSDP=5.25D-04 MaxDP=1.17D-02 DE=-2.18D-02 OVMax= 3.22D-02

 Cycle   5  Pass 0  IDiag  1:
 RMSU=  1.74D-04    CP:  9.71D-01  2.26D+00  1.43D+00  2.67D-01
 E= -2933.94601306693     Delta-E=       -0.004920404195 Rises=F Damp=F
 DIIS: error= 1.47D-03 at cycle   5 NSaved=   5.
 NSaved= 5 IEnMin= 5 EnMin= -2933.94601306693     IErMin= 5 ErrMin= 1.47D-03
 ErrMax= 1.47D-03  0.00D+00 EMaxC= 1.00D-01 BMatC= 3.27D-04 BMatP= 5.08D-03
 IDIUse=3 WtCom= 9.85D-01 WtEn= 1.47D-02
 Coeff-Com:  0.306D+00-0.403D+00 0.268D+00 0.250D+00 0.580D+00
 Coeff-En:   0.000D+00 0.000D+00 0.000D+00 0.130D-01 0.987D+00
 Coeff:      0.301D+00-0.397D+00 0.264D+00 0.246D+00 0.586D+00
 Gap=     0.209 Goal=   None    Shift=    0.000
 RMSDP=1.40D-04 MaxDP=3.31D-03 DE=-4.92D-03 OVMax= 8.57D-03

 Cycle   6  Pass 0  IDiag  1:
 RMSU=  5.17D-05    CP:  9.71D-01  2.27D+00  1.43D+00  4.18D-01  5.26D-01
 E= -2933.94634222164     Delta-E=       -0.000329154701 Rises=F Damp=F
 DIIS: error= 2.89D-04 at cycle   6 NSaved=   6.
 NSaved= 6 IEnMin= 6 EnMin= -2933.94634222164     IErMin= 6 ErrMin= 2.89D-04
 ErrMax= 2.89D-04  0.00D+00 EMaxC= 1.00D-01 BMatC= 3.06D-05 BMatP= 3.27D-04
 IDIUse=3 WtCom= 9.97D-01 WtEn= 2.89D-03
 Coeff-Com:  0.966D-01-0.128D+00 0.873D-01 0.112D+00 0.349D+00 0.483D+00
 Coeff-En:   0.000D+00 0.000D+00 0.000D+00 0.000D+00 0.000D+00 0.100D+01
 Coeff:      0.964D-01-0.127D+00 0.870D-01 0.111D+00 0.348D+00 0.484D+00
 Gap=     0.209 Goal=   None    Shift=    0.000
 RMSDP=3.23D-05 MaxDP=9.87D-04 DE=-3.29D-04 OVMax= 2.40D-03

 Cycle   7  Pass 0  IDiag  1:
 RMSU=  1.74D-05    CP:  9.71D-01  2.27D+00  1.43D+00  4.09D-01  5.90D-01
                    CP:  5.35D-01
 E= -2933.94637135522     Delta-E=       -0.000029133580 Rises=F Damp=F
 DIIS: error= 7.82D-05 at cycle   7 NSaved=   7.
 NSaved= 7 IEnMin= 7 EnMin= -2933.94637135522     IErMin= 7 ErrMin= 7.82D-05
 ErrMax= 7.82D-05  0.00D+00 EMaxC= 1.00D-01 BMatC= 1.07D-06 BMatP= 3.06D-05
 IDIUse=1 WtCom= 1.00D+00 WtEn= 0.00D+00
 Coeff-Com:  0.295D-01-0.391D-01 0.273D-01 0.399D-01 0.136D+00 0.232D+00
 Coeff-Com:  0.575D+00
 Coeff:      0.295D-01-0.391D-01 0.273D-01 0.399D-01 0.136D+00 0.232D+00
 Coeff:      0.575D+00
 Gap=     0.209 Goal=   None    Shift=    0.000
 RMSDP=9.94D-06 MaxDP=2.76D-04 DE=-2.91D-05 OVMax= 7.72D-04

 Initial convergence to 1.0D-05 achieved.  Increase integral accuracy.
 Cycle   8  Pass 1  IDiag  1:
 E= -2933.94637839665     Delta-E=       -0.000007041433 Rises=F Damp=F
 DIIS: error= 4.41D-05 at cycle   1 NSaved=   1.
 NSaved= 1 IEnMin= 1 EnMin= -2933.94637839665     IErMin= 1 ErrMin= 4.41D-05
 ErrMax= 4.41D-05  0.00D+00 EMaxC= 1.00D-01 BMatC= 3.65D-07 BMatP= 3.65D-07
 IDIUse=1 WtCom= 1.00D+00 WtEn= 0.00D+00
 Coeff-Com:  0.100D+01
 Coeff:      0.100D+01
 Gap=     0.209 Goal=   None    Shift=    0.000
 RMSDP=9.94D-06 MaxDP=2.76D-04 DE=-7.04D-06 OVMax= 6.89D-04

 Cycle   9  Pass 1  IDiag  1:
 RMSU=  1.20D-05    CP:  1.00D+00
 E= -2933.94637735035     Delta-E=        0.000001046300 Rises=F Damp=F
 DIIS: error= 9.63D-05 at cycle   2 NSaved=   2.
 NSaved= 2 IEnMin= 1 EnMin= -2933.94637839665     IErMin= 1 ErrMin= 4.41D-05
 ErrMax= 9.63D-05  0.00D+00 EMaxC= 1.00D-01 BMatC= 1.33D-06 BMatP= 3.65D-07
 IDIUse=1 WtCom= 1.00D+00 WtEn= 0.00D+00
 Coeff-Com:  0.663D+00 0.337D+00
 Coeff:      0.663D+00 0.337D+00
 Gap=     0.209 Goal=   None    Shift=    0.000
 RMSDP=7.12D-06 MaxDP=1.88D-04 DE= 1.05D-06 OVMax= 4.95D-04

 Cycle  10  Pass 1  IDiag  1:
 RMSU=  4.08D-06    CP:  1.00D+00  5.14D-01
 E= -2933.94637874644     Delta-E=       -0.000001396093 Rises=F Damp=F
 DIIS: error= 5.98D-06 at cycle   3 NSaved=   3.
 NSaved= 3 IEnMin= 3 EnMin= -2933.94637874644     IErMin= 3 ErrMin= 5.98D-06
 ErrMax= 5.98D-06  0.00D+00 EMaxC= 1.00D-01 BMatC= 9.95D-09 BMatP= 3.65D-07
 IDIUse=1 WtCom= 1.00D+00 WtEn= 0.00D+00
 Coeff-Com:  0.143D+00 0.113D+00 0.744D+00
 Coeff:      0.143D+00 0.113D+00 0.744D+00
 Gap=     0.209 Goal=   None    Shift=    0.000
 RMSDP=7.92D-07 MaxDP=2.02D-05 DE=-1.40D-06 OVMax= 4.06D-05

 Cycle  11  Pass 1  IDiag  1:
 RMSU=  6.80D-07    CP:  1.00D+00  5.42D-01  9.45D-01
 E= -2933.94637875313     Delta-E=       -0.000000006683 Rises=F Damp=F
 DIIS: error= 4.96D-06 at cycle   4 NSaved=   4.
 NSaved= 4 IEnMin= 4 EnMin= -2933.94637875313     IErMin= 4 ErrMin= 4.96D-06
 ErrMax= 4.96D-06  0.00D+00 EMaxC= 1.00D-01 BMatC= 3.38D-09 BMatP= 9.95D-09
 IDIUse=1 WtCom= 1.00D+00 WtEn= 0.00D+00
 Coeff-Com:  0.503D-02 0.261D-01 0.426D+00 0.543D+00
 Coeff:      0.503D-02 0.261D-01 0.426D+00 0.543D+00
 Gap=     0.209 Goal=   None    Shift=    0.000
 RMSDP=3.34D-07 MaxDP=9.40D-06 DE=-6.68D-09 OVMax= 1.69D-05

 Cycle  12  Pass 1  IDiag  1:
 RMSU=  1.19D-07    CP:  1.00D+00  5.43D-01  9.57D-01  5.47D-01
 E= -2933.94637875644     Delta-E=       -0.000000003314 Rises=F Damp=F
 DIIS: error= 6.56D-07 at cycle   5 NSaved=   5.
 NSaved= 5 IEnMin= 5 EnMin= -2933.94637875644     IErMin= 5 ErrMin= 6.56D-07
 ErrMax= 6.56D-07  0.00D+00 EMaxC= 1.00D-01 BMatC= 9.61D-11 BMatP= 3.38D-09
 IDIUse=1 WtCom= 1.00D+00 WtEn= 0.00D+00
 Coeff-Com: -0.860D-03 0.110D-01 0.205D+00 0.286D+00 0.499D+00
 Coeff:     -0.860D-03 0.110D-01 0.205D+00 0.286D+00 0.499D+00
 Gap=     0.209 Goal=   None    Shift=    0.000
 RMSDP=6.29D-08 MaxDP=1.65D-06 DE=-3.31D-09 OVMax= 3.13D-06

 Cycle  13  Pass 1  IDiag  1:
 RMSU=  3.31D-08    CP:  1.00D+00  5.44D-01  9.58D-01  5.73D-01  5.76D-01
 E= -2933.94637875650     Delta-E=       -0.000000000060 Rises=F Damp=F
 DIIS: error= 1.69D-07 at cycle   6 NSaved=   6.
 NSaved= 6 IEnMin= 6 EnMin= -2933.94637875650     IErMin= 6 ErrMin= 1.69D-07
 ErrMax= 1.69D-07  0.00D+00 EMaxC= 1.00D-01 BMatC= 8.82D-12 BMatP= 9.61D-11
 IDIUse=1 WtCom= 1.00D+00 WtEn= 0.00D+00
 Coeff-Com: -0.978D-03 0.378D-02 0.772D-01 0.113D+00 0.283D+00 0.523D+00
 Coeff:     -0.978D-03 0.378D-02 0.772D-01 0.113D+00 0.283D+00 0.523D+00
 Gap=     0.209 Goal=   None    Shift=    0.000
 RMSDP=1.59D-08 MaxDP=4.39D-07 DE=-6.00D-11 OVMax= 8.09D-07

 Cycle  14  Pass 1  IDiag  1:
 RMSU=  9.99D-09    CP:  1.00D+00  5.44D-01  9.58D-01  5.71D-01  6.21D-01
                    CP:  6.67D-01
 E= -2933.94637875650     Delta-E=       -0.000000000005 Rises=F Damp=F
 DIIS: error= 4.58D-08 at cycle   7 NSaved=   7.
 NSaved= 7 IEnMin= 7 EnMin= -2933.94637875650     IErMin= 7 ErrMin= 4.58D-08
 ErrMax= 4.58D-08  0.00D+00 EMaxC= 1.00D-01 BMatC= 4.24D-13 BMatP= 8.82D-12
 IDIUse=1 WtCom= 1.00D+00 WtEn= 0.00D+00
 Coeff-Com: -0.445D-03 0.134D-02 0.283D-01 0.426D-01 0.120D+00 0.265D+00
 Coeff-Com:  0.543D+00
 Coeff:     -0.445D-03 0.134D-02 0.283D-01 0.426D-01 0.120D+00 0.265D+00
 Coeff:      0.543D+00
 Gap=     0.209 Goal=   None    Shift=    0.000
 RMSDP=5.43D-09 MaxDP=1.38D-07 DE=-5.46D-12 OVMax= 3.21D-07

 SCF Done:  E(RB3LYP) =  -2933.94637876     A.U. after   14 cycles
            NFock= 14  Conv=0.54D-08     -V/T= 2.0065
 KE= 2.915095762479D+03 PE=-8.231748020965D+03 EE= 1.754890960558D+03
 Leave Link  502 at Tue Sep 17 09:46:46 2024, MaxMem=  1342177280 cpu:              54.1 elap:               7.2
 (Enter /groups/ReismanLab/Software/Gaussian16_RevC/Linux_Binary_AVX2-enabled-CPU/g16/l508.exe)
 QCSCF skips out because SCF is already converged.
 Leave Link  508 at Tue Sep 17 09:46:47 2024, MaxMem=  1342177280 cpu:               0.0 elap:               0.0
 (Enter /groups/ReismanLab/Software/Gaussian16_RevC/Linux_Binary_AVX2-enabled-CPU/g16/l601.exe)
 Copying SCF densities to generalized density rwf, IOpCl= 0 IROHF=0.

 **********************************************************************

            Population analysis using the SCF Density.

 **********************************************************************

 Orbital symmetries:
       Occupied  (A) (A) (A) (A) (A) (A) (A) (A) (A) (A) (A) (A)
                 (A) (A) (A) (A) (A) (A) (A) (A) (A) (A) (A) (A)
                 (A) (A) (A) (A) (A) (A) (A) (A) (A) (A) (A) (A)
                 (A) (A) (A) (A) (A) (A) (A) (A) (A) (A)
       Virtual   (A) (A) (A) (A) (A) (A) (A) (A) (A) (A) (A) (A)
                 (A) (A) (A) (A) (A) (A) (A) (A) (A) (A) (A) (A)
                 (A) (A) (A) (A) (A) (A) (A) (A) (A) (A) (A) (A)
                 (A) (A) (A) (A) (A) (A) (A) (A) (A) (A) (A) (A)
                 (A) (A) (A) (A) (A) (A) (A) (A) (A) (A) (A) (A)
                 (A) (A) (A) (A) (A) (A) (A) (A) (A) (A) (A) (A)
                 (A) (A) (A) (A) (A) (A) (A) (A) (A) (A) (A) (A)
                 (A) (A) (A) (A) (A) (A) (A) (A) (A) (A) (A) (A)
                 (A) (A) (A) (A) (A) (A) (A) (A) (A) (A) (A) (A)
                 (A) (A) (A) (A) (A) (A) (A) (A) (A) (A) (A) (A)
                 (A) (A) (A) (A) (A) (A) (A) (A) (A) (A) (A) (A)
                 (A) (A)
 The electronic state is 1-A.
 Alpha  occ. eigenvalues -- -482.91616 -61.87787 -56.39927 -56.39508 -56.39500
 Alpha  occ. eigenvalues --  -19.19744 -14.33917 -10.26831 -10.25388 -10.25375
 Alpha  occ. eigenvalues --  -10.22582 -10.22538 -10.21400  -8.58933  -6.54339
 Alpha  occ. eigenvalues --   -6.53053  -6.53021  -2.65911  -2.65543  -2.65520
 Alpha  occ. eigenvalues --   -2.64493  -2.64493  -1.08938  -0.95933  -0.84111
 Alpha  occ. eigenvalues --   -0.79898  -0.74243  -0.72274  -0.64480  -0.61481
 Alpha  occ. eigenvalues --   -0.54668  -0.52449  -0.51220  -0.48721  -0.44604
 Alpha  occ. eigenvalues --   -0.43535  -0.41918  -0.41898  -0.38625  -0.36241
 Alpha  occ. eigenvalues --   -0.35618  -0.33164  -0.29364  -0.26450  -0.25943
 Alpha  occ. eigenvalues --   -0.24038
 Alpha virt. eigenvalues --   -0.03113  -0.00851   0.00548   0.09229   0.10843
 Alpha virt. eigenvalues --    0.13665   0.14341   0.14538   0.15782   0.16348
 Alpha virt. eigenvalues --    0.17516   0.21873   0.24804   0.24960   0.30771
 Alpha virt. eigenvalues --    0.32304   0.37214   0.37749   0.41064   0.45662
 Alpha virt. eigenvalues --    0.45907   0.45964   0.47628   0.48156   0.48798
 Alpha virt. eigenvalues --    0.51404   0.52312   0.54154   0.55275   0.56569
 Alpha virt. eigenvalues --    0.57247   0.59651   0.59740   0.62146   0.64437
 Alpha virt. eigenvalues --    0.67000   0.69655   0.72215   0.74337   0.74697
 Alpha virt. eigenvalues --    0.77953   0.80866   0.81119   0.81719   0.83523
 Alpha virt. eigenvalues --    0.86561   0.87388   0.88006   0.89112   0.91330
 Alpha virt. eigenvalues --    0.92554   0.95443   1.01958   1.02192   1.03751
 Alpha virt. eigenvalues --    1.11108   1.15513   1.19690   1.20360   1.22281
 Alpha virt. eigenvalues --    1.28247   1.29423   1.31251   1.36821   1.39712
 Alpha virt. eigenvalues --    1.39824   1.43189   1.45675   1.47182   1.53972
 Alpha virt. eigenvalues --    1.56311   1.61934   1.70239   1.74246   1.78797
 Alpha virt. eigenvalues --    1.82723   1.85173   1.86545   1.87230   1.89488
 Alpha virt. eigenvalues --    1.90333   1.92457   1.98270   2.00594   2.02086
 Alpha virt. eigenvalues --    2.03274   2.04775   2.06472   2.11585   2.12514
 Alpha virt. eigenvalues --    2.14943   2.19274   2.27792   2.30759   2.33753
 Alpha virt. eigenvalues --    2.34996   2.41358   2.44832   2.46566   2.51060
 Alpha virt. eigenvalues --    2.52682   2.53733   2.57649   2.58407   2.60910
 Alpha virt. eigenvalues --    2.64547   2.67331   2.67784   2.71255   2.72887
 Alpha virt. eigenvalues --    2.77312   2.83431   2.85077   2.95900   3.00888
 Alpha virt. eigenvalues --    3.08505   3.17957   3.20478   3.29619   3.38645
 Alpha virt. eigenvalues --    3.39224   3.42225   3.44017   3.70898   4.04558
 Alpha virt. eigenvalues --    4.06457   4.18526   4.28726   4.37164   4.44720
 Alpha virt. eigenvalues --    4.49716   4.72380   8.60153  72.80328
          Condensed to atoms (all electrons):
               1          2          3          4          5          6
     1  C    4.725873   0.248777  -0.043134  -0.005098   0.000085   0.000030
     2  O    0.248777   8.203188   0.269095  -0.052162   0.003431   0.000219
     3  C   -0.043134   0.269095   4.663051   0.422541  -0.000408  -0.035207
     4  C   -0.005098  -0.052162   0.422541   4.908365   0.454221  -0.088349
     5  N    0.000085   0.003431  -0.000408   0.454221   6.665197   0.473286
     6  C    0.000030   0.000219  -0.035207  -0.088349   0.473286   4.787588
     7  C   -0.000141   0.003834  -0.010066  -0.031198  -0.018723   0.468720
     8  Br   0.000002  -0.000038   0.006317   0.000049   0.004998  -0.048992
     9  C    0.004265  -0.056020   0.498215  -0.069498  -0.056054  -0.046062
    10  H    0.375977  -0.035181  -0.004438   0.004447  -0.000064  -0.000017
    11  H    0.397692  -0.033914   0.002668   0.000158   0.000000   0.000001
    12  H    0.375976  -0.035180  -0.004443   0.004447  -0.000064  -0.000017
    13  H    0.004780  -0.004125  -0.068342   0.387832  -0.047452   0.004793
    14  H   -0.000000   0.000005   0.000643   0.004413  -0.049320   0.392126
    15  H   -0.000154  -0.001086  -0.038207   0.006794  -0.000539   0.005076
               7          8          9         10         11         12
     1  C   -0.000141   0.000002   0.004265   0.375977   0.397692   0.375976
     2  O    0.003834  -0.000038  -0.056020  -0.035181  -0.033914  -0.035180
     3  C   -0.010066   0.006317   0.498215  -0.004438   0.002668  -0.004443
     4  C   -0.031198   0.000049  -0.069498   0.004447   0.000158   0.004447
     5  N   -0.018723   0.004998  -0.056054  -0.000064   0.000000  -0.000064
     6  C    0.468720  -0.048992  -0.046062  -0.000017   0.000001  -0.000017
     7  C    4.908589   0.244542   0.509657   0.000007   0.000003   0.000007
     8  Br   0.244542  34.976719  -0.062182  -0.000000  -0.000000  -0.000000
     9  C    0.509657  -0.062182   4.988262   0.000050  -0.000160   0.000050
    10  H    0.000007  -0.000000   0.000050   0.619571  -0.032138  -0.048708
    11  H    0.000003  -0.000000  -0.000160  -0.032138   0.566480  -0.032133
    12  H    0.000007  -0.000000   0.000050  -0.048708  -0.032133   0.619569
    13  H    0.000671   0.000016   0.002970   0.001158  -0.000084   0.001159
    14  H   -0.066295   0.002041   0.003340   0.000000  -0.000000   0.000000
    15  H   -0.043629  -0.004776   0.367428   0.000026  -0.000034   0.000026
              13         14         15
     1  C    0.004780  -0.000000  -0.000154
     2  O   -0.004125   0.000005  -0.001086
     3  C   -0.068342   0.000643  -0.038207
     4  C    0.387832   0.004413   0.006794
     5  N   -0.047452  -0.049320  -0.000539
     6  C    0.004793   0.392126   0.005076
     7  C    0.000671  -0.066295  -0.043629
     8  Br   0.000016   0.002041  -0.004776
     9  C    0.002970   0.003340   0.367428
    10  H    0.001158   0.000000   0.000026
    11  H   -0.000084  -0.000000  -0.000034
    12  H    0.001159   0.000000   0.000026
    13  H    0.616102  -0.000177  -0.000162
    14  H   -0.000177   0.598386  -0.000151
    15  H   -0.000162  -0.000151   0.583571
 Mulliken charges:
               1
     1  C   -0.084930
     2  O   -0.510841
     3  C    0.341714
     4  C    0.053036
     5  N   -0.428594
     6  C    0.086805
     7  C    0.034022
     8  Br  -0.118697
     9  C   -0.084261
    10  H    0.119309
    11  H    0.131462
    12  H    0.119311
    13  H    0.100860
    14  H    0.114988
    15  H    0.125817
 Sum of Mulliken charges =  -0.00000
 Mulliken charges with hydrogens summed into heavy atoms:
               1
     1  C    0.285151
     2  O   -0.510841
     3  C    0.341714
     4  C    0.153896
     5  N   -0.428594
     6  C    0.201792
     7  C    0.034022
     8  Br  -0.118697
     9  C    0.041556
 Electronic spatial extent (au):  <R**2>=           2168.4493
 Charge=             -0.0000 electrons
 Dipole moment (field-independent basis, Debye):
    X=              2.5977    Y=             -1.0777    Z=              0.0003  Tot=              2.8124
 Quadrupole moment (field-independent basis, Debye-Ang):
   XX=            -51.1740   YY=            -67.9173   ZZ=            -65.3103
   XY=             -2.0788   XZ=              0.0007   YZ=              0.0002
 Traceless Quadrupole moment (field-independent basis, Debye-Ang):
   XX=             10.2932   YY=             -6.4501   ZZ=             -3.8431
   XY=             -2.0788   XZ=              0.0007   YZ=              0.0002
 Octapole moment (field-independent basis, Debye-Ang**2):
  XXX=             -3.6236  YYY=            -30.2449  ZZZ=              0.0011  XYY=            -30.0973
  XXY=             -9.3638  XXZ=              0.0036  XZZ=            -20.0548  YZZ=             -5.4873
  YYZ=              0.0006  XYZ=             -0.0018
 Hexadecapole moment (field-independent basis, Debye-Ang**3):
 XXXX=          -1641.0577 YYYY=           -500.9429 ZZZZ=            -72.6050 XXXY=             -2.5907
 XXXZ=              0.0054 YYYX=            -10.0909 YYYZ=              0.0030 ZZZX=             -0.0028
 ZZZY=             -0.0003 XXYY=           -392.7573 XXZZ=           -340.1395 YYZZ=            -92.8992
 XXYZ=             -0.0034 YYXZ=             -0.0038 ZZXY=              5.5223
 N-N= 6.278149191710D+02 E-N=-8.231748025839D+03  KE= 2.915095762479D+03
 No NMR shielding tensors so no spin-rotation constants.
 Leave Link  601 at Tue Sep 17 09:46:47 2024, MaxMem=  1342177280 cpu:               0.6 elap:               0.1
 (Enter /groups/ReismanLab/Software/Gaussian16_RevC/Linux_Binary_AVX2-enabled-CPU/g16/l701.exe)
 ... and contract with generalized density number  0.
 Compute integral first derivatives.
 R6Disp: Adding Grimme-D3(BJ) dispersion energy 1st derivatives to the gradient.
 Leave Link  701 at Tue Sep 17 09:46:47 2024, MaxMem=  1342177280 cpu:               0.6 elap:               0.1
 (Enter /groups/ReismanLab/Software/Gaussian16_RevC/Linux_Binary_AVX2-enabled-CPU/g16/l702.exe)
 L702 exits ... SP integral derivatives will be done elsewhere.
 Leave Link  702 at Tue Sep 17 09:46:47 2024, MaxMem=  1342177280 cpu:               0.0 elap:               0.0
 (Enter /groups/ReismanLab/Software/Gaussian16_RevC/Linux_Binary_AVX2-enabled-CPU/g16/l703.exe)
 Integral derivatives from FoFJK, PRISM(SPDF).
 Compute integral first derivatives, UseDBF=F ICtDFT=           0.
 Calling FoFJK, ICntrl=      2127 FMM=F ISym2X=0 I1Cent= 0 IOpClX= 0 NMat=1 NMatS=1 NMatT=0.
 FoFJK:  IHMeth= 1 ICntrl=    2127 DoSepK=F KAlg= 0 I1Cent=           0 FoldK=F
 IRaf=         0 NMat=       1 IRICut=       1 DoRegI=T DoRafI=F ISym2E= 0 IDoP0=0 IntGTp=1.
 FoFCou: FMM=F IPFlag=           0 FMFlag=      100000 FMFlg1=         800
         NFxFlg=           0 DoJE=F BraDBF=F KetDBF=F FulRan=T
         wScrn=  0.000000 ICntrl=      2127 IOpCl=  0 I1Cent=           0 NGrid=           0
         NMat0=    1 NMatS0=      1 NMatT0=    0 NMatD0=    1 NMtDS0=    0 NMtDT0=    0
 Symmetry not used in FoFCou.
 Leave Link  703 at Tue Sep 17 09:46:49 2024, MaxMem=  1342177280 cpu:              15.7 elap:               2.2
 (Enter /groups/ReismanLab/Software/Gaussian16_RevC/Linux_Binary_AVX2-enabled-CPU/g16/l716.exe)
 Dipole        = 1.02201490D+00-4.24015671D-01 1.02968640D-04
 ***** Axes restored to original set *****
 -------------------------------------------------------------------
 Center     Atomic                   Forces (Hartrees/Bohr)
 Number     Number              X              Y              Z
 -------------------------------------------------------------------
      1        6          -0.004425040    0.000455028   -0.000009175
      2        8           0.005643498   -0.005362229    0.000001775
      3        6           0.003388997    0.000288138   -0.000008537
      4        6          -0.014135774   -0.004636351    0.000008458
      5        7          -0.002623349    0.016468618   -0.000000080
      6        6           0.011998972    0.001881929   -0.000026579
      7        6           0.002628742   -0.003396547    0.000013826
      8       35           0.002826155   -0.000325505   -0.000001497
      9        6          -0.002414123   -0.004157008    0.000002879
     10        1          -0.000898299    0.001444163   -0.001204432
     11        1          -0.001796478   -0.000382694    0.000001001
     12        1          -0.000907410    0.001449209    0.001215554
     13        1          -0.005419215   -0.001561746   -0.000002002
     14        1           0.005099926    0.001067649    0.000011628
     15        1           0.001033397   -0.003232654   -0.000002819
 -------------------------------------------------------------------
 Cartesian Forces:  Max     0.016468618 RMS     0.004399826
 Leave Link  716 at Tue Sep 17 09:46:49 2024, MaxMem=  1342177280 cpu:               0.1 elap:               0.0
 (Enter /groups/ReismanLab/Software/Gaussian16_RevC/Linux_Binary_AVX2-enabled-CPU/g16/l103.exe)

 GradGradGradGradGradGradGradGradGradGradGradGradGradGradGradGradGradGrad
 Berny optimization.
 FormGI is forming the generalized inverse of G from B-inverse, IUseBI=4.
 Internal  Forces:  Max     0.018902240 RMS     0.004262328
 Search for a local minimum.
 Step number   1 out of a maximum of   73
 All quantities printed in internal units (Hartrees-Bohrs-Radians)
 RMS Force = .42623D-02 SwitMx=.10000D-02 MixMth= 1
 Mixed Optimization -- RFO/linear search
 Second derivative matrix not updated -- first step.
 ITU=  0
     Eigenvalues ---    0.01553   0.02139   0.02197   0.02226   0.02291
     Eigenvalues ---    0.02300   0.02317   0.02340   0.02418   0.02661
     Eigenvalues ---    0.10098   0.10741   0.16000   0.16000   0.16000
     Eigenvalues ---    0.16000   0.16000   0.16000   0.18258   0.23221
     Eigenvalues ---    0.23412   0.23503   0.25000   0.25000   0.25000
     Eigenvalues ---    0.34364   0.34367   0.34989   0.35977   0.35978
     Eigenvalues ---    0.36159   0.42811   0.43929   0.44587   0.46794
     Eigenvalues ---    0.48114   0.54803   0.59567   0.61692
 RFO step:  Lambda=-2.43360052D-03 EMin= 1.55329290D-02
 Linear search not attempted -- first point.
 Iteration  1 RMS(Cart)=  0.01986572 RMS(Int)=  0.00017881
 Iteration  2 RMS(Cart)=  0.00026824 RMS(Int)=  0.00001174
 Iteration  3 RMS(Cart)=  0.00000005 RMS(Int)=  0.00001174
 ITry= 1 IFail=0 DXMaxC= 7.23D-02 DCOld= 1.00D+10 DXMaxT= 3.00D-01 DXLimC= 3.00D+00 Rises=F
 Variable       Old X    -DE/DX   Delta X   Delta X   Delta X     New X
                                 (Linear)    (Quad)   (Total)
    R1        2.66540   0.00854   0.00000   0.01934   0.01934   2.68474
    R2        2.06720   0.00195   0.00000   0.00564   0.00564   2.07284
    R3        2.05693   0.00128   0.00000   0.00364   0.00364   2.06057
    R4        2.06716   0.00197   0.00000   0.00568   0.00568   2.07284
    R5        2.55308   0.00338   0.00000   0.00614   0.00614   2.55922
    R6        2.63933   0.00564   0.00000   0.01203   0.01204   2.65137
    R7        2.64273   0.00402   0.00000   0.00692   0.00692   2.64965
    R8        2.49577   0.01890   0.00000   0.03167   0.03168   2.52745
    R9        2.04116   0.00435   0.00000   0.01201   0.01201   2.05317
   R10        2.48532   0.01866   0.00000   0.03074   0.03075   2.51607
   R11        2.62711   0.00815   0.00000   0.01740   0.01739   2.64450
   R12        2.04117   0.00437   0.00000   0.01206   0.01206   2.05323
   R13        3.59022   0.00280   0.00000   0.01512   0.01512   3.60534
   R14        2.60706   0.00642   0.00000   0.01154   0.01153   2.61858
   R15        2.03834   0.00337   0.00000   0.00926   0.00926   2.04759
    A1        1.94466   0.00031   0.00000   0.00128   0.00126   1.94592
    A2        1.84150   0.00199   0.00000   0.01344   0.01341   1.85492
    A3        1.94464   0.00032   0.00000   0.00133   0.00131   1.94595
    A4        1.90982  -0.00071   0.00000  -0.00320  -0.00323   1.90659
    A5        1.91189  -0.00113   0.00000  -0.00901  -0.00902   1.90287
    A6        1.90985  -0.00072   0.00000  -0.00323  -0.00326   1.90659
    A7        2.06832  -0.00345   0.00000  -0.01368  -0.01368   2.05464
    A8        2.19791  -0.00403   0.00000  -0.01402  -0.01402   2.18389
    A9        2.03436  -0.00063   0.00000  -0.00057  -0.00057   2.03380
   A10        2.05091   0.00466   0.00000   0.01459   0.01459   2.06550
   A11        2.14447  -0.00268   0.00000  -0.00930  -0.00928   2.13519
   A12        2.13382  -0.00232   0.00000  -0.01789  -0.01790   2.11592
   A13        2.00490   0.00500   0.00000   0.02719   0.02718   2.03208
   A14        2.09442  -0.00323   0.00000  -0.00388  -0.00384   2.09058
   A15        2.11853  -0.00132   0.00000  -0.00193  -0.00193   2.11660
   A16        2.03940   0.00356   0.00000   0.01881   0.01881   2.05821
   A17        2.12526  -0.00224   0.00000  -0.01688  -0.01688   2.10838
   A18        2.09739  -0.00185   0.00000  -0.00596  -0.00595   2.09145
   A19        2.09157   0.00183   0.00000   0.00454   0.00451   2.09608
   A20        2.09422   0.00002   0.00000   0.00142   0.00143   2.09566
   A21        2.06647   0.00074   0.00000  -0.00402  -0.00405   2.06242
   A22        2.08517   0.00005   0.00000   0.00458   0.00459   2.08976
   A23        2.13155  -0.00079   0.00000  -0.00056  -0.00055   2.13101
    D1        1.07072  -0.00051   0.00000  -0.00500  -0.00502   1.06570
    D2       -3.14145  -0.00000   0.00000  -0.00012  -0.00012  -3.14156
    D3       -1.07040   0.00050   0.00000   0.00476   0.00478  -1.06562
    D4        0.00014  -0.00000   0.00000  -0.00009  -0.00009   0.00004
    D5       -3.14139  -0.00001   0.00000  -0.00020  -0.00020  -3.14158
    D6       -3.14159   0.00000   0.00000   0.00000   0.00000  -3.14158
    D7        0.00007  -0.00000   0.00000  -0.00010  -0.00010  -0.00003
    D8       -0.00006   0.00000   0.00000   0.00011   0.00011   0.00004
    D9        3.14159  -0.00000   0.00000   0.00000   0.00000  -3.14159
   D10        3.14152   0.00000   0.00000   0.00010   0.00010  -3.14157
   D11       -0.00009   0.00000   0.00000   0.00008   0.00008  -0.00001
   D12       -0.00001   0.00000   0.00000   0.00000   0.00000  -0.00001
   D13        3.14156  -0.00000   0.00000  -0.00002  -0.00002   3.14154
   D14        0.00004  -0.00000   0.00000  -0.00006  -0.00005  -0.00001
   D15        3.14158   0.00000   0.00000   0.00004   0.00004  -3.14156
   D16        0.00005  -0.00000   0.00000  -0.00010  -0.00010  -0.00005
   D17        3.14133   0.00001   0.00000   0.00029   0.00030  -3.14156
   D18        3.14156   0.00000   0.00000   0.00009   0.00009  -3.14153
   D19       -0.00013   0.00001   0.00000   0.00021   0.00021   0.00008
   D20        0.00031  -0.00001   0.00000  -0.00033  -0.00033  -0.00002
   D21       -3.14139  -0.00001   0.00000  -0.00022  -0.00021   3.14159
   D22        0.00010  -0.00000   0.00000  -0.00015  -0.00015  -0.00005
   D23       -3.14147  -0.00000   0.00000  -0.00013  -0.00013   3.14158
   D24       -3.14159  -0.00000   0.00000  -0.00003  -0.00003   3.14157
   D25        0.00002  -0.00000   0.00000  -0.00002  -0.00002   0.00001
         Item               Value     Threshold  Converged?
 Maximum Force            0.018902     0.000450     NO 
 RMS     Force            0.004262     0.000300     NO 
 Maximum Displacement     0.072260     0.001800     NO 
 RMS     Displacement     0.019962     0.001200     NO 
 Predicted change in Energy=-1.224521D-03
 Lowest energy point so far.  Saving SCF results.
 GradGradGradGradGradGradGradGradGradGradGradGradGradGradGradGradGradGrad

 Leave Link  103 at Tue Sep 17 09:46:49 2024, MaxMem=  1342177280 cpu:               0.1 elap:               0.0
 (Enter /groups/ReismanLab/Software/Gaussian16_RevC/Linux_Binary_AVX2-enabled-CPU/g16/l202.exe)
                          Input orientation:                          
 ---------------------------------------------------------------------
 Center     Atomic      Atomic             Coordinates (Angstroms)
 Number     Number       Type             X           Y           Z
 ---------------------------------------------------------------------
      1          6           0       -4.226562   -0.780430   -0.000085
      2          8           0       -2.871004   -1.205702   -0.000003
      3          6           0       -1.911041   -0.250430   -0.000032
      4          6           0       -2.148216    1.132423   -0.000086
      5          7           0       -1.155371    2.028572   -0.000121
      6          6           0        0.109834    1.613838   -0.000091
      7          6           0        0.427559    0.250977    0.000038
      8         35           0        2.254876   -0.297522    0.000181
      9          6           0       -0.582242   -0.697942    0.000041
     10          1           0       -4.462153   -0.188960   -0.893311
     11          1           0       -4.831517   -1.687632   -0.000014
     12          1           0       -4.462230   -0.188772    0.892991
     13          1           0       -3.159099    1.530641   -0.000141
     14          1           0        0.892413    2.367565   -0.000090
     15          1           0       -0.373231   -1.761133    0.000128
 ---------------------------------------------------------------------
                    Distance matrix (angstroms):
                    1          2          3          4          5
     1  C    0.000000
     2  O    1.420702   0.000000
     3  C    2.375403   1.354280   0.000000
     4  C    2.824629   2.447295   1.403045   0.000000
     5  N    4.162056   3.661137   2.401018   1.337469   0.000000
     6  C    4.953469   4.103072   2.749442   2.308798   1.331446
     7  C    4.767038   3.605889   2.391748   2.722419   2.380233
     8  Br   6.499404   5.205712   4.166183   4.629467   4.128014
     9  C    3.645254   2.344409   1.402132   2.408841   2.786101
    10  H    1.096901   2.088903   2.703682   2.810375   4.080446
    11  H    1.090407   2.018878   3.254955   3.892662   5.227258
    12  H    1.096898   2.088920   2.703675   2.810303   4.080389
    13  H    2.545688   2.751467   2.174825   1.086490   2.064669
    14  H    6.009474   5.189561   3.835786   3.281920   2.075653
    15  H    3.976172   2.558784   2.155709   3.394590   3.869574
                    6          7          8          9         10
     6  C    0.000000
     7  C    1.399407   0.000000
     8  Br   2.873066   1.907863   0.000000
     9  C    2.413151   1.385694   2.865236   0.000000
    10  H    4.995096   4.990080   6.777064   4.013832   0.000000
    11  H    5.942782   5.605006   7.221453   4.363007   1.783375
    12  H    4.995074   4.990069   6.777054   4.013841   1.786302
    13  H    3.269991   3.808104   5.714307   3.406872   2.335108
    14  H    1.086524   2.167033   2.993159   3.401756   6.000420
    15  H    3.409367   2.165607   3.008173   1.083541   4.470933
                   11         12         13         14         15
    11  H    0.000000
    12  H    1.783372   0.000000
    13  H    3.626881   2.334998   0.000000
    14  H    7.014842   6.000388   4.137051   0.000000
    15  H    4.458892   4.470955   4.312405   4.318333   0.000000
 Stoichiometry    C6H6BrNO
 Framework group  C1[X(C6H6BrNO)]
 Deg. of freedom    39
 Full point group                 C1      NOp   1
 RotChk:  IX=0 Diff= 1.62D-03
 Largest Abelian subgroup         C1      NOp   1
 Largest concise Abelian subgroup C1      NOp   1
                         Standard orientation:                         
 ---------------------------------------------------------------------
 Center     Atomic      Atomic             Coordinates (Angstroms)
 Number     Number       Type             X           Y           Z
 ---------------------------------------------------------------------
      1          6           0        4.040959   -0.717087    0.000126
      2          8           0        2.694457   -1.170217    0.000044
      3          6           0        1.715002   -0.234940    0.000072
      4          6           0        1.923615    1.152509    0.000126
      5          7           0        0.912505    2.027997    0.000161
      6          6           0       -0.343881    1.587265    0.000132
      7          6           0       -0.633439    0.218144    0.000002
      8         35           0       -2.449059   -0.367915   -0.000140
      9          6           0        0.395712   -0.709754   -0.000000
     10          1           0        4.264304   -0.120885    0.893351
     11          1           0        4.664489   -1.611623    0.000055
     12          1           0        4.264377   -0.120695   -0.892951
     13          1           0        2.926073    1.571484    0.000181
     14          1           0       -1.141833    2.324697    0.000130
     15          1           0        0.208666   -1.777028   -0.000088
 ---------------------------------------------------------------------
 Rotational constants (GHZ):           3.0657937           0.5330791           0.4554334
 Leave Link  202 at Tue Sep 17 09:46:49 2024, MaxMem=  1342177280 cpu:               0.0 elap:               0.0
 (Enter /groups/ReismanLab/Software/Gaussian16_RevC/Linux_Binary_AVX2-enabled-CPU/g16/l301.exe)
 Standard basis: 6-31G(d,p) (6D, 7F)
 Ernie: Thresh=  0.10000D-02 Tol=  0.10000D-05 Strict=F.
 There are   180 symmetry adapted cartesian basis functions of A   symmetry.
 There are   180 symmetry adapted basis functions of A   symmetry.
   180 basis functions,   349 primitive gaussians,   180 cartesian basis functions
    46 alpha electrons       46 beta electrons
       nuclear repulsion energy       624.9635376259 Hartrees.
 IExCor=  402 DFT=T Ex+Corr=B3LYP ExCW=0 ScaHFX=  0.200000
 ScaDFX=  0.800000  0.720000  1.000000  0.810000 ScalE2=  1.000000  1.000000
 IRadAn=      5 IRanWt=     -1 IRanGd=            0 ICorTp=0 IEmpDi=141
 NAtoms=   15 NActive=   15 NUniq=   15 SFac= 1.00D+00 NAtFMM=   60 NAOKFM=F Big=F
 Integral buffers will be    131072 words long.
 Raffenetti 2 integral format.
 Two-electron integral symmetry is turned on.
 R6Disp:  Grimme-D3(BJ) Dispersion energy=       -0.0283973377 Hartrees.
 Nuclear repulsion after empirical dispersion term =      624.9351402882 Hartrees.
 Leave Link  301 at Tue Sep 17 09:46:49 2024, MaxMem=  1342177280 cpu:               0.1 elap:               0.0
 (Enter /groups/ReismanLab/Software/Gaussian16_RevC/Linux_Binary_AVX2-enabled-CPU/g16/l302.exe)
 NPDir=0 NMtPBC=     1 NCelOv=     1 NCel=       1 NClECP=     1 NCelD=      1
         NCelK=      1 NCelE2=     1 NClLst=     1 CellRange=     0.0.
 One-electron integrals computed using PRISM.
 One-electron integral symmetry used in STVInt
 NBasis=   180 RedAO= T EigKep=  7.14D-04  NBF=   180
 NBsUse=   180 1.00D-06 EigRej= -1.00D+00 NBFU=   180
 Precomputing XC quadrature grid using
 IXCGrd= 4 IRadAn=           5 IRanWt=          -1 IRanGd=           0 AccXCQ= 0.00D+00.
 Generated NRdTot=       0 NPtTot=           0 NUsed=           0 NTot=          32
 NSgBfM=   180   180   180   180   180 MxSgAt=    15 MxSgA2=    15.
 Leave Link  302 at Tue Sep 17 09:46:49 2024, MaxMem=  1342177280 cpu:               0.8 elap:               0.1
 (Enter /groups/ReismanLab/Software/Gaussian16_RevC/Linux_Binary_AVX2-enabled-CPU/g16/l303.exe)
 DipDrv:  MaxL=1.
 Leave Link  303 at Tue Sep 17 09:46:49 2024, MaxMem=  1342177280 cpu:               0.1 elap:               0.0
 (Enter /groups/ReismanLab/Software/Gaussian16_RevC/Linux_Binary_AVX2-enabled-CPU/g16/l401.exe)
 Initial guess from the checkpoint file:  "smiles_00099_conf_0.chk"
 B after Tr=     0.000000    0.000000    0.000000
         Rot=    1.000000   -0.000027    0.000020    0.000785 Ang=  -0.09 deg.
 Guess basis will be translated and rotated to current coordinates.
 JPrj=2 DoOrth=T DoCkMO=T.
 Generating alternative initial guess.
 ExpMin= 1.43D-01 ExpMax= 5.74D+05 ExpMxC= 5.74D+03 IAcc=3 IRadAn=         5 AccDes= 0.00D+00
 Harris functional with IExCor=  402 and IRadAn=       5 diagonalized for initial guess.
 HarFok:  IExCor=  402 AccDes= 0.00D+00 IRadAn=         5 IDoV= 1 UseB2=F ITyADJ=14
 ICtDFT=  3500011 ScaDFX=  1.000000  1.000000  1.000000  1.000000
 FoFCou: FMM=F IPFlag=           0 FMFlag=      100000 FMFlg1=           0
         NFxFlg=           0 DoJE=T BraDBF=F KetDBF=T FulRan=T
         wScrn=  0.000000 ICntrl=       500 IOpCl=  0 I1Cent=   200000004 NGrid=           0
         NMat0=    1 NMatS0=      1 NMatT0=    0 NMatD0=    1 NMtDS0=    0 NMtDT0=    0
 Petite list used in FoFCou.
 Harris En= -2934.03072700070    
 Leave Link  401 at Tue Sep 17 09:46:50 2024, MaxMem=  1342177280 cpu:               3.3 elap:               0.5
 (Enter /groups/ReismanLab/Software/Gaussian16_RevC/Linux_Binary_AVX2-enabled-CPU/g16/l502.exe)
 Integral symmetry usage will be decided dynamically.
 Closed shell SCF:
 Using DIIS extrapolation, IDIIS=  1040.
 NGot=  1342177280 LenX=  1342108742 LenY=  1342075901
 Requested convergence on RMS density matrix=1.00D-08 within  32 cycles.
 Requested convergence on MAX density matrix=1.00D-06.
 Requested convergence on             energy=1.00D-06.
 No special actions if energy rises.
 Fock matrices will be formed incrementally for  20 cycles.
 Integral accuracy reduced to 1.0D-05 until final iterations.

 Cycle   1  Pass 0  IDiag  1:
 FoFJK:  IHMeth= 1 ICntrl=       0 DoSepK=F KAlg= 0 I1Cent=           0 FoldK=F
 IRaf= 890000000 NMat=       1 IRICut=       1 DoRegI=T DoRafI=F ISym2E= 0 IDoP0=0 IntGTp=1.
 FoFCou: FMM=F IPFlag=           0 FMFlag=      100000 FMFlg1=           0
         NFxFlg=           0 DoJE=F BraDBF=F KetDBF=F FulRan=T
         wScrn=  0.000000 ICntrl=         0 IOpCl=  0 I1Cent=           0 NGrid=           0
         NMat0=    1 NMatS0=      1 NMatT0=    0 NMatD0=    1 NMtDS0=    0 NMtDT0=    0
 Symmetry not used in FoFCou.
 E= -2933.94696337264    
 DIIS: error= 1.43D-03 at cycle   1 NSaved=   1.
 NSaved= 1 IEnMin= 1 EnMin= -2933.94696337264     IErMin= 1 ErrMin= 1.43D-03
 ErrMax= 1.43D-03  0.00D+00 EMaxC= 1.00D-01 BMatC= 7.06D-04 BMatP= 7.06D-04
 IDIUse=3 WtCom= 9.86D-01 WtEn= 1.43D-02
 Coeff-Com:  0.100D+01
 Coeff-En:   0.100D+01
 Coeff:      0.100D+01
 Gap=     1.667 Goal=   None    Shift=    0.000
 GapD=    1.667 DampG=2.000 DampE=1.000 DampFc=2.0000 IDamp=-1.
 RMSDP=2.15D-04 MaxDP=8.33D-03              OVMax= 5.46D-03

 Cycle   2  Pass 0  IDiag  1:
 RMSU=  2.14D-04    CP:  1.00D+00
 E= -2933.94743898156     Delta-E=       -0.000475608921 Rises=F Damp=F
 DIIS: error= 5.20D-04 at cycle   2 NSaved=   2.
 NSaved= 2 IEnMin= 2 EnMin= -2933.94743898156     IErMin= 2 ErrMin= 5.20D-04
 ErrMax= 5.20D-04  0.00D+00 EMaxC= 1.00D-01 BMatC= 6.59D-05 BMatP= 7.06D-04
 IDIUse=3 WtCom= 9.95D-01 WtEn= 5.20D-03
 Coeff-Com:  0.126D+00 0.874D+00
 Coeff-En:   0.000D+00 0.100D+01
 Coeff:      0.126D+00 0.874D+00
 Gap=     0.206 Goal=   None    Shift=    0.000
 RMSDP=1.15D-04 MaxDP=3.89D-03 DE=-4.76D-04 OVMax= 4.99D-03

 Cycle   3  Pass 0  IDiag  1:
 RMSU=  1.15D-04    CP:  1.00D+00  1.05D+00
 E= -2933.94739367697     Delta-E=        0.000045304585 Rises=F Damp=F
 DIIS: error= 7.51D-04 at cycle   3 NSaved=   3.
 NSaved= 3 IEnMin= 2 EnMin= -2933.94743898156     IErMin= 2 ErrMin= 5.20D-04
 ErrMax= 7.51D-04  0.00D+00 EMaxC= 1.00D-01 BMatC= 1.07D-04 BMatP= 6.59D-05
 IDIUse=3 WtCom= 2.67D-01 WtEn= 7.33D-01
 Coeff-Com:  0.816D-03 0.562D+00 0.437D+00
 Coeff-En:   0.000D+00 0.610D+00 0.390D+00
 Coeff:      0.218D-03 0.597D+00 0.402D+00
 Gap=     0.206 Goal=   None    Shift=    0.000
 RMSDP=6.58D-05 MaxDP=2.21D-03 DE= 4.53D-05 OVMax= 3.37D-03

 Cycle   4  Pass 0  IDiag  1:
 RMSU=  2.52D-05    CP:  1.00D+00  1.06D+00  4.70D-01
 E= -2933.94750089205     Delta-E=       -0.000107215073 Rises=F Damp=F
 DIIS: error= 1.19D-04 at cycle   4 NSaved=   4.
 NSaved= 4 IEnMin= 4 EnMin= -2933.94750089205     IErMin= 4 ErrMin= 1.19D-04
 ErrMax= 1.19D-04  0.00D+00 EMaxC= 1.00D-01 BMatC= 3.38D-06 BMatP= 6.59D-05
 IDIUse=3 WtCom= 9.99D-01 WtEn= 1.19D-03
 Coeff-Com: -0.707D-02 0.277D+00 0.220D+00 0.510D+00
 Coeff-En:   0.000D+00 0.000D+00 0.000D+00 0.100D+01
 Coeff:     -0.706D-02 0.277D+00 0.220D+00 0.510D+00
 Gap=     0.206 Goal=   None    Shift=    0.000
 RMSDP=1.44D-05 MaxDP=2.88D-04 DE=-1.07D-04 OVMax= 6.59D-04

 Cycle   5  Pass 0  IDiag  1:
 RMSU=  8.32D-06    CP:  1.00D+00  1.06D+00  4.49D-01  5.42D-01
 E= -2933.94750415033     Delta-E=       -0.000003258280 Rises=F Damp=F
 DIIS: error= 2.48D-05 at cycle   5 NSaved=   5.
 NSaved= 5 IEnMin= 5 EnMin= -2933.94750415033     IErMin= 5 ErrMin= 2.48D-05
 ErrMax= 2.48D-05  0.00D+00 EMaxC= 1.00D-01 BMatC= 2.11D-07 BMatP= 3.38D-06
 IDIUse=1 WtCom= 1.00D+00 WtEn= 0.00D+00
 Coeff-Com: -0.307D-02 0.681D-01 0.628D-01 0.230D+00 0.642D+00
 Coeff:     -0.307D-02 0.681D-01 0.628D-01 0.230D+00 0.642D+00
 Gap=     0.206 Goal=   None    Shift=    0.000
 RMSDP=4.08D-06 MaxDP=1.46D-04 DE=-3.26D-06 OVMax= 1.54D-04

 Initial convergence to 1.0D-05 achieved.  Increase integral accuracy.
 Cycle   6  Pass 1  IDiag  1:
 E= -2933.94750809407     Delta-E=       -0.000003943747 Rises=F Damp=F
 DIIS: error= 6.30D-05 at cycle   1 NSaved=   1.
 NSaved= 1 IEnMin= 1 EnMin= -2933.94750809407     IErMin= 1 ErrMin= 6.30D-05
 ErrMax= 6.30D-05  0.00D+00 EMaxC= 1.00D-01 BMatC= 1.12D-07 BMatP= 1.12D-07
 IDIUse=1 WtCom= 1.00D+00 WtEn= 0.00D+00
 Coeff-Com:  0.100D+01
 Coeff:      0.100D+01
 Gap=     0.206 Goal=   None    Shift=    0.000
 RMSDP=4.08D-06 MaxDP=1.46D-04 DE=-3.94D-06 OVMax= 1.52D-04

 Cycle   7  Pass 1  IDiag  1:
 RMSU=  8.15D-06    CP:  1.00D+00
 E= -2933.94750808435     Delta-E=        0.000000009724 Rises=F Damp=F
 DIIS: error= 2.06D-05 at cycle   2 NSaved=   2.
 NSaved= 2 IEnMin= 1 EnMin= -2933.94750809407     IErMin= 2 ErrMin= 2.06D-05
 ErrMax= 2.06D-05  0.00D+00 EMaxC= 1.00D-01 BMatC= 8.83D-08 BMatP= 1.12D-07
 IDIUse=1 WtCom= 1.00D+00 WtEn= 0.00D+00
 Coeff-Com:  0.461D+00 0.539D+00
 Coeff:      0.461D+00 0.539D+00
 Gap=     0.206 Goal=   None    Shift=    0.000
 RMSDP=2.51D-06 MaxDP=8.96D-05 DE= 9.72D-09 OVMax= 1.75D-04

 Cycle   8  Pass 1  IDiag  1:
 RMSU=  2.41D-06    CP:  1.00D+00  9.13D-01
 E= -2933.94750814053     Delta-E=       -0.000000056178 Rises=F Damp=F
 DIIS: error= 1.37D-05 at cycle   3 NSaved=   3.
 NSaved= 3 IEnMin= 3 EnMin= -2933.94750814053     IErMin= 3 ErrMin= 1.37D-05
 ErrMax= 1.37D-05  0.00D+00 EMaxC= 1.00D-01 BMatC= 3.15D-08 BMatP= 8.83D-08
 IDIUse=1 WtCom= 1.00D+00 WtEn= 0.00D+00
 Coeff-Com:  0.332D-01 0.370D+00 0.597D+00
 Coeff:      0.332D-01 0.370D+00 0.597D+00
 Gap=     0.206 Goal=   None    Shift=    0.000
 RMSDP=1.20D-06 MaxDP=3.66D-05 DE=-5.62D-08 OVMax= 8.60D-05

 Cycle   9  Pass 1  IDiag  1:
 RMSU=  5.06D-07    CP:  1.00D+00  9.54D-01  5.71D-01
 E= -2933.94750817110     Delta-E=       -0.000000030575 Rises=F Damp=F
 DIIS: error= 4.88D-06 at cycle   4 NSaved=   4.
 NSaved= 4 IEnMin= 4 EnMin= -2933.94750817110     IErMin= 4 ErrMin= 4.88D-06
 ErrMax= 4.88D-06  0.00D+00 EMaxC= 1.00D-01 BMatC= 2.97D-09 BMatP= 3.15D-08
 IDIUse=1 WtCom= 1.00D+00 WtEn= 0.00D+00
 Coeff-Com: -0.465D-03 0.211D+00 0.385D+00 0.404D+00
 Coeff:     -0.465D-03 0.211D+00 0.385D+00 0.404D+00
 Gap=     0.206 Goal=   None    Shift=    0.000
 RMSDP=3.15D-07 MaxDP=1.22D-05 DE=-3.06D-08 OVMax= 1.83D-05

 Cycle  10  Pass 1  IDiag  1:
 RMSU=  1.01D-07    CP:  1.00D+00  9.54D-01  6.21D-01  4.59D-01
 E= -2933.94750817393     Delta-E=       -0.000000002833 Rises=F Damp=F
 DIIS: error= 5.22D-07 at cycle   5 NSaved=   5.
 NSaved= 5 IEnMin= 5 EnMin= -2933.94750817393     IErMin= 5 ErrMin= 5.22D-07
 ErrMax= 5.22D-07  0.00D+00 EMaxC= 1.00D-01 BMatC= 5.45D-11 BMatP= 2.97D-09
 IDIUse=1 WtCom= 1.00D+00 WtEn= 0.00D+00
 Coeff-Com: -0.169D-02 0.953D-01 0.178D+00 0.212D+00 0.516D+00
 Coeff:     -0.169D-02 0.953D-01 0.178D+00 0.212D+00 0.516D+00
 Gap=     0.206 Goal=   None    Shift=    0.000
 RMSDP=5.01D-08 MaxDP=1.40D-06 DE=-2.83D-09 OVMax= 1.56D-06

 Cycle  11  Pass 1  IDiag  1:
 RMSU=  2.07D-08    CP:  1.00D+00  9.55D-01  6.22D-01  4.54D-01  5.57D-01
 E= -2933.94750817399     Delta-E=       -0.000000000059 Rises=F Damp=F
 DIIS: error= 8.98D-08 at cycle   6 NSaved=   6.
 NSaved= 6 IEnMin= 6 EnMin= -2933.94750817399     IErMin= 6 ErrMin= 8.98D-08
 ErrMax= 8.98D-08  0.00D+00 EMaxC= 1.00D-01 BMatC= 1.37D-12 BMatP= 5.45D-11
 IDIUse=1 WtCom= 1.00D+00 WtEn= 0.00D+00
 Coeff-Com: -0.787D-03 0.394D-01 0.743D-01 0.900D-01 0.241D+00 0.556D+00
 Coeff:     -0.787D-03 0.394D-01 0.743D-01 0.900D-01 0.241D+00 0.556D+00
 Gap=     0.206 Goal=   None    Shift=    0.000
 RMSDP=7.99D-09 MaxDP=2.66D-07 DE=-5.91D-11 OVMax= 3.24D-07

 SCF Done:  E(RB3LYP) =  -2933.94750817     A.U. after   11 cycles
            NFock= 11  Conv=0.80D-08     -V/T= 2.0065
 KE= 2.914867033120D+03 PE=-8.225811653709D+03 EE= 1.752061972127D+03
 Leave Link  502 at Tue Sep 17 09:46:55 2024, MaxMem=  1342177280 cpu:              42.6 elap:               5.6
 (Enter /groups/ReismanLab/Software/Gaussian16_RevC/Linux_Binary_AVX2-enabled-CPU/g16/l508.exe)
 QCSCF skips out because SCF is already converged.
 Leave Link  508 at Tue Sep 17 09:46:55 2024, MaxMem=  1342177280 cpu:               0.0 elap:               0.0
 (Enter /groups/ReismanLab/Software/Gaussian16_RevC/Linux_Binary_AVX2-enabled-CPU/g16/l701.exe)
 ... and contract with generalized density number  0.
 Compute integral first derivatives.
 R6Disp: Adding Grimme-D3(BJ) dispersion energy 1st derivatives to the gradient.
 Leave Link  701 at Tue Sep 17 09:46:56 2024, MaxMem=  1342177280 cpu:               0.6 elap:               0.1
 (Enter /groups/ReismanLab/Software/Gaussian16_RevC/Linux_Binary_AVX2-enabled-CPU/g16/l702.exe)
 L702 exits ... SP integral derivatives will be done elsewhere.
 Leave Link  702 at Tue Sep 17 09:46:56 2024, MaxMem=  1342177280 cpu:               0.0 elap:               0.0
 (Enter /groups/ReismanLab/Software/Gaussian16_RevC/Linux_Binary_AVX2-enabled-CPU/g16/l703.exe)
 Integral derivatives from FoFJK, PRISM(SPDF).
 Compute integral first derivatives, UseDBF=F ICtDFT=           0.
 Calling FoFJK, ICntrl=      2127 FMM=F ISym2X=0 I1Cent= 0 IOpClX= 0 NMat=1 NMatS=1 NMatT=0.
 FoFJK:  IHMeth= 1 ICntrl=    2127 DoSepK=F KAlg= 0 I1Cent=           0 FoldK=F
 IRaf=         0 NMat=       1 IRICut=       1 DoRegI=T DoRafI=F ISym2E= 0 IDoP0=0 IntGTp=1.
 FoFCou: FMM=F IPFlag=           0 FMFlag=      100000 FMFlg1=         800
         NFxFlg=           0 DoJE=F BraDBF=F KetDBF=F FulRan=T
         wScrn=  0.000000 ICntrl=      2127 IOpCl=  0 I1Cent=           0 NGrid=           0
         NMat0=    1 NMatS0=      1 NMatT0=    0 NMatD0=    1 NMtDS0=    0 NMtDT0=    0
 Symmetry not used in FoFCou.
 Leave Link  703 at Tue Sep 17 09:46:58 2024, MaxMem=  1342177280 cpu:              16.0 elap:               2.1
 (Enter /groups/ReismanLab/Software/Gaussian16_RevC/Linux_Binary_AVX2-enabled-CPU/g16/l716.exe)
 Dipole        = 1.02474670D+00-4.29095413D-01 2.04233583D-05
 ***** Axes restored to original set *****
 -------------------------------------------------------------------
 Center     Atomic                   Forces (Hartrees/Bohr)
 Number     Number              X              Y              Z
 -------------------------------------------------------------------
      1        6          -0.002202878    0.000706984   -0.000003688
      2        8          -0.000379337   -0.002235936    0.000001001
      3        6           0.002152819    0.002469976    0.000002994
      4        6           0.000786620   -0.001557948   -0.000004358
      5        7          -0.000080293    0.002971316   -0.000002773
      6        6          -0.000275095   -0.001681756    0.000008606
      7        6          -0.001450537    0.000008621   -0.000004685
      8       35          -0.000415743    0.000362074   -0.000000462
      9        6          -0.000348856   -0.000583402    0.000002331
     10        1           0.000288042   -0.000191162   -0.000022403
     11        1           0.000731296   -0.000157976   -0.000000070
     12        1           0.000289728   -0.000191188    0.000024662
     13        1           0.001424399    0.000125132    0.000001201
     14        1          -0.000579223   -0.000312780   -0.000001777
     15        1           0.000059057    0.000268045   -0.000000579
 -------------------------------------------------------------------
 Cartesian Forces:  Max     0.002971316 RMS     0.000968856
 Leave Link  716 at Tue Sep 17 09:46:58 2024, MaxMem=  1342177280 cpu:               0.0 elap:               0.0
 (Enter /groups/ReismanLab/Software/Gaussian16_RevC/Linux_Binary_AVX2-enabled-CPU/g16/l103.exe)

 GradGradGradGradGradGradGradGradGradGradGradGradGradGradGradGradGradGrad
 Berny optimization.
 Using GEDIIS/GDIIS optimizer.
 FormGI is forming the generalized inverse of G from B-inverse, IUseBI=4.
 Internal  Forces:  Max     0.002448071 RMS     0.000746744
 Search for a local minimum.
 Step number   2 out of a maximum of   73
 All quantities printed in internal units (Hartrees-Bohrs-Radians)
 RMS Force = .74674D-03 SwitMx=.10000D-02 MixMth= 2
 Mixed Optimization -- En-DIIS/RFO-DIIS
 Update second derivatives using D2CorX and points    1    2
 DE= -1.13D-03 DEPred=-1.22D-03 R= 9.22D-01
 TightC=F SS=  1.41D+00  RLast= 8.06D-02 DXNew= 5.0454D-01 2.4186D-01
 Trust test= 9.22D-01 RLast= 8.06D-02 DXMaxT set to 3.00D-01
 ITU=  1  0
 Use linear search instead of GDIIS.
     Eigenvalues ---    0.01553   0.02138   0.02195   0.02226   0.02291
     Eigenvalues ---    0.02299   0.02323   0.02340   0.02423   0.02660
     Eigenvalues ---    0.10120   0.10652   0.15863   0.16000   0.16000
     Eigenvalues ---    0.16000   0.16000   0.16498   0.18325   0.22647
     Eigenvalues ---    0.23431   0.23760   0.24931   0.25000   0.25867
     Eigenvalues ---    0.34365   0.34389   0.35005   0.35950   0.36110
     Eigenvalues ---    0.36727   0.42687   0.42869   0.44745   0.47452
     Eigenvalues ---    0.48175   0.53526   0.60491   0.62819
 RFO step:  Lambda=-1.02537208D-04 EMin= 1.55329277D-02
 Quartic linear search produced a step of -0.05855.
 Iteration  1 RMS(Cart)=  0.00666150 RMS(Int)=  0.00001925
 Iteration  2 RMS(Cart)=  0.00002423 RMS(Int)=  0.00000139
 Iteration  3 RMS(Cart)=  0.00000000 RMS(Int)=  0.00000139
 ITry= 1 IFail=0 DXMaxC= 1.88D-02 DCOld= 1.00D+10 DXMaxT= 3.00D-01 DXLimC= 3.00D+00 Rises=F
 Variable       Old X    -DE/DX   Delta X   Delta X   Delta X     New X
                                 (Linear)    (Quad)   (Total)
    R1        2.68474   0.00090  -0.00113   0.00386   0.00273   2.68747
    R2        2.07284  -0.00015  -0.00033   0.00016  -0.00017   2.07267
    R3        2.06057  -0.00027  -0.00021  -0.00038  -0.00059   2.05998
    R4        2.07284  -0.00015  -0.00033   0.00017  -0.00017   2.07267
    R5        2.55922   0.00236  -0.00036   0.00467   0.00431   2.56353
    R6        2.65137   0.00002  -0.00071   0.00130   0.00060   2.65197
    R7        2.64965  -0.00156  -0.00040  -0.00248  -0.00289   2.64676
    R8        2.52745   0.00016  -0.00186   0.00344   0.00159   2.52904
    R9        2.05317  -0.00128  -0.00070  -0.00215  -0.00286   2.05031
   R10        2.51607  -0.00069  -0.00180   0.00203   0.00024   2.51630
   R11        2.64450  -0.00070  -0.00102   0.00029  -0.00073   2.64377
   R12        2.05323  -0.00063  -0.00071  -0.00046  -0.00117   2.05207
   R13        3.60534  -0.00050  -0.00089  -0.00111  -0.00199   3.60334
   R14        2.61858  -0.00132  -0.00067  -0.00141  -0.00208   2.61650
   R15        2.04759  -0.00025  -0.00054   0.00027  -0.00028   2.04732
    A1        1.94592  -0.00017  -0.00007  -0.00063  -0.00071   1.94521
    A2        1.85492  -0.00100  -0.00079  -0.00497  -0.00576   1.84916
    A3        1.94595  -0.00017  -0.00008  -0.00066  -0.00074   1.94521
    A4        1.90659   0.00043   0.00019   0.00181   0.00200   1.90859
    A5        1.90287   0.00047   0.00053   0.00259   0.00312   1.90599
    A6        1.90659   0.00043   0.00019   0.00181   0.00200   1.90858
    A7        2.05464   0.00125   0.00080   0.00334   0.00414   2.05879
    A8        2.18389   0.00130   0.00082   0.00349   0.00431   2.18820
    A9        2.03380  -0.00140   0.00003  -0.00535  -0.00531   2.02848
   A10        2.06550   0.00010  -0.00085   0.00186   0.00100   2.06650
   A11        2.13519   0.00137   0.00054   0.00502   0.00556   2.14075
   A12        2.11592  -0.00003   0.00105  -0.00085   0.00020   2.11612
   A13        2.03208  -0.00134  -0.00159  -0.00417  -0.00576   2.02631
   A14        2.09058  -0.00245   0.00023  -0.00969  -0.00946   2.08111
   A15        2.11660   0.00102   0.00011   0.00387   0.00398   2.12058
   A16        2.05821  -0.00069  -0.00110  -0.00126  -0.00236   2.05585
   A17        2.10838  -0.00033   0.00099  -0.00261  -0.00162   2.10675
   A18        2.09145  -0.00086   0.00035  -0.00369  -0.00334   2.08811
   A19        2.09608   0.00091  -0.00026   0.00357   0.00330   2.09938
   A20        2.09566  -0.00005  -0.00008   0.00012   0.00004   2.09569
   A21        2.06242  -0.00094   0.00024  -0.00462  -0.00439   2.05803
   A22        2.08976   0.00058  -0.00027   0.00322   0.00295   2.09271
   A23        2.13101   0.00036   0.00003   0.00140   0.00143   2.13244
    D1        1.06570   0.00018   0.00029   0.00117   0.00146   1.06716
    D2       -3.14156   0.00000   0.00001  -0.00003  -0.00002  -3.14159
    D3       -1.06562  -0.00018  -0.00028  -0.00125  -0.00153  -1.06715
    D4        0.00004  -0.00000   0.00001  -0.00005  -0.00005  -0.00001
    D5       -3.14158   0.00000   0.00001  -0.00001   0.00000  -3.14158
    D6       -3.14158  -0.00000  -0.00000  -0.00001  -0.00001  -3.14159
    D7       -0.00003   0.00000   0.00001   0.00004   0.00005   0.00001
    D8        0.00004  -0.00000  -0.00001  -0.00005  -0.00006  -0.00001
    D9       -3.14159  -0.00000  -0.00000  -0.00000  -0.00000   3.14159
   D10       -3.14157  -0.00000  -0.00001  -0.00002  -0.00002   3.14159
   D11       -0.00001   0.00000  -0.00000   0.00001   0.00001  -0.00001
   D12       -0.00001   0.00000  -0.00000   0.00002   0.00002   0.00001
   D13        3.14154   0.00000   0.00000   0.00005   0.00005  -3.14159
   D14       -0.00001   0.00000   0.00000   0.00001   0.00001   0.00000
[...]
 AX will form     3 AO Fock derivatives at one time.
      3 vectors produced by pass  1 Test12= 4.39D-13 3.33D-08 XBig12= 6.36D-02 1.00D-01.
      3 vectors produced by pass  2 Test12= 4.39D-13 3.33D-08 XBig12= 1.10D-03 1.69D-02.
      3 vectors produced by pass  3 Test12= 4.39D-13 3.33D-08 XBig12= 1.52D-05 8.86D-04.
      3 vectors produced by pass  4 Test12= 4.39D-13 3.33D-08 XBig12= 1.68D-07 1.05D-04.
      3 vectors produced by pass  5 Test12= 4.39D-13 3.33D-08 XBig12= 1.60D-09 1.24D-05.
      3 vectors produced by pass  6 Test12= 4.39D-13 3.33D-08 XBig12= 1.82D-11 1.61D-06.
      3 vectors produced by pass  7 Test12= 4.39D-13 3.33D-08 XBig12= 2.63D-13 1.25D-07.
 InvSVY:  IOpt=1 It=  1 EMax= 8.88D-16
 Solved reduced A of dimension    24 with     3 vectors.
 Calculating GIAO nuclear magnetic shielding tensors.
 SCF GIAO Magnetic shielding tensor (ppm):
      1  C    Isotropic =   128.7117   Anisotropy =    75.5281
   XX=   173.8930   YX=    21.9662   ZX=     0.0039
   XY=    17.2799   YY=   104.5943   ZY=     0.0005
   XZ=     0.0035   YZ=     0.0005   ZZ=   107.6478
   Eigenvalues:    99.4236   107.6478   179.0638
      2  O    Isotropic =   231.0416   Anisotropy =    84.5522
   XX=   168.3687   YX=   -43.6136   ZX=    -0.0075
   XY=   -71.4077   YY=   237.3464   ZY=    -0.0061
   XZ=    -0.0093   YZ=    -0.0053   ZZ=   287.4098
   Eigenvalues:   135.7982   269.9169   287.4098
      3  C    Isotropic =     7.9826   Anisotropy =   164.4121
   XX=   -49.3735   YX=    33.9696   ZX=    -0.0044
   XY=    57.2513   YY=   -44.2695   ZY=    -0.0084
   XZ=    -0.0030   YZ=    -0.0093   ZZ=   117.5907
   Eigenvalues:   -92.5033    -1.1396   117.5907
      4  C    Isotropic =    33.5206   Anisotropy =   179.0821
   XX=   -64.4916   YX=   -45.2219   ZX=    -0.0117
   XY=    -1.3688   YY=    12.1447   ZY=    -0.0094
   XZ=    -0.0088   YZ=    -0.0110   ZZ=   152.9087
   Eigenvalues:   -71.0171    18.6702   152.9087
      5  N    Isotropic =  -151.2672   Anisotropy =   657.9795
   XX=  -497.1334   YX=    55.9329   ZX=    -0.0276
   XY=    47.9320   YY=  -244.0540   ZY=    -0.0331
   XZ=    -0.0282   YZ=    -0.0325   ZZ=   287.3858
   Eigenvalues:  -507.3755  -233.8118   287.3858
      6  C    Isotropic =    18.5698   Anisotropy =   166.0868
   XX=   -53.8572   YX=    71.8722   ZX=    -0.0027
   XY=    44.3769   YY=   -19.7277   ZY=    -0.0080
   XZ=    -0.0044   YZ=    -0.0069   ZZ=   129.2943
   Eigenvalues:   -97.3703    23.7853   129.2943
      7  C    Isotropic =    27.3555   Anisotropy =   145.1872
   XX=   -64.9668   YX=   -41.5063   ZX=    -0.0103
   XY=   -59.2191   YY=    22.8862   ZY=    -0.0090
   XZ=    -0.0116   YZ=    -0.0083   ZZ=   124.1469
   Eigenvalues:   -87.8680    45.7874   124.1469
      8  Br   Isotropic =  2128.9606   Anisotropy =  1215.4298
   XX=  2834.2254   YX=   338.7861   ZX=     0.0678
   XY=   338.9912   YY=  1845.7069   ZY=     0.0224
   XZ=     0.0623   YZ=     0.0201   ZZ=  1706.9495
   Eigenvalues:  1706.9495  1740.6851  2939.2471
      9  C    Isotropic =    35.9649   Anisotropy =   169.4008
   XX=    20.3313   YX=   -15.4864   ZX=    -0.0061
   XY=   -17.7203   YY=   -61.3353   ZY=    -0.0145
   XZ=    -0.0063   YZ=    -0.0144   ZZ=   148.8987
   Eigenvalues:   -64.5819    23.5778   148.8987
     10  H    Isotropic =    28.0728   Anisotropy =     8.1148
   XX=    30.3342   YX=     3.1444   ZX=     3.5863
   XY=     1.0592   YY=    26.7875   ZY=     1.7938
   XZ=     3.2291   YZ=     1.2137   ZZ=    27.0967
   Eigenvalues:    24.9206    25.8151    33.4827
     11  H    Isotropic =    27.7602   Anisotropy =     8.1418
   XX=    32.2835   YX=    -3.3866   ZX=     0.0001
   XY=    -1.1737   YY=    27.4406   ZY=     0.0002
   XZ=     0.0002   YZ=     0.0001   ZZ=    23.5566
   Eigenvalues:    23.5566    26.5360    33.1881
     12  H    Isotropic =    28.0728   Anisotropy =     8.1148
   XX=    30.3347   YX=     3.1449   ZX=    -3.5856
   XY=     1.0597   YY=    26.7879   ZY=    -1.7938
   XZ=    -3.2287   YZ=    -1.2135   ZZ=    27.0958
   Eigenvalues:    24.9206    25.8151    33.4827
     13  H    Isotropic =    22.8414   Anisotropy =     9.2339
   XX=    20.9949   YX=    -2.0283   ZX=    -0.0001
   XY=    -2.1649   YY=    28.4481   ZY=     0.0005
   XZ=    -0.0000   YZ=     0.0006   ZZ=    19.0814
   Eigenvalues:    19.0814    20.4456    28.9974
     14  H    Isotropic =    22.7038   Anisotropy =    10.9577
   XX=    22.0989   YX=     4.1468   ZX=     0.0004
   XY=     4.4855   YY=    27.6538   ZY=     0.0008
   XZ=     0.0005   YZ=     0.0008   ZZ=    18.3588
   Eigenvalues:    18.3588    19.7437    30.0089
     15  H    Isotropic =    23.7610   Anisotropy =    11.5350
   XX=    30.8434   YX=    -2.6547   ZX=     0.0003
   XY=    -2.4089   YY=    20.9013   ZY=     0.0000
   XZ=     0.0003   YZ=    -0.0000   ZZ=    19.5383
   Eigenvalues:    19.5383    20.2937    31.4510
 End of Minotr F.D. properties file   721 does not exist.
 End of Minotr F.D. properties file   722 does not exist.
 End of Minotr F.D. properties file   788 does not exist.
 Leave Link 1002 at Tue Sep 17 10:10:12 2024, MaxMem=  1342177280 cpu:             309.2 elap:             310.0
 (Enter /groups/ReismanLab/Software/Gaussian16_RevC/Linux_Binary_AVX2-enabled-CPU/g16/l601.exe)
 Copying SCF densities to generalized density rwf, IOpCl= 0 IROHF=0.

 **********************************************************************

            Population analysis using the SCF Density.

 **********************************************************************

 Orbital symmetries:
       Occupied  (A) (A) (A) (A) (A) (A) (A) (A) (A) (A) (A) (A)
                 (A) (A) (A) (A) (A) (A) (A) (A) (A) (A) (A) (A)
                 (A) (A) (A) (A) (A) (A) (A) (A) (A) (A) (A) (A)
                 (A) (A) (A) (A) (A) (A) (A) (A) (A) (A)
       Virtual   (A) (A) (A) (A) (A) (A) (A) (A) (A) (A) (A) (A)
                 (A) (A) (A) (A) (A) (A) (A) (A) (A) (A) (A) (A)
                 (A) (A) (A) (A) (A) (A) (A) (A) (A) (A) (A) (A)
                 (A) (A) (A) (A) (A) (A) (A) (A) (A) (A) (A) (A)
                 (A) (A) (A) (A) (A) (A) (A) (A) (A) (A) (A) (A)
                 (A) (A) (A) (A) (A) (A) (A) (A) (A) (A) (A) (A)
                 (A) (A) (A) (A) (A) (A) (A) (A) (A) (A) (A) (A)
                 (A) (A) (A) (A) (A) (A) (A) (A) (A) (A) (A) (A)
                 (A) (A) (A) (A) (A) (A) (A) (A) (A) (A) (A) (A)
                 (A) (A) (A) (A) (A) (A) (A) (A) (A) (A) (A) (A)
                 (A) (A) (A) (A) (A) (A) (A) (A) (A) (A) (A) (A)
                 (A) (A) (A) (A) (A) (A) (A) (A) (A) (A) (A) (A)
                 (A) (A) (A) (A) (A) (A) (A) (A) (A) (A) (A) (A)
                 (A) (A) (A) (A) (A) (A) (A) (A) (A) (A) (A) (A)
                 (A) (A) (A) (A) (A) (A) (A) (A) (A) (A) (A) (A)
                 (A) (A) (A) (A) (A) (A) (A) (A) (A) (A) (A) (A)
                 (A) (A) (A) (A) (A) (A) (A) (A) (A) (A) (A) (A)
                 (A) (A) (A) (A) (A) (A) (A) (A) (A) (A) (A) (A)
                 (A) (A) (A) (A) (A) (A) (A) (A) (A) (A) (A) (A)
                 (A) (A) (A) (A) (A) (A) (A) (A) (A) (A) (A) (A)
                 (A) (A) (A) (A) (A) (A) (A) (A) (A) (A) (A) (A)
                 (A) (A) (A) (A) (A) (A) (A) (A) (A) (A) (A) (A)
                 (A) (A) (A) (A) (A) (A) (A) (A) (A) (A) (A) (A)
                 (A) (A) (A) (A) (A) (A) (A) (A) (A) (A)
 The electronic state is 1-A.
 Alpha  occ. eigenvalues -- -485.38239 -63.36717 -57.18665 -57.18424 -57.18417
 Alpha  occ. eigenvalues --  -19.67150 -14.76520 -10.62423 -10.61279 -10.59481
 Alpha  occ. eigenvalues --  -10.58399 -10.58302 -10.56968  -9.03362  -6.85780
 Alpha  occ. eigenvalues --   -6.84887  -6.84866  -2.89157  -2.88833  -2.88808
 Alpha  occ. eigenvalues --   -2.87976  -2.87976  -1.20581  -1.06479  -0.94103
 Alpha  occ. eigenvalues --   -0.89418  -0.83537  -0.80759  -0.73199  -0.69353
 Alpha  occ. eigenvalues --   -0.61944  -0.59647  -0.58309  -0.56085  -0.50838
 Alpha  occ. eigenvalues --   -0.50070  -0.49083  -0.48685  -0.44543  -0.43269
 Alpha  occ. eigenvalues --   -0.42334  -0.39909  -0.36155  -0.33549  -0.32595
 Alpha  occ. eigenvalues --   -0.29614
 Alpha virt. eigenvalues --   -0.01048   0.01520   0.03185   0.07594   0.10382
 Alpha virt. eigenvalues --    0.11109   0.12627   0.13342   0.14841   0.14894
 Alpha virt. eigenvalues --    0.15492   0.16836   0.17252   0.21384   0.22656
 Alpha virt. eigenvalues --    0.23247   0.23474   0.24629   0.24853   0.25247
 Alpha virt. eigenvalues --    0.26868   0.27527   0.28313   0.28604   0.31060
 Alpha virt. eigenvalues --    0.31093   0.33450   0.33548   0.35423   0.36912
 Alpha virt. eigenvalues --    0.38196   0.38565   0.38683   0.39208   0.41033
 Alpha virt. eigenvalues --    0.41846   0.42650   0.42981   0.43415   0.45161
 Alpha virt. eigenvalues --    0.46706   0.47708   0.48858   0.49779   0.51151
 Alpha virt. eigenvalues --    0.52050   0.53970   0.55847   0.56107   0.58668
 Alpha virt. eigenvalues --    0.59274   0.60264   0.62757   0.63030   0.66055
 Alpha virt. eigenvalues --    0.66193   0.67158   0.67333   0.68168   0.70178
 Alpha virt. eigenvalues --    0.72268   0.72976   0.74812   0.77390   0.77921
 Alpha virt. eigenvalues --    0.79143   0.81358   0.82992   0.84501   0.88196
 Alpha virt. eigenvalues --    0.90431   0.93063   0.94475   0.96211   0.97592
 Alpha virt. eigenvalues --    0.98956   1.01401   1.02033   1.09069   1.09527
 Alpha virt. eigenvalues --    1.10384   1.13525   1.14757   1.15310   1.20785
 Alpha virt. eigenvalues --    1.21215   1.23408   1.23942   1.26274   1.29974
 Alpha virt. eigenvalues --    1.30264   1.36361   1.38179   1.38909   1.39413
 Alpha virt. eigenvalues --    1.40548   1.41189   1.43892   1.46563   1.46687
 Alpha virt. eigenvalues --    1.49057   1.50947   1.52735   1.53186   1.55165
 Alpha virt. eigenvalues --    1.56673   1.56767   1.57525   1.57763   1.59538
 Alpha virt. eigenvalues --    1.60366   1.62059   1.62626   1.63056   1.65182
 Alpha virt. eigenvalues --    1.65808   1.66554   1.70423   1.71557   1.72019
 Alpha virt. eigenvalues --    1.73324   1.74761   1.76932   1.80281   1.81247
 Alpha virt. eigenvalues --    1.81320   1.85117   1.86560   1.89430   1.90654
 Alpha virt. eigenvalues --    1.91137   1.94864   1.95747   1.97465   2.01260
 Alpha virt. eigenvalues --    2.01575   2.01708   2.05154   2.08591   2.08862
 Alpha virt. eigenvalues --    2.11529   2.16542   2.17593   2.19423   2.24211
 Alpha virt. eigenvalues --    2.27039   2.29580   2.31161   2.33303   2.38776
 Alpha virt. eigenvalues --    2.39262   2.40401   2.42368   2.44924   2.46143
 Alpha virt. eigenvalues --    2.48284   2.51597   2.54162   2.55626   2.57319
 Alpha virt. eigenvalues --    2.58890   2.62728   2.65796   2.66362   2.66634
 Alpha virt. eigenvalues --    2.70560   2.70917   2.71739   2.72346   2.78146
 Alpha virt. eigenvalues --    2.80634   2.81198   2.85122   2.85273   2.85701
 Alpha virt. eigenvalues --    2.87374   2.89626   2.94056   2.94556   2.95569
 Alpha virt. eigenvalues --    2.97791   3.01083   3.03619   3.07371   3.07543
 Alpha virt. eigenvalues --    3.11630   3.12403   3.13286   3.13980   3.14901
 Alpha virt. eigenvalues --    3.15570   3.19505   3.19781   3.23179   3.25098
 Alpha virt. eigenvalues --    3.26087   3.26355   3.27670   3.30156   3.32359
 Alpha virt. eigenvalues --    3.35306   3.36161   3.36970   3.37537   3.39383
 Alpha virt. eigenvalues --    3.40171   3.43009   3.45123   3.45486   3.47842
 Alpha virt. eigenvalues --    3.49330   3.53299   3.55582   3.57386   3.59828
 Alpha virt. eigenvalues --    3.62674   3.69240   3.72508   3.73074   3.80620
 Alpha virt. eigenvalues --    3.81618   3.86603   3.86889   3.95002   3.98860
 Alpha virt. eigenvalues --    4.03482   4.05357   4.08169   4.09977   4.12016
 Alpha virt. eigenvalues --    4.13557   4.14989   4.19265   4.21527   4.22824
 Alpha virt. eigenvalues --    4.27305   4.27808   4.32255   4.34355   4.36631
 Alpha virt. eigenvalues --    4.39513   4.42540   4.46503   4.46836   4.50610
 Alpha virt. eigenvalues --    4.52639   4.59369   4.63622   4.70452   4.81249
 Alpha virt. eigenvalues --    4.81783   4.88058   4.92425   4.95845   4.99679
 Alpha virt. eigenvalues --    4.99961   5.05556   5.18724   5.20459   5.22395
 Alpha virt. eigenvalues --    5.29948   5.36695   5.47517   5.52212   5.57887
 Alpha virt. eigenvalues --    5.69955   5.73288   5.84874   5.88373   5.98186
 Alpha virt. eigenvalues --    6.29156   6.47838   6.61930   6.74437   6.82968
 Alpha virt. eigenvalues --    7.13020   7.34740   7.84829  22.43760  22.48580
 Alpha virt. eigenvalues --   22.78563  22.81469  22.92455  23.19868  32.52957
 Alpha virt. eigenvalues --   44.34234
          Condensed to atoms (all electrons):
               1          2          3          4          5          6
     1  C    4.926166   0.219730  -0.073102  -0.002239  -0.001878   0.000305
     2  O    0.219730   7.952073   0.342684  -0.061291   0.006995  -0.000397
     3  C   -0.073102   0.342684   4.826682   0.415014  -0.010711  -0.018857
     4  C   -0.002239  -0.061291   0.415014   5.029202   0.470622  -0.138064
     5  N   -0.001878   0.006995  -0.010711   0.470622   6.446151   0.495562
     6  C    0.000305  -0.000397  -0.018857  -0.138064   0.495562   4.959595
     7  C   -0.000876   0.008507  -0.029248  -0.015624  -0.023909   0.447234
     8  Br   0.000022  -0.000203   0.020415  -0.000797   0.008775  -0.069171
     9  C    0.007606  -0.085753   0.378969  -0.008373  -0.101060  -0.028516
    10  H    0.415912  -0.039250  -0.005456   0.000407  -0.000118  -0.000244
    11  H    0.400869  -0.029067   0.004099   0.000725   0.000030   0.000028
    12  H    0.415912  -0.039250  -0.005456   0.000407  -0.000118  -0.000244
    13  H    0.003125  -0.001632  -0.067214   0.440255  -0.024901   0.006824
    14  H   -0.000011   0.000031  -0.000880   0.005008  -0.030296   0.436680
    15  H    0.000384   0.005959  -0.037959   0.005562  -0.002736   0.006589
               7          8          9         10         11         12
     1  C   -0.000876   0.000022   0.007606   0.415912   0.400869   0.415912
     2  O    0.008507  -0.000203  -0.085753  -0.039250  -0.029067  -0.039250
     3  C   -0.029248   0.020415   0.378969  -0.005456   0.004099  -0.005456
     4  C   -0.015624  -0.000797  -0.008373   0.000407   0.000725   0.000407
     5  N   -0.023909   0.008775  -0.101060  -0.000118   0.000030  -0.000118
     6  C    0.447234  -0.069171  -0.028516  -0.000244   0.000028  -0.000244
     7  C    4.882584   0.346116   0.425498   0.000059  -0.000010   0.000059
     8  Br   0.346116  34.895196  -0.097180   0.000000  -0.000000   0.000000
     9  C    0.425498  -0.097180   5.299100   0.000960  -0.000570   0.000960
    10  H    0.000059   0.000000   0.000960   0.535900  -0.018351  -0.052867
    11  H   -0.000010  -0.000000  -0.000570  -0.018351   0.494273  -0.018351
    12  H    0.000059   0.000000   0.000960  -0.052867  -0.018351   0.535900
    13  H   -0.001047   0.000046   0.002320  -0.002330   0.000068  -0.002330
    14  H   -0.066979  -0.001163   0.006141  -0.000000   0.000000  -0.000000
    15  H   -0.033759  -0.009312   0.415702   0.000069  -0.000130   0.000069
              13         14         15
     1  C    0.003125  -0.000011   0.000384
     2  O   -0.001632   0.000031   0.005959
     3  C   -0.067214  -0.000880  -0.037959
     4  C    0.440255   0.005008   0.005562
     5  N   -0.024901  -0.030296  -0.002736
     6  C    0.006824   0.436680   0.006589
     7  C   -0.001047  -0.066979  -0.033759
     8  Br   0.000046  -0.001163  -0.009312
     9  C    0.002320   0.006141   0.415702
    10  H   -0.002330  -0.000000   0.000069
    11  H    0.000068   0.000000  -0.000130
    12  H   -0.002330  -0.000000   0.000069
    13  H    0.467944   0.000013  -0.000142
    14  H    0.000013   0.475014  -0.000037
    15  H   -0.000142  -0.000037   0.454491
 Mulliken charges:
               1
     1  C   -0.311927
     2  O   -0.279137
     3  C    0.261022
     4  C   -0.140814
     5  N   -0.232407
     6  C   -0.097325
     7  C    0.061395
     8  Br  -0.092744
     9  C   -0.215804
    10  H    0.165310
    11  H    0.166386
    12  H    0.165310
    13  H    0.179002
    14  H    0.176481
    15  H    0.195251
 Sum of Mulliken charges =  -0.00000
 Mulliken charges with hydrogens summed into heavy atoms:
               1
     1  C    0.185080
     2  O   -0.279137
     3  C    0.261022
     4  C    0.038188
     5  N   -0.232407
     6  C    0.079156
     7  C    0.061395
     8  Br  -0.092744
     9  C   -0.020553
 Electronic spatial extent (au):  <R**2>=           2184.8449
 Charge=             -0.0000 electrons
 Dipole moment (field-independent basis, Debye):
    X=              2.9365    Y=             -1.2633    Z=              0.0000  Tot=              3.1967
 Quadrupole moment (field-independent basis, Debye-Ang):
   XX=            -50.5889   YY=            -69.5522   ZZ=            -67.0464
   XY=             -2.2836   XZ=              0.0005   YZ=             -0.0003
 Traceless Quadrupole moment (field-independent basis, Debye-Ang):
   XX=             11.8070   YY=             -7.1564   ZZ=             -4.6506
   XY=             -2.2836   XZ=              0.0005   YZ=             -0.0003
 Octapole moment (field-independent basis, Debye-Ang**2):
  XXX=              7.5577  YYY=            -33.7165  ZZZ=             -0.0036  XYY=            -31.5106
  XXY=             -7.9564  XXZ=              0.0014  XZZ=            -20.3271  YZZ=             -6.1062
  YYZ=             -0.0027  XYZ=             -0.0008
 Hexadecapole moment (field-independent basis, Debye-Ang**3):
 XXXX=          -1647.6725 YYYY=           -525.4066 ZZZZ=            -81.1416 XXXY=             -3.7247
 XXXZ=             -0.0240 YYYX=            -16.2973 YYYZ=             -0.0158 ZZZX=             -0.0373
 ZZZY=             -0.0136 XXYY=           -401.2095 XXZZ=           -349.9495 YYZZ=            -98.7314
 XXYZ=             -0.0039 YYXZ=             -0.0138 ZZXY=              5.3429
 N-N= 6.251153020453D+02 E-N=-8.246595084950D+03  KE= 2.931168582580D+03
 Calculating spin-rotation constants.
 Leave Link  601 at Tue Sep 17 10:10:13 2024, MaxMem=  1342177280 cpu:               1.9 elap:               1.9
 (Enter /groups/ReismanLab/Software/Gaussian16_RevC/Linux_Binary_AVX2-enabled-CPU/g16/l9999.exe)
 Unable to Open any file for archive entry.
 1\1\GINC-HPC-34-05\SP\RM062X\def2TZVP\C6H6Br1N1O1\MANTIND\17-Sep-2024\
 0\\#p M062X/def2tzvp geom=check guess=read scf(xqc,tight) integral(gri
 d=ultrafine) scrf(SMD, solvent=1,4-Dioxane) nmr=giao\\spe\\0,1\C,0,-4.
 2300053824,-0.7815701828,-0.0000806617\O,0,-2.8713807474,-1.2045006249
 ,0.0000001167\C,0,-1.9095923859,-0.2467866548,-0.0000224834\C,0,-2.143
 6017749,1.1355264434,-0.0001219038\N,0,-1.1531974307,2.0362753326,-0.0
 001397649\C,0,0.1092374969,1.6123393288,-0.0000604073\C,0,0.4235577845
 ,0.2498466391,0.0000418044\Br,0,2.2515791412,-0.2936249313,0.000152225
 8\C,0,-0.5840973407,-0.6995880126,0.0000620805\H,0,-4.4652824989,-0.19
 21676213,-0.8942591453\H,0,-4.8266435557,-1.6937159629,-0.0000457678\H
 ,0,-4.465352862,-0.1920531852,0.8940041061\H,0,-3.1518619438,1.5357504
 229,-0.0001900122\H,0,0.8943590611,2.3621371233,-0.0000754745\H,0,-0.3
 757021057,-1.7623751816,0.0001394595\\Version=ES64L-G16RevC.02\State=1
 -A\HF=-2936.392608\RMSD=2.874e-09\Dipole=-1.1442959,-0.5218675,-0.0000
 119\Quadrupole=8.6983113,-5.2407275,-3.4575837,2.0005571,0.0003639,0.0
 001978\PG=C01 [X(C6H6Br1N1O1)]\\@
 The archive entry for this job was punched.


 Everywhere is walking distance if you have the time.
                                    -- Steven Wright
 Job cpu time:       0 days  0 hours  5 minutes 46.5 seconds.
 Elapsed time:       0 days  0 hours  5 minutes 47.9 seconds.
 File lengths (MBytes):  RWF=    216 Int=      0 D2E=      0 Chk=     24 Scr=     16
 Normal termination of Gaussian 16 at Tue Sep 17 10:10:14 2024.
