 Entering Gaussian System, Link 0=g16
 Input=smiles_00117_conf_1.gjf
 Output=smiles_00117_conf_1.log
 Initial command:
 /groups/ReismanLab/Software/Gaussian16_RevC/Linux_Binary_AVX2-enabled-CPU/g16/l1.exe "/central/groups/ReismanLab/DM/dft_final/smiles_00117/Gau-991534.inp" -scrdir="/central/groups/ReismanLab/DM/dft_final/smiles_00117/"
 Entering Link 1 = /groups/ReismanLab/Software/Gaussian16_RevC/Linux_Binary_AVX2-enabled-CPU/g16/l1.exe PID=    991535.
  
 Copyright (c) 1988-2021, Gaussian, Inc.  All Rights Reserved.
  
 This is part of the Gaussian(R) 16 program.  It is based on
 the Gaussian(R) 09 system (copyright 2009, Gaussian, Inc.),
 the Gaussian(R) 03 system (copyright 2003, Gaussian, Inc.),
 the Gaussian(R) 98 system (copyright 1998, Gaussian, Inc.),
 the Gaussian(R) 94 system (copyright 1995, Gaussian, Inc.),
 the Gaussian 92(TM) system (copyright 1992, Gaussian, Inc.),
 the Gaussian 90(TM) system (copyright 1990, Gaussian, Inc.),
 the Gaussian 88(TM) system (copyright 1988, Gaussian, Inc.),
 the Gaussian 86(TM) system (copyright 1986, Carnegie Mellon
 University), and the Gaussian 82(TM) system (copyright 1983,
 Carnegie Mellon University). Gaussian is a federally registered
 trademark of Gaussian, Inc.
  
 This software contains proprietary and confidential information,
 including trade secrets, belonging to Gaussian, Inc.
  
 This software is provided under written license and may be
 used, copied, transmitted, or stored only in accord with that
 written license.
  
 The following legend is applicable only to US Government
 contracts under FAR:
  
                    RESTRICTED RIGHTS LEGEND
  
 Use, reproduction and disclosure by the US Government is
 subject to restrictions as set forth in subparagraphs (a)
 and (c) of the Commercial Computer Software - Restricted
 Rights clause in FAR 52.227-19.
  
 Gaussian, Inc.
 340 Quinnipiac St., Bldg. 40, Wallingford CT 06492
  
  
 ---------------------------------------------------------------
 Warning -- This program may not be used in any manner that
 competes with the business of Gaussian, Inc. or will provide
 assistance to any competitor of Gaussian, Inc.  The licensee
 of this program is prohibited from giving any competitor of
 Gaussian, Inc. access to this program.  By using this program,
 the user acknowledges that Gaussian, Inc. is engaged in the
 business of creating and licensing software in the field of
 computational chemistry and represents and warrants to the
 licensee that it is not a competitor of Gaussian, Inc. and that
 it will not use this program in any manner prohibited above.
 ---------------------------------------------------------------
  

 Cite this work as:
 Gaussian 16, Revision C.02,
 M. J. Frisch, G. W. Trucks, H. B. Schlegel, G. E. Scuseria, 
 M. A. Robb, J. R. Cheeseman, G. Scalmani, V. Barone, 
 G. A. Petersson, H. Nakatsuji, X. Li, M. Caricato, A. V. Marenich, 
 J. Bloino, B. G. Janesko, R. Gomperts, B. Mennucci, H. P. Hratchian, 
 J. V. Ortiz, A. F. Izmaylov, J. L. Sonnenberg, D. Williams-Young, 
 F. Ding, F. Lipparini, F. Egidi, J. Goings, B. Peng, A. Petrone, 
 T. Henderson, D. Ranasinghe, V. G. Zakrzewski, J. Gao, N. Rega, 
 G. Zheng, W. Liang, M. Hada, M. Ehara, K. Toyota, R. Fukuda, 
 J. Hasegawa, M. Ishida, T. Nakajima, Y. Honda, O. Kitao, H. Nakai, 
 T. Vreven, K. Throssell, J. A. Montgomery, Jr., J. E. Peralta, 
 F. Ogliaro, M. J. Bearpark, J. J. Heyd, E. N. Brothers, K. N. Kudin, 
 V. N. Staroverov, T. A. Keith, R. Kobayashi, J. Normand, 
 K. Raghavachari, A. P. Rendell, J. C. Burant, S. S. Iyengar, 
 J. Tomasi, M. Cossi, J. M. Millam, M. Klene, C. Adamo, R. Cammi, 
 J. W. Ochterski, R. L. Martin, K. Morokuma, O. Farkas, 
 J. B. Foresman, and D. J. Fox, Gaussian, Inc., Wallingford CT, 2019.
 
 ******************************************
 Gaussian 16:  ES64L-G16RevC.02  7-Dec-2021
                17-Sep-2024 
 ******************************************
 %nprocshared=8
 Will use up to    8 processors via shared memory.
 %Mem=10GB
 %Chk=smiles_00117_conf_1.chk
 ----------------------------------------------------------------------
 #p B3LYP/6-31G(d,p) EmpiricalDispersion=GD3BJ opt freq scf(xqc,tight) 
 integral(grid=ultrafine)
 ----------------------------------------------------------------------
 1/18=20,19=15,26=4,38=1/1,3;
 2/9=110,12=2,17=6,18=5,40=1/2;
 3/5=1,6=6,7=101,11=2,25=1,30=1,71=1,74=-5,75=-5,124=41/1,2,3;
 4//1;
 5/5=2,8=3,13=1,32=2,38=5/2,8;
 6/7=2,8=2,9=2,10=2,28=1/1;
 7//1,2,3,16;
 1/18=20,19=15,26=4/3(2);
 2/9=110/2;
 99//99;
 2/9=110/2;
 3/5=1,6=6,7=101,11=2,25=1,30=1,71=1,74=-5,75=-5,124=41/1,2,3;
 4/5=5,16=3,69=1/1;
 5/5=2,8=3,13=1,32=2,38=5/2,8;
 7//1,2,3,16;
 1/18=20,19=15,26=4/3(-5);
 2/9=110/2;
 6/7=2,8=2,9=2,10=2,19=2,28=1/1;
 99/9=1/99;
 Leave Link    1 at Tue Sep 17 09:46:07 2024, MaxMem=  1342177280 cpu:               0.1 elap:               0.6
 (Enter /groups/ReismanLab/Software/Gaussian16_RevC/Linux_Binary_AVX2-enabled-CPU/g16/l101.exe)
 ----------------------------------
 opt-freq conformers_unique/conf_ab
 ----------------------------------
 Symbolic Z-matrix:
 Charge =  0 Multiplicity = 1
 F                    -1.36138  -1.8976   -1.44963 
 C                    -0.95517  -1.44154  -0.24741 
 F                     0.18807  -2.06571   0.01979 
 F                    -1.8556   -1.90549   0.64307 
 C                    -0.92536   0.06521  -0.23462 
 C                    -2.14597   0.66752  -0.53847 
 C                    -2.27237   2.04185  -0.56397 
 C                    -1.17119   2.83546  -0.28372 
 C                     0.04294   2.25154   0.01915 
 C                     0.17502   0.86765   0.04641 
 Br                    1.89315   0.18265   0.47843 
 H                    -2.99411   0.03543  -0.75478 
 H                    -3.22416   2.48944  -0.80126 
 H                    -1.25551   3.91098  -0.29991 
 H                     0.90511   2.86145   0.23942 
 
 ITRead=  0  0  0  0  0  0  0  0  0  0  0  0  0  0  0
 MicOpt= -1 -1 -1 -1 -1 -1 -1 -1 -1 -1 -1 -1 -1 -1 -1
 NAtoms=     15 NQM=       15 NQMF=       0 NMMI=      0 NMMIF=      0
                NMic=       0 NMicF=      0.
                    Isotopes and Nuclear Properties:
 (Nuclear quadrupole moments (NQMom) in fm**2, nuclear magnetic moments (NMagM)
  in nuclear magnetons)

  Atom         1           2           3           4           5           6           7           8           9          10
 IAtWgt=          19          12          19          19          12          12          12          12          12          12
 AtmWgt=  18.9984032  12.0000000  18.9984032  18.9984032  12.0000000  12.0000000  12.0000000  12.0000000  12.0000000  12.0000000
 NucSpn=           1           0           1           1           0           0           0           0           0           0
 AtZEff=  -0.0000000  -0.0000000  -0.0000000  -0.0000000  -0.0000000  -0.0000000  -0.0000000  -0.0000000  -0.0000000  -0.0000000
 NQMom=    0.0000000   0.0000000   0.0000000   0.0000000   0.0000000   0.0000000   0.0000000   0.0000000   0.0000000   0.0000000
 NMagM=    2.6288670   0.0000000   2.6288670   2.6288670   0.0000000   0.0000000   0.0000000   0.0000000   0.0000000   0.0000000
 AtZNuc=   9.0000000   6.0000000   9.0000000   9.0000000   6.0000000   6.0000000   6.0000000   6.0000000   6.0000000   6.0000000

  Atom        11          12          13          14          15
 IAtWgt=          79           1           1           1           1
 AtmWgt=  78.9183361   1.0078250   1.0078250   1.0078250   1.0078250
 NucSpn=           3           1           1           1           1
 AtZEff=  -0.0000000  -0.0000000  -0.0000000  -0.0000000  -0.0000000
 NQMom=   31.3000000   0.0000000   0.0000000   0.0000000   0.0000000
 NMagM=    2.1063990   2.7928460   2.7928460   2.7928460   2.7928460
 AtZNuc=  35.0000000   1.0000000   1.0000000   1.0000000   1.0000000
 Leave Link  101 at Tue Sep 17 09:46:07 2024, MaxMem=  1342177280 cpu:               0.3 elap:               0.3
 (Enter /groups/ReismanLab/Software/Gaussian16_RevC/Linux_Binary_AVX2-enabled-CPU/g16/l103.exe)

 GradGradGradGradGradGradGradGradGradGradGradGradGradGradGradGradGradGrad
 Berny optimization.
 Initialization pass.
                           ----------------------------
                           !    Initial Parameters    !
                           ! (Angstroms and Degrees)  !
 --------------------------                            --------------------------
 ! Name  Definition              Value          Derivative Info.                !
 --------------------------------------------------------------------------------
 ! R1    R(1,2)                  1.3485         estimate D2E/DX2                !
 ! R2    R(2,3)                  1.3297         estimate D2E/DX2                !
 ! R3    R(2,4)                  1.3487         estimate D2E/DX2                !
 ! R4    R(2,5)                  1.5071         estimate D2E/DX2                !
 ! R5    R(5,6)                  1.3946         estimate D2E/DX2                !
 ! R6    R(5,10)                 1.3906         estimate D2E/DX2                !
 ! R7    R(6,7)                  1.3804         estimate D2E/DX2                !
 ! R8    R(6,12)                 1.0797         estimate D2E/DX2                !
 ! R9    R(7,8)                  1.386          estimate D2E/DX2                !
 ! R10   R(7,13)                 1.0782         estimate D2E/DX2                !
 ! R11   R(8,9)                  1.3809         estimate D2E/DX2                !
 ! R12   R(8,14)                 1.0789         estimate D2E/DX2                !
 ! R13   R(9,10)                 1.3904         estimate D2E/DX2                !
 ! R14   R(9,15)                 1.0788         estimate D2E/DX2                !
 ! R15   R(10,11)                1.8994         estimate D2E/DX2                !
 ! A1    A(1,2,3)              106.2247         estimate D2E/DX2                !
 ! A2    A(1,2,4)              105.7352         estimate D2E/DX2                !
 ! A3    A(1,2,5)              110.5885         estimate D2E/DX2                !
 ! A4    A(3,2,4)              106.2525         estimate D2E/DX2                !
 ! A5    A(3,2,5)              116.782          estimate D2E/DX2                !
 ! A6    A(4,2,5)              110.5807         estimate D2E/DX2                !
 ! A7    A(2,5,6)              114.3693         estimate D2E/DX2                !
 ! A8    A(2,5,10)             126.4623         estimate D2E/DX2                !
 ! A9    A(6,5,10)             119.1683         estimate D2E/DX2                !
 ! A10   A(5,6,7)              120.9416         estimate D2E/DX2                !
 ! A11   A(5,6,12)             118.5771         estimate D2E/DX2                !
 ! A12   A(7,6,12)             120.4812         estimate D2E/DX2                !
 ! A13   A(6,7,8)              119.5775         estimate D2E/DX2                !
 ! A14   A(6,7,13)             119.8815         estimate D2E/DX2                !
 ! A15   A(8,7,13)             120.541          estimate D2E/DX2                !
 ! A16   A(7,8,9)              120.0524         estimate D2E/DX2                !
 ! A17   A(7,8,14)             120.3751         estimate D2E/DX2                !
 ! A18   A(9,8,14)             119.5725         estimate D2E/DX2                !
 ! A19   A(8,9,10)             120.577          estimate D2E/DX2                !
 ! A20   A(8,9,15)             120.5573         estimate D2E/DX2                !
 ! A21   A(10,9,15)            118.8656         estimate D2E/DX2                !
 ! A22   A(5,10,9)             119.6831         estimate D2E/DX2                !
 ! A23   A(5,10,11)            123.6166         estimate D2E/DX2                !
 ! A24   A(9,10,11)            116.7002         estimate D2E/DX2                !
 ! D1    D(1,2,5,6)             57.5991         estimate D2E/DX2                !
 ! D2    D(1,2,5,10)          -122.5191         estimate D2E/DX2                !
 ! D3    D(3,2,5,6)            179.1959         estimate D2E/DX2                !
 ! D4    D(3,2,5,10)            -0.9223         estimate D2E/DX2                !
 ! D5    D(4,2,5,6)            -59.1763         estimate D2E/DX2                !
 ! D6    D(4,2,5,10)           120.7054         estimate D2E/DX2                !
 ! D7    D(2,5,6,7)            179.9371         estimate D2E/DX2                !
 ! D8    D(2,5,6,12)            -0.0865         estimate D2E/DX2                !
 ! D9    D(10,5,6,7)             0.0461         estimate D2E/DX2                !
 ! D10   D(10,5,6,12)         -179.9776         estimate D2E/DX2                !
 ! D11   D(2,5,10,9)          -179.9395         estimate D2E/DX2                !
 ! D12   D(2,5,10,11)            0.002          estimate D2E/DX2                !
 ! D13   D(6,5,10,9)            -0.0628         estimate D2E/DX2                !
 ! D14   D(6,5,10,11)          179.8787         estimate D2E/DX2                !
 ! D15   D(5,6,7,8)             -0.003          estimate D2E/DX2                !
 ! D16   D(5,6,7,13)           179.9845         estimate D2E/DX2                !
 ! D17   D(12,6,7,8)          -179.9789         estimate D2E/DX2                !
 ! D18   D(12,6,7,13)            0.0086         estimate D2E/DX2                !
 ! D19   D(6,7,8,9)             -0.0232         estimate D2E/DX2                !
 ! D20   D(6,7,8,14)          -179.994          estimate D2E/DX2                !
 ! D21   D(13,7,8,9)           179.9894         estimate D2E/DX2                !
 ! D22   D(13,7,8,14)            0.0186         estimate D2E/DX2                !
 ! D23   D(7,8,9,10)             0.0058         estimate D2E/DX2                !
 ! D24   D(7,8,9,15)          -179.9465         estimate D2E/DX2                !
 ! D25   D(14,8,9,10)          179.9769         estimate D2E/DX2                !
 ! D26   D(14,8,9,15)            0.0246         estimate D2E/DX2                !
 ! D27   D(8,9,10,5)             0.0377         estimate D2E/DX2                !
 ! D28   D(8,9,10,11)         -179.9078         estimate D2E/DX2                !
 ! D29   D(15,9,10,5)          179.9907         estimate D2E/DX2                !
 ! D30   D(15,9,10,11)           0.0452         estimate D2E/DX2                !
 --------------------------------------------------------------------------------
 Trust Radius=3.00D-01 FncErr=1.00D-07 GrdErr=1.00D-06 EigMax=2.50D+02 EigMin=1.00D-04
 Number of steps in this run=     79 maximum allowed number of steps=    100.
 GradGradGradGradGradGradGradGradGradGradGradGradGradGradGradGradGradGrad

 Leave Link  103 at Tue Sep 17 09:46:07 2024, MaxMem=  1342177280 cpu:               0.1 elap:               0.0
 (Enter /groups/ReismanLab/Software/Gaussian16_RevC/Linux_Binary_AVX2-enabled-CPU/g16/l202.exe)
                          Input orientation:                          
 ---------------------------------------------------------------------
 Center     Atomic      Atomic             Coordinates (Angstroms)
 Number     Number       Type             X           Y           Z
 ---------------------------------------------------------------------
      1          9           0       -1.361382   -1.897602   -1.449635
      2          6           0       -0.955174   -1.441541   -0.247407
      3          9           0        0.188065   -2.065711    0.019795
      4          9           0       -1.855604   -1.905487    0.643069
      5          6           0       -0.925356    0.065205   -0.234623
      6          6           0       -2.145968    0.667521   -0.538471
      7          6           0       -2.272373    2.041851   -0.563975
      8          6           0       -1.171193    2.835463   -0.283717
      9          6           0        0.042935    2.251541    0.019147
     10          6           0        0.175020    0.867653    0.046415
     11         35           0        1.893150    0.182651    0.478425
     12          1           0       -2.994107    0.035429   -0.754776
     13          1           0       -3.224162    2.489439   -0.801264
     14          1           0       -1.255507    3.910985   -0.299906
     15          1           0        0.905111    2.861447    0.239423
 ---------------------------------------------------------------------
                    Distance matrix (angstroms):
                    1          2          3          4          5
     1  F    0.000000
     2  C    1.348462   0.000000
     3  F    2.142025   1.329655   0.000000
     4  F    2.150285   1.348691   2.142598   0.000000
     5  C    2.349252   1.507095   2.417693   2.349325   0.000000
     6  C    2.832958   2.439436   3.637297   2.846175   1.394633
     7  C    4.139274   3.737546   4.823547   4.148750   2.414551
     8  C    4.878262   4.282609   5.095214   4.878929   2.781577
     9  C    4.620046   3.834857   4.319691   4.612441   2.404590
    10  C    3.499333   2.587672   2.933514   3.488515   1.390587
    11  Br   4.317042   3.358242   2.858809   4.294251   2.909675
    12  H    2.623972   2.568289   3.891140   2.649021   2.133349
    13  H    4.810038   4.572490   5.750376   4.824357   3.388584
    14  H    5.922227   5.361202   6.156866   5.922892   3.860477
    15  H    5.535202   4.713107   4.983902   5.523417   3.375544
                    6          7          8          9         10
     6  C    0.000000
     7  C    1.380367   0.000000
     8  C    2.390619   1.385988   0.000000
     9  C    2.758869   2.396801   1.380869   0.000000
    10  C    2.401902   2.782274   2.406979   1.390445   0.000000
    11  Br   4.193287   4.679189   4.124132   2.813279   1.899429
    12  H    1.079661   2.140803   3.374182   3.838456   3.373110
    13  H    2.133295   1.078213   2.145290   3.376921   3.860464
    14  H    3.371927   2.144157   1.078943   2.131079   3.380564
    15  H    3.837645   3.378401   2.141352   1.078821   2.132018
                   11         12         13         14         15
    11  Br   0.000000
    12  H    5.042593   0.000000
    13  H    5.757235   2.465209   0.000000
    14  H    4.941691   4.271952   2.479466   0.000000
    15  H    2.865186   4.917186   4.274613   2.461844   0.000000
 Stoichiometry    C7H4BrF3
 Framework group  C1[X(C7H4BrF3)]
 Deg. of freedom    39
 Full point group                 C1      NOp   1
 Largest Abelian subgroup         C1      NOp   1
 Largest concise Abelian subgroup C1      NOp   1
                         Standard orientation:                         
 ---------------------------------------------------------------------
 Center     Atomic      Atomic             Coordinates (Angstroms)
 Number     Number       Type             X           Y           Z
 ---------------------------------------------------------------------
      1          9           0       -1.969573   -1.560523   -1.065036
      2          6           0       -1.195896   -1.266402   -0.000488
      3          9           0       -0.192216   -2.138346   -0.018426
      4          9           0       -1.937716   -1.567033    1.085003
      5          6           0       -0.826267    0.194663   -0.001477
      6          6           0       -1.916709    1.064109   -0.000064
      7          6           0       -1.733553    2.432270    0.000558
      8          6           0       -0.448059    2.950408   -0.000171
      9          6           0        0.640154    2.100356   -0.001027
     10          6           0        0.460638    0.721548   -0.001289
     11         35           0        2.033141   -0.343846    0.000248
     12          1           0       -2.911597    0.644744    0.000147
     13          1           0       -2.588884    3.088739    0.001399
     14          1           0       -0.290025    4.017715    0.000399
     15          1           0        1.644268    2.494827   -0.000730
 ---------------------------------------------------------------------
 Rotational constants (GHZ):           0.9510872           0.7792639           0.4627760
 Leave Link  202 at Tue Sep 17 09:46:07 2024, MaxMem=  1342177280 cpu:               0.1 elap:               0.0
 (Enter /groups/ReismanLab/Software/Gaussian16_RevC/Linux_Binary_AVX2-enabled-CPU/g16/l301.exe)
 Standard basis: 6-31G(d,p) (6D, 7F)
 Ernie: Thresh=  0.10000D-02 Tol=  0.10000D-05 Strict=F.
 There are   200 symmetry adapted cartesian basis functions of A   symmetry.
 There are   200 symmetry adapted basis functions of A   symmetry.
   200 basis functions,   391 primitive gaussians,   200 cartesian basis functions
    54 alpha electrons       54 beta electrons
       nuclear repulsion energy       913.6813970006 Hartrees.
 IExCor=  402 DFT=T Ex+Corr=B3LYP ExCW=0 ScaHFX=  0.200000
 ScaDFX=  0.800000  0.720000  1.000000  0.810000 ScalE2=  1.000000  1.000000
 IRadAn=      5 IRanWt=     -1 IRanGd=            0 ICorTp=0 IEmpDi=141
 NAtoms=   15 NActive=   15 NUniq=   15 SFac= 1.00D+00 NAtFMM=   60 NAOKFM=F Big=F
 Integral buffers will be    131072 words long.
 Raffenetti 2 integral format.
 Two-electron integral symmetry is turned on.
 R6Disp:  Grimme-D3(BJ) Dispersion energy=       -0.0312222098 Hartrees.
 Nuclear repulsion after empirical dispersion term =      913.6501747908 Hartrees.
 Leave Link  301 at Tue Sep 17 09:46:07 2024, MaxMem=  1342177280 cpu:               0.1 elap:               0.1
 (Enter /groups/ReismanLab/Software/Gaussian16_RevC/Linux_Binary_AVX2-enabled-CPU/g16/l302.exe)
 NPDir=0 NMtPBC=     1 NCelOv=     1 NCel=       1 NClECP=     1 NCelD=      1
         NCelK=      1 NCelE2=     1 NClLst=     1 CellRange=     0.0.
 One-electron integrals computed using PRISM.
 One-electron integral symmetry used in STVInt
 NBasis=   200 RedAO= T EigKep=  3.95D-04  NBF=   200
 NBsUse=   200 1.00D-06 EigRej= -1.00D+00 NBFU=   200
 Precomputing XC quadrature grid using
 IXCGrd= 4 IRadAn=           5 IRanWt=          -1 IRanGd=           0 AccXCQ= 0.00D+00.
 Generated NRdTot=       0 NPtTot=           0 NUsed=           0 NTot=          32
 NSgBfM=   199   199   199   199   199 MxSgAt=    15 MxSgA2=    15.
 Leave Link  302 at Tue Sep 17 09:46:07 2024, MaxMem=  1342177280 cpu:               0.9 elap:               0.2
 (Enter /groups/ReismanLab/Software/Gaussian16_RevC/Linux_Binary_AVX2-enabled-CPU/g16/l303.exe)
 DipDrv:  MaxL=1.
 Leave Link  303 at Tue Sep 17 09:46:07 2024, MaxMem=  1342177280 cpu:               0.1 elap:               0.0
 (Enter /groups/ReismanLab/Software/Gaussian16_RevC/Linux_Binary_AVX2-enabled-CPU/g16/l401.exe)
 ExpMin= 1.43D-01 ExpMax= 5.74D+05 ExpMxC= 5.74D+03 IAcc=3 IRadAn=         5 AccDes= 0.00D+00
 Harris functional with IExCor=  402 and IRadAn=       5 diagonalized for initial guess.
 HarFok:  IExCor=  402 AccDes= 0.00D+00 IRadAn=         5 IDoV= 1 UseB2=F ITyADJ=14
 ICtDFT=  3500011 ScaDFX=  1.000000  1.000000  1.000000  1.000000
 FoFCou: FMM=F IPFlag=           0 FMFlag=      100000 FMFlg1=           0
         NFxFlg=           0 DoJE=T BraDBF=F KetDBF=T FulRan=T
         wScrn=  0.000000 ICntrl=       500 IOpCl=  0 I1Cent=   200000004 NGrid=           0
         NMat0=    1 NMatS0=      1 NMatT0=    0 NMatD0=    1 NMtDS0=    0 NMtDT0=    0
 Petite list used in FoFCou.
 Harris En= -3140.51002828589    
 JPrj=0 DoOrth=F DoCkMO=F.
 Leave Link  401 at Tue Sep 17 09:46:08 2024, MaxMem=  1342177280 cpu:               3.3 elap:               0.5
 (Enter /groups/ReismanLab/Software/Gaussian16_RevC/Linux_Binary_AVX2-enabled-CPU/g16/l502.exe)
 Integral symmetry usage will be decided dynamically.
 Closed shell SCF:
 Using DIIS extrapolation, IDIIS=  1040.
 NGot=  1342177280 LenX=  1342093240 LenY=  1342052799
 Requested convergence on RMS density matrix=1.00D-08 within  32 cycles.
 Requested convergence on MAX density matrix=1.00D-06.
 Requested convergence on             energy=1.00D-06.
 No special actions if energy rises.
 Fock matrices will be formed incrementally for  20 cycles.
 Integral accuracy reduced to 1.0D-05 until final iterations.

 Cycle   1  Pass 0  IDiag  1:
 FoFJK:  IHMeth= 1 ICntrl=       0 DoSepK=F KAlg= 0 I1Cent=           0 FoldK=F
 IRaf= 890000000 NMat=       1 IRICut=       1 DoRegI=T DoRafI=F ISym2E= 0 IDoP0=0 IntGTp=1.
 FoFCou: FMM=F IPFlag=           0 FMFlag=      100000 FMFlg1=           0
         NFxFlg=           0 DoJE=F BraDBF=F KetDBF=F FulRan=T
         wScrn=  0.000000 ICntrl=         0 IOpCl=  0 I1Cent=           0 NGrid=           0
         NMat0=    1 NMatS0=      1 NMatT0=    0 NMatD0=    1 NMtDS0=    0 NMtDT0=    0
 Symmetry not used in FoFCou.
 E= -3140.21430157481    
 DIIS: error= 1.96D-01 at cycle   1 NSaved=   1.
 NSaved= 1 IEnMin= 1 EnMin= -3140.21430157481     IErMin= 1 ErrMin= 1.96D-01
 ErrMax= 1.96D-01  0.00D+00 EMaxC= 1.00D-01 BMatC= 5.80D-01 BMatP= 5.80D-01
 IDIUse=3 WtCom= 0.00D+00 WtEn= 1.00D+00
 Coeff-Com:  0.100D+01
 Coeff-En:   0.100D+01
 Coeff:      0.100D+01
 Gap=     0.285 Goal=   None    Shift=    0.000
 GapD=    0.285 DampG=1.000 DampE=0.250 DampFc=0.2500 IDamp=-1.
 Damping current iteration by 2.50D-01
 RMSDP=5.24D-03 MaxDP=1.41D-01              OVMax= 1.79D-01

 Cycle   2  Pass 0  IDiag  1:
 RMSU=  1.27D-03    CP:  9.93D-01
 E= -3140.28711090544     Delta-E=       -0.072809330628 Rises=F Damp=T
 DIIS: error= 1.45D-01 at cycle   2 NSaved=   2.
 NSaved= 2 IEnMin= 2 EnMin= -3140.28711090544     IErMin= 2 ErrMin= 1.45D-01
 ErrMax= 1.45D-01  0.00D+00 EMaxC= 1.00D-01 BMatC= 2.43D-01 BMatP= 5.80D-01
 IDIUse=3 WtCom= 0.00D+00 WtEn= 1.00D+00
 Coeff-Com: -0.128D+01 0.228D+01
 Coeff-En:   0.000D+00 0.100D+01
 Coeff:      0.000D+00 0.100D+01
 Gap=     0.243 Goal=   None    Shift=    0.000
 RMSDP=2.70D-03 MaxDP=1.10D-01 DE=-7.28D-02 OVMax= 8.82D-02

 Cycle   3  Pass 0  IDiag  1:
 RMSU=  1.09D-03    CP:  9.72D-01  2.78D+00
 E= -3140.37213768344     Delta-E=       -0.085026778006 Rises=F Damp=F
 DIIS: error= 1.39D-02 at cycle   3 NSaved=   3.
 NSaved= 3 IEnMin= 3 EnMin= -3140.37213768344     IErMin= 3 ErrMin= 1.39D-02
 ErrMax= 1.39D-02  0.00D+00 EMaxC= 1.00D-01 BMatC= 5.26D-02 BMatP= 2.43D-01
 IDIUse=3 WtCom= 8.61D-01 WtEn= 1.39D-01
 Coeff-Com:  0.149D+01-0.192D+01 0.143D+01
 Coeff-En:   0.143D+00 0.000D+00 0.857D+00
 Coeff:      0.130D+01-0.165D+01 0.135D+01
 Gap=     0.222 Goal=   None    Shift=    0.000
 RMSDP=1.27D-03 MaxDP=2.99D-02 DE=-8.50D-02 OVMax= 4.75D-02

 Cycle   4  Pass 0  IDiag  1:
 RMSU=  7.04D-04    CP:  9.72D-01  1.98D+00  1.25D+00
 E= -3140.41088938305     Delta-E=       -0.038751699605 Rises=F Damp=F
 DIIS: error= 6.60D-03 at cycle   4 NSaved=   4.
 NSaved= 4 IEnMin= 4 EnMin= -3140.41088938305     IErMin= 4 ErrMin= 6.60D-03
 ErrMax= 6.60D-03  0.00D+00 EMaxC= 1.00D-01 BMatC= 5.99D-03 BMatP= 5.26D-02
 IDIUse=3 WtCom= 9.34D-01 WtEn= 6.60D-02
 Coeff-Com:  0.867D+00-0.114D+01 0.821D+00 0.449D+00
 Coeff-En:   0.000D+00 0.000D+00 0.000D+00 0.100D+01
 Coeff:      0.810D+00-0.106D+01 0.767D+00 0.485D+00
 Gap=     0.222 Goal=   None    Shift=    0.000
 RMSDP=5.52D-04 MaxDP=2.01D-02 DE=-3.88D-02 OVMax= 3.65D-02

 Cycle   5  Pass 0  IDiag  1:
 RMSU=  1.74D-04    CP:  9.72D-01  2.07D+00  1.30D+00  2.75D-01
 E= -3140.41685596606     Delta-E=       -0.005966583009 Rises=F Damp=F
 DIIS: error= 2.25D-03 at cycle   5 NSaved=   5.
 NSaved= 5 IEnMin= 5 EnMin= -3140.41685596606     IErMin= 5 ErrMin= 2.25D-03
 ErrMax= 2.25D-03  0.00D+00 EMaxC= 1.00D-01 BMatC= 5.76D-04 BMatP= 5.99D-03
 IDIUse=3 WtCom= 9.78D-01 WtEn= 2.25D-02
 Coeff-Com:  0.271D+00-0.357D+00 0.248D+00 0.273D+00 0.565D+00
 Coeff-En:   0.000D+00 0.000D+00 0.000D+00 0.681D-01 0.932D+00
 Coeff:      0.264D+00-0.349D+00 0.243D+00 0.268D+00 0.573D+00
 Gap=     0.220 Goal=   None    Shift=    0.000
 RMSDP=1.43D-04 MaxDP=3.73D-03 DE=-5.97D-03 OVMax= 8.14D-03

 Cycle   6  Pass 0  IDiag  1:
 RMSU=  5.64D-05    CP:  9.72D-01  2.06D+00  1.30D+00  4.23D-01  5.44D-01
 E= -3140.41743930022     Delta-E=       -0.000583334164 Rises=F Damp=F
 DIIS: error= 4.88D-04 at cycle   6 NSaved=   6.
 NSaved= 6 IEnMin= 6 EnMin= -3140.41743930022     IErMin= 6 ErrMin= 4.88D-04
 ErrMax= 4.88D-04  0.00D+00 EMaxC= 1.00D-01 BMatC= 4.16D-05 BMatP= 5.76D-04
 IDIUse=3 WtCom= 9.95D-01 WtEn= 4.88D-03
 Coeff-Com:  0.839D-01-0.111D+00 0.718D-01 0.115D+00 0.321D+00 0.520D+00
 Coeff-En:   0.000D+00 0.000D+00 0.000D+00 0.000D+00 0.000D+00 0.100D+01
 Coeff:      0.835D-01-0.111D+00 0.714D-01 0.114D+00 0.319D+00 0.522D+00
 Gap=     0.219 Goal=   None    Shift=    0.000
 RMSDP=3.74D-05 MaxDP=1.86D-03 DE=-5.83D-04 OVMax= 3.20D-03

 Cycle   7  Pass 0  IDiag  1:
 RMSU=  2.27D-05    CP:  9.72D-01  2.05D+00  1.31D+00  4.22D-01  5.91D-01
                    CP:  5.41D-01
 E= -3140.41747816357     Delta-E=       -0.000038863349 Rises=F Damp=F
 DIIS: error= 1.19D-04 at cycle   7 NSaved=   7.
 NSaved= 7 IEnMin= 7 EnMin= -3140.41747816357     IErMin= 7 ErrMin= 1.19D-04
 ErrMax= 1.19D-04  0.00D+00 EMaxC= 1.00D-01 BMatC= 3.34D-06 BMatP= 4.16D-05
 IDIUse=3 WtCom= 9.99D-01 WtEn= 1.19D-03
 Coeff-Com:  0.238D-01-0.317D-01 0.181D-01 0.354D-01 0.108D+00 0.275D+00
 Coeff-Com:  0.572D+00
 Coeff-En:   0.000D+00 0.000D+00 0.000D+00 0.000D+00 0.000D+00 0.000D+00
 Coeff-En:   0.100D+01
 Coeff:      0.238D-01-0.317D-01 0.180D-01 0.354D-01 0.108D+00 0.274D+00
 Coeff:      0.572D+00
 Gap=     0.219 Goal=   None    Shift=    0.000
 RMSDP=1.23D-05 MaxDP=4.75D-04 DE=-3.89D-05 OVMax= 8.90D-04

 Cycle   8  Pass 0  IDiag  1:
 RMSU=  7.13D-06    CP:  9.72D-01  2.05D+00  1.31D+00  4.23D-01  5.96D-01
                    CP:  6.12D-01  6.16D-01
 E= -3140.41748108939     Delta-E=       -0.000002925820 Rises=F Damp=F
 DIIS: error= 7.95D-05 at cycle   8 NSaved=   8.
 NSaved= 8 IEnMin= 8 EnMin= -3140.41748108939     IErMin= 8 ErrMin= 7.95D-05
 ErrMax= 7.95D-05  0.00D+00 EMaxC= 1.00D-01 BMatC= 4.96D-07 BMatP= 3.34D-06
 IDIUse=1 WtCom= 1.00D+00 WtEn= 0.00D+00
 Coeff-Com:  0.876D-02-0.117D-01 0.575D-02 0.131D-01 0.422D-01 0.132D+00
 Coeff-Com:  0.357D+00 0.453D+00
 Coeff:      0.876D-02-0.117D-01 0.575D-02 0.131D-01 0.422D-01 0.132D+00
 Coeff:      0.357D+00 0.453D+00
 Gap=     0.219 Goal=   None    Shift=    0.000
 RMSDP=4.05D-06 MaxDP=1.40D-04 DE=-2.93D-06 OVMax= 3.41D-04

 Initial convergence to 1.0D-05 achieved.  Increase integral accuracy.
 Cycle   9  Pass 1  IDiag  1:
 E= -3140.41755901065     Delta-E=       -0.000077921258 Rises=F Damp=F
 DIIS: error= 4.97D-05 at cycle   1 NSaved=   1.
 NSaved= 1 IEnMin= 1 EnMin= -3140.41755901065     IErMin= 1 ErrMin= 4.97D-05
 ErrMax= 4.97D-05  0.00D+00 EMaxC= 1.00D-01 BMatC= 1.57D-07 BMatP= 1.57D-07
 IDIUse=1 WtCom= 1.00D+00 WtEn= 0.00D+00
 Coeff-Com:  0.100D+01
 Coeff:      0.100D+01
 Gap=     0.219 Goal=   None    Shift=    0.000
 RMSDP=4.05D-06 MaxDP=1.40D-04 DE=-7.79D-05 OVMax= 1.49D-04

 Cycle  10  Pass 1  IDiag  1:
 RMSU=  1.07D-05    CP:  1.00D+00
 E= -3140.41755903703     Delta-E=       -0.000000026381 Rises=F Damp=F
 DIIS: error= 2.74D-05 at cycle   2 NSaved=   2.
 NSaved= 2 IEnMin= 2 EnMin= -3140.41755903703     IErMin= 2 ErrMin= 2.74D-05
 ErrMax= 2.74D-05  0.00D+00 EMaxC= 1.00D-01 BMatC= 6.10D-08 BMatP= 1.57D-07
 IDIUse=1 WtCom= 1.00D+00 WtEn= 0.00D+00
 Coeff-Com:  0.334D+00 0.666D+00
 Coeff:      0.334D+00 0.666D+00
 Gap=     0.219 Goal=   None    Shift=    0.000
 RMSDP=2.55D-06 MaxDP=7.99D-05 DE=-2.64D-08 OVMax= 1.87D-04

 Cycle  11  Pass 1  IDiag  1:
 RMSU=  2.54D-06    CP:  1.00D+00  9.86D-01
 E= -3140.41755904711     Delta-E=       -0.000000010088 Rises=F Damp=F
 DIIS: error= 2.68D-05 at cycle   3 NSaved=   3.
 NSaved= 3 IEnMin= 3 EnMin= -3140.41755904711     IErMin= 3 ErrMin= 2.68D-05
 ErrMax= 2.68D-05  0.00D+00 EMaxC= 1.00D-01 BMatC= 5.00D-08 BMatP= 6.10D-08
 IDIUse=1 WtCom= 1.00D+00 WtEn= 0.00D+00
 Coeff-Com:  0.193D-01 0.471D+00 0.509D+00
 Coeff:      0.193D-01 0.471D+00 0.509D+00
 Gap=     0.219 Goal=   None    Shift=    0.000
 RMSDP=1.28D-06 MaxDP=4.05D-05 DE=-1.01D-08 OVMax= 1.00D-04

 Cycle  12  Pass 1  IDiag  1:
 RMSU=  4.21D-07    CP:  1.00D+00  1.01D+00  5.29D-01
 E= -3140.41755910176     Delta-E=       -0.000000054645 Rises=F Damp=F
 DIIS: error= 2.43D-06 at cycle   4 NSaved=   4.
 NSaved= 4 IEnMin= 4 EnMin= -3140.41755910176     IErMin= 4 ErrMin= 2.43D-06
 ErrMax= 2.43D-06  0.00D+00 EMaxC= 1.00D-01 BMatC= 1.48D-09 BMatP= 5.00D-08
 IDIUse=1 WtCom= 1.00D+00 WtEn= 0.00D+00
 Coeff-Com: -0.233D-02 0.238D+00 0.285D+00 0.479D+00
 Coeff:     -0.233D-02 0.238D+00 0.285D+00 0.479D+00
 Gap=     0.219 Goal=   None    Shift=    0.000
 RMSDP=2.25D-07 MaxDP=7.05D-06 DE=-5.46D-08 OVMax= 1.61D-05

 Cycle  13  Pass 1  IDiag  1:
 RMSU=  8.06D-08    CP:  1.00D+00  1.01D+00  5.44D-01  5.12D-01
 E= -3140.41755910321     Delta-E=       -0.000000001450 Rises=F Damp=F
 DIIS: error= 3.45D-07 at cycle   5 NSaved=   5.
 NSaved= 5 IEnMin= 5 EnMin= -3140.41755910321     IErMin= 5 ErrMin= 3.45D-07
 ErrMax= 3.45D-07  0.00D+00 EMaxC= 1.00D-01 BMatC= 3.40D-11 BMatP= 1.48D-09
 IDIUse=1 WtCom= 1.00D+00 WtEn= 0.00D+00
 Coeff-Com: -0.171D-02 0.114D+00 0.138D+00 0.254D+00 0.495D+00
 Coeff:     -0.171D-02 0.114D+00 0.138D+00 0.254D+00 0.495D+00
 Gap=     0.219 Goal=   None    Shift=    0.000
 RMSDP=3.25D-08 MaxDP=1.33D-06 DE=-1.45D-09 OVMax= 2.34D-06

 Cycle  14  Pass 1  IDiag  1:
 RMSU=  2.38D-08    CP:  1.00D+00  1.01D+00  5.44D-01  5.30D-01  7.42D-01
 E= -3140.41755910326     Delta-E=       -0.000000000046 Rises=F Damp=F
 DIIS: error= 1.80D-07 at cycle   6 NSaved=   6.
 NSaved= 6 IEnMin= 6 EnMin= -3140.41755910326     IErMin= 6 ErrMin= 1.80D-07
 ErrMax= 1.80D-07  0.00D+00 EMaxC= 1.00D-01 BMatC= 2.49D-12 BMatP= 3.40D-11
 IDIUse=1 WtCom= 1.00D+00 WtEn= 0.00D+00
 Coeff-Com: -0.762D-03 0.450D-01 0.551D-01 0.106D+00 0.266D+00 0.529D+00
 Coeff:     -0.762D-03 0.450D-01 0.551D-01 0.106D+00 0.266D+00 0.529D+00
 Gap=     0.219 Goal=   None    Shift=    0.000
 RMSDP=1.18D-08 MaxDP=3.62D-07 DE=-4.64D-11 OVMax= 7.76D-07

 Cycle  15  Pass 1  IDiag  1:
 RMSU=  9.84D-09    CP:  1.00D+00  1.01D+00  5.45D-01  5.31D-01  7.71D-01
                    CP:  7.57D-01
 E= -3140.41755910326     Delta-E=       -0.000000000006 Rises=F Damp=F
 DIIS: error= 7.34D-08 at cycle   7 NSaved=   7.
 NSaved= 7 IEnMin= 7 EnMin= -3140.41755910326     IErMin= 7 ErrMin= 7.34D-08
 ErrMax= 7.34D-08  0.00D+00 EMaxC= 1.00D-01 BMatC= 5.29D-13 BMatP= 2.49D-12
 IDIUse=1 WtCom= 1.00D+00 WtEn= 0.00D+00
 Coeff-Com: -0.186D-04-0.192D-02-0.193D-02-0.107D-02 0.301D-01 0.335D+00
 Coeff-Com:  0.640D+00
 Coeff:     -0.186D-04-0.192D-02-0.193D-02-0.107D-02 0.301D-01 0.335D+00
 Coeff:      0.640D+00
 Gap=     0.219 Goal=   None    Shift=    0.000
 RMSDP=4.87D-09 MaxDP=1.53D-07 DE=-6.37D-12 OVMax= 4.00D-07

 SCF Done:  E(RB3LYP) =  -3140.41755910     A.U. after   15 cycles
            NFock= 15  Conv=0.49D-08     -V/T= 2.0064
 KE= 3.120396455107D+03 PE=-9.298209006349D+03 EE= 2.123744817348D+03
 Leave Link  502 at Tue Sep 17 09:46:16 2024, MaxMem=  1342177280 cpu:              61.7 elap:               8.6
 (Enter /groups/ReismanLab/Software/Gaussian16_RevC/Linux_Binary_AVX2-enabled-CPU/g16/l508.exe)
 QCSCF skips out because SCF is already converged.
 Leave Link  508 at Tue Sep 17 09:46:17 2024, MaxMem=  1342177280 cpu:               0.0 elap:               0.0
 (Enter /groups/ReismanLab/Software/Gaussian16_RevC/Linux_Binary_AVX2-enabled-CPU/g16/l601.exe)
 Copying SCF densities to generalized density rwf, IOpCl= 0 IROHF=0.

 **********************************************************************

            Population analysis using the SCF Density.

 **********************************************************************

 Orbital symmetries:
       Occupied  (A) (A) (A) (A) (A) (A) (A) (A) (A) (A) (A) (A)
                 (A) (A) (A) (A) (A) (A) (A) (A) (A) (A) (A) (A)
                 (A) (A) (A) (A) (A) (A) (A) (A) (A) (A) (A) (A)
                 (A) (A) (A) (A) (A) (A) (A) (A) (A) (A) (A) (A)
                 (A) (A) (A) (A) (A) (A)
       Virtual   (A) (A) (A) (A) (A) (A) (A) (A) (A) (A) (A) (A)
                 (A) (A) (A) (A) (A) (A) (A) (A) (A) (A) (A) (A)
                 (A) (A) (A) (A) (A) (A) (A) (A) (A) (A) (A) (A)
                 (A) (A) (A) (A) (A) (A) (A) (A) (A) (A) (A) (A)
                 (A) (A) (A) (A) (A) (A) (A) (A) (A) (A) (A) (A)
                 (A) (A) (A) (A) (A) (A) (A) (A) (A) (A) (A) (A)
                 (A) (A) (A) (A) (A) (A) (A) (A) (A) (A) (A) (A)
                 (A) (A) (A) (A) (A) (A) (A) (A) (A) (A) (A) (A)
                 (A) (A) (A) (A) (A) (A) (A) (A) (A) (A) (A) (A)
                 (A) (A) (A) (A) (A) (A) (A) (A) (A) (A) (A) (A)
                 (A) (A) (A) (A) (A) (A) (A) (A) (A) (A) (A) (A)
                 (A) (A) (A) (A) (A) (A) (A) (A) (A) (A) (A) (A)
                 (A) (A)
 The electronic state is 1-A.
 Alpha  occ. eigenvalues -- -482.91935 -61.88079 -56.40214 -56.39774 -56.39773
 Alpha  occ. eigenvalues --  -24.72801 -24.71943 -24.71916 -10.43529 -10.26654
 Alpha  occ. eigenvalues --  -10.23185 -10.21789 -10.21579 -10.21517 -10.21176
 Alpha  occ. eigenvalues --   -8.59191  -6.54622  -6.53309  -6.53224  -2.66187
 Alpha  occ. eigenvalues --   -2.65826  -2.65761  -2.64712  -2.64711  -1.30904
 Alpha  occ. eigenvalues --   -1.21893  -1.21094  -0.89923  -0.81774  -0.79910
 Alpha  occ. eigenvalues --   -0.74402  -0.69904  -0.63718  -0.63117  -0.58147
 Alpha  occ. eigenvalues --   -0.57858  -0.56872  -0.51337  -0.48664  -0.46820
 Alpha  occ. eigenvalues --   -0.45899  -0.45346  -0.43741  -0.42296  -0.41634
 Alpha  occ. eigenvalues --   -0.40956  -0.39826  -0.39507  -0.37295  -0.36705
 Alpha  occ. eigenvalues --   -0.32563  -0.28747  -0.28032  -0.25684
 Alpha virt. eigenvalues --   -0.03797  -0.02671  -0.00048   0.09527   0.11582
 Alpha virt. eigenvalues --    0.12867   0.14200   0.16698   0.17883   0.21669
 Alpha virt. eigenvalues --    0.22206   0.23332   0.25851   0.28089   0.28742
 Alpha virt. eigenvalues --    0.32449   0.33524   0.41247   0.42594   0.44355
 Alpha virt. eigenvalues --    0.45425   0.45568   0.47236   0.48082   0.49966
 Alpha virt. eigenvalues --    0.51582   0.52480   0.53849   0.54440   0.55776
 Alpha virt. eigenvalues --    0.57252   0.58738   0.58829   0.60924   0.62863
 Alpha virt. eigenvalues --    0.62906   0.67168   0.68392   0.69657   0.73574
 Alpha virt. eigenvalues --    0.78257   0.79637   0.80579   0.81946   0.82779
 Alpha virt. eigenvalues --    0.85752   0.88771   0.91615   0.96838   1.01032
 Alpha virt. eigenvalues --    1.02928   1.07324   1.07490   1.08193   1.10193
 Alpha virt. eigenvalues --    1.12112   1.16723   1.17751   1.22016   1.22122
 Alpha virt. eigenvalues --    1.27092   1.31326   1.33233   1.33946   1.35558
 Alpha virt. eigenvalues --    1.37654   1.38761   1.38853   1.40304   1.41121
 Alpha virt. eigenvalues --    1.41553   1.46735   1.50500   1.54106   1.60015
 Alpha virt. eigenvalues --    1.61680   1.65080   1.68974   1.71902   1.75087
 Alpha virt. eigenvalues --    1.76848   1.83287   1.84145   1.85471   1.86302
 Alpha virt. eigenvalues --    1.89909   1.92211   1.95302   1.96394   1.96552
 Alpha virt. eigenvalues --    1.98082   1.98988   2.01236   2.04475   2.04867
 Alpha virt. eigenvalues --    2.06424   2.08951   2.09999   2.11067   2.12877
 Alpha virt. eigenvalues --    2.21046   2.26175   2.26952   2.30277   2.35124
 Alpha virt. eigenvalues --    2.35410   2.38143   2.38864   2.41632   2.45871
 Alpha virt. eigenvalues --    2.47052   2.52220   2.53011   2.56057   2.56775
 Alpha virt. eigenvalues --    2.61571   2.63350   2.70496   2.70765   2.76665
 Alpha virt. eigenvalues --    2.77962   2.82284   2.92636   2.97750   3.02475
 Alpha virt. eigenvalues --    3.03988   3.08697   3.12613   3.20209   3.23305
 Alpha virt. eigenvalues --    3.31925   3.32291   3.46352   3.83706   4.06193
 Alpha virt. eigenvalues --    4.11982   4.12413   4.28373   4.29712   4.37654
 Alpha virt. eigenvalues --    4.50953   4.79535   4.90153   5.64470   8.61811
 Alpha virt. eigenvalues --   73.14598
          Condensed to atoms (all electrons):
               1          2          3          4          5          6
     1  F    9.119105   0.279958  -0.041782  -0.042091  -0.055652   0.004462
     2  C    0.279958   4.127238   0.294142   0.280691   0.289733  -0.017090
     3  F   -0.041782   0.294142   9.072803  -0.041822  -0.028839   0.003488
     4  F   -0.042091   0.280691  -0.041822   9.119096  -0.056012   0.004430
     5  C   -0.055652   0.289733  -0.028839  -0.056012   5.178085   0.429516
     6  C    0.004462  -0.017090   0.003488   0.004430   0.429516   4.933400
     7  C    0.000387   0.004582  -0.000033   0.000361  -0.025147   0.513033
     8  C   -0.000007  -0.000115  -0.000001  -0.000007  -0.041892  -0.027730
     9  C   -0.000025   0.005372   0.000066  -0.000025  -0.023153  -0.050850
    10  C    0.000933  -0.040939  -0.011050   0.000811   0.481194  -0.050615
    11  Br   0.000023  -0.006232  -0.000692   0.000024  -0.066431   0.005522
    12  H    0.003217  -0.002531   0.000155   0.002844  -0.051252   0.374202
    13  H    0.000000  -0.000134   0.000000   0.000000   0.004636  -0.037055
    14  H   -0.000000   0.000004  -0.000000  -0.000000   0.000713   0.004790
    15  H    0.000000  -0.000078   0.000002   0.000000   0.005556   0.000586
               7          8          9         10         11         12
     1  F    0.000387  -0.000007  -0.000025   0.000933   0.000023   0.003217
     2  C    0.004582  -0.000115   0.005372  -0.040939  -0.006232  -0.002531
     3  F   -0.000033  -0.000001   0.000066  -0.011050  -0.000692   0.000155
     4  F    0.000361  -0.000007  -0.000025   0.000811   0.000024   0.002844
     5  C   -0.025147  -0.041892  -0.023153   0.481194  -0.066431  -0.051252
     6  C    0.513033  -0.027730  -0.050850  -0.050615   0.005522   0.374202
     7  C    4.827132   0.533444  -0.029099  -0.038914  -0.000015  -0.033806
     8  C    0.533444   4.812414   0.521333  -0.031121   0.006182   0.004642
     9  C   -0.029099   0.521333   4.902193   0.498484  -0.072351   0.000612
    10  C   -0.038914  -0.031121   0.498484   4.903967   0.286927   0.004237
    11  Br  -0.000015   0.006182  -0.072351   0.286927  34.948633  -0.000113
    12  H   -0.033806   0.004642   0.000612   0.004237  -0.000113   0.583190
    13  H    0.371028  -0.040665   0.004443   0.001064   0.000009  -0.006037
    14  H   -0.040305   0.371300  -0.037844   0.004642  -0.000171  -0.000195
    15  H    0.004728  -0.039546   0.371892  -0.040894  -0.002362   0.000016
              13         14         15
     1  F    0.000000  -0.000000   0.000000
     2  C   -0.000134   0.000004  -0.000078
     3  F    0.000000  -0.000000   0.000002
     4  F    0.000000  -0.000000   0.000000
     5  C    0.004636   0.000713   0.005556
     6  C   -0.037055   0.004790   0.000586
     7  C    0.371028  -0.040305   0.004728
     8  C   -0.040665   0.371300  -0.039546
     9  C    0.004443  -0.037844   0.371892
    10  C    0.001064   0.004642  -0.040894
    11  Br   0.000009  -0.000171  -0.002362
    12  H   -0.006037  -0.000195   0.000016
    13  H    0.606127  -0.005832  -0.000182
    14  H   -0.005832   0.605052  -0.006483
    15  H   -0.000182  -0.006483   0.591163
 Mulliken charges:
               1
     1  F   -0.268528
     2  C    0.785399
     3  F   -0.246437
     4  F   -0.268302
     5  C   -0.041054
     6  C   -0.090090
     7  C   -0.087377
     8  C   -0.068233
     9  C   -0.091048
    10  C    0.031274
    11  Br  -0.098952
    12  H    0.120820
    13  H    0.102599
    14  H    0.104328
    15  H    0.115601
 Sum of Mulliken charges =  -0.00000
 Mulliken charges with hydrogens summed into heavy atoms:
               1
     1  F   -0.268528
     2  C    0.785399
     3  F   -0.246437
     4  F   -0.268302
     5  C   -0.041054
     6  C    0.030730
     7  C    0.015222
     8  C    0.036095
     9  C    0.024553
    10  C    0.031274
    11  Br  -0.098952
 Electronic spatial extent (au):  <R**2>=           2176.7070
 Charge=             -0.0000 electrons
 Dipole moment (field-independent basis, Debye):
    X=             -0.5023    Y=              3.1267    Z=             -0.0049  Tot=              3.1668
 Quadrupole moment (field-independent basis, Debye-Ang):
   XX=            -68.9857   YY=            -66.2903   ZZ=            -74.9580
   XY=             -3.4743   XZ=              0.0019   YZ=              0.0113
 Traceless Quadrupole moment (field-independent basis, Debye-Ang):
   XX=              1.0923   YY=              3.7877   ZZ=             -4.8800
   XY=             -3.4743   XZ=              0.0019   YZ=              0.0113
 Octapole moment (field-independent basis, Debye-Ang**2):
  XXX=             30.5752  YYY=            -19.0753  ZZZ=             -0.0271  XYY=             12.4623
  XXY=             -7.2105  XXZ=              0.0544  XZZ=             14.9012  YZZ=            -20.5665
  YYZ=              0.0112  XYZ=             -0.0266
 Hexadecapole moment (field-independent basis, Debye-Ang**3):
 XXXX=          -1045.7835 YYYY=          -1054.3790 ZZZZ=           -134.6107 XXXY=            -13.6514
 XXXZ=             -0.1377 YYYX=              5.8725 YYYZ=              0.0707 ZZZX=              0.0680
 ZZZY=              0.0865 XXYY=           -353.5596 XXZZ=           -217.1547 YYZZ=           -230.5790
 XXYZ=             -0.0076 YYXZ=              0.0121 ZZXY=              9.2552
 N-N= 9.136501747908D+02 E-N=-9.298209017509D+03  KE= 3.120396455107D+03
 No NMR shielding tensors so no spin-rotation constants.
 Leave Link  601 at Tue Sep 17 09:46:17 2024, MaxMem=  1342177280 cpu:               0.4 elap:               0.1
 (Enter /groups/ReismanLab/Software/Gaussian16_RevC/Linux_Binary_AVX2-enabled-CPU/g16/l701.exe)
 ... and contract with generalized density number  0.
 Compute integral first derivatives.
 R6Disp: Adding Grimme-D3(BJ) dispersion energy 1st derivatives to the gradient.
 Leave Link  701 at Tue Sep 17 09:46:17 2024, MaxMem=  1342177280 cpu:               0.6 elap:               0.1
 (Enter /groups/ReismanLab/Software/Gaussian16_RevC/Linux_Binary_AVX2-enabled-CPU/g16/l702.exe)
 L702 exits ... SP integral derivatives will be done elsewhere.
 Leave Link  702 at Tue Sep 17 09:46:17 2024, MaxMem=  1342177280 cpu:               0.1 elap:               0.0
 (Enter /groups/ReismanLab/Software/Gaussian16_RevC/Linux_Binary_AVX2-enabled-CPU/g16/l703.exe)
 Integral derivatives from FoFJK, PRISM(SPDF).
 Compute integral first derivatives, UseDBF=F ICtDFT=           0.
 Calling FoFJK, ICntrl=      2127 FMM=F ISym2X=0 I1Cent= 0 IOpClX= 0 NMat=1 NMatS=1 NMatT=0.
 FoFJK:  IHMeth= 1 ICntrl=    2127 DoSepK=F KAlg= 0 I1Cent=           0 FoldK=F
 IRaf=         0 NMat=       1 IRICut=       1 DoRegI=T DoRafI=F ISym2E= 0 IDoP0=0 IntGTp=1.
 FoFCou: FMM=F IPFlag=           0 FMFlag=      100000 FMFlg1=         800
         NFxFlg=           0 DoJE=F BraDBF=F KetDBF=F FulRan=T
         wScrn=  0.000000 ICntrl=      2127 IOpCl=  0 I1Cent=           0 NGrid=           0
         NMat0=    1 NMatS0=      1 NMatT0=    0 NMatD0=    1 NMtDS0=    0 NMtDT0=    0
 Symmetry not used in FoFCou.
 Leave Link  703 at Tue Sep 17 09:46:20 2024, MaxMem=  1342177280 cpu:              20.0 elap:               2.8
 (Enter /groups/ReismanLab/Software/Gaussian16_RevC/Linux_Binary_AVX2-enabled-CPU/g16/l716.exe)
 Dipole        =-1.97614812D-01 1.23015814D+00-1.92923823D-03
 ***** Axes restored to original set *****
 -------------------------------------------------------------------
 Center     Atomic                   Forces (Hartrees/Bohr)
 Number     Number              X              Y              Z
 -------------------------------------------------------------------
      1        9          -0.003349681    0.001382179   -0.009367815
      2        6          -0.003301144   -0.006477194   -0.000585126
      3        9           0.010819306   -0.000954264    0.002485711
      4        9          -0.007010145    0.001336714    0.006814638
      5        6           0.002145414   -0.008888912    0.000367516
      6        6          -0.001610166   -0.001163825   -0.000433807
      7        6          -0.005610154    0.000809884   -0.001402887
      8        6          -0.000688627    0.004240540   -0.000145035
      9        6           0.006939263    0.002669027    0.001801108
     10        6           0.001195597   -0.001142689    0.000342197
     11       35           0.004585735    0.001401994    0.001180953
     12        1          -0.002678036   -0.001675234   -0.000707751
     13        1          -0.004075242    0.002097576   -0.001007113
     14        1          -0.000140975    0.004480487   -0.000029447
     15        1           0.002778857    0.001883717    0.000686857
 -------------------------------------------------------------------
 Cartesian Forces:  Max     0.010819306 RMS     0.003847533
 Leave Link  716 at Tue Sep 17 09:46:20 2024, MaxMem=  1342177280 cpu:               0.1 elap:               0.0
 (Enter /groups/ReismanLab/Software/Gaussian16_RevC/Linux_Binary_AVX2-enabled-CPU/g16/l103.exe)

 GradGradGradGradGradGradGradGradGradGradGradGradGradGradGradGradGradGrad
 Berny optimization.
 FormGI is forming the generalized inverse of G from B-inverse, IUseBI=4.
 Internal  Forces:  Max     0.011465584 RMS     0.004120009
 Search for a local minimum.
 Step number   1 out of a maximum of   79
 All quantities printed in internal units (Hartrees-Bohrs-Radians)
 RMS Force = .41200D-02 SwitMx=.10000D-02 MixMth= 1
 Mixed Optimization -- RFO/linear search
 Second derivative matrix not updated -- first step.
 ITU=  0
     Eigenvalues ---    0.00672   0.01578   0.02194   0.02214   0.02254
     Eigenvalues ---    0.02260   0.02276   0.02305   0.02310   0.02323
     Eigenvalues ---    0.09798   0.11095   0.16000   0.16000   0.16000
     Eigenvalues ---    0.16000   0.18279   0.22000   0.22487   0.24482
     Eigenvalues ---    0.25000   0.25000   0.25000   0.25000   0.25000
     Eigenvalues ---    0.31644   0.36035   0.36122   0.36137   0.36211
     Eigenvalues ---    0.43072   0.43414   0.46970   0.47678   0.48158
     Eigenvalues ---    0.48811   0.55301   0.55350   0.59587
 RFO step:  Lambda=-3.06735005D-03 EMin= 6.72089984D-03
 Linear search not attempted -- first point.
 Iteration  1 RMS(Cart)=  0.02323360 RMS(Int)=  0.00033572
 Iteration  2 RMS(Cart)=  0.00037180 RMS(Int)=  0.00005903
 Iteration  3 RMS(Cart)=  0.00000017 RMS(Int)=  0.00005903
 ITry= 1 IFail=0 DXMaxC= 8.44D-02 DCOld= 1.00D+10 DXMaxT= 3.00D-01 DXLimC= 3.00D+00 Rises=F
 Variable       Old X    -DE/DX   Delta X   Delta X   Delta X     New X
                                 (Linear)    (Quad)   (Total)
    R1        2.54822   0.00889   0.00000   0.01598   0.01598   2.56420
    R2        2.51268   0.01025   0.00000   0.01711   0.01711   2.52980
    R3        2.54866   0.00872   0.00000   0.01568   0.01568   2.56434
    R4        2.84800   0.00477   0.00000   0.01494   0.01494   2.86294
    R5        2.63548   0.00867   0.00000   0.01844   0.01845   2.65393
    R6        2.62783   0.01147   0.00000   0.02421   0.02422   2.65205
    R7        2.60851   0.00807   0.00000   0.01620   0.01621   2.62472
    R8        2.04026   0.00323   0.00000   0.00888   0.00888   2.04914
    R9        2.61914   0.00873   0.00000   0.01798   0.01797   2.63711
   R10        2.03753   0.00469   0.00000   0.01284   0.01284   2.05037
   R11        2.60946   0.00889   0.00000   0.01812   0.01811   2.62758
   R12        2.03891   0.00448   0.00000   0.01229   0.01229   2.05120
   R13        2.62756   0.00811   0.00000   0.01720   0.01720   2.64476
   R14        2.03868   0.00343   0.00000   0.00940   0.00940   2.04808
   R15        3.58940   0.00391   0.00000   0.02104   0.02104   3.61045
    A1        1.85397   0.00597   0.00000   0.02397   0.02383   1.87780
    A2        1.84543   0.00524   0.00000   0.01955   0.01928   1.86470
    A3        1.93013  -0.00564   0.00000  -0.02261  -0.02282   1.90731
    A4        1.85446   0.00595   0.00000   0.02413   0.02399   1.87845
    A5        2.03823  -0.00433   0.00000  -0.01656  -0.01671   2.02152
    A6        1.93000  -0.00553   0.00000  -0.02205  -0.02226   1.90774
    A7        1.99612  -0.00327   0.00000  -0.01285  -0.01286   1.98326
    A8        2.20718   0.00651   0.00000   0.02578   0.02577   2.23296
    A9        2.07988  -0.00324   0.00000  -0.01293  -0.01291   2.06697
   A10        2.11083   0.00265   0.00000   0.01124   0.01125   2.12208
   A11        2.06956  -0.00106   0.00000  -0.00397  -0.00397   2.06559
   A12        2.10279  -0.00159   0.00000  -0.00727  -0.00728   2.09552
   A13        2.08702  -0.00060   0.00000  -0.00335  -0.00335   2.08367
   A14        2.09233   0.00047   0.00000   0.00271   0.00272   2.09504
   A15        2.10384   0.00013   0.00000   0.00063   0.00064   2.10447
   A16        2.09531  -0.00020   0.00000  -0.00110  -0.00112   2.09419
   A17        2.10094   0.00032   0.00000   0.00189   0.00189   2.10284
   A18        2.08693  -0.00012   0.00000  -0.00078  -0.00077   2.08616
   A19        2.10447   0.00004   0.00000   0.00048   0.00047   2.10494
   A20        2.10412   0.00005   0.00000   0.00017   0.00017   2.10430
   A21        2.07460  -0.00009   0.00000  -0.00065  -0.00064   2.07395
   A22        2.08886   0.00135   0.00000   0.00566   0.00566   2.09453
   A23        2.15752   0.00473   0.00000   0.01855   0.01855   2.17606
   A24        2.03680  -0.00609   0.00000  -0.02421  -0.02421   2.01259
    D1        1.00529  -0.00022   0.00000  -0.00641  -0.00635   0.99894
    D2       -2.13836  -0.00023   0.00000  -0.00707  -0.00702  -2.14538
    D3        3.12756  -0.00007   0.00000  -0.00514  -0.00513   3.12242
    D4       -0.01610  -0.00008   0.00000  -0.00580  -0.00580  -0.02190
    D5       -1.03282   0.00015   0.00000  -0.00321  -0.00327  -1.03609
    D6        2.10671   0.00013   0.00000  -0.00387  -0.00393   2.10278
    D7        3.14050  -0.00000   0.00000  -0.00048  -0.00047   3.14002
    D8       -0.00151  -0.00001   0.00000  -0.00082  -0.00081  -0.00232
    D9        0.00080  -0.00000   0.00000   0.00008   0.00007   0.00088
   D10       -3.14120  -0.00001   0.00000  -0.00026  -0.00027  -3.14147
   D11       -3.14054   0.00002   0.00000   0.00059   0.00059  -3.13995
   D12        0.00004   0.00000   0.00000   0.00009   0.00009   0.00013
   D13       -0.00110   0.00000   0.00000  -0.00010  -0.00010  -0.00119
   D14        3.13948  -0.00002   0.00000  -0.00059  -0.00060   3.13888
   D15       -0.00005   0.00000   0.00000   0.00005   0.00005   0.00000
   D16        3.14132  -0.00000   0.00000  -0.00006  -0.00006   3.14126
   D17       -3.14122   0.00001   0.00000   0.00040   0.00040  -3.14083
   D18        0.00015   0.00001   0.00000   0.00028   0.00028   0.00043
   D19       -0.00040  -0.00000   0.00000  -0.00016  -0.00016  -0.00057
   D20       -3.14149  -0.00001   0.00000  -0.00038  -0.00039   3.14131
   D21        3.14141  -0.00000   0.00000  -0.00005  -0.00005   3.14136
   D22        0.00032  -0.00001   0.00000  -0.00027  -0.00027   0.00005
   D23        0.00010   0.00000   0.00000   0.00014   0.00014   0.00024
   D24       -3.14066  -0.00001   0.00000  -0.00027  -0.00027  -3.14093
   D25        3.14119   0.00001   0.00000   0.00036   0.00036   3.14155
   D26        0.00043  -0.00000   0.00000  -0.00005  -0.00005   0.00038
   D27        0.00066   0.00000   0.00000  -0.00000  -0.00000   0.00066
   D28       -3.13998   0.00001   0.00000   0.00043   0.00043  -3.13955
   D29        3.14143   0.00001   0.00000   0.00040   0.00040  -3.14135
   D30        0.00079   0.00002   0.00000   0.00083   0.00083   0.00162
         Item               Value     Threshold  Converged?
 Maximum Force            0.011466     0.000450     NO 
 RMS     Force            0.004120     0.000300     NO 
 Maximum Displacement     0.084353     0.001800     NO 
 RMS     Displacement     0.023230     0.001200     NO 
 Predicted change in Energy=-1.547742D-03
 Lowest energy point so far.  Saving SCF results.
 GradGradGradGradGradGradGradGradGradGradGradGradGradGradGradGradGradGrad

 Leave Link  103 at Tue Sep 17 09:46:20 2024, MaxMem=  1342177280 cpu:               0.1 elap:               0.3
 (Enter /groups/ReismanLab/Software/Gaussian16_RevC/Linux_Binary_AVX2-enabled-CPU/g16/l202.exe)
                          Input orientation:                          
 ---------------------------------------------------------------------
 Center     Atomic      Atomic             Coordinates (Angstroms)
 Number     Number       Type             X           Y           Z
 ---------------------------------------------------------------------
      1          9           0       -1.392996   -1.885992   -1.469258
      2          6           0       -0.967393   -1.467856   -0.250550
      3          9           0        0.185055   -2.096009    0.012948
      4          9           0       -1.884370   -1.895028    0.653936
      5          6           0       -0.913093    0.046057   -0.231947
      6          6           0       -2.139945    0.657204   -0.537996
      7          6           0       -2.277378    2.039045   -0.566054
      8          6           0       -1.172145    2.842959   -0.283926
      9          6           0        0.051996    2.258935    0.022271
     10          6           0        0.189853    0.866486    0.050801
     11         35           0        1.935446    0.227289    0.491930
     12          1           0       -2.991330    0.022075   -0.756144
     13          1           0       -3.237144    2.484623   -0.805952
     14          1           0       -1.259394    3.924759   -0.301040
     15          1           0        0.916292    2.874298    0.243481
 ---------------------------------------------------------------------
                    Distance matrix (angstroms):
                    1          2          3          4          5
     1  F    0.000000
     2  C    1.356918   0.000000
     3  F    2.175152   1.338710   0.000000
     4  F    2.179331   1.356989   2.175726   0.000000
     5  C    2.343941   1.515001   2.419577   2.344351   0.000000
     6  C    2.809453   2.444050   3.645456   2.828411   1.404398
     7  C    4.123569   3.756855   4.847421   4.137603   2.438217
     8  C    4.880242   4.315804   5.130647   4.882148   2.809354
     9  C    4.636063   3.873313   4.356987   4.626438   2.427520
    10  C    3.520245   2.622820   2.962741   3.506014   1.403403
    11  Br   4.403492   3.442567   2.948052   4.372811   2.944659
    12  H    2.589194   2.563560   3.894510   2.624685   2.143462
    13  H    4.789900   4.591550   5.776179   4.810678   3.417207
    14  H    5.928526   5.400751   6.199571   5.930641   3.894743
    15  H    5.561173   4.758848   5.029096   5.546049   3.401709
                    6          7          8          9         10
     6  C    0.000000
     7  C    1.388942   0.000000
     8  C    2.403896   1.395498   0.000000
     9  C    2.772012   2.412564   1.390454   0.000000
    10  C    2.412145   2.800470   2.423536   1.399547   0.000000
    11  Br   4.225445   4.706344   4.135311   2.809901   1.910566
    12  H    1.084359   2.148030   3.389663   3.856334   3.388823
    13  H    2.148281   1.085008   2.159893   3.399314   3.885448
    14  H    3.392409   2.159269   1.085448   2.144585   3.402520
    15  H    3.855749   3.398901   2.154231   1.083796   2.143863
                   11         12         13         14         15
    11  Br   0.000000
    12  H    5.086544   0.000000
    13  H    5.791006   2.475288   0.000000
    14  H    4.950463   4.293911   2.498084   0.000000
    15  H    2.847289   4.940035   4.301650   2.476607   0.000000
 Stoichiometry    C7H4BrF3
 Framework group  C1[X(C7H4BrF3)]
 Deg. of freedom    39
 Full point group                 C1      NOp   1
 RotChk:  IX=0 Diff= 9.43D-02
 Largest Abelian subgroup         C1      NOp   1
 Largest concise Abelian subgroup C1      NOp   1
                         Standard orientation:                         
 ---------------------------------------------------------------------
 Center     Atomic      Atomic             Coordinates (Angstroms)
 Number     Number       Type             X           Y           Z
 ---------------------------------------------------------------------
      1          9           0       -2.113743   -1.412148   -1.075845
      2          6           0       -1.310430   -1.213342   -0.000490
      3          9           0       -0.360595   -2.156395   -0.025201
      4          9           0       -2.071208   -1.425180    1.103032
      5          6           0       -0.818082    0.219424   -0.001928
      6          6           0       -1.851905    1.169972   -0.000147
      7          6           0       -1.586628    2.533345    0.000750
      8          6           0       -0.262279    2.973248   -0.000136
      9          6           0        0.776902    2.049417   -0.001220
     10          6           0        0.509064    0.675738   -0.001721
     11         35           0        2.047930   -0.456581    0.000310
     12          1           0       -2.876855    0.815980   -0.000192
     13          1           0       -2.404899    3.245858    0.001815
     14          1           0       -0.034584    4.034545    0.000279
     15          1           0        1.808841    2.380651   -0.001293
 ---------------------------------------------------------------------
 Rotational constants (GHZ):           0.9508348           0.7514693           0.4537437
 Leave Link  202 at Tue Sep 17 09:46:20 2024, MaxMem=  1342177280 cpu:               0.0 elap:               0.0
 (Enter /groups/ReismanLab/Software/Gaussian16_RevC/Linux_Binary_AVX2-enabled-CPU/g16/l301.exe)
 Standard basis: 6-31G(d,p) (6D, 7F)
 Ernie: Thresh=  0.10000D-02 Tol=  0.10000D-05 Strict=F.
 There are   200 symmetry adapted cartesian basis functions of A   symmetry.
 There are   200 symmetry adapted basis functions of A   symmetry.
   200 basis functions,   391 primitive gaussians,   200 cartesian basis functions
    54 alpha electrons       54 beta electrons
       nuclear repulsion energy       905.5068361331 Hartrees.
 IExCor=  402 DFT=T Ex+Corr=B3LYP ExCW=0 ScaHFX=  0.200000
 ScaDFX=  0.800000  0.720000  1.000000  0.810000 ScalE2=  1.000000  1.000000
 IRadAn=      5 IRanWt=     -1 IRanGd=            0 ICorTp=0 IEmpDi=141
 NAtoms=   15 NActive=   15 NUniq=   15 SFac= 1.00D+00 NAtFMM=   60 NAOKFM=F Big=F
 Integral buffers will be    131072 words long.
 Raffenetti 2 integral format.
 Two-electron integral symmetry is turned on.
 R6Disp:  Grimme-D3(BJ) Dispersion energy=       -0.0310294789 Hartrees.
 Nuclear repulsion after empirical dispersion term =      905.4758066542 Hartrees.
 Leave Link  301 at Tue Sep 17 09:46:20 2024, MaxMem=  1342177280 cpu:               0.1 elap:               0.1
 (Enter /groups/ReismanLab/Software/Gaussian16_RevC/Linux_Binary_AVX2-enabled-CPU/g16/l302.exe)
 NPDir=0 NMtPBC=     1 NCelOv=     1 NCel=       1 NClECP=     1 NCelD=      1
         NCelK=      1 NCelE2=     1 NClLst=     1 CellRange=     0.0.
 One-electron integrals computed using PRISM.
 One-electron integral symmetry used in STVInt
 NBasis=   200 RedAO= T EigKep=  4.24D-04  NBF=   200
 NBsUse=   200 1.00D-06 EigRej= -1.00D+00 NBFU=   200
 Precomputing XC quadrature grid using
 IXCGrd= 4 IRadAn=           5 IRanWt=          -1 IRanGd=           0 AccXCQ= 0.00D+00.
 Generated NRdTot=       0 NPtTot=           0 NUsed=           0 NTot=          32
 NSgBfM=   199   199   199   199   199 MxSgAt=    15 MxSgA2=    15.
 Leave Link  302 at Tue Sep 17 09:46:20 2024, MaxMem=  1342177280 cpu:               0.8 elap:               0.2
 (Enter /groups/ReismanLab/Software/Gaussian16_RevC/Linux_Binary_AVX2-enabled-CPU/g16/l303.exe)
 DipDrv:  MaxL=1.
 Leave Link  303 at Tue Sep 17 09:46:20 2024, MaxMem=  1342177280 cpu:               0.1 elap:               0.0
 (Enter /groups/ReismanLab/Software/Gaussian16_RevC/Linux_Binary_AVX2-enabled-CPU/g16/l401.exe)
 Initial guess from the checkpoint file:  "smiles_00117_conf_1.chk"
 B after Tr=     0.000000    0.000000   -0.000000
         Rot=    0.999493   -0.000106   -0.000340    0.031844 Ang=  -3.65 deg.
 Guess basis will be translated and rotated to current coordinates.
 JPrj=2 DoOrth=T DoCkMO=T.
 Generating alternative initial guess.
 ExpMin= 1.43D-01 ExpMax= 5.74D+05 ExpMxC= 5.74D+03 IAcc=3 IRadAn=         5 AccDes= 0.00D+00
 Harris functional with IExCor=  402 and IRadAn=       5 diagonalized for initial guess.
 HarFok:  IExCor=  402 AccDes= 0.00D+00 IRadAn=         5 IDoV= 1 UseB2=F ITyADJ=14
 ICtDFT=  3500011 ScaDFX=  1.000000  1.000000  1.000000  1.000000
 FoFCou: FMM=F IPFlag=           0 FMFlag=      100000 FMFlg1=           0
         NFxFlg=           0 DoJE=T BraDBF=F KetDBF=T FulRan=T
         wScrn=  0.000000 ICntrl=       500 IOpCl=  0 I1Cent=   200000004 NGrid=           0
         NMat0=    1 NMatS0=      1 NMatT0=    0 NMatD0=    1 NMtDS0=    0 NMtDT0=    0
 Petite list used in FoFCou.
 Harris En= -3140.50761049233    
 Leave Link  401 at Tue Sep 17 09:46:21 2024, MaxMem=  1342177280 cpu:               3.4 elap:               0.5
 (Enter /groups/ReismanLab/Software/Gaussian16_RevC/Linux_Binary_AVX2-enabled-CPU/g16/l502.exe)
 Integral symmetry usage will be decided dynamically.
 Closed shell SCF:
 Using DIIS extrapolation, IDIIS=  1040.
 NGot=  1342177280 LenX=  1342093240 LenY=  1342052799
 Requested convergence on RMS density matrix=1.00D-08 within  32 cycles.
 Requested convergence on MAX density matrix=1.00D-06.
 Requested convergence on             energy=1.00D-06.
 No special actions if energy rises.
 Fock matrices will be formed incrementally for  20 cycles.
 Integral accuracy reduced to 1.0D-05 until final iterations.

 Cycle   1  Pass 0  IDiag  1:
 FoFJK:  IHMeth= 1 ICntrl=       0 DoSepK=F KAlg= 0 I1Cent=           0 FoldK=F
 IRaf= 890000000 NMat=       1 IRICut=       1 DoRegI=T DoRafI=F ISym2E= 0 IDoP0=0 IntGTp=1.
 FoFCou: FMM=F IPFlag=           0 FMFlag=      100000 FMFlg1=           0
         NFxFlg=           0 DoJE=F BraDBF=F KetDBF=F FulRan=T
         wScrn=  0.000000 ICntrl=         0 IOpCl=  0 I1Cent=           0 NGrid=           0
         NMat0=    1 NMatS0=      1 NMatT0=    0 NMatD0=    1 NMtDS0=    0 NMtDT0=    0
 Symmetry not used in FoFCou.
 E= -3140.41694475633    
 DIIS: error= 6.02D-03 at cycle   1 NSaved=   1.
 NSaved= 1 IEnMin= 1 EnMin= -3140.41694475633     IErMin= 1 ErrMin= 6.02D-03
 ErrMax= 6.02D-03  0.00D+00 EMaxC= 1.00D-01 BMatC= 4.03D-03 BMatP= 4.03D-03
 IDIUse=3 WtCom= 9.40D-01 WtEn= 6.02D-02
 Coeff-Com:  0.100D+01
 Coeff-En:   0.100D+01
 Coeff:      0.100D+01
 Gap=     1.816 Goal=   None    Shift=    0.000
 GapD=    1.816 DampG=2.000 DampE=1.000 DampFc=2.0000 IDamp=-1.
 RMSDP=4.08D-04 MaxDP=9.13D-03              OVMax= 1.03D-02

 Cycle   2  Pass 0  IDiag  1:
 RMSU=  4.07D-04    CP:  1.00D+00
 E= -3140.41843192427     Delta-E=       -0.001487167940 Rises=F Damp=F
 DIIS: error= 5.38D-04 at cycle   2 NSaved=   2.
 NSaved= 2 IEnMin= 2 EnMin= -3140.41843192427     IErMin= 2 ErrMin= 5.38D-04
 ErrMax= 5.38D-04  0.00D+00 EMaxC= 1.00D-01 BMatC= 9.74D-05 BMatP= 4.03D-03
 IDIUse=3 WtCom= 9.95D-01 WtEn= 5.38D-03
 Coeff-Com:  0.281D-01 0.972D+00
 Coeff-En:   0.000D+00 0.100D+01
 Coeff:      0.280D-01 0.972D+00
 Gap=     0.215 Goal=   None    Shift=    0.000
 RMSDP=1.28D-04 MaxDP=3.31D-03 DE=-1.49D-03 OVMax= 5.08D-03

 Cycle   3  Pass 0  IDiag  1:
 RMSU=  1.27D-04    CP:  1.00D+00  9.73D-01
 E= -3140.41834687393     Delta-E=        0.000085050337 Rises=F Damp=F
 DIIS: error= 8.03D-04 at cycle   3 NSaved=   3.
 NSaved= 3 IEnMin= 2 EnMin= -3140.41843192427     IErMin= 2 ErrMin= 5.38D-04
 ErrMax= 8.03D-04  0.00D+00 EMaxC= 1.00D-01 BMatC= 1.87D-04 BMatP= 9.74D-05
 IDIUse=3 WtCom= 2.61D-01 WtEn= 7.39D-01
 Coeff-Com: -0.591D-02 0.587D+00 0.419D+00
 Coeff-En:   0.000D+00 0.629D+00 0.371D+00
 Coeff:     -0.154D-02 0.618D+00 0.383D+00
 Gap=     0.217 Goal=   None    Shift=    0.000
 RMSDP=7.50D-05 MaxDP=1.89D-03 DE= 8.51D-05 OVMax= 3.05D-03

 Cycle   4  Pass 0  IDiag  1:
 RMSU=  2.55D-05    CP:  1.00D+00  1.01D+00  4.57D-01
 E= -3140.41853566608     Delta-E=       -0.000188792152 Rises=F Damp=F
 DIIS: error= 1.67D-04 at cycle   4 NSaved=   4.
 NSaved= 4 IEnMin= 4 EnMin= -3140.41853566608     IErMin= 4 ErrMin= 1.67D-04
 ErrMax= 1.67D-04  0.00D+00 EMaxC= 1.00D-01 BMatC= 4.23D-06 BMatP= 9.74D-05
 IDIUse=3 WtCom= 9.98D-01 WtEn= 1.67D-03
 Coeff-Com: -0.446D-02 0.273D+00 0.186D+00 0.546D+00
 Coeff-En:   0.000D+00 0.000D+00 0.000D+00 0.100D+01
 Coeff:     -0.445D-02 0.272D+00 0.185D+00 0.547D+00
 Gap=     0.217 Goal=   None    Shift=    0.000
 RMSDP=1.56D-05 MaxDP=4.50D-04 DE=-1.89D-04 OVMax= 1.16D-03

 Cycle   5  Pass 0  IDiag  1:
 RMSU=  1.18D-05    CP:  1.00D+00  1.01D+00  4.30D-01  6.32D-01
 E= -3140.41853924167     Delta-E=       -0.000003575589 Rises=F Damp=F
 DIIS: error= 9.39D-05 at cycle   5 NSaved=   5.
 NSaved= 5 IEnMin= 5 EnMin= -3140.41853924167     IErMin= 5 ErrMin= 9.39D-05
 ErrMax= 9.39D-05  0.00D+00 EMaxC= 1.00D-01 BMatC= 8.62D-07 BMatP= 4.23D-06
 IDIUse=1 WtCom= 1.00D+00 WtEn= 0.00D+00
 Coeff-Com: -0.139D-02 0.483D-01 0.299D-01 0.313D+00 0.610D+00
 Coeff:     -0.139D-02 0.483D-01 0.299D-01 0.313D+00 0.610D+00
 Gap=     0.217 Goal=   None    Shift=    0.000
 RMSDP=6.22D-06 MaxDP=1.75D-04 DE=-3.58D-06 OVMax= 4.62D-04

 Initial convergence to 1.0D-05 achieved.  Increase integral accuracy.
 Cycle   6  Pass 1  IDiag  1:
 E= -3140.41858139645     Delta-E=       -0.000042154777 Rises=F Damp=F
 DIIS: error= 4.97D-05 at cycle   1 NSaved=   1.
 NSaved= 1 IEnMin= 1 EnMin= -3140.41858139645     IErMin= 1 ErrMin= 4.97D-05
 ErrMax= 4.97D-05  0.00D+00 EMaxC= 1.00D-01 BMatC= 2.02D-07 BMatP= 2.02D-07
 IDIUse=1 WtCom= 1.00D+00 WtEn= 0.00D+00
 Coeff-Com:  0.100D+01
 Coeff:      0.100D+01
 Gap=     0.217 Goal=   None    Shift=    0.000
 RMSDP=6.22D-06 MaxDP=1.75D-04 DE=-4.22D-05 OVMax= 2.75D-04

 Cycle   7  Pass 1  IDiag  1:
 RMSU=  9.93D-06    CP:  1.00D+00
 E= -3140.41858135009     Delta-E=        0.000000046360 Rises=F Damp=F
 DIIS: error= 3.74D-05 at cycle   2 NSaved=   2.
 NSaved= 2 IEnMin= 1 EnMin= -3140.41858139645     IErMin= 2 ErrMin= 3.74D-05
 ErrMax= 3.74D-05  0.00D+00 EMaxC= 1.00D-01 BMatC= 1.59D-07 BMatP= 2.02D-07
 IDIUse=1 WtCom= 1.00D+00 WtEn= 0.00D+00
 Coeff-Com:  0.460D+00 0.540D+00
 Coeff:      0.460D+00 0.540D+00
 Gap=     0.217 Goal=   None    Shift=    0.000
 RMSDP=3.27D-06 MaxDP=9.11D-05 DE= 4.64D-08 OVMax= 2.83D-04

 Cycle   8  Pass 1  IDiag  1:
 RMSU=  3.16D-06    CP:  1.00D+00  9.15D-01
 E= -3140.41858145233     Delta-E=       -0.000000102244 Rises=F Damp=F
 DIIS: error= 2.44D-05 at cycle   3 NSaved=   3.
 NSaved= 3 IEnMin= 3 EnMin= -3140.41858145233     IErMin= 3 ErrMin= 2.44D-05
 ErrMax= 2.44D-05  0.00D+00 EMaxC= 1.00D-01 BMatC= 5.95D-08 BMatP= 1.59D-07
 IDIUse=1 WtCom= 1.00D+00 WtEn= 0.00D+00
 Coeff-Com:  0.580D-01 0.372D+00 0.570D+00
 Coeff:      0.580D-01 0.372D+00 0.570D+00
 Gap=     0.217 Goal=   None    Shift=    0.000
 RMSDP=1.42D-06 MaxDP=4.94D-05 DE=-1.02D-07 OVMax= 1.10D-04

 Cycle   9  Pass 1  IDiag  1:
 RMSU=  5.69D-07    CP:  1.00D+00  9.54D-01  6.06D-01
 E= -3140.41858151619     Delta-E=       -0.000000063855 Rises=F Damp=F
 DIIS: error= 5.85D-06 at cycle   4 NSaved=   4.
 NSaved= 4 IEnMin= 4 EnMin= -3140.41858151619     IErMin= 4 ErrMin= 5.85D-06
 ErrMax= 5.85D-06  0.00D+00 EMaxC= 1.00D-01 BMatC= 4.39D-09 BMatP= 5.95D-08
 IDIUse=1 WtCom= 1.00D+00 WtEn= 0.00D+00
 Coeff-Com:  0.342D-03 0.183D+00 0.335D+00 0.482D+00
 Coeff:      0.342D-03 0.183D+00 0.335D+00 0.482D+00
 Gap=     0.217 Goal=   None    Shift=    0.000
 RMSDP=3.08D-07 MaxDP=1.22D-05 DE=-6.39D-08 OVMax= 1.39D-05

 Cycle  10  Pass 1  IDiag  1:
 RMSU=  1.07D-07    CP:  1.00D+00  9.55D-01  6.37D-01  5.23D-01
 E= -3140.41858151959     Delta-E=       -0.000000003401 Rises=F Damp=F
 DIIS: error= 7.08D-07 at cycle   5 NSaved=   5.
 NSaved= 5 IEnMin= 5 EnMin= -3140.41858151959     IErMin= 5 ErrMin= 7.08D-07
 ErrMax= 7.08D-07  0.00D+00 EMaxC= 1.00D-01 BMatC= 1.17D-10 BMatP= 4.39D-09
 IDIUse=1 WtCom= 1.00D+00 WtEn= 0.00D+00
 Coeff-Com: -0.175D-02 0.836D-01 0.158D+00 0.259D+00 0.502D+00
 Coeff:     -0.175D-02 0.836D-01 0.158D+00 0.259D+00 0.502D+00
 Gap=     0.217 Goal=   None    Shift=    0.000
 RMSDP=5.47D-08 MaxDP=1.75D-06 DE=-3.40D-09 OVMax= 2.13D-06

 Cycle  11  Pass 1  IDiag  1:
 RMSU=  3.37D-08    CP:  1.00D+00  9.56D-01  6.36D-01  5.36D-01  6.20D-01
 E= -3140.41858151970     Delta-E=       -0.000000000116 Rises=F Damp=F
 DIIS: error= 7.65D-08 at cycle   6 NSaved=   6.
 NSaved= 6 IEnMin= 6 EnMin= -3140.41858151970     IErMin= 6 ErrMin= 7.65D-08
 ErrMax= 7.65D-08  0.00D+00 EMaxC= 1.00D-01 BMatC= 1.02D-12 BMatP= 1.17D-10
 IDIUse=1 WtCom= 1.00D+00 WtEn= 0.00D+00
 Coeff-Com: -0.532D-03 0.189D-01 0.361D-01 0.613D-01 0.150D+00 0.734D+00
 Coeff:     -0.532D-03 0.189D-01 0.361D-01 0.613D-01 0.150D+00 0.734D+00
 Gap=     0.217 Goal=   None    Shift=    0.000
 RMSDP=9.66D-09 MaxDP=3.14D-07 DE=-1.16D-10 OVMax= 6.47D-07

 SCF Done:  E(RB3LYP) =  -3140.41858152     A.U. after   11 cycles
            NFock= 11  Conv=0.97D-08     -V/T= 2.0065
 KE= 3.120105995367D+03 PE=-9.281610732309D+03 EE= 2.115610348768D+03
 Leave Link  502 at Tue Sep 17 09:46:27 2024, MaxMem=  1342177280 cpu:              47.9 elap:               6.4
 (Enter /groups/ReismanLab/Software/Gaussian16_RevC/Linux_Binary_AVX2-enabled-CPU/g16/l508.exe)
 QCSCF skips out because SCF is already converged.
 Leave Link  508 at Tue Sep 17 09:46:27 2024, MaxMem=  1342177280 cpu:               0.0 elap:               0.0
 (Enter /groups/ReismanLab/Software/Gaussian16_RevC/Linux_Binary_AVX2-enabled-CPU/g16/l701.exe)
 ... and contract with generalized density number  0.
 Compute integral first derivatives.
 R6Disp: Adding Grimme-D3(BJ) dispersion energy 1st derivatives to the gradient.
 Leave Link  701 at Tue Sep 17 09:46:27 2024, MaxMem=  1342177280 cpu:               0.7 elap:               0.1
 (Enter /groups/ReismanLab/Software/Gaussian16_RevC/Linux_Binary_AVX2-enabled-CPU/g16/l702.exe)
 L702 exits ... SP integral derivatives will be done elsewhere.
 Leave Link  702 at Tue Sep 17 09:46:28 2024, MaxMem=  1342177280 cpu:               0.1 elap:               0.0
 (Enter /groups/ReismanLab/Software/Gaussian16_RevC/Linux_Binary_AVX2-enabled-CPU/g16/l703.exe)
 Integral derivatives from FoFJK, PRISM(SPDF).
 Compute integral first derivatives, UseDBF=F ICtDFT=           0.
 Calling FoFJK, ICntrl=      2127 FMM=F ISym2X=0 I1Cent= 0 IOpClX= 0 NMat=1 NMatS=1 NMatT=0.
 FoFJK:  IHMeth= 1 ICntrl=    2127 DoSepK=F KAlg= 0 I1Cent=           0 FoldK=F
 IRaf=         0 NMat=       1 IRICut=       1 DoRegI=T DoRafI=F ISym2E= 0 IDoP0=0 IntGTp=1.
 FoFCou: FMM=F IPFlag=           0 FMFlag=      100000 FMFlg1=         800
         NFxFlg=           0 DoJE=F BraDBF=F KetDBF=F FulRan=T
         wScrn=  0.000000 ICntrl=      2127 IOpCl=  0 I1Cent=           0 NGrid=           0
         NMat0=    1 NMatS0=      1 NMatT0=    0 NMatD0=    1 NMtDS0=    0 NMtDT0=    0
 Symmetry not used in FoFCou.
 Leave Link  703 at Tue Sep 17 09:46:31 2024, MaxMem=  1342177280 cpu:              19.5 elap:               3.2
 (Enter /groups/ReismanLab/Software/Gaussian16_RevC/Linux_Binary_AVX2-enabled-CPU/g16/l716.exe)
 Dipole        =-1.33132476D-01 1.19919300D+00-2.25638158D-03
 ***** Axes restored to original set *****
 -------------------------------------------------------------------
 Center     Atomic                   Forces (Hartrees/Bohr)
 Number     Number              X              Y              Z
 -------------------------------------------------------------------
      1        9           0.000656887   -0.002066584    0.002133316
      2        6          -0.000364316    0.004175500    0.000126558
      3        9          -0.000869180    0.000527811   -0.000228815
      4        9           0.001647950   -0.001984515   -0.001668170
      5        6           0.002432572    0.001198476    0.000462931
      6        6           0.000833865    0.001743971    0.000202426
      7        6           0.000178957   -0.000666655    0.000050226
      8        6          -0.000079023   -0.000391873   -0.000019943
      9        6           0.000112334   -0.000111289    0.000031615
     10        6          -0.003459796   -0.000128243   -0.000769109
     11       35          -0.001269422   -0.001845759   -0.000337831
     12        1           0.000047390    0.000187253   -0.000008387
     13        1           0.000244068   -0.000176357    0.000066326
     14        1           0.000114128   -0.000160938    0.000025020
     15        1          -0.000226414   -0.000300797   -0.000066162
 -------------------------------------------------------------------
 Cartesian Forces:  Max     0.004175500 RMS     0.001223835
 Leave Link  716 at Tue Sep 17 09:46:31 2024, MaxMem=  1342177280 cpu:               0.1 elap:               0.0
 (Enter /groups/ReismanLab/Software/Gaussian16_RevC/Linux_Binary_AVX2-enabled-CPU/g16/l103.exe)

 GradGradGradGradGradGradGradGradGradGradGradGradGradGradGradGradGradGrad
 Berny optimization.
 Using GEDIIS/GDIIS optimizer.
 FormGI is forming the generalized inverse of G from B-inverse, IUseBI=4.
 Internal  Forces:  Max     0.005597310 RMS     0.001660241
 Search for a local minimum.
 Step number   2 out of a maximum of   79
 All quantities printed in internal units (Hartrees-Bohrs-Radians)
 RMS Force = .16602D-02 SwitMx=.10000D-02 MixMth= 1
 Mixed Optimization -- RFO/linear search
 Update second derivatives using D2CorX and points    1    2
 DE= -1.02D-03 DEPred=-1.55D-03 R= 6.61D-01
 TightC=F SS=  1.41D+00  RLast= 9.62D-02 DXNew= 5.0454D-01 2.8851D-01
 Trust test= 6.61D-01 RLast= 9.62D-02 DXMaxT set to 3.00D-01
 ITU=  1  0
 Use linear search instead of GDIIS.
     Eigenvalues ---    0.00672   0.01571   0.02194   0.02214   0.02254
     Eigenvalues ---    0.02259   0.02276   0.02305   0.02310   0.02323
     Eigenvalues ---    0.10138   0.11493   0.15988   0.16000   0.16000
     Eigenvalues ---    0.16001   0.18190   0.21950   0.22506   0.23226
     Eigenvalues ---    0.24683   0.25000   0.25000   0.25000   0.30683
     Eigenvalues ---    0.32692   0.36044   0.36117   0.36175   0.36408
     Eigenvalues ---    0.43136   0.43595   0.46180   0.48152   0.48496
     Eigenvalues ---    0.51895   0.55325   0.57279   0.60181
 RFO step:  Lambda=-2.25432340D-04 EMin= 6.71793614D-03
 Quartic linear search produced a step of -0.24693.
 Iteration  1 RMS(Cart)=  0.01625402 RMS(Int)=  0.00013789
 Iteration  2 RMS(Cart)=  0.00016036 RMS(Int)=  0.00001667
 Iteration  3 RMS(Cart)=  0.00000002 RMS(Int)=  0.00001667
 ITry= 1 IFail=0 DXMaxC= 5.65D-02 DCOld= 1.00D+10 DXMaxT= 3.00D-01 DXLimC= 3.00D+00 Rises=F
 Variable       Old X    -DE/DX   Delta X   Delta X   Delta X     New X
                                 (Linear)    (Quad)   (Total)
    R1        2.56420  -0.00149  -0.00395   0.00302  -0.00093   2.56328
    R2        2.52980  -0.00104  -0.00423   0.00409  -0.00014   2.52966
    R3        2.56434  -0.00160  -0.00387   0.00277  -0.00111   2.56323
    R4        2.86294  -0.00069  -0.00369   0.00300  -0.00069   2.86224
    R5        2.65393  -0.00053  -0.00456   0.00479   0.00023   2.65416
    R6        2.65205  -0.00560  -0.00598  -0.00157  -0.00755   2.64449
    R7        2.62472  -0.00081  -0.00400   0.00397  -0.00004   2.62468
    R8        2.04914  -0.00015  -0.00219   0.00247   0.00028   2.04942
    R9        2.63711  -0.00013  -0.00444   0.00571   0.00127   2.63838
   R10        2.05037  -0.00030  -0.00317   0.00338   0.00021   2.05058
   R11        2.62758  -0.00046  -0.00447   0.00513   0.00066   2.62823
   R12        2.05120  -0.00017  -0.00304   0.00349   0.00045   2.05165
   R13        2.64476  -0.00102  -0.00425   0.00366  -0.00058   2.64418
   R14        2.04808  -0.00036  -0.00232   0.00218  -0.00014   2.04793
   R15        3.61045  -0.00062  -0.00520   0.00384  -0.00135   3.60909
    A1        1.87780  -0.00185  -0.00588   0.00049  -0.00534   1.87246
    A2        1.86470  -0.00301  -0.00476  -0.00022  -0.00502   1.85969
    A3        1.90731   0.00428   0.00563   0.00646   0.01211   1.91942
    A4        1.87845  -0.00184  -0.00592   0.00050  -0.00536   1.87308
    A5        2.02152  -0.00210   0.00413  -0.01292  -0.00873   2.01279
[...]
   XY=   100.2344   YY=   250.9476   ZY=    -0.0002
   XZ=     0.0159   YZ=     0.0063   ZZ=   258.0318
   Eigenvalues:   159.8164   258.0318   340.4037
      2  C    Isotropic =    50.9767   Anisotropy =    15.9381
   XX=    58.0569   YX=     6.7438   ZX=    -0.0177
   XY=     6.6348   YY=    48.9802   ZY=     0.0024
   XZ=    -0.0212   YZ=     0.0018   ZZ=    45.8929
   Eigenvalues:    45.4348    45.8931    61.6021
      3  F    Isotropic =   237.4031   Anisotropy =   141.2792
   XX=   252.4671   YX=    -3.8637   ZX=   -45.9525
   XY=   -13.8396   YY=   170.0265   ZY=    51.1179
   XZ=   -38.1417   YZ=    51.4705   ZZ=   289.7158
   Eigenvalues:   150.6149   230.0053   331.5892
      4  F    Isotropic =   237.5776   Anisotropy =   140.6888
   XX=   252.6641   YX=    -3.8328   ZX=    45.6553
   XY=   -13.7855   YY=   170.3795   ZY=   -51.0823
   XZ=    37.7993   YZ=   -51.4597   ZZ=   289.6893
   Eigenvalues:   150.9432   230.4196   331.3701
      5  C    Isotropic =    31.2881   Anisotropy =   175.0449
   XX=    11.9904   YX=    33.8095   ZX=     0.0296
   XY=    27.3593   YY=   -66.1108   ZY=     0.0098
   XZ=    -0.0156   YZ=     0.0438   ZZ=   147.9847
   Eigenvalues:   -76.6622    22.5418   147.9847
      6  C    Isotropic =    35.0882   Anisotropy =   216.7948
   XX=   -30.8664   YX=   -46.0672   ZX=     0.0548
   XY=   -50.2762   YY=   -43.4870   ZY=     0.0441
   XZ=     0.0709   YZ=     0.0909   ZZ=   179.6181
   Eigenvalues:   -85.7599    11.4065   179.6181
      7  C    Isotropic =    36.2934   Anisotropy =   221.3498
   XX=   -86.9851   YX=    18.1405   ZX=     0.0926
   XY=    17.0480   YY=    12.0055   ZY=     0.0350
   XZ=     0.0683   YZ=     0.0282   ZZ=   183.8599
   Eigenvalues:   -90.0193    15.0396   183.8600
      8  C    Isotropic =    28.3827   Anisotropy =   219.3303
   XX=    -7.2269   YX=    40.6785   ZX=     0.0364
   XY=    37.4776   YY=   -82.2279   ZY=     0.0383
   XZ=     0.0539   YZ=     0.0065   ZZ=   174.6029
   Eigenvalues:   -98.8882     9.4333   174.6029
      9  C    Isotropic =    27.7903   Anisotropy =   186.9123
   XX=   -20.8325   YX=   -53.2113   ZX=     0.0433
   XY=   -55.1862   YY=   -48.1951   ZY=     0.0480
   XZ=     0.0001   YZ=     0.0064   ZZ=   152.3985
   Eigenvalues:   -90.4127    21.3851   152.3985
     10  C    Isotropic =    25.4634   Anisotropy =   158.8069
   XX=   -79.7688   YX=     3.4156   ZX=    -0.0282
   XY=    15.7780   YY=    24.8244   ZY=     0.0240
   XZ=     0.0343   YZ=     0.0148   ZZ=   131.3347
   Eigenvalues:   -80.6421    25.6977   131.3347
     11  Br   Isotropic =  2065.1827   Anisotropy =  1167.1262
   XX=  2833.0333   YX=  -132.2495   ZX=     0.6553
   XY=   -91.0305   YY=  1625.3431   ZY=     0.0220
   XZ=     0.1542   YZ=     0.1407   ZZ=  1737.1718
   Eigenvalues:  1615.1096  1737.1718  2843.2669
     12  H    Isotropic =    23.1992   Anisotropy =    10.1316
   XX=    26.5356   YX=    -4.3583   ZX=    -0.0025
   XY=    -4.5863   YY=    24.1018   ZY=    -0.0007
   XZ=     0.0018   YZ=     0.0032   ZZ=    18.9601
   Eigenvalues:    18.9601    20.6838    29.9536
     13  H    Isotropic =    23.6177   Anisotropy =     5.6686
   XX=    22.8112   YX=     0.2880   ZX=     0.0019
   XY=     0.4227   YY=    27.3692   ZY=    -0.0016
   XZ=    -0.0041   YZ=    -0.0012   ZZ=    20.6727
   Eigenvalues:    20.6727    22.7836    27.3967
     14  H    Isotropic =    23.4250   Anisotropy =     6.0898
   XX=    27.0568   YX=     1.5831   ZX=    -0.0018
   XY=     1.2592   YY=    22.7676   ZY=    -0.0010
   XZ=    -0.0002   YZ=    -0.0023   ZZ=    20.4507
   Eigenvalues:    20.4507    22.3395    27.4849
     15  H    Isotropic =    23.3708   Anisotropy =    11.1691
   XX=    25.4230   YX=    -5.5397   ZX=     0.0010
   XY=    -4.8306   YY=    25.8323   ZY=    -0.0012
   XZ=    -0.0010   YZ=    -0.0022   ZZ=    18.8570
   Eigenvalues:    18.8570    20.4385    30.8169
 End of Minotr F.D. properties file   721 does not exist.
 End of Minotr F.D. properties file   722 does not exist.
 End of Minotr F.D. properties file   788 does not exist.
 Leave Link 1002 at Tue Sep 17 10:34:58 2024, MaxMem=  1342177280 cpu:             641.7 elap:             643.6
 (Enter /groups/ReismanLab/Software/Gaussian16_RevC/Linux_Binary_AVX2-enabled-CPU/g16/l601.exe)
 Copying SCF densities to generalized density rwf, IOpCl= 0 IROHF=0.

 **********************************************************************

            Population analysis using the SCF Density.

 **********************************************************************

 Orbital symmetries:
       Occupied  (A) (A) (A) (A) (A) (A) (A) (A) (A) (A) (A) (A)
                 (A) (A) (A) (A) (A) (A) (A) (A) (A) (A) (A) (A)
                 (A) (A) (A) (A) (A) (A) (A) (A) (A) (A) (A) (A)
                 (A) (A) (A) (A) (A) (A) (A) (A) (A) (A) (A) (A)
                 (A) (A) (A) (A) (A) (A)
       Virtual   (A) (A) (A) (A) (A) (A) (A) (A) (A) (A) (A) (A)
                 (A) (A) (A) (A) (A) (A) (A) (A) (A) (A) (A) (A)
                 (A) (A) (A) (A) (A) (A) (A) (A) (A) (A) (A) (A)
                 (A) (A) (A) (A) (A) (A) (A) (A) (A) (A) (A) (A)
                 (A) (A) (A) (A) (A) (A) (A) (A) (A) (A) (A) (A)
                 (A) (A) (A) (A) (A) (A) (A) (A) (A) (A) (A) (A)
                 (A) (A) (A) (A) (A) (A) (A) (A) (A) (A) (A) (A)
                 (A) (A) (A) (A) (A) (A) (A) (A) (A) (A) (A) (A)
                 (A) (A) (A) (A) (A) (A) (A) (A) (A) (A) (A) (A)
                 (A) (A) (A) (A) (A) (A) (A) (A) (A) (A) (A) (A)
                 (A) (A) (A) (A) (A) (A) (A) (A) (A) (A) (A) (A)
                 (A) (A) (A) (A) (A) (A) (A) (A) (A) (A) (A) (A)
                 (A) (A) (A) (A) (A) (A) (A) (A) (A) (A) (A) (A)
                 (A) (A) (A) (A) (A) (A) (A) (A) (A) (A) (A) (A)
                 (A) (A) (A) (A) (A) (A) (A) (A) (A) (A) (A) (A)
                 (A) (A) (A) (A) (A) (A) (A) (A) (A) (A) (A) (A)
                 (A) (A) (A) (A) (A) (A) (A) (A) (A) (A) (A) (A)
                 (A) (A) (A) (A) (A) (A) (A) (A) (A) (A) (A) (A)
                 (A) (A) (A) (A) (A) (A) (A) (A) (A) (A) (A) (A)
                 (A) (A) (A) (A) (A) (A) (A) (A) (A) (A) (A) (A)
                 (A) (A) (A) (A) (A) (A) (A) (A) (A) (A) (A) (A)
                 (A) (A) (A) (A) (A) (A) (A) (A) (A) (A) (A) (A)
                 (A) (A) (A) (A) (A) (A) (A) (A) (A) (A) (A) (A)
                 (A) (A) (A) (A) (A) (A) (A) (A) (A) (A) (A) (A)
                 (A) (A) (A) (A) (A) (A) (A) (A) (A) (A) (A) (A)
                 (A) (A) (A) (A) (A) (A) (A) (A) (A) (A) (A) (A)
                 (A) (A) (A) (A) (A) (A) (A) (A) (A) (A) (A) (A)
                 (A) (A) (A) (A)
 The electronic state is 1-A.
 Alpha  occ. eigenvalues -- -485.38432 -63.36906 -57.18859 -57.18613 -57.18601
 Alpha  occ. eigenvalues --  -25.28533 -25.28158 -25.28146 -10.80703 -10.62390
 Alpha  occ. eigenvalues --  -10.58945 -10.57181 -10.56937 -10.56792 -10.56353
 Alpha  occ. eigenvalues --   -9.03548  -6.85982  -6.85073  -6.85033  -2.89359
 Alpha  occ. eigenvalues --   -2.89035  -2.88993  -2.88145  -2.88145  -1.46522
 Alpha  occ. eigenvalues --   -1.37634  -1.37415  -1.00207  -0.91377  -0.89927
 Alpha  occ. eigenvalues --   -0.83790  -0.80780  -0.73186  -0.71596  -0.69342
 Alpha  occ. eigenvalues --   -0.68510  -0.65781  -0.58658  -0.57865  -0.57864
 Alpha  occ. eigenvalues --   -0.55471  -0.54031  -0.53858  -0.52650  -0.51854
 Alpha  occ. eigenvalues --   -0.49738  -0.48728  -0.47576  -0.43627  -0.42348
 Alpha  occ. eigenvalues --   -0.38980  -0.35789  -0.33848  -0.31175
 Alpha virt. eigenvalues --   -0.01480  -0.00367   0.02866   0.09096   0.10770
 Alpha virt. eigenvalues --    0.12186   0.13257   0.14214   0.14798   0.16637
 Alpha virt. eigenvalues --    0.18200   0.19623   0.19744   0.21331   0.22832
 Alpha virt. eigenvalues --    0.23109   0.23527   0.24203   0.25804   0.26663
 Alpha virt. eigenvalues --    0.27136   0.28021   0.29076   0.30550   0.30584
 Alpha virt. eigenvalues --    0.30768   0.31066   0.32351   0.33388   0.33917
 Alpha virt. eigenvalues --    0.34873   0.36545   0.37279   0.38322   0.39010
 Alpha virt. eigenvalues --    0.40949   0.41593   0.43330   0.43499   0.45484
 Alpha virt. eigenvalues --    0.47187   0.47881   0.48146   0.49930   0.50935
 Alpha virt. eigenvalues --    0.51585   0.52763   0.55540   0.56643   0.56975
 Alpha virt. eigenvalues --    0.58599   0.58780   0.62542   0.64994   0.65877
 Alpha virt. eigenvalues --    0.66505   0.67774   0.70467   0.71790   0.72795
 Alpha virt. eigenvalues --    0.73391   0.75406   0.76584   0.77819   0.77983
 Alpha virt. eigenvalues --    0.79065   0.81308   0.83510   0.83894   0.84391
 Alpha virt. eigenvalues --    0.87383   0.87548   0.89232   0.90543   0.90774
 Alpha virt. eigenvalues --    0.91972   0.96184   0.97866   0.99221   1.01211
 Alpha virt. eigenvalues --    1.02709   1.02974   1.04900   1.04911   1.07021
 Alpha virt. eigenvalues --    1.09608   1.11354   1.12030   1.16857   1.18873
 Alpha virt. eigenvalues --    1.20803   1.21610   1.21770   1.24090   1.25612
 Alpha virt. eigenvalues --    1.27968   1.29159   1.31291   1.31910   1.34394
 Alpha virt. eigenvalues --    1.37651   1.38717   1.41408   1.42060   1.45500
 Alpha virt. eigenvalues --    1.45665   1.46658   1.49350   1.50059   1.52474
 Alpha virt. eigenvalues --    1.53596   1.56226   1.57080   1.57299   1.58585
 Alpha virt. eigenvalues --    1.59517   1.61335   1.62826   1.64285   1.66041
 Alpha virt. eigenvalues --    1.69353   1.69437   1.71875   1.72130   1.73099
 Alpha virt. eigenvalues --    1.74555   1.74592   1.77206   1.78388   1.79819
 Alpha virt. eigenvalues --    1.85011   1.87348   1.88453   1.90501   1.92509
 Alpha virt. eigenvalues --    1.93518   1.95335   1.97009   1.98287   2.00218
 Alpha virt. eigenvalues --    2.00640   2.04169   2.04428   2.06035   2.10880
 Alpha virt. eigenvalues --    2.12449   2.16439   2.17436   2.19268   2.23498
 Alpha virt. eigenvalues --    2.24177   2.24344   2.26715   2.31014   2.36752
 Alpha virt. eigenvalues --    2.37675   2.40541   2.42633   2.42742   2.45257
 Alpha virt. eigenvalues --    2.45945   2.48686   2.50034   2.53989   2.55285
 Alpha virt. eigenvalues --    2.58914   2.59871   2.60200   2.62706   2.64120
 Alpha virt. eigenvalues --    2.65997   2.66607   2.67925   2.69011   2.69374
 Alpha virt. eigenvalues --    2.75133   2.75829   2.76724   2.77625   2.80421
 Alpha virt. eigenvalues --    2.82626   2.83026   2.83525   2.86819   2.88705
 Alpha virt. eigenvalues --    2.90158   2.90675   2.91816   2.94660   2.98883
 Alpha virt. eigenvalues --    2.99811   3.01029   3.04273   3.04845   3.07545
 Alpha virt. eigenvalues --    3.08078   3.08806   3.12984   3.13491   3.13890
 Alpha virt. eigenvalues --    3.15519   3.16024   3.19504   3.20063   3.20181
 Alpha virt. eigenvalues --    3.24654   3.26441   3.27567   3.28904   3.29367
 Alpha virt. eigenvalues --    3.29514   3.31775   3.33599   3.35675   3.37870
 Alpha virt. eigenvalues --    3.38596   3.39477   3.39978   3.43620   3.44451
 Alpha virt. eigenvalues --    3.47884   3.48125   3.48510   3.50050   3.53287
 Alpha virt. eigenvalues --    3.57341   3.60376   3.62591   3.65655   3.66841
 Alpha virt. eigenvalues --    3.73836   3.77150   3.77261   3.79706   3.82884
 Alpha virt. eigenvalues --    3.83885   3.86511   3.88525   3.91032   3.94197
 Alpha virt. eigenvalues --    3.97642   3.98520   3.99537   4.03429   4.04571
 Alpha virt. eigenvalues --    4.07647   4.08546   4.11638   4.13320   4.15188
 Alpha virt. eigenvalues --    4.15752   4.16527   4.16922   4.18124   4.20921
 Alpha virt. eigenvalues --    4.21084   4.25204   4.27928   4.28572   4.31082
 Alpha virt. eigenvalues --    4.36579   4.41156   4.48674   4.52251   4.57877
 Alpha virt. eigenvalues --    4.58447   4.63000   4.71513   4.77393   4.80273
 Alpha virt. eigenvalues --    4.89189   4.96351   5.05816   5.08850   5.11486
 Alpha virt. eigenvalues --    5.26263   5.30888   5.32266   5.38608   5.46033
 Alpha virt. eigenvalues --    5.56821   6.83015   6.87494   6.87902   6.88312
 Alpha virt. eigenvalues --    6.88707   6.89058   6.89278   6.89831   6.90917
 Alpha virt. eigenvalues --    6.98583   6.99537   7.02041   7.05754   7.07446
 Alpha virt. eigenvalues --    7.13600   7.35074   7.35258   7.38823   7.48160
 Alpha virt. eigenvalues --    7.55397   7.57818   7.86026   8.29027   8.31775
 Alpha virt. eigenvalues --    8.32219   8.45332   8.47624   8.55808   8.67684
 Alpha virt. eigenvalues --    8.75194   8.76841   8.87556   8.92930   8.98484
 Alpha virt. eigenvalues --    9.00452   9.06099   9.11512  21.99445  22.65834
 Alpha virt. eigenvalues --   22.72856  22.84629  22.85931  22.92009  23.35920
 Alpha virt. eigenvalues --   57.29506  57.40895  57.58472
          Condensed to atoms (all electrons):
               1          2          3          4          5          6
     1  F    9.009616   0.330757  -0.047670  -0.047736  -0.079678   0.010727
     2  C    0.330757   4.143428   0.336654   0.336777   0.435358  -0.065421
     3  F   -0.047670   0.336654   9.006404  -0.048088  -0.058510   0.003376
     4  F   -0.047736   0.336777  -0.048088   9.006081  -0.058429   0.003338
     5  C   -0.079678   0.435358  -0.058510  -0.058429   5.558532   0.169928
     6  C    0.010727  -0.065421   0.003376   0.003338   0.169928   5.240522
     7  C    0.001052   0.007649   0.000163   0.000169   0.036648   0.400061
     8  C    0.000077  -0.005436  -0.000126  -0.000130  -0.127172   0.042293
     9  C   -0.000315   0.013349   0.000782   0.000790   0.069327  -0.144898
    10  C    0.001632  -0.057592  -0.006642  -0.006713   0.215956   0.084115
    11  Br  -0.000521   0.009281  -0.009443  -0.009429  -0.155863   0.033539
    12  H    0.007114  -0.013047   0.000051   0.000051  -0.022122   0.407173
    13  H   -0.000029  -0.000116   0.000003   0.000003   0.006709  -0.035778
    14  H    0.000000   0.000085  -0.000001  -0.000001  -0.000230   0.004441
    15  H    0.000004   0.000317   0.000019   0.000019   0.017570  -0.004563
               7          8          9         10         11         12
     1  F    0.001052   0.000077  -0.000315   0.001632  -0.000521   0.007114
     2  C    0.007649  -0.005436   0.013349  -0.057592   0.009281  -0.013047
     3  F    0.000163  -0.000126   0.000782  -0.006642  -0.009443   0.000051
     4  F    0.000169  -0.000130   0.000790  -0.006713  -0.009429   0.000051
     5  C    0.036648  -0.127172   0.069327   0.215956  -0.155863  -0.022122
     6  C    0.400061   0.042293  -0.144898   0.084115   0.033539   0.407173
     7  C    4.972539   0.460379  -0.005078  -0.078832  -0.006116  -0.027479
     8  C    0.460379   4.962875   0.411678   0.036807   0.019571   0.002451
     9  C   -0.005078   0.411678   5.125837   0.379624  -0.098337   0.000513
    10  C   -0.078832   0.036807   0.379624   5.086180   0.419201   0.004892
    11  Br  -0.006116   0.019571  -0.098337   0.419201  34.874275   0.000008
    12  H   -0.027479   0.002451   0.000513   0.004892   0.000008   0.455444
    13  H    0.416982  -0.033771   0.005049  -0.000694   0.000015  -0.002578
    14  H   -0.031618   0.412208  -0.031184   0.003818  -0.000315  -0.000166
    15  H    0.006665  -0.036912   0.422859  -0.052977  -0.004376   0.000033
              13         14         15
     1  F   -0.000029   0.000000   0.000004
     2  C   -0.000116   0.000085   0.000317
     3  F    0.000003  -0.000001   0.000019
     4  F    0.000003  -0.000001   0.000019
     5  C    0.006709  -0.000230   0.017570
     6  C   -0.035778   0.004441  -0.004563
     7  C    0.416982  -0.031618   0.006665
     8  C   -0.033771   0.412208  -0.036912
     9  C    0.005049  -0.031184   0.422859
    10  C   -0.000694   0.003818  -0.052977
    11  Br   0.000015  -0.000315  -0.004376
    12  H   -0.002578  -0.000166   0.000033
    13  H    0.475173  -0.003363  -0.000133
    14  H   -0.003363   0.475717  -0.003086
    15  H   -0.000133  -0.003086   0.472582
 Mulliken charges:
               1
     1  F   -0.185031
     2  C    0.527957
     3  F   -0.176971
     4  F   -0.176702
     5  C   -0.008025
     6  C   -0.148852
     7  C   -0.153186
     8  C   -0.144793
     9  C   -0.149997
    10  C   -0.028773
    11  Br  -0.071489
    12  H    0.187662
    13  H    0.172529
    14  H    0.173693
    15  H    0.181979
 Sum of Mulliken charges =  -0.00000
 Mulliken charges with hydrogens summed into heavy atoms:
               1
     1  F   -0.185031
     2  C    0.527957
     3  F   -0.176971
     4  F   -0.176702
     5  C   -0.008025
     6  C    0.038809
     7  C    0.019343
     8  C    0.028899
     9  C    0.031982
    10  C   -0.028773
    11  Br  -0.071489
 Electronic spatial extent (au):  <R**2>=           2135.2455
 Charge=              0.0000 electrons
 Dipole moment (field-independent basis, Debye):
    X=             -2.8360    Y=              3.1517    Z=              0.0022  Tot=              4.2399
 Quadrupole moment (field-independent basis, Debye-Ang):
   XX=            -65.3311   YY=            -70.1786   ZZ=            -77.5518
   XY=             -3.0760   XZ=             -0.0013   YZ=             -0.0053
 Traceless Quadrupole moment (field-independent basis, Debye-Ang):
   XX=              5.6894   YY=              0.8419   ZZ=             -6.5313
   XY=             -3.0760   XZ=             -0.0013   YZ=             -0.0053
 Octapole moment (field-independent basis, Debye-Ang**2):
  XXX=             32.4556  YYY=              9.8085  ZZZ=              0.0076  XYY=              9.5462
  XXY=              0.8730  XXZ=              0.0148  XZZ=             22.8446  YZZ=            -10.9870
  YYZ=              0.0035  XYZ=             -0.0029
 Hexadecapole moment (field-independent basis, Debye-Ang**3):
 XXXX=          -1033.5412 YYYY=          -1042.7942 ZZZZ=           -149.9997 XXXY=             19.2454
 XXXZ=             -0.0233 YYYX=              8.4239 YYYZ=             -0.0275 ZZZX=              0.0109
 ZZZY=              0.0016 XXYY=           -356.6772 XXZZ=           -236.5970 YYZZ=           -224.3584
 XXYZ=              0.0093 YYXZ=              0.0029 ZZXY=             24.7412
 N-N= 9.182542040925D+02 E-N=-9.327887672983D+03  KE= 3.137014843093D+03
 Calculating spin-rotation constants.
 Leave Link  601 at Tue Sep 17 10:35:01 2024, MaxMem=  1342177280 cpu:               2.9 elap:               2.9
 (Enter /groups/ReismanLab/Software/Gaussian16_RevC/Linux_Binary_AVX2-enabled-CPU/g16/l9999.exe)
 Unable to Open any file for archive entry.
 1\1\GINC-HPC-20-27\SP\RM062X\def2TZVP\C7H4Br1F3\MANTIND\17-Sep-2024\0\
 \#p M062X/def2tzvp geom=check guess=read scf(xqc,tight) integral(grid=
 ultrafine) scrf(SMD, solvent=1,4-Dioxane) nmr=giao\\spe\\0,1\F,0,-2.07
 46623026,-1.9971459976,-0.7144491834\C,0,-0.9341752385,-1.4526210183,-
 0.2349248147\F,0,0.0785020053,-1.9219207607,-0.9935096592\F,0,-0.75987
 3279,-1.9339820415,1.0131688831\C,0,-0.9939645016,0.0553974101,-0.2510
 183036\C,0,-2.1433912598,0.6912743081,-0.7267442231\C,0,-2.2308633089,
 2.081071952,-0.7555207761\C,0,-1.1604089113,2.8504904245,-0.3044847368
 \C,0,-0.005963842,2.2323945368,0.1737092622\C,0,0.0740448412,0.8423192
 79,0.1991038601\Br,0,1.67786894,0.0577834269,0.864723035\H,0,-2.968678
 5407,0.0828957667,-1.0748486369\H,0,-3.1313030788,2.5573428164,-1.1280
 52671\H,0,-1.2168528792,3.9341584219,-0.3218217689\H,0,0.833176733,2.8
 193854885,0.5271704593\\Version=ES64L-G16RevC.02\State=1-A\HF=-3142.91
 43706\RMSD=2.112e-09\Dipole=-0.640697,1.5184357,-0.2576935\Quadrupole=
 1.4968294,2.2662529,-3.7630823,-2.6960008,2.6346071,-1.0878558\PG=C01 
 [X(C7H4Br1F3)]\\@
 The archive entry for this job was punched.


 I SUPPOSE A BABY LLAMA HAS A MMAMA AND A PPOPA.
     -- RICHARD AMOUR
 Job cpu time:       0 days  0 hours 11 minutes 44.3 seconds.
 Elapsed time:       0 days  0 hours 11 minutes 46.9 seconds.
 File lengths (MBytes):  RWF=    232 Int=      0 D2E=      0 Chk=     24 Scr=     16
 Normal termination of Gaussian 16 at Tue Sep 17 10:35:01 2024.
