 Entering Gaussian System, Link 0=g16
 Input=smiles_00000_conf_1.gjf
 Output=smiles_00000_conf_1.log
 Initial command:
 /groups/ReismanLab/Software/Gaussian16_RevC/Linux_Binary_AVX2-enabled-CPU/g16/l1.exe "/central/groups/ReismanLab/DM/dft_final/smiles_00000/Gau-99803.inp" -scrdir="/central/groups/ReismanLab/DM/dft_final/smiles_00000/"
 Entering Link 1 = /groups/ReismanLab/Software/Gaussian16_RevC/Linux_Binary_AVX2-enabled-CPU/g16/l1.exe PID=     99804.
  
 Copyright (c) 1988-2021, Gaussian, Inc.  All Rights Reserved.
  
 This is part of the Gaussian(R) 16 program.  It is based on
 the Gaussian(R) 09 system (copyright 2009, Gaussian, Inc.),
 the Gaussian(R) 03 system (copyright 2003, Gaussian, Inc.),
 the Gaussian(R) 98 system (copyright 1998, Gaussian, Inc.),
 the Gaussian(R) 94 system (copyright 1995, Gaussian, Inc.),
 the Gaussian 92(TM) system (copyright 1992, Gaussian, Inc.),
 the Gaussian 90(TM) system (copyright 1990, Gaussian, Inc.),
 the Gaussian 88(TM) system (copyright 1988, Gaussian, Inc.),
 the Gaussian 86(TM) system (copyright 1986, Carnegie Mellon
 University), and the Gaussian 82(TM) system (copyright 1983,
 Carnegie Mellon University). Gaussian is a federally registered
 trademark of Gaussian, Inc.
  
 This software contains proprietary and confidential information,
 including trade secrets, belonging to Gaussian, Inc.
  
 This software is provided under written license and may be
 used, copied, transmitted, or stored only in accord with that
 written license.
  
 The following legend is applicable only to US Government
 contracts under FAR:
  
                    RESTRICTED RIGHTS LEGEND
  
 Use, reproduction and disclosure by the US Government is
 subject to restrictions as set forth in subparagraphs (a)
 and (c) of the Commercial Computer Software - Restricted
 Rights clause in FAR 52.227-19.
  
 Gaussian, Inc.
 340 Quinnipiac St., Bldg. 40, Wallingford CT 06492
  
  
 ---------------------------------------------------------------
 Warning -- This program may not be used in any manner that
 competes with the business of Gaussian, Inc. or will provide
 assistance to any competitor of Gaussian, Inc.  The licensee
 of this program is prohibited from giving any competitor of
 Gaussian, Inc. access to this program.  By using this program,
 the user acknowledges that Gaussian, Inc. is engaged in the
 business of creating and licensing software in the field of
 computational chemistry and represents and warrants to the
 licensee that it is not a competitor of Gaussian, Inc. and that
 it will not use this program in any manner prohibited above.
 ---------------------------------------------------------------
  

 Cite this work as:
 Gaussian 16, Revision C.02,
 M. J. Frisch, G. W. Trucks, H. B. Schlegel, G. E. Scuseria, 
 M. A. Robb, J. R. Cheeseman, G. Scalmani, V. Barone, 
 G. A. Petersson, H. Nakatsuji, X. Li, M. Caricato, A. V. Marenich, 
 J. Bloino, B. G. Janesko, R. Gomperts, B. Mennucci, H. P. Hratchian, 
 J. V. Ortiz, A. F. Izmaylov, J. L. Sonnenberg, D. Williams-Young, 
 F. Ding, F. Lipparini, F. Egidi, J. Goings, B. Peng, A. Petrone, 
 T. Henderson, D. Ranasinghe, V. G. Zakrzewski, J. Gao, N. Rega, 
 G. Zheng, W. Liang, M. Hada, M. Ehara, K. Toyota, R. Fukuda, 
 J. Hasegawa, M. Ishida, T. Nakajima, Y. Honda, O. Kitao, H. Nakai, 
 T. Vreven, K. Throssell, J. A. Montgomery, Jr., J. E. Peralta, 
 F. Ogliaro, M. J. Bearpark, J. J. Heyd, E. N. Brothers, K. N. Kudin, 
 V. N. Staroverov, T. A. Keith, R. Kobayashi, J. Normand, 
 K. Raghavachari, A. P. Rendell, J. C. Burant, S. S. Iyengar, 
 J. Tomasi, M. Cossi, J. M. Millam, M. Klene, C. Adamo, R. Cammi, 
 J. W. Ochterski, R. L. Martin, K. Morokuma, O. Farkas, 
 J. B. Foresman, and D. J. Fox, Gaussian, Inc., Wallingford CT, 2019.
 
 ******************************************
 Gaussian 16:  ES64L-G16RevC.02  7-Dec-2021
                17-Sep-2024 
 ******************************************
 %nprocshared=8
 Will use up to    8 processors via shared memory.
 %Mem=10GB
 %Chk=smiles_00000_conf_1.chk
 ----------------------------------------------------------------------
 #p B3LYP/6-31G(d,p) EmpiricalDispersion=GD3BJ opt freq scf(xqc,tight) 
 integral(grid=ultrafine)
 ----------------------------------------------------------------------
 1/18=20,19=15,26=4,38=1/1,3;
 2/9=110,12=2,17=6,18=5,40=1/2;
 3/5=1,6=6,7=101,11=2,25=1,30=1,71=1,74=-5,75=-5,124=41/1,2,3;
 4//1;
 5/5=2,8=3,13=1,32=2,38=5/2,8;
 6/7=2,8=2,9=2,10=2,28=1/1;
 7//1,2,3,16;
 1/18=20,19=15,26=4/3(2);
 2/9=110/2;
 99//99;
 2/9=110/2;
 3/5=1,6=6,7=101,11=2,25=1,30=1,71=1,74=-5,75=-5,124=41/1,2,3;
 4/5=5,16=3,69=1/1;
 5/5=2,8=3,13=1,32=2,38=5/2,8;
 7//1,2,3,16;
 1/18=20,19=15,26=4/3(-5);
 2/9=110/2;
 6/7=2,8=2,9=2,10=2,19=2,28=1/1;
 99/9=1/99;
 Leave Link    1 at Tue Sep 17 09:55:31 2024, MaxMem=  1342177280 cpu:               0.1 elap:               0.8
 (Enter /groups/ReismanLab/Software/Gaussian16_RevC/Linux_Binary_AVX2-enabled-CPU/g16/l101.exe)
 ----------------------------------
 opt-freq conformers_unique/conf_ab
 ----------------------------------
 Symbolic Z-matrix:
 Charge =  0 Multiplicity = 1
 O                    -1.65013   2.15258   0.87269 
 C                    -1.34976   1.06817   0.41049 
 C                     0.077     0.62652   0.23779 
 C                     0.7259   -0.04854   1.26341 
 C                     2.05033  -0.42466   1.1276 
 C                     2.72511  -0.11962  -0.04348 
 Cl                    4.3787   -0.59321  -0.22265 
 C                     2.0946    0.56219  -1.07195 
 C                     0.7706    0.93551  -0.92514 
 N                    -2.26419   0.16591   0.01256 
 C                    -1.99014  -1.1578   -0.51325 
 C                    -3.36184  -1.66293  -0.96093 
 C                    -4.31394  -0.96928   0.01246 
 C                    -3.6899    0.41462   0.15075 
 H                     0.19575  -0.27304   2.17706 
 H                     2.55772  -0.94698   1.92342 
 H                     2.63596   0.80047  -1.97406 
 H                     0.2741    1.47624  -1.71716 
 H                    -1.26919  -1.11382  -1.33337 
 H                    -1.57337  -1.79979   0.27278 
 H                    -3.43277  -2.74773  -0.92486 
 H                    -3.56718  -1.33245  -1.97956 
 H                    -4.30671  -1.48405   0.97376 
 H                    -5.33653  -0.92778  -0.35498 
 H                    -3.88864   0.89822   1.10889 
 H                    -4.02711   1.08674  -0.64658 
 
 ITRead=  0  0  0  0  0  0  0  0  0  0  0  0  0  0  0  0  0  0  0  0
 ITRead=  0  0  0  0  0  0
 MicOpt= -1 -1 -1 -1 -1 -1 -1 -1 -1 -1 -1 -1 -1 -1 -1 -1 -1 -1 -1 -1
 MicOpt= -1 -1 -1 -1 -1 -1
 NAtoms=     26 NQM=       26 NQMF=       0 NMMI=      0 NMMIF=      0
                NMic=       0 NMicF=      0.
                    Isotopes and Nuclear Properties:
 (Nuclear quadrupole moments (NQMom) in fm**2, nuclear magnetic moments (NMagM)
  in nuclear magnetons)

  Atom         1           2           3           4           5           6           7           8           9          10
 IAtWgt=          16          12          12          12          12          12          35          12          12          14
 AtmWgt=  15.9949146  12.0000000  12.0000000  12.0000000  12.0000000  12.0000000  34.9688527  12.0000000  12.0000000  14.0030740
 NucSpn=           0           0           0           0           0           0           3           0           0           2
 AtZEff=  -0.0000000  -0.0000000  -0.0000000  -0.0000000  -0.0000000  -0.0000000  -0.0000000  -0.0000000  -0.0000000  -0.0000000
 NQMom=    0.0000000   0.0000000   0.0000000   0.0000000   0.0000000   0.0000000  -8.1650000   0.0000000   0.0000000   2.0440000
 NMagM=    0.0000000   0.0000000   0.0000000   0.0000000   0.0000000   0.0000000   0.8218740   0.0000000   0.0000000   0.4037610
 AtZNuc=   8.0000000   6.0000000   6.0000000   6.0000000   6.0000000   6.0000000  17.0000000   6.0000000   6.0000000   7.0000000

  Atom        11          12          13          14          15          16          17          18          19          20
 IAtWgt=          12          12          12          12           1           1           1           1           1           1
 AtmWgt=  12.0000000  12.0000000  12.0000000  12.0000000   1.0078250   1.0078250   1.0078250   1.0078250   1.0078250   1.0078250
 NucSpn=           0           0           0           0           1           1           1           1           1           1
 AtZEff=  -0.0000000  -0.0000000  -0.0000000  -0.0000000  -0.0000000  -0.0000000  -0.0000000  -0.0000000  -0.0000000  -0.0000000
 NQMom=    0.0000000   0.0000000   0.0000000   0.0000000   0.0000000   0.0000000   0.0000000   0.0000000   0.0000000   0.0000000
 NMagM=    0.0000000   0.0000000   0.0000000   0.0000000   2.7928460   2.7928460   2.7928460   2.7928460   2.7928460   2.7928460
 AtZNuc=   6.0000000   6.0000000   6.0000000   6.0000000   1.0000000   1.0000000   1.0000000   1.0000000   1.0000000   1.0000000

  Atom        21          22          23          24          25          26
 IAtWgt=           1           1           1           1           1           1
 AtmWgt=   1.0078250   1.0078250   1.0078250   1.0078250   1.0078250   1.0078250
 NucSpn=           1           1           1           1           1           1
 AtZEff=  -0.0000000  -0.0000000  -0.0000000  -0.0000000  -0.0000000  -0.0000000
 NQMom=    0.0000000   0.0000000   0.0000000   0.0000000   0.0000000   0.0000000
 NMagM=    2.7928460   2.7928460   2.7928460   2.7928460   2.7928460   2.7928460
 AtZNuc=   1.0000000   1.0000000   1.0000000   1.0000000   1.0000000   1.0000000
 Leave Link  101 at Tue Sep 17 09:55:31 2024, MaxMem=  1342177280 cpu:               0.2 elap:               0.2
 (Enter /groups/ReismanLab/Software/Gaussian16_RevC/Linux_Binary_AVX2-enabled-CPU/g16/l103.exe)

 GradGradGradGradGradGradGradGradGradGradGradGradGradGradGradGradGradGrad
 Berny optimization.
 Initialization pass.
                           ----------------------------
                           !    Initial Parameters    !
                           ! (Angstroms and Degrees)  !
 --------------------------                            --------------------------
 ! Name  Definition              Value          Derivative Info.                !
 --------------------------------------------------------------------------------
 ! R1    R(1,2)                  1.2165         estimate D2E/DX2                !
 ! R2    R(2,3)                  1.5035         estimate D2E/DX2                !
 ! R3    R(2,10)                 1.3448         estimate D2E/DX2                !
 ! R4    R(3,4)                  1.3888         estimate D2E/DX2                !
 ! R5    R(3,9)                  1.3889         estimate D2E/DX2                !
 ! R6    R(4,5)                  1.3835         estimate D2E/DX2                !
 ! R7    R(4,15)                 1.0799         estimate D2E/DX2                !
 ! R8    R(5,6)                  1.3856         estimate D2E/DX2                !
 ! R9    R(5,16)                 1.0787         estimate D2E/DX2                !
 ! R10   R(6,7)                  1.7294         estimate D2E/DX2                !
 ! R11   R(6,8)                  1.3857         estimate D2E/DX2                !
 ! R12   R(8,9)                  1.3834         estimate D2E/DX2                !
 ! R13   R(8,17)                 1.0787         estimate D2E/DX2                !
 ! R14   R(9,18)                 1.0799         estimate D2E/DX2                !
 ! R15   R(10,11)                1.4504         estimate D2E/DX2                !
 ! R16   R(10,14)                1.4538         estimate D2E/DX2                !
 ! R17   R(11,12)                1.5288         estimate D2E/DX2                !
 ! R18   R(11,19)                1.0928         estimate D2E/DX2                !
 ! R19   R(11,20)                1.0971         estimate D2E/DX2                !
 ! R20   R(12,13)                1.5281         estimate D2E/DX2                !
 ! R21   R(12,21)                1.0877         estimate D2E/DX2                !
 ! R22   R(12,22)                1.0904         estimate D2E/DX2                !
 ! R23   R(13,14)                1.5244         estimate D2E/DX2                !
 ! R24   R(13,23)                1.0905         estimate D2E/DX2                !
 ! R25   R(13,24)                1.0874         estimate D2E/DX2                !
 ! R26   R(14,25)                1.0915         estimate D2E/DX2                !
 ! R27   R(14,26)                1.096          estimate D2E/DX2                !
 ! A1    A(1,2,3)              122.6713         estimate D2E/DX2                !
 ! A2    A(1,2,10)             122.861          estimate D2E/DX2                !
 ! A3    A(3,2,10)             114.4677         estimate D2E/DX2                !
 ! A4    A(2,3,4)              120.0898         estimate D2E/DX2                !
 ! A5    A(2,3,9)              120.3142         estimate D2E/DX2                !
 ! A6    A(4,3,9)              119.5486         estimate D2E/DX2                !
 ! A7    A(3,4,5)              120.4616         estimate D2E/DX2                !
 ! A8    A(3,4,15)             119.7673         estimate D2E/DX2                !
 ! A9    A(5,4,15)             119.7685         estimate D2E/DX2                !
 ! A10   A(4,5,6)              119.2969         estimate D2E/DX2                !
 ! A11   A(4,5,16)             120.6314         estimate D2E/DX2                !
 ! A12   A(6,5,16)             120.0714         estimate D2E/DX2                !
 ! A13   A(5,6,7)              119.5337         estimate D2E/DX2                !
 ! A14   A(5,6,8)              120.9332         estimate D2E/DX2                !
 ! A15   A(7,6,8)              119.5329         estimate D2E/DX2                !
 ! A16   A(6,8,9)              119.306          estimate D2E/DX2                !
 ! A17   A(6,8,17)             120.0675         estimate D2E/DX2                !
 ! A18   A(9,8,17)             120.626          estimate D2E/DX2                !
 ! A19   A(3,9,8)              120.449          estimate D2E/DX2                !
 ! A20   A(3,9,18)             119.7284         estimate D2E/DX2                !
 ! A21   A(8,9,18)             119.8215         estimate D2E/DX2                !
 ! A22   A(2,10,11)            126.2333         estimate D2E/DX2                !
 ! A23   A(2,10,14)            121.5945         estimate D2E/DX2                !
 ! A24   A(11,10,14)           112.0784         estimate D2E/DX2                !
 ! A25   A(10,11,12)           103.7788         estimate D2E/DX2                !
 ! A26   A(10,11,19)           111.0984         estimate D2E/DX2                !
 ! A27   A(10,11,20)           110.2479         estimate D2E/DX2                !
 ! A28   A(12,11,19)           112.6725         estimate D2E/DX2                !
 ! A29   A(12,11,20)           110.9342         estimate D2E/DX2                !
 ! A30   A(19,11,20)           108.0951         estimate D2E/DX2                !
 ! A31   A(11,12,13)           102.8575         estimate D2E/DX2                !
 ! A32   A(11,12,21)           112.2305         estimate D2E/DX2                !
 ! A33   A(11,12,22)           110.0223         estimate D2E/DX2                !
 ! A34   A(13,12,21)           113.0141         estimate D2E/DX2                !
 ! A35   A(13,12,22)           109.886          estimate D2E/DX2                !
 ! A36   A(21,12,22)           108.7208         estimate D2E/DX2                !
 ! A37   A(12,13,14)           102.405          estimate D2E/DX2                !
 ! A38   A(12,13,23)           110.067          estimate D2E/DX2                !
 ! A39   A(12,13,24)           112.8311         estimate D2E/DX2                !
 ! A40   A(14,13,23)           110.2347         estimate D2E/DX2                !
 ! A41   A(14,13,24)           112.3946         estimate D2E/DX2                !
 ! A42   A(23,13,24)           108.7914         estimate D2E/DX2                !
 ! A43   A(10,14,13)           103.7405         estimate D2E/DX2                !
 ! A44   A(10,14,25)           109.7426         estimate D2E/DX2                !
 ! A45   A(10,14,26)           109.7234         estimate D2E/DX2                !
 ! A46   A(13,14,25)           114.0371         estimate D2E/DX2                !
 ! A47   A(13,14,26)           111.3946         estimate D2E/DX2                !
 ! A48   A(25,14,26)           108.112          estimate D2E/DX2                !
 ! D1    D(1,2,3,4)             89.7996         estimate D2E/DX2                !
 ! D2    D(1,2,3,9)            -87.686          estimate D2E/DX2                !
 ! D3    D(10,2,3,4)           -90.1791         estimate D2E/DX2                !
 ! D4    D(10,2,3,9)            92.3353         estimate D2E/DX2                !
 ! D5    D(1,2,10,11)         -178.2248         estimate D2E/DX2                !
 ! D6    D(1,2,10,14)           -2.0314         estimate D2E/DX2                !
 ! D7    D(3,2,10,11)            1.7539         estimate D2E/DX2                !
 ! D8    D(3,2,10,14)          177.9473         estimate D2E/DX2                !
 ! D9    D(2,3,4,5)           -178.1404         estimate D2E/DX2                !
 ! D10   D(2,3,4,15)             1.2677         estimate D2E/DX2                !
 ! D11   D(9,3,4,5)             -0.6356         estimate D2E/DX2                !
 ! D12   D(9,3,4,15)           178.7725         estimate D2E/DX2                !
 ! D13   D(2,3,9,8)            178.2331         estimate D2E/DX2                !
 ! D14   D(2,3,9,18)            -1.3854         estimate D2E/DX2                !
 ! D15   D(4,3,9,8)              0.7339         estimate D2E/DX2                !
 ! D16   D(4,3,9,18)          -178.8846         estimate D2E/DX2                !
 ! D17   D(3,4,5,6)              0.0633         estimate D2E/DX2                !
 ! D18   D(3,4,5,16)           179.8505         estimate D2E/DX2                !
 ! D19   D(15,4,5,6)          -179.3448         estimate D2E/DX2                !
 ! D20   D(15,4,5,16)            0.4424         estimate D2E/DX2                !
 ! D21   D(4,5,6,7)           -179.7234         estimate D2E/DX2                !
 ! D22   D(4,5,6,8)              0.422          estimate D2E/DX2                !
 ! D23   D(16,5,6,7)             0.4881         estimate D2E/DX2                !
 ! D24   D(16,5,6,8)          -179.3665         estimate D2E/DX2                !
 ! D25   D(5,6,8,9)             -0.3252         estimate D2E/DX2                !
 ! D26   D(5,6,8,17)           179.4349         estimate D2E/DX2                !
 ! D27   D(7,6,8,9)            179.8203         estimate D2E/DX2                !
 ! D28   D(7,6,8,17)            -0.4197         estimate D2E/DX2                !
 ! D29   D(6,8,9,3)             -0.2578         estimate D2E/DX2                !
 ! D30   D(6,8,9,18)           179.3603         estimate D2E/DX2                !
 ! D31   D(17,8,9,3)           179.9835         estimate D2E/DX2                !
 ! D32   D(17,8,9,18)           -0.3983         estimate D2E/DX2                !
 ! D33   D(2,10,11,12)        -173.0461         estimate D2E/DX2                !
 ! D34   D(2,10,11,19)         -51.7124         estimate D2E/DX2                !
 ! D35   D(2,10,11,20)          68.1004         estimate D2E/DX2                !
 ! D36   D(14,10,11,12)         10.4525         estimate D2E/DX2                !
 ! D37   D(14,10,11,19)        131.7862         estimate D2E/DX2                !
 ! D38   D(14,10,11,20)       -108.4011         estimate D2E/DX2                !
 ! D39   D(2,10,14,13)        -162.6686         estimate D2E/DX2                !
 ! D40   D(2,10,14,25)         -40.4417         estimate D2E/DX2                !
 ! D41   D(2,10,14,26)          78.2138         estimate D2E/DX2                !
 ! D42   D(11,10,14,13)         14.0186         estimate D2E/DX2                !
 ! D43   D(11,10,14,25)        136.2454         estimate D2E/DX2                !
 ! D44   D(11,10,14,26)       -105.0991         estimate D2E/DX2                !
 ! D45   D(10,11,12,13)        -30.4938         estimate D2E/DX2                !
 ! D46   D(10,11,12,21)       -152.2634         estimate D2E/DX2                !
 ! D47   D(10,11,12,22)         86.5402         estimate D2E/DX2                !
 ! D48   D(19,11,12,13)       -150.7669         estimate D2E/DX2                !
 ! D49   D(19,11,12,21)         87.4636         estimate D2E/DX2                !
 ! D50   D(19,11,12,22)        -33.7329         estimate D2E/DX2                !
 ! D51   D(20,11,12,13)         87.8872         estimate D2E/DX2                !
 ! D52   D(20,11,12,21)        -33.8823         estimate D2E/DX2                !
 ! D53   D(20,11,12,22)       -155.0788         estimate D2E/DX2                !
 ! D54   D(11,12,13,14)         38.8391         estimate D2E/DX2                !
 ! D55   D(11,12,13,23)        -78.3786         estimate D2E/DX2                !
 ! D56   D(11,12,13,24)        159.8935         estimate D2E/DX2                !
 ! D57   D(21,12,13,14)        160.0758         estimate D2E/DX2                !
 ! D58   D(21,12,13,23)         42.8581         estimate D2E/DX2                !
 ! D59   D(21,12,13,24)        -78.8698         estimate D2E/DX2                !
 ! D60   D(22,12,13,14)        -78.2917         estimate D2E/DX2                !
 ! D61   D(22,12,13,23)        164.4906         estimate D2E/DX2                !
 ! D62   D(22,12,13,24)         42.7627         estimate D2E/DX2                !
 ! D63   D(12,13,14,10)        -32.4874         estimate D2E/DX2                !
 ! D64   D(12,13,14,25)       -151.8165         estimate D2E/DX2                !
 ! D65   D(12,13,14,26)         85.4777         estimate D2E/DX2                !
 ! D66   D(23,13,14,10)         84.6102         estimate D2E/DX2                !
 ! D67   D(23,13,14,25)        -34.7188         estimate D2E/DX2                !
 ! D68   D(23,13,14,26)       -157.4246         estimate D2E/DX2                !
 ! D69   D(24,13,14,10)       -153.842          estimate D2E/DX2                !
 ! D70   D(24,13,14,25)         86.8289         estimate D2E/DX2                !
 ! D71   D(24,13,14,26)        -35.8768         estimate D2E/DX2                !
 --------------------------------------------------------------------------------
 Trust Radius=3.00D-01 FncErr=1.00D-07 GrdErr=1.00D-06 EigMax=2.50D+02 EigMin=1.00D-04
 Number of steps in this run=    156 maximum allowed number of steps=    156.
 GradGradGradGradGradGradGradGradGradGradGradGradGradGradGradGradGradGrad

 Leave Link  103 at Tue Sep 17 09:55:31 2024, MaxMem=  1342177280 cpu:               0.0 elap:               0.0
 (Enter /groups/ReismanLab/Software/Gaussian16_RevC/Linux_Binary_AVX2-enabled-CPU/g16/l202.exe)
                          Input orientation:                          
 ---------------------------------------------------------------------
 Center     Atomic      Atomic             Coordinates (Angstroms)
 Number     Number       Type             X           Y           Z
 ---------------------------------------------------------------------
      1          8           0       -1.650129    2.152577    0.872686
      2          6           0       -1.349762    1.068170    0.410491
      3          6           0        0.076996    0.626518    0.237786
      4          6           0        0.725901   -0.048543    1.263407
      5          6           0        2.050326   -0.424664    1.127596
      6          6           0        2.725110   -0.119618   -0.043484
      7         17           0        4.378701   -0.593210   -0.222649
      8          6           0        2.094602    0.562194   -1.071953
      9          6           0        0.770604    0.935506   -0.925143
     10          7           0       -2.264195    0.165909    0.012559
     11          6           0       -1.990142   -1.157798   -0.513248
     12          6           0       -3.361836   -1.662929   -0.960925
     13          6           0       -4.313940   -0.969281    0.012457
     14          6           0       -3.689901    0.414618    0.150755
     15          1           0        0.195754   -0.273037    2.177065
     16          1           0        2.557719   -0.946981    1.923418
     17          1           0        2.635959    0.800468   -1.974056
     18          1           0        0.274099    1.476237   -1.717165
     19          1           0       -1.269190   -1.113821   -1.333365
     20          1           0       -1.573375   -1.799794    0.272783
     21          1           0       -3.432766   -2.747728   -0.924861
     22          1           0       -3.567178   -1.332451   -1.979564
     23          1           0       -4.306713   -1.484053    0.973761
     24          1           0       -5.336533   -0.927780   -0.354977
     25          1           0       -3.888642    0.898217    1.108885
     26          1           0       -4.027106    1.086742   -0.646576
 ---------------------------------------------------------------------
                    Distance matrix (angstroms):
                    1          2          3          4          5
     1  O    0.000000
     2  C    1.216463   0.000000
     3  C    2.390589   1.503504   0.000000
     4  C    3.262378   2.506569   1.388770   0.000000
     5  C    4.516693   3.781983   2.406403   1.383479   0.000000
     6  C    5.014474   4.268667   2.765563   2.389530   1.385574
     7  Cl   6.714603   5.998028   4.494930   3.980951   2.696831
     8  C    4.509318   3.783820   2.406301   2.774932   2.411196
     9  C    3.251677   2.509477   1.388874   2.400021   2.775155
    10  N    2.250276   1.344846   2.396678   3.248274   4.495239
    11  C    3.604858   2.493655   2.832119   3.429846   4.422131
    12  C    4.566197   3.658978   4.301633   4.925798   5.931839
    13  C    4.193075   3.618838   4.677357   5.273768   6.484136
    14  C    2.775312   2.443531   3.773857   4.577316   5.882927
    15  H    3.315462   2.703376   2.141053   1.079919   2.136309
    16  H    5.330786   4.649537   3.386922   2.144380   1.078700
    17  H    5.320027   4.652280   3.386856   3.853610   3.385877
    18  H    3.296576   2.707464   2.140725   3.378296   3.855006
    19  H    3.959941   2.794389   2.703612   3.443607   4.189327
    20  H    3.998376   2.879962   2.934611   3.055304   3.968992
    21  H    5.515610   4.547872   5.005569   5.419283   6.298691
    22  H    4.894469   4.048738   4.694061   5.531348   6.483431
    23  H    4.504745   3.946476   4.920678   5.241353   6.446543
    24  H    4.958359   4.523726   5.663348   6.336034   7.550949
    25  H    2.576848   2.638664   4.069265   4.713198   6.084546
    26  H    3.015656   2.878524   4.223453   5.246711   6.509010
                    6          7          8          9         10
     6  C    0.000000
     7  Cl   1.729379   0.000000
     8  C    1.385697   2.696921   0.000000
     9  C    2.389707   3.981059   1.383432   0.000000
    10  N    4.997782   6.690265   4.509137   3.268267   0.000000
    11  C    4.850989   6.400419   4.467176   3.489026   1.450441
    12  C    6.346213   7.848902   5.893743   4.881619   2.344597
    13  C    7.090365   8.703947   6.677632   5.509982   2.343099
    14  C    6.440148   8.139870   5.914158   4.617899   1.453820
    15  H    3.369276   4.833030   3.854783   3.378569   3.305920
    16  H    2.140386   2.836676   3.385902   3.853808   5.304786
    17  H    2.140471   2.836709   1.078718   2.144295   5.325487
    18  H    3.369780   4.833627   2.136821   1.079910   3.339437
    19  H    4.313545   5.779567   3.767288   2.920128   2.106954
    20  H    4.626012   6.093316   4.565233   3.796199   2.099747
    21  H    6.753016   8.133515   6.444301   5.588787   3.276216
    22  H    6.694196   8.171304   6.038972   5.007174   2.812722
    23  H    7.234846   8.812571   7.024877   5.936266   2.796098
    24  H    8.108035   9.721893   7.612873   6.410464   3.281844
    25  H    6.790114   8.505662   6.377160   5.084018   2.092137
    26  H    6.885596   8.582513   6.158847   4.808170   2.095291
                   11         12         13         14         15
    11  C    0.000000
    12  C    1.528763   0.000000
    13  C    2.389966   1.528110   0.000000
    14  C    2.408853   2.379004   1.524378   0.000000
    15  H    3.577531   4.943200   5.050507   4.435890   0.000000
    16  H    5.163800   6.623681   7.132458   6.635439   2.469295
    17  H    5.231594   6.562644   7.441730   6.684326   4.933439
    18  H    3.676186   4.862744   5.479256   4.508820   4.269792
    19  H    1.092839   2.195312   3.332061   3.224683   3.895651
    20  H    1.097132   2.177008   2.875451   3.065648   3.014480
    21  H    2.185970   1.087713   2.194972   3.350149   5.377006
    22  H    2.160470   1.090416   2.158169   2.757820   5.706100
    23  H    2.772027   2.160509   1.090480   2.159340   4.815257
    24  H    3.358018   2.192498   1.087394   2.183848   6.119323
    25  H    3.234628   3.334833   2.206940   1.091504   4.381225
    26  H    3.033967   2.846416   2.178033   1.095989   5.258753
                   16         17         18         19         20
    16  H    0.000000
    17  H    4.272002   0.000000
    18  H    4.933634   2.470028   0.000000
    19  H    5.027893   4.396041   3.039317   0.000000
    20  H    4.529660   5.433980   4.255047   1.772794   0.000000
    21  H    6.873230   7.107737   5.675427   2.741822   2.406297
    22  H    7.272979   6.559594   4.765815   2.397106   3.044130
    23  H    6.950591   7.880949   6.081795   3.832290   2.839401
    24  H    8.216487   8.316783   6.254122   4.187497   3.913547
    25  H    6.754538   7.216959   5.064492   4.107848   3.652231
    26  H    7.355325   6.800043   4.449520   3.594475   3.898474
                   21         22         23         24         25
    21  H    0.000000
    22  H    1.770162   0.000000
    23  H    2.442420   3.048282   0.000000
    24  H    2.694681   2.435911   1.770738   0.000000
    25  H    4.199626   3.823316   2.422448   2.752008   0.000000
    26  H    3.890223   2.800158   3.051665   2.420316   1.770977
                   26
    26  H    0.000000
 Stoichiometry    C11H12ClNO
 Framework group  C1[X(C11H12ClNO)]
 Deg. of freedom    72
 Full point group                 C1      NOp   1
 Largest Abelian subgroup         C1      NOp   1
 Largest concise Abelian subgroup C1      NOp   1
                         Standard orientation:                         
 ---------------------------------------------------------------------
 Center     Atomic      Atomic             Coordinates (Angstroms)
 Number     Number       Type             X           Y           Z
 ---------------------------------------------------------------------
      1          8           0       -1.510598    2.357603    0.017297
      2          6           0       -1.216632    1.177620   -0.014409
      3          6           0        0.207458    0.695500   -0.007370
      4          6           0        0.849884    0.439356    1.196940
      5          6           0        2.172013    0.032292    1.213881
      6          6           0        2.851039   -0.116476    0.015296
      7         17           0        4.501754   -0.631940    0.028977
      8          6           0        2.227060    0.144805   -1.194059
      9          6           0        0.905319    0.553280   -1.199735
     10          7           0       -2.136337    0.197394   -0.058138
     11          6           0       -1.870169   -1.228411   -0.061514
     12          6           0       -3.244368   -1.854786   -0.298889
     13          6           0       -4.193640   -0.847587    0.348841
     14          6           0       -3.560604    0.487335   -0.026628
     15          1           0        0.316518    0.568002    2.127099
     16          1           0        2.674389   -0.165095    2.147826
     17          1           0        2.771706    0.033150   -2.118464
     18          1           0        0.413946    0.769133   -2.136841
     19          1           0       -1.147389   -1.491832   -0.837721
     20          1           0       -1.459199   -1.540244    0.906764
     21          1           0       -3.322634   -2.850602    0.131628
     22          1           0       -3.445564   -1.919183   -1.368645
     23          1           0       -4.191680   -0.974577    1.431900
     24          1           0       -5.215236   -0.937863   -0.012572
     25          1           0       -3.757910    1.289320    0.687004
     26          1           0       -3.891788    0.822622   -1.016119
 ---------------------------------------------------------------------
 Rotational constants (GHZ):           1.5716741           0.2804205           0.2619630
 Leave Link  202 at Tue Sep 17 09:55:31 2024, MaxMem=  1342177280 cpu:               0.0 elap:               0.0
 (Enter /groups/ReismanLab/Software/Gaussian16_RevC/Linux_Binary_AVX2-enabled-CPU/g16/l301.exe)
 Standard basis: 6-31G(d,p) (6D, 7F)
 Ernie: Thresh=  0.10000D-02 Tol=  0.10000D-05 Strict=F.
 There are   274 symmetry adapted cartesian basis functions of A   symmetry.
 There are   274 symmetry adapted basis functions of A   symmetry.
   274 basis functions,   500 primitive gaussians,   274 cartesian basis functions
    55 alpha electrons       55 beta electrons
       nuclear repulsion energy       945.8087926487 Hartrees.
 IExCor=  402 DFT=T Ex+Corr=B3LYP ExCW=0 ScaHFX=  0.200000
 ScaDFX=  0.800000  0.720000  1.000000  0.810000 ScalE2=  1.000000  1.000000
 IRadAn=      5 IRanWt=     -1 IRanGd=            0 ICorTp=0 IEmpDi=141
 NAtoms=   26 NActive=   26 NUniq=   26 SFac= 1.00D+00 NAtFMM=   60 NAOKFM=F Big=F
 Integral buffers will be    131072 words long.
 Raffenetti 2 integral format.
 Two-electron integral symmetry is turned on.
 R6Disp:  Grimme-D3(BJ) Dispersion energy=       -0.0540728108 Hartrees.
 Nuclear repulsion after empirical dispersion term =      945.7547198379 Hartrees.
 Leave Link  301 at Tue Sep 17 09:55:31 2024, MaxMem=  1342177280 cpu:               0.0 elap:               0.0
 (Enter /groups/ReismanLab/Software/Gaussian16_RevC/Linux_Binary_AVX2-enabled-CPU/g16/l302.exe)
 NPDir=0 NMtPBC=     1 NCelOv=     1 NCel=       1 NClECP=     1 NCelD=      1
         NCelK=      1 NCelE2=     1 NClLst=     1 CellRange=     0.0.
 One-electron integrals computed using PRISM.
 One-electron integral symmetry used in STVInt
 NBasis=   274 RedAO= T EigKep=  4.13D-04  NBF=   274
 NBsUse=   274 1.00D-06 EigRej= -1.00D+00 NBFU=   274
 Precomputing XC quadrature grid using
 IXCGrd= 4 IRadAn=           5 IRanWt=          -1 IRanGd=           0 AccXCQ= 0.00D+00.
 Generated NRdTot=       0 NPtTot=           0 NUsed=           0 NTot=          32
 NSgBfM=   272   272   272   272   272 MxSgAt=    26 MxSgA2=    26.
 Leave Link  302 at Tue Sep 17 09:55:31 2024, MaxMem=  1342177280 cpu:               1.6 elap:               0.2
 (Enter /groups/ReismanLab/Software/Gaussian16_RevC/Linux_Binary_AVX2-enabled-CPU/g16/l303.exe)
 DipDrv:  MaxL=1.
 Leave Link  303 at Tue Sep 17 09:55:32 2024, MaxMem=  1342177280 cpu:               0.1 elap:               0.0
 (Enter /groups/ReismanLab/Software/Gaussian16_RevC/Linux_Binary_AVX2-enabled-CPU/g16/l401.exe)
 ExpMin= 1.43D-01 ExpMax= 2.52D+04 ExpMxC= 3.78D+03 IAcc=3 IRadAn=         5 AccDes= 0.00D+00
 Harris functional with IExCor=  402 and IRadAn=       5 diagonalized for initial guess.
 HarFok:  IExCor=  402 AccDes= 0.00D+00 IRadAn=         5 IDoV= 1 UseB2=F ITyADJ=14
 ICtDFT=  3500011 ScaDFX=  1.000000  1.000000  1.000000  1.000000
 FoFCou: FMM=F IPFlag=           0 FMFlag=      100000 FMFlg1=           0
         NFxFlg=           0 DoJE=T BraDBF=F KetDBF=T FulRan=T
         wScrn=  0.000000 ICntrl=       500 IOpCl=  0 I1Cent=   200000004 NGrid=           0
         NMat0=    1 NMatS0=      1 NMatT0=    0 NMatD0=    1 NMtDS0=    0 NMtDT0=    0
 Petite list used in FoFCou.
 Harris En= -1016.60370064168    
 JPrj=0 DoOrth=F DoCkMO=F.
 Leave Link  401 at Tue Sep 17 09:55:33 2024, MaxMem=  1342177280 cpu:               7.1 elap:               0.9
 (Enter /groups/ReismanLab/Software/Gaussian16_RevC/Linux_Binary_AVX2-enabled-CPU/g16/l502.exe)
 Integral symmetry usage will be decided dynamically.
 Closed shell SCF:
 Using DIIS extrapolation, IDIIS=  1040.
 NGot=  1342177280 LenX=  1342021355 LenY=  1341945838
 Requested convergence on RMS density matrix=1.00D-08 within  32 cycles.
 Requested convergence on MAX density matrix=1.00D-06.
 Requested convergence on             energy=1.00D-06.
 No special actions if energy rises.
 Fock matrices will be formed incrementally for  20 cycles.
 Integral accuracy reduced to 1.0D-05 until final iterations.

 Cycle   1  Pass 0  IDiag  1:
 FoFJK:  IHMeth= 1 ICntrl=       0 DoSepK=F KAlg= 0 I1Cent=           0 FoldK=F
 IRaf= 840000000 NMat=       1 IRICut=       1 DoRegI=T DoRafI=F ISym2E= 0 IDoP0=0 IntGTp=1.
 FoFCou: FMM=F IPFlag=           0 FMFlag=      100000 FMFlg1=           0
         NFxFlg=           0 DoJE=F BraDBF=F KetDBF=F FulRan=T
         wScrn=  0.000000 ICntrl=         0 IOpCl=  0 I1Cent=           0 NGrid=           0
         NMat0=    1 NMatS0=      1 NMatT0=    0 NMatD0=    1 NMtDS0=    0 NMtDT0=    0
 Symmetry not used in FoFCou.
 E= -1016.28171415114    
 DIIS: error= 3.33D-02 at cycle   1 NSaved=   1.
 NSaved= 1 IEnMin= 1 EnMin= -1016.28171415114     IErMin= 1 ErrMin= 3.33D-02
 ErrMax= 3.33D-02  0.00D+00 EMaxC= 1.00D-01 BMatC= 3.71D-01 BMatP= 3.71D-01
 IDIUse=3 WtCom= 6.67D-01 WtEn= 3.33D-01
 Coeff-Com:  0.100D+01
 Coeff-En:   0.100D+01
 Coeff:      0.100D+01
 Gap=     0.409 Goal=   None    Shift=    0.000
 GapD=    0.409 DampG=2.000 DampE=0.500 DampFc=1.0000 IDamp=-1.
 RMSDP=5.66D-03 MaxDP=2.28D-01              OVMax= 3.25D-01

 Cycle   2  Pass 0  IDiag  1:
 RMSU=  5.63D-03    CP:  9.69D-01
 E= -1015.99982510233     Delta-E=        0.281889048813 Rises=F Damp=F
 DIIS: error= 3.61D-02 at cycle   2 NSaved=   2.
 NSaved= 2 IEnMin= 1 EnMin= -1016.28171415114     IErMin= 1 ErrMin= 3.33D-02
 ErrMax= 3.61D-02  0.00D+00 EMaxC= 1.00D-01 BMatC= 7.15D-01 BMatP= 3.71D-01
 IDIUse=2 WtCom= 0.00D+00 WtEn= 1.00D+00
 Coeff-En:   0.631D+00 0.369D+00
 Coeff:      0.631D+00 0.369D+00
 Gap=     0.281 Goal=   None    Shift=    0.000
 RMSDP=3.48D-03 MaxDP=1.95D-01 DE= 2.82D-01 OVMax= 1.88D-01

 Cycle   3  Pass 0  IDiag  1:
 RMSU=  1.41D-03    CP:  9.75D-01  4.35D-01
 E= -1016.61906529373     Delta-E=       -0.619240191399 Rises=F Damp=F
 DIIS: error= 1.24D-02 at cycle   3 NSaved=   3.
 NSaved= 3 IEnMin= 3 EnMin= -1016.61906529373     IErMin= 3 ErrMin= 1.24D-02
 ErrMax= 1.24D-02  0.00D+00 EMaxC= 1.00D-01 BMatC= 3.19D-02 BMatP= 3.71D-01
 IDIUse=3 WtCom= 8.76D-01 WtEn= 1.24D-01
 Coeff-Com:  0.280D+00 0.193D+00 0.528D+00
 Coeff-En:   0.000D+00 0.000D+00 0.100D+01
 Coeff:      0.245D+00 0.169D+00 0.586D+00
 Gap=     0.225 Goal=   None    Shift=    0.000
 RMSDP=1.15D-03 MaxDP=5.06D-02 DE=-6.19D-01 OVMax= 9.46D-02

 Cycle   4  Pass 0  IDiag  1:
 RMSU=  8.80D-04    CP:  9.81D-01  4.14D-01  4.92D-01
 E= -1016.63541965029     Delta-E=       -0.016354356566 Rises=F Damp=F
 DIIS: error= 8.55D-03 at cycle   4 NSaved=   4.
 NSaved= 4 IEnMin= 4 EnMin= -1016.63541965029     IErMin= 4 ErrMin= 8.55D-03
 ErrMax= 8.55D-03  0.00D+00 EMaxC= 1.00D-01 BMatC= 1.61D-02 BMatP= 3.19D-02
 IDIUse=3 WtCom= 9.14D-01 WtEn= 8.55D-02
 Coeff-Com:  0.481D-01 0.173D-01 0.405D+00 0.530D+00
 Coeff-En:   0.000D+00 0.000D+00 0.346D+00 0.654D+00
 Coeff:      0.440D-01 0.158D-01 0.400D+00 0.540D+00
 Gap=     0.222 Goal=   None    Shift=    0.000
 RMSDP=5.29D-04 MaxDP=2.62D-02 DE=-1.64D-02 OVMax= 3.91D-02

 Cycle   5  Pass 0  IDiag  1:
 RMSU=  1.72D-04    CP:  9.79D-01  4.09D-01  6.91D-01  5.32D-01
 E= -1016.64898625114     Delta-E=       -0.013566600849 Rises=F Damp=F
 DIIS: error= 8.77D-04 at cycle   5 NSaved=   5.
 NSaved= 5 IEnMin= 5 EnMin= -1016.64898625114     IErMin= 5 ErrMin= 8.77D-04
 ErrMax= 8.77D-04  0.00D+00 EMaxC= 1.00D-01 BMatC= 4.58D-04 BMatP= 1.61D-02
 IDIUse=3 WtCom= 9.91D-01 WtEn= 8.77D-03
 Coeff-Com:  0.633D-02-0.328D-02 0.160D+00 0.266D+00 0.572D+00
 Coeff-En:   0.000D+00 0.000D+00 0.000D+00 0.000D+00 0.100D+01
 Coeff:      0.627D-02-0.325D-02 0.158D+00 0.263D+00 0.575D+00
 Gap=     0.220 Goal=   None    Shift=    0.000
 RMSDP=1.03D-04 MaxDP=4.08D-03 DE=-1.36D-02 OVMax= 7.45D-03

 Cycle   6  Pass 0  IDiag  1:
 RMSU=  6.29D-05    CP:  9.79D-01  4.12D-01  6.87D-01  5.72D-01  5.80D-01
 E= -1016.64935015714     Delta-E=       -0.000363906000 Rises=F Damp=F
 DIIS: error= 5.45D-04 at cycle   6 NSaved=   6.
 NSaved= 6 IEnMin= 6 EnMin= -1016.64935015714     IErMin= 6 ErrMin= 5.45D-04
 ErrMax= 5.45D-04  0.00D+00 EMaxC= 1.00D-01 BMatC= 7.55D-05 BMatP= 4.58D-04
 IDIUse=3 WtCom= 9.95D-01 WtEn= 5.45D-03
 Coeff-Com: -0.155D-03-0.395D-02 0.629D-01 0.114D+00 0.351D+00 0.477D+00
 Coeff-En:   0.000D+00 0.000D+00 0.000D+00 0.000D+00 0.120D+00 0.880D+00
 Coeff:     -0.155D-03-0.393D-02 0.625D-01 0.113D+00 0.349D+00 0.479D+00
 Gap=     0.218 Goal=   None    Shift=    0.000
 RMSDP=4.04D-05 MaxDP=1.67D-03 DE=-3.64D-04 OVMax= 3.37D-03

 Cycle   7  Pass 0  IDiag  1:
 RMSU=  1.91D-05    CP:  9.79D-01  4.11D-01  6.90D-01  5.76D-01  6.48D-01
                    CP:  4.81D-01
 E= -1016.64942111626     Delta-E=       -0.000070959114 Rises=F Damp=F
 DIIS: error= 1.56D-04 at cycle   7 NSaved=   7.
 NSaved= 7 IEnMin= 7 EnMin= -1016.64942111626     IErMin= 7 ErrMin= 1.56D-04
 ErrMax= 1.56D-04  0.00D+00 EMaxC= 1.00D-01 BMatC= 4.54D-06 BMatP= 7.55D-05
 IDIUse=3 WtCom= 9.98D-01 WtEn= 1.56D-03
 Coeff-Com: -0.486D-03-0.217D-02 0.250D-01 0.459D-01 0.164D+00 0.276D+00
 Coeff-Com:  0.491D+00
 Coeff-En:   0.000D+00 0.000D+00 0.000D+00 0.000D+00 0.000D+00 0.000D+00
 Coeff-En:   0.100D+01
 Coeff:     -0.485D-03-0.217D-02 0.250D-01 0.459D-01 0.164D+00 0.276D+00
 Coeff:      0.492D+00
 Gap=     0.219 Goal=   None    Shift=    0.000
 RMSDP=1.05D-05 MaxDP=3.59D-04 DE=-7.10D-05 OVMax= 8.51D-04

 Cycle   8  Pass 0  IDiag  1:
 RMSU=  5.39D-06    CP:  9.79D-01  4.10D-01  6.91D-01  5.77D-01  6.47D-01
                    CP:  5.48D-01  6.07D-01
 E= -1016.64942570450     Delta-E=       -0.000004588238 Rises=F Damp=F
 DIIS: error= 3.46D-05 at cycle   8 NSaved=   8.
 NSaved= 8 IEnMin= 8 EnMin= -1016.64942570450     IErMin= 8 ErrMin= 3.46D-05
 ErrMax= 3.46D-05  0.00D+00 EMaxC= 1.00D-01 BMatC= 3.54D-07 BMatP= 4.54D-06
 IDIUse=1 WtCom= 1.00D+00 WtEn= 0.00D+00
 Coeff-Com: -0.194D-03-0.734D-03 0.569D-02 0.102D-01 0.439D-01 0.823D-01
 Coeff-Com:  0.245D+00 0.614D+00
 Coeff:     -0.194D-03-0.734D-03 0.569D-02 0.102D-01 0.439D-01 0.823D-01
 Coeff:      0.245D+00 0.614D+00
 Gap=     0.219 Goal=   None    Shift=    0.000
 RMSDP=2.88D-06 MaxDP=1.33D-04 DE=-4.59D-06 OVMax= 2.58D-04

 Initial convergence to 1.0D-05 achieved.  Increase integral accuracy.
 Cycle   9  Pass 1  IDiag  1:
 E= -1016.64945583442     Delta-E=       -0.000030129919 Rises=F Damp=F
 DIIS: error= 8.96D-05 at cycle   1 NSaved=   1.
 NSaved= 1 IEnMin= 1 EnMin= -1016.64945583442     IErMin= 1 ErrMin= 8.96D-05
 ErrMax= 8.96D-05  0.00D+00 EMaxC= 1.00D-01 BMatC= 2.85D-07 BMatP= 2.85D-07
 IDIUse=1 WtCom= 1.00D+00 WtEn= 0.00D+00
 Coeff-Com:  0.100D+01
 Coeff:      0.100D+01
 Gap=     0.219 Goal=   None    Shift=    0.000
 RMSDP=2.88D-06 MaxDP=1.33D-04 DE=-3.01D-05 OVMax= 1.63D-04

 Cycle  10  Pass 1  IDiag  1:
 RMSU=  2.87D-05    CP:  1.00D+00
 E= -1016.64945591796     Delta-E=       -0.000000083542 Rises=F Damp=F
 DIIS: error= 1.96D-05 at cycle   2 NSaved=   2.
 NSaved= 2 IEnMin= 2 EnMin= -1016.64945591796     IErMin= 2 ErrMin= 1.96D-05
 ErrMax= 1.96D-05  0.00D+00 EMaxC= 1.00D-01 BMatC= 1.80D-07 BMatP= 2.85D-07
 IDIUse=1 WtCom= 1.00D+00 WtEn= 0.00D+00
 Coeff-Com:  0.421D+00 0.579D+00
 Coeff:      0.421D+00 0.579D+00
 Gap=     0.219 Goal=   None    Shift=    0.000
 RMSDP=2.52D-06 MaxDP=1.42D-04 DE=-8.35D-08 OVMax= 1.88D-04

 Cycle  11  Pass 1  IDiag  1:
 RMSU=  2.51D-06    CP:  1.00D+00  9.99D-01
 E= -1016.64945601394     Delta-E=       -0.000000095983 Rises=F Damp=F
 DIIS: error= 1.49D-05 at cycle   3 NSaved=   3.
 NSaved= 3 IEnMin= 3 EnMin= -1016.64945601394     IErMin= 3 ErrMin= 1.49D-05
 ErrMax= 1.49D-05  0.00D+00 EMaxC= 1.00D-01 BMatC= 7.71D-08 BMatP= 1.80D-07
 IDIUse=1 WtCom= 1.00D+00 WtEn= 0.00D+00
 Coeff-Com:  0.206D-01 0.393D+00 0.587D+00
 Coeff:      0.206D-01 0.393D+00 0.587D+00
 Gap=     0.219 Goal=   None    Shift=    0.000
 RMSDP=1.16D-06 MaxDP=5.83D-05 DE=-9.60D-08 OVMax= 9.79D-05

 Cycle  12  Pass 1  IDiag  1:
 RMSU=  5.37D-07    CP:  1.00D+00  1.01D+00  6.02D-01
 E= -1016.64945608206     Delta-E=       -0.000000068118 Rises=F Damp=F
 DIIS: error= 3.66D-06 at cycle   4 NSaved=   4.
 NSaved= 4 IEnMin= 4 EnMin= -1016.64945608206     IErMin= 4 ErrMin= 3.66D-06
 ErrMax= 3.66D-06  0.00D+00 EMaxC= 1.00D-01 BMatC= 5.84D-09 BMatP= 7.71D-08
 IDIUse=1 WtCom= 1.00D+00 WtEn= 0.00D+00
 Coeff-Com: -0.308D-02 0.229D+00 0.375D+00 0.399D+00
 Coeff:     -0.308D-02 0.229D+00 0.375D+00 0.399D+00
 Gap=     0.219 Goal=   None    Shift=    0.000
 RMSDP=3.26D-07 MaxDP=1.57D-05 DE=-6.81D-08 OVMax= 2.10D-05

 Cycle  13  Pass 1  IDiag  1:
 RMSU=  9.63D-08    CP:  1.00D+00  1.01D+00  6.20D-01  4.26D-01
 E= -1016.64945608733     Delta-E=       -0.000000005274 Rises=F Damp=F
 DIIS: error= 7.25D-07 at cycle   5 NSaved=   5.
 NSaved= 5 IEnMin= 5 EnMin= -1016.64945608733     IErMin= 5 ErrMin= 7.25D-07
 ErrMax= 7.25D-07  0.00D+00 EMaxC= 1.00D-01 BMatC= 1.32D-10 BMatP= 5.84D-09
 IDIUse=1 WtCom= 1.00D+00 WtEn= 0.00D+00
 Coeff-Com: -0.240D-02 0.123D+00 0.201D+00 0.235D+00 0.444D+00
 Coeff:     -0.240D-02 0.123D+00 0.201D+00 0.235D+00 0.444D+00
 Gap=     0.219 Goal=   None    Shift=    0.000
 RMSDP=4.55D-08 MaxDP=2.32D-06 DE=-5.27D-09 OVMax= 2.83D-06

 Cycle  14  Pass 1  IDiag  1:
 RMSU=  3.38D-08    CP:  1.00D+00  1.01D+00  6.18D-01  4.32D-01  6.93D-01
 E= -1016.64945608741     Delta-E=       -0.000000000076 Rises=F Damp=F
 DIIS: error= 1.89D-07 at cycle   6 NSaved=   6.
 NSaved= 6 IEnMin= 6 EnMin= -1016.64945608741     IErMin= 6 ErrMin= 1.89D-07
 ErrMax= 1.89D-07  0.00D+00 EMaxC= 1.00D-01 BMatC= 9.30D-12 BMatP= 1.32D-10
 IDIUse=1 WtCom= 1.00D+00 WtEn= 0.00D+00
 Coeff-Com: -0.118D-02 0.561D-01 0.913D-01 0.111D+00 0.265D+00 0.478D+00
 Coeff:     -0.118D-02 0.561D-01 0.913D-01 0.111D+00 0.265D+00 0.478D+00
 Gap=     0.219 Goal=   None    Shift=    0.000
 RMSDP=1.54D-08 MaxDP=5.78D-07 DE=-7.57D-11 OVMax= 1.20D-06

 Cycle  15  Pass 1  IDiag  1:
 RMSU=  1.29D-08    CP:  1.00D+00  1.01D+00  6.18D-01  4.38D-01  7.04D-01
                    CP:  7.81D-01
 E= -1016.64945608744     Delta-E=       -0.000000000033 Rises=F Damp=F
 DIIS: error= 5.48D-08 at cycle   7 NSaved=   7.
 NSaved= 7 IEnMin= 7 EnMin= -1016.64945608744     IErMin= 7 ErrMin= 5.48D-08
 ErrMax= 5.48D-08  0.00D+00 EMaxC= 1.00D-01 BMatC= 1.16D-12 BMatP= 9.30D-12
 IDIUse=1 WtCom= 1.00D+00 WtEn= 0.00D+00
 Coeff-Com: -0.214D-03 0.806D-02 0.125D-01 0.171D-01 0.651D-01 0.281D+00
 Coeff-Com:  0.616D+00
 Coeff:     -0.214D-03 0.806D-02 0.125D-01 0.171D-01 0.651D-01 0.281D+00
 Coeff:      0.616D+00
 Gap=     0.219 Goal=   None    Shift=    0.000
 RMSDP=5.09D-09 MaxDP=2.22D-07 DE=-3.25D-11 OVMax= 4.28D-07

 SCF Done:  E(RB3LYP) =  -1016.64945609     A.U. after   15 cycles
            NFock= 15  Conv=0.51D-08     -V/T= 2.0062
 KE= 1.010397147231D+03 PE=-4.277254147958D+03 EE= 1.304452824801D+03
 Leave Link  502 at Tue Sep 17 09:55:47 2024, MaxMem=  1342177280 cpu:             103.2 elap:              14.3
 (Enter /groups/ReismanLab/Software/Gaussian16_RevC/Linux_Binary_AVX2-enabled-CPU/g16/l508.exe)
 QCSCF skips out because SCF is already converged.
 Leave Link  508 at Tue Sep 17 09:55:47 2024, MaxMem=  1342177280 cpu:               0.0 elap:               0.0
 (Enter /groups/ReismanLab/Software/Gaussian16_RevC/Linux_Binary_AVX2-enabled-CPU/g16/l601.exe)
 Copying SCF densities to generalized density rwf, IOpCl= 0 IROHF=0.

 **********************************************************************

            Population analysis using the SCF Density.

 **********************************************************************

 Orbital symmetries:
       Occupied  (A) (A) (A) (A) (A) (A) (A) (A) (A) (A) (A) (A)
                 (A) (A) (A) (A) (A) (A) (A) (A) (A) (A) (A) (A)
                 (A) (A) (A) (A) (A) (A) (A) (A) (A) (A) (A) (A)
                 (A) (A) (A) (A) (A) (A) (A) (A) (A) (A) (A) (A)
                 (A) (A) (A) (A) (A) (A) (A)
       Virtual   (A) (A) (A) (A) (A) (A) (A) (A) (A) (A) (A) (A)
                 (A) (A) (A) (A) (A) (A) (A) (A) (A) (A) (A) (A)
                 (A) (A) (A) (A) (A) (A) (A) (A) (A) (A) (A) (A)
                 (A) (A) (A) (A) (A) (A) (A) (A) (A) (A) (A) (A)
                 (A) (A) (A) (A) (A) (A) (A) (A) (A) (A) (A) (A)
                 (A) (A) (A) (A) (A) (A) (A) (A) (A) (A) (A) (A)
                 (A) (A) (A) (A) (A) (A) (A) (A) (A) (A) (A) (A)
                 (A) (A) (A) (A) (A) (A) (A) (A) (A) (A) (A) (A)
                 (A) (A) (A) (A) (A) (A) (A) (A) (A) (A) (A) (A)
                 (A) (A) (A) (A) (A) (A) (A) (A) (A) (A) (A) (A)
                 (A) (A) (A) (A) (A) (A) (A) (A) (A) (A) (A) (A)
                 (A) (A) (A) (A) (A) (A) (A) (A) (A) (A) (A) (A)
                 (A) (A) (A) (A) (A) (A) (A) (A) (A) (A) (A) (A)
                 (A) (A) (A) (A) (A) (A) (A) (A) (A) (A) (A) (A)
                 (A) (A) (A) (A) (A) (A) (A) (A) (A) (A) (A) (A)
                 (A) (A) (A) (A) (A) (A) (A) (A) (A) (A) (A) (A)
                 (A) (A) (A) (A) (A) (A) (A) (A) (A) (A) (A) (A)
                 (A) (A) (A) (A) (A) (A) (A) (A) (A) (A) (A) (A)
                 (A) (A) (A)
 The electronic state is 1-A.
 Alpha  occ. eigenvalues -- -101.55069 -19.10538 -14.35978 -10.27838 -10.25329
 Alpha  occ. eigenvalues --  -10.22781 -10.21921 -10.20536 -10.20533 -10.20465
 Alpha  occ. eigenvalues --  -10.20437 -10.20382 -10.19900 -10.19646  -9.46749
 Alpha  occ. eigenvalues --   -7.23135  -7.22178  -7.22142  -1.03481  -0.95096
 Alpha  occ. eigenvalues --   -0.90085  -0.84827  -0.80462  -0.76669  -0.75554
 Alpha  occ. eigenvalues --   -0.74012  -0.65964  -0.62961  -0.61479  -0.59953
 Alpha  occ. eigenvalues --   -0.56050  -0.53859  -0.51302  -0.48575  -0.48198
 Alpha  occ. eigenvalues --   -0.45533  -0.44558  -0.43965  -0.43871  -0.42621
 Alpha  occ. eigenvalues --   -0.41557  -0.40444  -0.39852  -0.37485  -0.37333
 Alpha  occ. eigenvalues --   -0.36305  -0.35707  -0.35304  -0.34442  -0.33569
 Alpha  occ. eigenvalues --   -0.31474  -0.26914  -0.25714  -0.23790  -0.23553
 Alpha virt. eigenvalues --   -0.01678  -0.01567   0.02779   0.03557   0.07444
 Alpha virt. eigenvalues --    0.11167   0.11747   0.12760   0.13388   0.13990
 Alpha virt. eigenvalues --    0.14830   0.15434   0.15744   0.16551   0.16901
 Alpha virt. eigenvalues --    0.17366   0.19034   0.19822   0.20977   0.21621
 Alpha virt. eigenvalues --    0.24374   0.25177   0.27158   0.28147   0.28250
 Alpha virt. eigenvalues --    0.33258   0.33614   0.35116   0.40045   0.41124
 Alpha virt. eigenvalues --    0.41637   0.42857   0.44162   0.46295   0.47691
 Alpha virt. eigenvalues --    0.50173   0.51109   0.52047   0.52988   0.53522
 Alpha virt. eigenvalues --    0.54595   0.55612   0.57100   0.57166   0.57928
 Alpha virt. eigenvalues --    0.58608   0.60416   0.61697   0.62635   0.63861
 Alpha virt. eigenvalues --    0.64198   0.65066   0.66155   0.66713   0.67535
 Alpha virt. eigenvalues --    0.69602   0.73849   0.74818   0.75566   0.77360
 Alpha virt. eigenvalues --    0.79007   0.79756   0.80910   0.81019   0.82168
 Alpha virt. eigenvalues --    0.82549   0.83624   0.84112   0.84742   0.85356
 Alpha virt. eigenvalues --    0.85742   0.86925   0.87321   0.87668   0.88214
 Alpha virt. eigenvalues --    0.90833   0.91525   0.91632   0.92587   0.93601
 Alpha virt. eigenvalues --    0.95400   0.99154   1.00010   1.01708   1.03237
 Alpha virt. eigenvalues --    1.05811   1.10196   1.11347   1.12689   1.14870
 Alpha virt. eigenvalues --    1.17285   1.18952   1.20542   1.23462   1.23974
 Alpha virt. eigenvalues --    1.28160   1.33541   1.35192   1.35462   1.37455
 Alpha virt. eigenvalues --    1.38609   1.39524   1.40928   1.43396   1.44452
 Alpha virt. eigenvalues --    1.50347   1.54240   1.55678   1.59738   1.62195
 Alpha virt. eigenvalues --    1.62509   1.66642   1.70441   1.71622   1.72840
 Alpha virt. eigenvalues --    1.76742   1.77280   1.78988   1.80155   1.81663
 Alpha virt. eigenvalues --    1.82350   1.85211   1.86707   1.88124   1.88601
 Alpha virt. eigenvalues --    1.90649   1.92148   1.93273   1.93892   1.96662
 Alpha virt. eigenvalues --    1.97199   1.99138   2.00100   2.01532   2.03509
 Alpha virt. eigenvalues --    2.05026   2.05252   2.06216   2.07265   2.07939
 Alpha virt. eigenvalues --    2.10537   2.12388   2.14757   2.15813   2.19149
 Alpha virt. eigenvalues --    2.21573   2.26204   2.27741   2.28510   2.30786
 Alpha virt. eigenvalues --    2.31859   2.33608   2.36602   2.40082   2.41286
 Alpha virt. eigenvalues --    2.42450   2.43438   2.43891   2.45614   2.45797
 Alpha virt. eigenvalues --    2.47383   2.48182   2.48874   2.50405   2.51429
 Alpha virt. eigenvalues --    2.53326   2.57516   2.59256   2.61503   2.64214
 Alpha virt. eigenvalues --    2.65307   2.65763   2.68171   2.70697   2.70767
 Alpha virt. eigenvalues --    2.73555   2.74563   2.75243   2.75890   2.79554
 Alpha virt. eigenvalues --    2.81019   2.84400   2.85590   2.87297   2.90865
 Alpha virt. eigenvalues --    2.94000   2.96973   3.00089   3.07697   3.11760
 Alpha virt. eigenvalues --    3.20491   3.21167   3.23680   3.24620   3.26299
 Alpha virt. eigenvalues --    3.28999   3.29975   3.32088   3.35348   3.43370
 Alpha virt. eigenvalues --    3.48579   3.49707   3.51754   3.52624   3.81250
 Alpha virt. eigenvalues --    4.05144   4.08921   4.15053   4.16703   4.21521
 Alpha virt. eigenvalues --    4.28821   4.35005   4.37223   4.43185   4.46855
 Alpha virt. eigenvalues --    4.52625   4.70311   4.70905   4.84007
          Condensed to atoms (all electrons):
               1          2          3          4          5          6
     1  O    8.064616   0.601629  -0.080588   0.000192  -0.000016  -0.000000
     2  C    0.601629   4.481310   0.310649  -0.035670   0.004873   0.000413
     3  C   -0.080588   0.310649   4.953618   0.543746  -0.029004  -0.033325
     4  C    0.000192  -0.035670   0.543746   4.831878   0.509783  -0.037001
     5  C   -0.000016   0.004873  -0.029004   0.509783   4.869633   0.533264
     6  C   -0.000000   0.000413  -0.033325  -0.037001   0.533264   4.975292
     7  Cl  -0.000000   0.000008   0.000641   0.004721  -0.071176   0.236603
     8  C    0.000002   0.005028  -0.029143  -0.045368  -0.033295   0.532651
     9  C    0.000127  -0.035347   0.543872  -0.032925  -0.045212  -0.036953
    10  N   -0.109088   0.265604  -0.131672  -0.001095   0.000001   0.000007
    11  C    0.002974  -0.027376  -0.000662  -0.000042  -0.000092  -0.000009
    12  C   -0.000152   0.003475   0.000125   0.000138  -0.000001  -0.000001
    13  C    0.000753   0.007361  -0.000140  -0.000018  -0.000000   0.000000
    14  C    0.006571  -0.025521   0.007282  -0.000074   0.000006   0.000000
    15  H    0.000659  -0.005846  -0.046193   0.372982  -0.041336   0.005005
    16  H    0.000001  -0.000149   0.004282  -0.033073   0.371409  -0.044527
    17  H    0.000001  -0.000151   0.004272   0.000882   0.004234  -0.044539
    18  H    0.000709  -0.005868  -0.046153   0.005302   0.000547   0.005000
    19  H    0.000034  -0.006815   0.004143  -0.000638  -0.000088  -0.000009
    20  H    0.000049  -0.004415   0.001049   0.002374   0.000015  -0.000009
    21  H    0.000001  -0.000037   0.000017  -0.000002   0.000000   0.000000
    22  H    0.000001  -0.000179  -0.000041  -0.000002  -0.000000   0.000000
    23  H    0.000001  -0.000206  -0.000012  -0.000002   0.000000  -0.000000
    24  H   -0.000001  -0.000070   0.000007   0.000000   0.000000  -0.000000
    25  H    0.008494  -0.002810   0.000285   0.000016  -0.000000   0.000000
    26  H    0.001715  -0.003350  -0.000314  -0.000009   0.000000   0.000000
               7          8          9         10         11         12
     1  O   -0.000000   0.000002   0.000127  -0.109088   0.002974  -0.000152
     2  C    0.000008   0.005028  -0.035347   0.265604  -0.027376   0.003475
     3  C    0.000641  -0.029143   0.543872  -0.131672  -0.000662   0.000125
     4  C    0.004721  -0.045368  -0.032925  -0.001095  -0.000042   0.000138
     5  C   -0.071176  -0.033295  -0.045212   0.000001  -0.000092  -0.000001
     6  C    0.236603   0.532651  -0.036953   0.000007  -0.000009  -0.000001
     7  Cl  16.912627  -0.071152   0.004718  -0.000000   0.000000   0.000000
     8  C   -0.071152   4.870971   0.509223  -0.000004  -0.000316  -0.000003
     9  C    0.004718   0.509223   4.833261  -0.000251  -0.002652   0.000110
    10  N   -0.000000  -0.000004  -0.000251   7.145382   0.283885  -0.052164
    11  C    0.000000  -0.000316  -0.002652   0.283885   4.811475   0.362942
    12  C    0.000000  -0.000003   0.000110  -0.052164   0.362942   4.971785
    13  C   -0.000000  -0.000000  -0.000014  -0.051480  -0.062060   0.360644
    14  C    0.000000   0.000006  -0.000110   0.275825  -0.081723  -0.059931
    15  H   -0.000182   0.000551   0.005300   0.001268  -0.000093   0.000003
    16  H   -0.001326   0.004241   0.000871   0.000002   0.000000   0.000000
    17  H   -0.001325   0.371447  -0.033114   0.000002  -0.000002   0.000000
    18  H   -0.000181  -0.041392   0.373627   0.001209   0.000021   0.000003
    19  H   -0.000001   0.000281   0.003468  -0.040742   0.385515  -0.027519
    20  H   -0.000000  -0.000007  -0.000096  -0.051523   0.386272  -0.034624
    21  H   -0.000000   0.000000  -0.000002   0.003818  -0.029484   0.381799
    22  H   -0.000000   0.000000   0.000007  -0.001789  -0.033538   0.386922
    23  H   -0.000000  -0.000000   0.000001  -0.002003   0.001621  -0.042267
    24  H    0.000000   0.000000   0.000000   0.004028   0.005089  -0.028789
    25  H    0.000000   0.000000  -0.000016  -0.044233   0.005026   0.005215
    26  H   -0.000000  -0.000000   0.000033  -0.049488   0.004059  -0.003920
              13         14         15         16         17         18
     1  O    0.000753   0.006571   0.000659   0.000001   0.000001   0.000709
     2  C    0.007361  -0.025521  -0.005846  -0.000149  -0.000151  -0.005868
     3  C   -0.000140   0.007282  -0.046193   0.004282   0.004272  -0.046153
     4  C   -0.000018  -0.000074   0.372982  -0.033073   0.000882   0.005302
     5  C   -0.000000   0.000006  -0.041336   0.371409   0.004234   0.000547
     6  C    0.000000   0.000000   0.005005  -0.044527  -0.044539   0.005000
     7  Cl  -0.000000   0.000000  -0.000182  -0.001326  -0.001325  -0.000181
     8  C   -0.000000   0.000006   0.000551   0.004241   0.371447  -0.041392
     9  C   -0.000014  -0.000110   0.005300   0.000871  -0.033114   0.373627
    10  N   -0.051480   0.275825   0.001268   0.000002   0.000002   0.001209
    11  C   -0.062060  -0.081723  -0.000093   0.000000  -0.000002   0.000021
    12  C    0.360644  -0.059931   0.000003   0.000000   0.000000   0.000003
    13  C    4.975432   0.358039  -0.000003  -0.000000  -0.000000  -0.000000
    14  C    0.358039   4.793780  -0.000073  -0.000000  -0.000000  -0.000077
    15  H   -0.000003  -0.000073   0.613565  -0.006240   0.000018  -0.000196
    16  H   -0.000000  -0.000000  -0.006240   0.594785  -0.000191   0.000018
    17  H   -0.000000  -0.000000   0.000018  -0.000191   0.594533  -0.006205
    18  H   -0.000000  -0.000077  -0.000196   0.000018  -0.006205   0.611694
    19  H    0.005289   0.004469   0.000029  -0.000001   0.000009   0.000214
    20  H   -0.004518   0.004592   0.000381   0.000003  -0.000000   0.000008
    21  H   -0.027967   0.004951  -0.000001  -0.000000  -0.000000  -0.000000
    22  H   -0.041623   0.001584   0.000000  -0.000000  -0.000000   0.000000
    23  H    0.387693  -0.034248   0.000002  -0.000000   0.000000  -0.000000
    24  H    0.383027  -0.029998  -0.000000  -0.000000  -0.000000  -0.000000
    25  H   -0.028594   0.390899  -0.000005  -0.000000  -0.000000  -0.000000
    26  H   -0.039616   0.393387   0.000001  -0.000000   0.000000   0.000001
              19         20         21         22         23         24
     1  O    0.000034   0.000049   0.000001   0.000001   0.000001  -0.000001
     2  C   -0.006815  -0.004415  -0.000037  -0.000179  -0.000206  -0.000070
     3  C    0.004143   0.001049   0.000017  -0.000041  -0.000012   0.000007
     4  C   -0.000638   0.002374  -0.000002  -0.000002  -0.000002   0.000000
     5  C   -0.000088   0.000015   0.000000  -0.000000   0.000000   0.000000
     6  C   -0.000009  -0.000009   0.000000   0.000000  -0.000000  -0.000000
     7  Cl  -0.000001  -0.000000  -0.000000  -0.000000  -0.000000   0.000000
     8  C    0.000281  -0.000007   0.000000   0.000000  -0.000000   0.000000
     9  C    0.003468  -0.000096  -0.000002   0.000007   0.000001   0.000000
    10  N   -0.040742  -0.051523   0.003818  -0.001789  -0.002003   0.004028
    11  C    0.385515   0.386272  -0.029484  -0.033538   0.001621   0.005089
    12  C   -0.027519  -0.034624   0.381799   0.386922  -0.042267  -0.028789
    13  C    0.005289  -0.004518  -0.027967  -0.041623   0.387693   0.383027
    14  C    0.004469   0.004592   0.004951   0.001584  -0.034248  -0.029998
    15  H    0.000029   0.000381  -0.000001   0.000000   0.000002  -0.000000
    16  H   -0.000001   0.000003  -0.000000  -0.000000  -0.000000  -0.000000
    17  H    0.000009  -0.000000  -0.000000  -0.000000   0.000000  -0.000000
    18  H    0.000214   0.000008  -0.000000   0.000000  -0.000000  -0.000000
    19  H    0.609155  -0.047461   0.001561  -0.008360  -0.000029  -0.000137
    20  H   -0.047461   0.635153  -0.005481   0.005347   0.001989  -0.000183
    21  H    0.001561  -0.005481   0.601523  -0.032992  -0.006703   0.000361
    22  H   -0.008360   0.005347  -0.032992   0.609834   0.005621  -0.007010
    23  H   -0.000029   0.001989  -0.006703   0.005621   0.611544  -0.033374
    24  H   -0.000137  -0.000183   0.000361  -0.007010  -0.033374   0.601977
    25  H   -0.000296   0.000320  -0.000148  -0.000003  -0.007315   0.001244
    26  H    0.000379  -0.000389  -0.000165   0.001986   0.005276  -0.004973
              25         26
     1  O    0.008494   0.001715
     2  C   -0.002810  -0.003350
     3  C    0.000285  -0.000314
     4  C    0.000016  -0.000009
     5  C   -0.000000   0.000000
     6  C    0.000000   0.000000
     7  Cl   0.000000  -0.000000
     8  C    0.000000  -0.000000
     9  C   -0.000016   0.000033
    10  N   -0.044233  -0.049488
    11  C    0.005026   0.004059
    12  C    0.005215  -0.003920
    13  C   -0.028594  -0.039616
    14  C    0.390899   0.393387
    15  H   -0.000005   0.000001
    16  H   -0.000000  -0.000000
    17  H   -0.000000   0.000000
    18  H   -0.000000   0.000001
    19  H   -0.000296   0.000379
    20  H    0.000320  -0.000389
    21  H   -0.000148  -0.000165
    22  H   -0.000003   0.001986
    23  H   -0.007315   0.005276
    24  H    0.001244  -0.004973
    25  H    0.582869  -0.041843
    26  H   -0.041843   0.622315
 Mulliken charges:
               1
     1  O   -0.498684
     2  C    0.473461
     3  C    0.023260
     4  C   -0.086096
     5  C   -0.073546
     6  C   -0.091860
     7  Cl  -0.013977
     8  C   -0.073722
     9  C   -0.087927
    10  N   -0.445498
    11  C   -0.010832
    12  C   -0.223790
    13  C   -0.222205
    14  C   -0.009636
    15  H    0.100401
    16  H    0.109894
    17  H    0.110128
    18  H    0.101719
    19  H    0.117548
    20  H    0.111152
    21  H    0.108951
    22  H    0.114234
    23  H    0.112413
    24  H    0.108801
    25  H    0.130894
    26  H    0.114914
 Sum of Mulliken charges =  -0.00000
 Mulliken charges with hydrogens summed into heavy atoms:
               1
     1  O   -0.498684
     2  C    0.473461
     3  C    0.023260
     4  C    0.014306
     5  C    0.036348
     6  C   -0.091860
     7  Cl  -0.013977
     8  C    0.036406
     9  C    0.013792
    10  N   -0.445498
    11  C    0.217869
    12  C   -0.000604
    13  C   -0.000991
    14  C    0.236172
 Electronic spatial extent (au):  <R**2>=           4073.5631
 Charge=             -0.0000 electrons
 Dipole moment (field-independent basis, Debye):
    X=             -2.2649    Y=             -3.5478    Z=             -0.0551  Tot=              4.2095
 Quadrupole moment (field-independent basis, Debye-Ang):
   XX=            -87.0445   YY=            -98.4230   ZZ=            -81.1316
   XY=              7.4478   XZ=             -0.1630   YZ=             -0.3796
 Traceless Quadrupole moment (field-independent basis, Debye-Ang):
   XX=              1.8219   YY=             -9.5566   ZZ=              7.7348
   XY=              7.4478   XZ=             -0.1630   YZ=             -0.3796
 Octapole moment (field-independent basis, Debye-Ang**2):
  XXX=            -62.9349  YYY=            -26.5042  ZZZ=              0.0799  XYY=              7.0347
  XXY=             -7.7861  XXZ=             -1.5413  XZZ=              6.6066  YZZ=              3.3954
  YYZ=              0.1914  XYZ=             -0.8406
 Hexadecapole moment (field-independent basis, Debye-Ang**3):
 XXXX=          -4275.7296 YYYY=           -715.6188 ZZZZ=           -341.9512 XXXY=             -2.7744
 XXXZ=              5.6221 YYYX=             24.0396 YYYZ=             -2.1358 ZZZX=              0.0288
 ZZZY=             -2.0387 XXYY=           -849.9219 XXZZ=           -753.0290 YYZZ=           -170.8161
 XXYZ=              0.1668 YYXZ=             -2.2075 ZZXY=             -8.2742
 N-N= 9.457547198379D+02 E-N=-4.277254146302D+03  KE= 1.010397147231D+03
 No NMR shielding tensors so no spin-rotation constants.
 Leave Link  601 at Tue Sep 17 09:55:47 2024, MaxMem=  1342177280 cpu:               0.4 elap:               0.1
 (Enter /groups/ReismanLab/Software/Gaussian16_RevC/Linux_Binary_AVX2-enabled-CPU/g16/l701.exe)
 ... and contract with generalized density number  0.
 Compute integral first derivatives.
 R6Disp: Adding Grimme-D3(BJ) dispersion energy 1st derivatives to the gradient.
 Leave Link  701 at Tue Sep 17 09:55:47 2024, MaxMem=  1342177280 cpu:               0.5 elap:               0.1
 (Enter /groups/ReismanLab/Software/Gaussian16_RevC/Linux_Binary_AVX2-enabled-CPU/g16/l702.exe)
 L702 exits ... SP integral derivatives will be done elsewhere.
 Leave Link  702 at Tue Sep 17 09:55:47 2024, MaxMem=  1342177280 cpu:               0.0 elap:               0.0
 (Enter /groups/ReismanLab/Software/Gaussian16_RevC/Linux_Binary_AVX2-enabled-CPU/g16/l703.exe)
 Integral derivatives from FoFJK, PRISM(SPDF).
 Compute integral first derivatives, UseDBF=F ICtDFT=           0.
 Calling FoFJK, ICntrl=      2127 FMM=F ISym2X=0 I1Cent= 0 IOpClX= 0 NMat=1 NMatS=1 NMatT=0.
 FoFJK:  IHMeth= 1 ICntrl=    2127 DoSepK=F KAlg= 0 I1Cent=           0 FoldK=F
 IRaf=         0 NMat=       1 IRICut=       1 DoRegI=T DoRafI=F ISym2E= 0 IDoP0=0 IntGTp=1.
 FoFCou: FMM=F IPFlag=           0 FMFlag=      100000 FMFlg1=         800
         NFxFlg=           0 DoJE=F BraDBF=F KetDBF=F FulRan=T
         wScrn=  0.000000 ICntrl=      2127 IOpCl=  0 I1Cent=           0 NGrid=           0
         NMat0=    1 NMatS0=      1 NMatT0=    0 NMatD0=    1 NMtDS0=    0 NMtDT0=    0
 Symmetry not used in FoFCou.
 Leave Link  703 at Tue Sep 17 09:55:51 2024, MaxMem=  1342177280 cpu:              27.5 elap:               3.5
 (Enter /groups/ReismanLab/Software/Gaussian16_RevC/Linux_Binary_AVX2-enabled-CPU/g16/l716.exe)
 Dipole        =-8.91081398D-01-1.39580079D+00-2.16852388D-02
 ***** Axes restored to original set *****
 -------------------------------------------------------------------
 Center     Atomic                   Forces (Hartrees/Bohr)
 Number     Number              X              Y              Z
 -------------------------------------------------------------------
      1        8          -0.003322794    0.018400576    0.007596658
      2        6           0.008461023   -0.007976063   -0.003752864
      3        6          -0.003928649    0.004320141    0.002159464
      4        6          -0.002824341   -0.000339151    0.002811003
      5        6           0.002846393   -0.003026511    0.004695163
      6        6          -0.003282981    0.000894264    0.000410973
      7       17           0.012799150   -0.003671683   -0.001398360
      8        6           0.002942784    0.001489116   -0.005338399
      9        6          -0.002819057    0.002112093   -0.002209887
     10        7          -0.006721635   -0.003456556   -0.002140087
     11        6           0.006576972   -0.009706546   -0.003959451
     12        6           0.000281089   -0.001368786    0.001437942
     13        6          -0.000291914    0.000925680   -0.002042687
     14        6          -0.005983378    0.006657589    0.004102268
     15        1          -0.001963403   -0.001129682    0.003406217
     16        1           0.002140632   -0.001925428    0.002636595
     17        1           0.002254382    0.000679020   -0.003096415
     18        1          -0.001766623    0.001889561   -0.003149900
     19        1           0.000898554   -0.001649663    0.000454793
     20        1           0.001280044   -0.001683707   -0.000955164
     21        1           0.000231255   -0.003280830   -0.001647681
     22        1          -0.000458578    0.000079971   -0.003322153
     23        1          -0.000894893   -0.001363377    0.002958475
     24        1          -0.003765415   -0.000234554    0.000395522
     25        1          -0.000959981    0.001552590   -0.000264502
     26        1          -0.001728635    0.001811935    0.000212477
 -------------------------------------------------------------------
 Cartesian Forces:  Max     0.018400576 RMS     0.004164017
 Leave Link  716 at Tue Sep 17 09:55:51 2024, MaxMem=  1342177280 cpu:               0.1 elap:               0.0
 (Enter /groups/ReismanLab/Software/Gaussian16_RevC/Linux_Binary_AVX2-enabled-CPU/g16/l103.exe)

 GradGradGradGradGradGradGradGradGradGradGradGradGradGradGradGradGradGrad
 Berny optimization.
 FormGI is forming the generalized inverse of G from B-inverse, IUseBI=4.
 GSVD:  received Info=                   1 from GESDD.
 Internal  Forces:  Max     0.020109855 RMS     0.003774660
 Search for a local minimum.
 Step number   1 out of a maximum of  156
 All quantities printed in internal units (Hartrees-Bohrs-Radians)
 RMS Force = .37747D-02 SwitMx=.10000D-02 MixMth= 1
 Mixed Optimization -- RFO/linear search
 Second derivative matrix not updated -- first step.
 ITU=  0
     Eigenvalues ---    0.00604   0.00720   0.00792   0.01289   0.01572
     Eigenvalues ---    0.01774   0.02244   0.02268   0.02273   0.02279
     Eigenvalues ---    0.02286   0.02287   0.02295   0.02296   0.02421
     Eigenvalues ---    0.02632   0.03173   0.04710   0.04987   0.05289
     Eigenvalues ---    0.05660   0.05947   0.06188   0.06350   0.06718
     Eigenvalues ---    0.06780   0.08418   0.08539   0.09039   0.09886
     Eigenvalues ---    0.11293   0.15999   0.16000   0.16000   0.16000
     Eigenvalues ---    0.20838   0.21684   0.22000   0.22981   0.23995
     Eigenvalues ---    0.24913   0.24976   0.25000   0.25000   0.25000
     Eigenvalues ---    0.27942   0.28234   0.29071   0.32013   0.32574
     Eigenvalues ---    0.34001   0.34130   0.34487   0.34639   0.34757
     Eigenvalues ---    0.34765   0.35078   0.35115   0.35932   0.36004
     Eigenvalues ---    0.36005   0.36150   0.36152   0.37125   0.43513
     Eigenvalues ---    0.43542   0.47683   0.47818   0.48177   0.48476
     Eigenvalues ---    0.56133   0.96968
 RFO step:  Lambda=-4.83037793D-03 EMin= 6.04118689D-03
 Linear search not attempted -- first point.
 Iteration  1 RMS(Cart)=  0.04079828 RMS(Int)=  0.00015826
 Iteration  2 RMS(Cart)=  0.00048441 RMS(Int)=  0.00002298
 Iteration  3 RMS(Cart)=  0.00000011 RMS(Int)=  0.00002298
 ITry= 1 IFail=0 DXMaxC= 1.55D-01 DCOld= 1.00D+10 DXMaxT= 3.00D-01 DXLimC= 3.00D+00 Rises=F
 Variable       Old X    -DE/DX   Delta X   Delta X   Delta X     New X
                                 (Linear)    (Quad)   (Total)
    R1        2.29878   0.02011   0.00000   0.02064   0.02064   2.31942
    R2        2.84121   0.00559   0.00000   0.01719   0.01719   2.85840
    R3        2.54139   0.01712   0.00000   0.03023   0.03023   2.57162
    R4        2.62440   0.00893   0.00000   0.01851   0.01851   2.64290
    R5        2.62459   0.00890   0.00000   0.01846   0.01846   2.64305
    R6        2.61440   0.01033   0.00000   0.02110   0.02110   2.63550
    R7        2.04075   0.00408   0.00000   0.01118   0.01118   2.05193
    R8        2.61836   0.00928   0.00000   0.01920   0.01920   2.63755
    R9        2.03845   0.00388   0.00000   0.01060   0.01060   2.04905
   R10        3.26805   0.01339   0.00000   0.04050   0.04050   3.30855
   R11        2.61859   0.00936   0.00000   0.01935   0.01935   2.63794
   R12        2.61431   0.01025   0.00000   0.02094   0.02094   2.63525
   R13        2.03848   0.00387   0.00000   0.01057   0.01057   2.04905
   R14        2.04074   0.00407   0.00000   0.01115   0.01115   2.05189
   R15        2.74094   0.01397   0.00000   0.03834   0.03834   2.77927
   R16        2.74732   0.00934   0.00000   0.02666   0.02666   2.77398
   R17        2.88894   0.00453   0.00000   0.01355   0.01355   2.90249
   R18        2.06517   0.00019   0.00000   0.00053   0.00053   2.06570
   R19        2.07328   0.00079   0.00000   0.00228   0.00228   2.07556
   R20        2.88771   0.00728   0.00000   0.02209   0.02210   2.90981
   R21        2.05548   0.00320   0.00000   0.00900   0.00900   2.06449
   R22        2.06059   0.00321   0.00000   0.00912   0.00912   2.06971
   R23        2.88066   0.00536   0.00000   0.01590   0.01589   2.89655
   R24        2.06071   0.00325   0.00000   0.00921   0.00921   2.06992
   R25        2.05488   0.00340   0.00000   0.00955   0.00955   2.06442
   R26        2.06264   0.00063   0.00000   0.00180   0.00180   2.06444
   R27        2.07112   0.00149   0.00000   0.00430   0.00430   2.07542
    A1        2.14102  -0.00461   0.00000  -0.01810  -0.01810   2.12292
    A2        2.14433  -0.00072   0.00000  -0.00283  -0.00283   2.14150
    A3        1.99784   0.00533   0.00000   0.02092   0.02092   2.01876
    A4        2.09596   0.00080   0.00000   0.00342   0.00342   2.09938
    A5        2.09988   0.00033   0.00000   0.00156   0.00156   2.10144
    A6        2.08652  -0.00113   0.00000  -0.00486  -0.00486   2.08165
    A7        2.10245   0.00086   0.00000   0.00350   0.00350   2.10595
    A8        2.09033  -0.00029   0.00000  -0.00088  -0.00088   2.08946
    A9        2.09035  -0.00057   0.00000  -0.00259  -0.00259   2.08776
   A10        2.08212  -0.00004   0.00000  -0.00013  -0.00013   2.08200
   A11        2.10542   0.00042   0.00000   0.00247   0.00247   2.10788
   A12        2.09564  -0.00038   0.00000  -0.00234  -0.00234   2.09330
   A13        2.08626   0.00028   0.00000   0.00101   0.00101   2.08726
   A14        2.11068  -0.00054   0.00000  -0.00191  -0.00191   2.10877
   A15        2.08624   0.00026   0.00000   0.00091   0.00091   2.08715
   A16        2.08228  -0.00001   0.00000  -0.00002  -0.00002   2.08226
   A17        2.09557  -0.00039   0.00000  -0.00237  -0.00237   2.09321
   A18        2.10532   0.00040   0.00000   0.00239   0.00239   2.10771
   A19        2.10223   0.00085   0.00000   0.00345   0.00344   2.10568
   A20        2.08965  -0.00024   0.00000  -0.00059  -0.00059   2.08906
   A21        2.09128  -0.00061   0.00000  -0.00284  -0.00284   2.08844
   A22        2.20319   0.00262   0.00000   0.00814   0.00815   2.21134
   A23        2.12222  -0.00377   0.00000  -0.01704  -0.01703   2.10519
   A24        1.95614   0.00114   0.00000   0.00883   0.00881   1.96495
   A25        1.81128  -0.00257   0.00000  -0.00973  -0.00972   1.80156
   A26        1.93903   0.00171   0.00000   0.01099   0.01097   1.95001
   A27        1.92419   0.00135   0.00000   0.01501   0.01500   1.93919
   A28        1.96651   0.00072   0.00000   0.00059   0.00060   1.96711
   A29        1.93617   0.00029   0.00000  -0.00102  -0.00097   1.93520
   A30        1.88662  -0.00140   0.00000  -0.01453  -0.01461   1.87201
   A31        1.79520   0.00162   0.00000   0.00623   0.00624   1.80144
   A32        1.95879  -0.00138   0.00000  -0.00116  -0.00123   1.95756
   A33        1.92025   0.00024   0.00000  -0.00301  -0.00306   1.91719
   A34        1.97247   0.00075   0.00000   0.01084   0.01081   1.98328
   A35        1.91787  -0.00075   0.00000   0.00008   0.00010   1.91797
   A36        1.89754  -0.00041   0.00000  -0.01213  -0.01213   1.88541
   A37        1.78730   0.00239   0.00000   0.01033   0.01030   1.79760
   A38        1.92103  -0.00090   0.00000  -0.00168  -0.00164   1.91939
   A39        1.96927   0.00029   0.00000   0.00875   0.00868   1.97795
   A40        1.92396  -0.00006   0.00000  -0.00470  -0.00474   1.91922
   A41        1.96166  -0.00136   0.00000   0.00092   0.00081   1.96247
   A42        1.89877  -0.00027   0.00000  -0.01253  -0.01253   1.88624
   A43        1.81061  -0.00224   0.00000  -0.00854  -0.00856   1.80205
   A44        1.91537   0.00126   0.00000   0.00831   0.00831   1.92368
   A45        1.91503   0.00108   0.00000   0.01049   0.01051   1.92555
   A46        1.99032   0.00118   0.00000   0.00619   0.00621   1.99653
   A47        1.94420   0.00022   0.00000  -0.00050  -0.00046   1.94374
   A48        1.88691  -0.00140   0.00000  -0.01456  -0.01458   1.87233
    D1        1.56730   0.00017   0.00000   0.01506   0.01508   1.58237
    D2       -1.53041   0.00013   0.00000   0.01199   0.01199  -1.51842
    D3       -1.57392   0.00023   0.00000   0.01779   0.01779  -1.55613
    D4        1.61155   0.00018   0.00000   0.01471   0.01470   1.62626
    D5       -3.11061  -0.00007   0.00000  -0.00198  -0.00197  -3.11258
    D6       -0.03545  -0.00010   0.00000  -0.00318  -0.00317  -0.03863
    D7        0.03061  -0.00013   0.00000  -0.00472  -0.00472   0.02589
    D8        3.10577  -0.00016   0.00000  -0.00591  -0.00592   3.09984
    D9       -3.10914  -0.00002   0.00000  -0.00099  -0.00099  -3.11012
   D10        0.02213   0.00009   0.00000   0.00307   0.00307   0.02520
   D11       -0.01109   0.00006   0.00000   0.00223   0.00222  -0.00887
   D12        3.12017   0.00017   0.00000   0.00629   0.00628   3.12645
   D13        3.11075   0.00002   0.00000   0.00055   0.00055   3.11130
   D14       -0.02418  -0.00003   0.00000  -0.00129  -0.00130  -0.02548
   D15        0.01281  -0.00007   0.00000  -0.00272  -0.00272   0.01009
   D16       -3.12213  -0.00013   0.00000  -0.00456  -0.00456  -3.12668
   D17        0.00110  -0.00000   0.00000  -0.00025  -0.00026   0.00085
   D18        3.13898   0.00004   0.00000   0.00140   0.00140   3.14038
   D19       -3.13016  -0.00012   0.00000  -0.00432  -0.00432  -3.13448
   D20        0.00772  -0.00007   0.00000  -0.00267  -0.00267   0.00505
   D21       -3.13677   0.00002   0.00000   0.00075   0.00075  -3.13601
   D22        0.00736  -0.00003   0.00000  -0.00123  -0.00123   0.00613
   D23        0.00852  -0.00002   0.00000  -0.00090  -0.00089   0.00762
   D24       -3.13054  -0.00008   0.00000  -0.00288  -0.00288  -3.13342
   D25       -0.00568   0.00002   0.00000   0.00074   0.00074  -0.00493
   D26        3.13173   0.00005   0.00000   0.00206   0.00206   3.13379
   D27        3.13846  -0.00004   0.00000  -0.00124  -0.00124   3.13721
   D28       -0.00733   0.00000   0.00000   0.00008   0.00008  -0.00725
   D29       -0.00450   0.00003   0.00000   0.00122   0.00123  -0.00327
   D30        3.13043   0.00009   0.00000   0.00308   0.00308   3.13351
   D31        3.14130  -0.00000   0.00000  -0.00009  -0.00009   3.14121
[...]
 Alpha virt. eigenvalues --    0.70768   0.71596   0.72446   0.72836   0.73209
 Alpha virt. eigenvalues --    0.74093   0.75970   0.76356   0.76856   0.78203
 Alpha virt. eigenvalues --    0.80008   0.81176   0.81663   0.83391   0.84672
 Alpha virt. eigenvalues --    0.85968   0.87075   0.89165   0.89622   0.90992
 Alpha virt. eigenvalues --    0.91604   0.92818   0.93111   0.94540   0.95695
 Alpha virt. eigenvalues --    0.96188   0.97799   0.98687   1.01065   1.02645
 Alpha virt. eigenvalues --    1.02841   1.03451   1.04035   1.05206   1.05873
 Alpha virt. eigenvalues --    1.06413   1.08244   1.10850   1.11990   1.12938
 Alpha virt. eigenvalues --    1.15137   1.15797   1.16120   1.17926   1.18739
 Alpha virt. eigenvalues --    1.20096   1.20753   1.21512   1.23531   1.24858
 Alpha virt. eigenvalues --    1.25812   1.26370   1.27856   1.28240   1.29331
 Alpha virt. eigenvalues --    1.30354   1.31911   1.34204   1.34845   1.35072
 Alpha virt. eigenvalues --    1.35905   1.38283   1.41910   1.42829   1.47047
 Alpha virt. eigenvalues --    1.47597   1.49551   1.49974   1.51771   1.53641
 Alpha virt. eigenvalues --    1.54052   1.54480   1.56134   1.57019   1.57723
 Alpha virt. eigenvalues --    1.58992   1.60368   1.60643   1.61598   1.62623
 Alpha virt. eigenvalues --    1.63677   1.64888   1.65977   1.67550   1.68161
 Alpha virt. eigenvalues --    1.68786   1.69501   1.71171   1.71987   1.73816
 Alpha virt. eigenvalues --    1.75367   1.76173   1.77222   1.78245   1.79203
 Alpha virt. eigenvalues --    1.81694   1.83040   1.83397   1.84037   1.84669
 Alpha virt. eigenvalues --    1.84915   1.86282   1.87396   1.88724   1.89632
 Alpha virt. eigenvalues --    1.89840   1.91131   1.93048   1.93514   1.94264
 Alpha virt. eigenvalues --    1.95055   1.97953   2.00355   2.01061   2.01956
 Alpha virt. eigenvalues --    2.03172   2.04135   2.05222   2.05812   2.06806
 Alpha virt. eigenvalues --    2.08939   2.10817   2.12133   2.12464   2.12499
 Alpha virt. eigenvalues --    2.13613   2.17440   2.18070   2.19002   2.20381
 Alpha virt. eigenvalues --    2.21005   2.21964   2.22062   2.23686   2.24512
 Alpha virt. eigenvalues --    2.26054   2.26763   2.27281   2.29093   2.29311
 Alpha virt. eigenvalues --    2.30752   2.31500   2.32437   2.36443   2.36655
 Alpha virt. eigenvalues --    2.38205   2.41130   2.42073   2.43226   2.43594
 Alpha virt. eigenvalues --    2.45256   2.45978   2.48803   2.49839   2.50114
 Alpha virt. eigenvalues --    2.51447   2.52764   2.54516   2.56424   2.56875
 Alpha virt. eigenvalues --    2.58705   2.60183   2.60884   2.62097   2.62448
 Alpha virt. eigenvalues --    2.62722   2.63800   2.64067   2.64979   2.66870
 Alpha virt. eigenvalues --    2.67197   2.67980   2.70255   2.70967   2.71027
 Alpha virt. eigenvalues --    2.72937   2.74156   2.74325   2.75695   2.76190
 Alpha virt. eigenvalues --    2.77912   2.79604   2.79976   2.80608   2.82561
 Alpha virt. eigenvalues --    2.83904   2.84412   2.85034   2.86742   2.88826
 Alpha virt. eigenvalues --    2.90130   2.91353   2.92285   2.93668   2.93927
 Alpha virt. eigenvalues --    2.95227   2.98514   2.99057   2.99299   3.00823
 Alpha virt. eigenvalues --    3.02183   3.04430   3.05374   3.06679   3.07665
 Alpha virt. eigenvalues --    3.08729   3.09357   3.10751   3.11761   3.12910
 Alpha virt. eigenvalues --    3.14170   3.15254   3.16214   3.16546   3.16866
 Alpha virt. eigenvalues --    3.18385   3.19059   3.20014   3.20588   3.21317
 Alpha virt. eigenvalues --    3.22478   3.23962   3.25052   3.26542   3.27366
 Alpha virt. eigenvalues --    3.28034   3.28706   3.30126   3.31510   3.32187
 Alpha virt. eigenvalues --    3.33018   3.35022   3.35761   3.36596   3.37122
 Alpha virt. eigenvalues --    3.38086   3.39474   3.40217   3.40901   3.41927
 Alpha virt. eigenvalues --    3.42451   3.43056   3.43620   3.45085   3.46119
 Alpha virt. eigenvalues --    3.47306   3.48143   3.50032   3.51616   3.52390
 Alpha virt. eigenvalues --    3.53404   3.53984   3.56070   3.56581   3.59892
 Alpha virt. eigenvalues --    3.61417   3.62163   3.62939   3.64398   3.65406
 Alpha virt. eigenvalues --    3.66180   3.71490   3.73722   3.75466   3.76361
 Alpha virt. eigenvalues --    3.78251   3.78453   3.79298   3.83248   3.86094
 Alpha virt. eigenvalues --    3.88744   3.89407   3.91140   3.91876   3.93473
 Alpha virt. eigenvalues --    3.96077   3.98034   3.99742   4.00251   4.03301
 Alpha virt. eigenvalues --    4.03982   4.04785   4.08264   4.09061   4.10425
 Alpha virt. eigenvalues --    4.12658   4.14366   4.15985   4.16163   4.17729
 Alpha virt. eigenvalues --    4.19183   4.19832   4.21660   4.24047   4.25392
 Alpha virt. eigenvalues --    4.28342   4.29682   4.30876   4.34570   4.35989
 Alpha virt. eigenvalues --    4.36910   4.38873   4.44666   4.46223   4.48015
 Alpha virt. eigenvalues --    4.49075   4.52334   4.55840   4.59501   4.60164
 Alpha virt. eigenvalues --    4.63273   4.64508   4.70280   4.75722   4.79752
 Alpha virt. eigenvalues --    4.80495   4.82930   4.84308   4.87797   4.91258
 Alpha virt. eigenvalues --    4.93681   4.95897   5.01424   5.06163   5.13698
 Alpha virt. eigenvalues --    5.17915   5.18149   5.20925   5.24740   5.27956
 Alpha virt. eigenvalues --    5.31298   5.32698   5.34764   5.38301   5.42234
 Alpha virt. eigenvalues --    5.49676   5.53220   5.61588   5.69548   5.76726
 Alpha virt. eigenvalues --    5.79664   5.97408   6.14206   6.33470   6.44040
 Alpha virt. eigenvalues --    6.60690   6.72397   6.84835   7.08012   7.12298
 Alpha virt. eigenvalues --   10.81363  10.88666  11.39730  22.09769  22.47141
 Alpha virt. eigenvalues --   22.56901  22.62279  22.67515  22.69670  22.74442
 Alpha virt. eigenvalues --   22.82127  22.87066  23.26209  23.56109  25.95394
 Alpha virt. eigenvalues --   33.08021  44.11935
          Condensed to atoms (all electrons):
               1          2          3          4          5          6
     1  O    7.960030   0.670024  -0.145173   0.001366  -0.000595   0.000342
     2  C    0.670024   4.617254   0.263022  -0.062603   0.012313  -0.006781
     3  C   -0.145173   0.263022   5.630714   0.279685   0.002593  -0.136240
     4  C    0.001366  -0.062603   0.279685   5.174827   0.389056   0.067550
     5  C   -0.000595   0.012313   0.002593   0.389056   5.109785   0.348517
     6  C    0.000342  -0.006781  -0.136240   0.067550   0.348517   5.022039
     7  Cl  -0.000000  -0.000131  -0.004209   0.015429  -0.057532   0.303849
     8  C   -0.000394   0.009435   0.058662  -0.135677   0.081262   0.334781
     9  C    0.028509  -0.059457   0.197302   0.090691  -0.120217   0.068456
    10  N   -0.123204   0.412747  -0.145246   0.026214   0.001160   0.000171
    11  C    0.002352  -0.050937   0.020360  -0.013078  -0.001630   0.000030
    12  C   -0.000804   0.002808  -0.001259   0.003119   0.000018  -0.000009
    13  C    0.006154   0.007677   0.004318  -0.000470   0.000015   0.000003
    14  C   -0.001186  -0.066600   0.005828  -0.000484  -0.000072  -0.000000
    15  H   -0.000310  -0.000891  -0.047839   0.401231  -0.013958   0.003748
    16  H    0.000006   0.000273   0.010587  -0.034765   0.420148  -0.051303
    17  H   -0.000088   0.000304   0.011100  -0.004532   0.012568  -0.053730
    18  H    0.015951  -0.002309  -0.060074   0.012375  -0.002019   0.007444
    19  H    0.000906  -0.013147  -0.010844  -0.001158  -0.003031   0.001023
    20  H   -0.000242   0.002903   0.006074  -0.006629   0.001022  -0.000265
    21  H    0.000015   0.000268   0.000001  -0.000086   0.000000  -0.000000
    22  H   -0.000176   0.000285   0.000483  -0.000234   0.000008  -0.000004
    23  H   -0.000125  -0.000352  -0.000184   0.000012  -0.000001   0.000000
    24  H    0.000031  -0.000171   0.000005   0.000010  -0.000000   0.000000
    25  H    0.001141  -0.002625   0.001824  -0.000699   0.000002  -0.000005
    26  H    0.010669  -0.013964  -0.002580   0.000676  -0.000001   0.000008
               7          8          9         10         11         12
     1  O   -0.000000  -0.000394   0.028509  -0.123204   0.002352  -0.000804
     2  C   -0.000131   0.009435  -0.059457   0.412747  -0.050937   0.002808
     3  C   -0.004209   0.058662   0.197302  -0.145246   0.020360  -0.001259
     4  C    0.015429  -0.135677   0.090691   0.026214  -0.013078   0.003119
     5  C   -0.057532   0.081262  -0.120217   0.001160  -0.001630   0.000018
     6  C    0.303849   0.334781   0.068456   0.000171   0.000030  -0.000009
     7  Cl  16.880331  -0.058460   0.014939  -0.000001   0.000002   0.000000
     8  C   -0.058460   5.126473   0.365166  -0.000860  -0.000253  -0.000017
     9  C    0.014939   0.365166   5.192204   0.013229   0.000586   0.000049
    10  N   -0.000001  -0.000860   0.013229   6.758603   0.224360  -0.051836
    11  C    0.000002  -0.000253   0.000586   0.224360   5.146187   0.257588
    12  C    0.000000  -0.000017   0.000049  -0.051836   0.257588   5.143872
    13  C    0.000000  -0.000007  -0.000077  -0.052124  -0.051676   0.237333
    14  C   -0.000000   0.000027  -0.000183   0.245233  -0.050093  -0.045964
    15  H   -0.000240  -0.001133   0.008573   0.010108  -0.005600   0.000863
    16  H    0.001245   0.012143  -0.004181  -0.000028   0.000120  -0.000001
    17  H    0.000438   0.423686  -0.035285   0.000004   0.000008   0.000000
    18  H   -0.000179  -0.033504   0.420641   0.000876  -0.000266   0.000014
    19  H    0.000003  -0.000869   0.008870  -0.039932   0.423199  -0.025310
    20  H   -0.000000   0.000183  -0.002041  -0.057689   0.425800  -0.029202
    21  H   -0.000000   0.000001  -0.000028   0.005685  -0.041271   0.430267
    22  H    0.000000   0.000005  -0.000097   0.005343  -0.052862   0.439390
    23  H    0.000000  -0.000000   0.000010   0.002097   0.002027  -0.048069
    24  H    0.000000   0.000000  -0.000002   0.004750   0.009588  -0.036961
    25  H   -0.000000   0.000009  -0.000339  -0.038409   0.002028   0.012110
    26  H    0.000000  -0.000015   0.000769  -0.050631   0.006036  -0.006648
              13         14         15         16         17         18
     1  O    0.006154  -0.001186  -0.000310   0.000006  -0.000088   0.015951
     2  C    0.007677  -0.066600  -0.000891   0.000273   0.000304  -0.002309
     3  C    0.004318   0.005828  -0.047839   0.010587   0.011100  -0.060074
     4  C   -0.000470  -0.000484   0.401231  -0.034765  -0.004532   0.012375
     5  C    0.000015  -0.000072  -0.013958   0.420148   0.012568  -0.002019
     6  C    0.000003  -0.000000   0.003748  -0.051303  -0.053730   0.007444
     7  Cl   0.000000  -0.000000  -0.000240   0.001245   0.000438  -0.000179
     8  C   -0.000007   0.000027  -0.001133   0.012143   0.423686  -0.033504
     9  C   -0.000077  -0.000183   0.008573  -0.004181  -0.035285   0.420641
    10  N   -0.052124   0.245233   0.010108  -0.000028   0.000004   0.000876
    11  C   -0.051676  -0.050093  -0.005600   0.000120   0.000008  -0.000266
    12  C    0.237333  -0.045964   0.000863  -0.000001   0.000000   0.000014
    13  C    5.186470   0.252110   0.000175  -0.000001   0.000000  -0.000006
    14  C    0.252110   5.065161   0.000109   0.000001   0.000000  -0.000052
    15  H    0.000175   0.000109   0.462453  -0.003511   0.000037  -0.000000
    16  H   -0.000001   0.000001  -0.003511   0.473156  -0.000002   0.000025
    17  H    0.000000   0.000000   0.000037  -0.000002   0.472056  -0.004343
    18  H   -0.000006  -0.000052  -0.000000   0.000025  -0.004343   0.462951
    19  H    0.010539   0.003242   0.001731  -0.000133  -0.000010   0.000329
    20  H   -0.007280   0.000601  -0.008772   0.000149   0.000000  -0.000051
    21  H   -0.036108   0.006694  -0.000068   0.000000   0.000000  -0.000001
    22  H   -0.047936   0.001189  -0.000072   0.000000   0.000000  -0.000010
    23  H    0.431914  -0.046978   0.000038  -0.000000  -0.000000   0.000000
    24  H    0.430620  -0.041269  -0.000003  -0.000000  -0.000000  -0.000000
    25  H   -0.041659   0.428887  -0.000188   0.000000   0.000000  -0.000045
    26  H   -0.036463   0.436781   0.000118  -0.000000  -0.000000   0.000193
              19         20         21         22         23         24
     1  O    0.000906  -0.000242   0.000015  -0.000176  -0.000125   0.000031
     2  C   -0.013147   0.002903   0.000268   0.000285  -0.000352  -0.000171
     3  C   -0.010844   0.006074   0.000001   0.000483  -0.000184   0.000005
     4  C   -0.001158  -0.006629  -0.000086  -0.000234   0.000012   0.000010
     5  C   -0.003031   0.001022   0.000000   0.000008  -0.000001  -0.000000
     6  C    0.001023  -0.000265  -0.000000  -0.000004   0.000000   0.000000
     7  Cl   0.000003  -0.000000  -0.000000   0.000000   0.000000   0.000000
     8  C   -0.000869   0.000183   0.000001   0.000005  -0.000000   0.000000
     9  C    0.008870  -0.002041  -0.000028  -0.000097   0.000010  -0.000002
    10  N   -0.039932  -0.057689   0.005685   0.005343   0.002097   0.004750
    11  C    0.423199   0.425800  -0.041271  -0.052862   0.002027   0.009588
    12  C   -0.025310  -0.029202   0.430267   0.439390  -0.048069  -0.036961
    13  C    0.010539  -0.007280  -0.036108  -0.047936   0.431914   0.430620
    14  C    0.003242   0.000601   0.006694   0.001189  -0.046978  -0.041269
    15  H    0.001731  -0.008772  -0.000068  -0.000072   0.000038  -0.000003
    16  H   -0.000133   0.000149   0.000000   0.000000  -0.000000  -0.000000
    17  H   -0.000010   0.000000   0.000000   0.000000  -0.000000  -0.000000
    18  H    0.000329  -0.000051  -0.000001  -0.000010   0.000000  -0.000000
    19  H    0.511386  -0.045061  -0.000979  -0.008572   0.000029  -0.000158
    20  H   -0.045061   0.563971  -0.002690   0.006465  -0.000391  -0.000092
    21  H   -0.000979  -0.002690   0.507019  -0.017315  -0.005223  -0.000884
    22  H   -0.008572   0.006465  -0.017315   0.517028   0.005434  -0.004696
    23  H    0.000029  -0.000391  -0.005223   0.005434   0.527371  -0.019533
    24  H   -0.000158  -0.000092  -0.000884  -0.004696  -0.019533   0.507475
    25  H   -0.000676   0.001684  -0.000046   0.000083  -0.007661   0.000748
    26  H    0.001502  -0.001586  -0.000471  -0.000638   0.005399  -0.004581
              25         26
     1  O    0.001141   0.010669
     2  C   -0.002625  -0.013964
     3  C    0.001824  -0.002580
     4  C   -0.000699   0.000676
     5  C    0.000002  -0.000001
     6  C   -0.000005   0.000008
     7  Cl  -0.000000   0.000000
     8  C    0.000009  -0.000015
     9  C   -0.000339   0.000769
    10  N   -0.038409  -0.050631
    11  C    0.002028   0.006036
    12  C    0.012110  -0.006648
    13  C   -0.041659  -0.036463
    14  C    0.428887   0.436781
    15  H   -0.000188   0.000118
    16  H    0.000000  -0.000000
    17  H    0.000000  -0.000000
    18  H   -0.000045   0.000193
    19  H   -0.000676   0.001502
    20  H    0.001684  -0.001586
    21  H   -0.000046  -0.000471
    22  H    0.000083  -0.000638
    23  H   -0.007661   0.005399
    24  H    0.000748  -0.004581
    25  H    0.524094  -0.036371
    26  H   -0.036371   0.529308
 Mulliken charges:
               1
     1  O   -0.425199
     2  C    0.280654
     3  C    0.061090
     4  C   -0.201827
     5  C   -0.179410
     6  C    0.090374
     7  Cl  -0.095484
     8  C   -0.180644
     9  C   -0.188087
    10  N   -0.150619
    11  C   -0.252604
    12  C   -0.281351
    13  C   -0.293522
    14  C   -0.192982
    15  H    0.193401
    16  H    0.176074
    17  H    0.177789
    18  H    0.182061
    19  H    0.187119
    20  H    0.153137
    21  H    0.155220
    22  H    0.156899
    23  H    0.154185
    24  H    0.155122
    25  H    0.156113
    26  H    0.162492
 Sum of Mulliken charges =  -0.00000
 Mulliken charges with hydrogens summed into heavy atoms:
               1
     1  O   -0.425199
     2  C    0.280654
     3  C    0.061090
     4  C   -0.008426
     5  C   -0.003337
     6  C    0.090374
     7  Cl  -0.095484
     8  C   -0.002856
     9  C   -0.006026
    10  N   -0.150619
    11  C    0.087652
    12  C    0.030767
    13  C    0.015786
    14  C    0.125624
 Electronic spatial extent (au):  <R**2>=           4266.4015
 Charge=             -0.0000 electrons
 Dipole moment (field-independent basis, Debye):
    X=             -2.5746    Y=             -3.9604    Z=             -0.7231  Tot=              4.7787
 Quadrupole moment (field-independent basis, Debye-Ang):
   XX=            -85.9461   YY=            -94.0829   ZZ=            -88.4130
   XY=              9.2532   XZ=              0.5926   YZ=             -5.3515
 Traceless Quadrupole moment (field-independent basis, Debye-Ang):
   XX=              3.5345   YY=             -4.6022   ZZ=              1.0677
   XY=              9.2532   XZ=              0.5926   YZ=             -5.3515
 Octapole moment (field-independent basis, Debye-Ang**2):
  XXX=            -74.5139  YYY=            -25.5760  ZZZ=              0.2865  XYY=             15.8458
  XXY=             -3.4681  XXZ=             -5.9426  XZZ=             -2.7083  YZZ=             -0.2504
  YYZ=             -4.9708  XYZ=             -6.7942
 Hexadecapole moment (field-independent basis, Debye-Ang**3):
 XXXX=          -4615.2260 YYYY=           -787.3205 ZZZZ=           -253.2716 XXXY=             19.8392
 XXXZ=             -5.8437 YYYX=             37.1960 YYYZ=            -26.7721 ZZZX=             -5.3451
 ZZZY=             -3.7766 XXYY=           -895.4122 XXZZ=           -814.4140 YYZZ=           -156.6974
 XXYZ=            -20.3950 YYXZ=              0.2864 ZZXY=             -4.7524
 N-N= 9.361299380440D+02 E-N=-4.260563451341D+03  KE= 1.013142860741D+03
 Calculating spin-rotation constants.
 Leave Link  601 at Tue Sep 17 11:15:48 2024, MaxMem=  1342177280 cpu:               6.4 elap:               6.5
 (Enter /groups/ReismanLab/Software/Gaussian16_RevC/Linux_Binary_AVX2-enabled-CPU/g16/l9999.exe)
 Unable to Open any file for archive entry.
 1\1\GINC-HPC-35-38\SP\RM062X\def2TZVP\C11H12Cl1N1O1\MANTIND\17-Sep-202
 4\0\\#p M062X/def2tzvp geom=check guess=read scf(xqc,tight) integral(g
 rid=ultrafine) scrf(SMD, solvent=1,4-Dioxane) nmr=giao\\spe\\0,1\O,0,-
 1.6311616835,2.186099516,-0.1260803272\C,0,-1.3162165255,1.0026457356,
 0.0013498348\C,0,0.1289912326,0.5965006508,-0.0135516889\C,0,0.6568142
 191,-0.4131800968,0.7989483806\C,0,2.0207788179,-0.6981133885,0.786103
 0068\C,0,2.8558291099,0.032634773,-0.0561692513\Cl,0,4.5734769252,-0.3
 312773235,-0.0914028958\C,0,2.3559318929,1.0538575148,-0.8643887516\C,
 0,0.9952277522,1.3380290775,-0.8263101613\N,0,-2.2650845971,0.03255448
 92,0.1719529693\C,0,-2.1193242094,-1.4092076041,-0.0903937231\C,0,-3.4
 778683493,-1.7994082732,-0.6850130157\C,0,-4.4491953585,-0.8755613923,
 0.0638617011\C,0,-3.6791377671,0.4476478843,0.143284513\H,0,0.00938227
 64,-0.9672315722,1.4689933831\H,0,2.4338237408,-1.4712659577,1.4233444
 523\H,0,3.0260131883,1.6175816009,-1.5029080829\H,0,0.582577335,2.1466
 202314,-1.4189574251\H,0,-1.2796791363,-1.6024308912,-0.7604517598\H,0
 ,-1.9407988101,-1.9618856034,0.841844006\H,0,-3.6985307753,-2.86231365
 65,-0.5586623835\H,0,-3.4924473001,-1.5730579775,-1.7568902174\H,0,-4.
 6378882806,-1.2678509014,1.0695032652\H,0,-5.4134033052,-0.7632610115,
 -0.4373858322\H,0,-3.9213606739,1.0436024797,1.0272102729\H,0,-3.85238
 77201,1.0837408487,-0.7321494376\\Version=ES64L-G16RevC.02\State=1-A\H
 F=-1016.5715784\RMSD=3.171e-09\Dipole=-0.9228783,-1.6376761,-0.0329606
 \Quadrupole=1.835909,-3.7648967,1.9289877,7.2118857,-0.4715113,-3.1791
 47\PG=C01 [X(C11H12Cl1N1O1)]\\@
 The archive entry for this job was punched.


 TIMES HAVE CHANGED. IN THE BIBLE WHEN AN ASS
 SPOKE IT WAS CONSIDERED A MIRACLE.
 Job cpu time:       0 days  0 hours 19 minutes 44.5 seconds.
 Elapsed time:       0 days  0 hours 19 minutes 53.2 seconds.
 File lengths (MBytes):  RWF=    344 Int=      0 D2E=      0 Chk=     32 Scr=     16
 Normal termination of Gaussian 16 at Tue Sep 17 11:15:48 2024.
